Membrane in water
40167
    1TCq1    O1    1   1.577   1.451  10.854  0.2139 -0.1678  0.3156
    1TCq1    C1    2   1.657   1.422  10.955 -0.1566  0.2321 -0.2994
    1TCq1    O2    3   1.780   1.426  10.951 -0.2926 -0.1162 -0.9137
    1TCq1    C2    4   1.593   1.305  11.022 -1.5276  0.1074  0.3765
    1TCq1    C3    5   1.462   1.306  11.052 -0.2414 -0.7575 -0.0131
    1TCq1    C4    6   1.415   1.217  11.148  0.3666 -0.4452 -0.8068
    1TCq1    C5    7   1.500   1.133  11.220  0.2769 -0.5679  0.0196
    1TCq1    C6    8   1.633   1.137  11.187  0.1035  0.1628 -0.1101
    1TCq1    C7    9   1.683   1.227  11.096 -0.4884  0.4863  0.0055
    1TCq1    C8   10   1.729   1.043  11.255 -0.5813  0.3682 -0.1132
    1TCq1    O4   11   1.713   1.022  11.375  0.2789  0.2801 -0.2804
    1TCq1    C9   12   1.272   1.195  11.171  0.6911 -0.1157 -0.6987
    1TCq1    O5   13   1.195   1.255  11.088 -0.1613  0.3118 -0.0662
    1TCq1    O6   14   1.237   1.097  11.240 -0.1668 -0.0830 -0.1879
    1TCq1    H1   15   1.484   1.460  10.883 -0.8891 -2.0433 -2.6104
    1TCq1    H2   16   1.389   1.371  11.005  1.1756  1.2187  0.5641
    1TCq1    H3   17   1.461   1.055  11.284  0.4990 -0.7382 -0.0502
    1TCq1    H4   18   1.789   1.221  11.073  0.1918 -0.0323  3.3133
    2MPD2     C   19   2.075   0.661  11.263 -0.1232 -0.0270  0.2359
    2MPD2    C1   20   1.988   0.707  11.362 -0.4421  0.5007  1.0313
    2MPD2    C2   21   1.898   0.809  11.329  0.5111  0.1021 -0.0548
    2MPD2    C3   22   1.898   0.871  11.203 -0.1171 -0.1358 -0.0693
    2MPD2    C4   23   1.986   0.829  11.107 -0.3059  0.6314 -0.5750
    2MPD2    C5   24   2.071   0.722  11.135  0.5200 -0.1406  0.3304
    2MPD2     H   25   1.836   0.832  11.415 -0.7325  0.3336 -1.0076
    2MPD2    H1   26   1.995   0.864  11.005 -0.5220  3.1299  0.2675
    2MPD2    H2   27   2.145   0.579  11.271 -0.6741 -0.3116  1.9917
    2MPD2    H3   28   2.139   0.689  11.057  0.8993 -1.5773  1.2849
    2MPD2     N   29   1.807   0.974  11.166  0.0522  0.3055  0.0669
    2MPD2    H5   30   1.825   1.013  11.074 -0.1077 -1.2159 -0.6073
    2MPD2    N1   31   1.994   0.677  11.499 -0.4843  0.1153 -0.4685
    2MPD2    H7   32   1.942   0.746  11.553 -0.1039 -1.0946  1.4359
    3TCq1    O1   33   2.174   2.674  11.348 -0.2718  0.1420  0.2911
    3TCq1    C1   34   2.105   2.715  11.457 -0.5358 -0.3424  0.0960
    3TCq1    O2   35   2.143   2.700  11.572 -0.0052  0.1131  0.0565
    3TCq1    C2   36   2.001   2.809  11.419  0.1563  0.2897  0.2642
    3TCq1    C3   37   1.950   2.808  11.293 -0.2281  0.4544  0.0552
    3TCq1    C4   38   1.836   2.871  11.274  0.2145  0.1699  0.6342
    3TCq1    C5   39   1.786   2.959  11.362 -0.1388 -0.1374 -0.3086
    3TCq1    C6   40   1.836   2.957  11.491  0.0174 -1.0711 -0.3241
    3TCq1    C7   41   1.948   2.892  11.521 -0.7715  1.3530 -0.1620
    3TCq1    C8   42   1.752   2.995  11.605  0.4428 -0.2375 -0.1957
    3TCq1    O4   43   1.810   3.000  11.712  0.0053  0.0775  0.4667
    3TCq1    C9   44   1.772   2.875  11.147 -0.7326  0.2404  0.8882
    3TCq1    O5   45   1.842   2.838  11.045  0.6929  0.1231  0.0345
    3TCq1    O6   46   1.647   2.895  11.137 -0.3858 -0.0312 -0.6957
    3TCq1    H1   47   2.154   2.729  11.269  0.7893 -1.2366 -0.9542
    3TCq1    H2   48   1.981   2.750  11.206  0.2194 -1.5848  1.5647
    3TCq1    H3   49   1.703   3.021  11.328 -0.2447  0.1919  0.5474
    3TCq1    H4   50   1.992   2.898  11.620 -0.1781  0.0054 -0.3435
    4MPD2     C   51   1.296   3.008  11.832  0.1201  0.5273  0.0911
    4MPD2    C1   52   1.281   3.057  11.706  0.0791 -0.2950  0.4912
    4MPD2    C2   53   1.384   3.052  11.624 -0.3958 -0.1001  0.3897
    4MPD2    C3   54   1.515   3.020  11.671 -1.2771  0.4451  0.1764
    4MPD2    C4   55   1.530   2.980  11.803 -0.0882 -0.4208 -0.9248
    4MPD2    C5   56   1.418   2.971  11.883  0.0275  0.4984  0.1489
    4MPD2     H   57   1.372   3.083  11.520  0.2029  0.0792  0.3736
    4MPD2    H1   58   1.624   2.955  11.850 -0.8753  0.3930  1.0408
    4MPD2    H2   59   1.216   3.020  11.903  0.4692 -0.8075  0.7078
    4MPD2    H3   60   1.428   2.952  11.989 -0.5446  0.4035  0.1871
    4MPD2     N   61   1.621   3.025  11.576 -0.4938  0.3573 -0.0176
    4MPD2    H5   62   1.585   3.024  11.481 -0.6514 -0.4580  0.0490
    4MPD2    N1   63   1.165   3.117  11.653 -0.0208  0.0611  0.6264
    4MPD2    H7   64   1.182   3.151  11.558  1.3425  1.3796  1.3260
    5TCq1    O1   65   2.471   4.475  11.434 -0.2650 -0.1484  0.0621
    5TCq1    C1   66   2.537   4.383  11.359  0.6243 -0.2209 -0.5062
    5TCq1    O2   67   2.572   4.392  11.244 -0.0704 -0.5218  0.5446
    5TCq1    C2   68   2.503   4.255  11.423  0.0602  1.0366 -0.3062
    5TCq1    C3   69   2.482   4.251  11.556  0.2020 -0.9776  0.0694
    5TCq1    C4   70   2.401   4.159  11.607 -1.0715  0.4437  0.3499
    5TCq1    C5   71   2.337   4.071  11.528 -0.1837  0.6636  0.1767
    5TCq1    C6   72   2.359   4.078  11.395  0.4534  0.1509  0.2685
    5TCq1    C7   73   2.434   4.176  11.340  0.5742  0.0143  0.5026
    5TCq1    C8   74   2.290   3.972  11.322  0.5055 -0.2476  0.2892
    5TCq1    O4   75   2.244   3.878  11.379  0.4886 -0.1105 -0.0926
    5TCq1    C9   76   2.400   4.140  11.747 -0.9000 -0.2753 -0.7090
    5TCq1    O5   77   2.321   4.051  11.790 -0.7269  0.2885 -0.7672
    5TCq1    O6   78   2.458   4.227  11.813 -0.0346  0.3571 -0.1173
    5TCq1    H1   79   2.417   4.442  11.509  0.1847  1.5746  1.1133
    5TCq1    H2   80   2.532   4.319  11.625  0.2505 -1.0470  0.1017
    5TCq1    H3   81   2.287   3.986  11.572 -0.2904  1.1215  0.9484
    5TCq1    H4   82   2.468   4.171  11.237 -1.0078 -0.2187 -0.0016
    6MPD2     C   83   2.215   3.995  10.962  0.7322 -0.1203  0.1829
    6MPD2    C1   84   2.233   3.933  11.084 -0.4089  0.0114  0.7196
    6MPD2    C2   85   2.162   3.815  11.100  0.3548  0.7861  0.2117
    6MPD2    C3   86   2.079   3.763  11.006 -0.0094 -0.0998 -0.1949
    6MPD2    C4   87   2.069   3.823  10.883  0.9203  0.7079 -0.2373
    6MPD2    C5   88   2.138   3.935  10.861 -1.1008  0.1907 -0.3707
    6MPD2     H   89   2.155   3.766  11.196  1.3752  0.5220  0.1532
    6MPD2    H1   90   2.014   3.778  10.802  0.2152 -1.2583  1.3317
    6MPD2    H2   91   2.242   4.100  10.949 -1.9714  0.6285  0.6233
    6MPD2    H3   92   2.128   3.978  10.762 -0.0854  1.6542  0.1467
    6MPD2     N   93   2.005   3.645  11.034 -0.2043  0.3124 -0.4648
    6MPD2    H5   94   2.028   3.604  11.124  1.1324 -0.2512 -1.0604
    6MPD2    N1   95   2.292   4.001  11.186 -0.0863  0.6805 -0.2123
    6MPD2    H7   96   2.339   4.088  11.164 -0.2515  0.2379 -2.2332
    7TCq1    O1   97   4.098   3.318  13.780  0.2630 -0.3048  0.7976
    7TCq1    C1   98   4.107   3.419  13.692  0.1007 -0.8691 -0.1682
    7TCq1    O2   99   4.125   3.536  13.720 -0.0142  0.1252 -0.4823
    7TCq1    C2  100   4.042   3.378  13.562 -0.0590 -0.0259  0.3299
    7TCq1    C3  101   4.042   3.472  13.462 -0.4646  0.4798 -0.5733
    7TCq1    C4  102   3.990   3.443  13.339  0.2066  0.3972  0.8613
    7TCq1    C5  103   3.933   3.322  13.320 -0.2161 -0.2175 -0.3898
    7TCq1    C6  104   3.936   3.226  13.419  0.1888  0.5243  0.2120
    7TCq1    C7  105   3.989   3.257  13.540 -0.5289  0.3363 -0.2123
    7TCq1    C8  106   3.883   3.093  13.400 -0.3281 -0.8577 -0.4765
    7TCq1    O4  107   3.925   3.002  13.476 -0.4984 -0.1373  0.1174
    7TCq1    C9  108   3.986   3.545  13.238 -0.0548  0.5513 -0.2805
    7TCq1    O5  109   4.045   3.654  13.253  0.3820  0.0003  0.5930
    7TCq1    O6  110   3.953   3.505  13.126 -0.3952  0.1536 -0.4313
    7TCq1    H1  111   4.119   3.232  13.738 -1.5331 -0.8376  0.9688
    7TCq1    H2  112   4.086   3.569  13.481 -0.3165  0.7101 -2.0799
    7TCq1    H3  113   3.893   3.302  13.221 -1.0131  0.6223 -0.2393
    7TCq1    H4  114   3.966   3.197  13.627  0.6716 -0.8852 -0.7348
    8MPD2     C  115   3.645   2.760  13.106 -0.8158  0.3584  0.5254
    8MPD2    C1  116   3.752   2.742  13.183  0.2409  0.7614  0.3406
    8MPD2    C2  117   3.800   2.851  13.257  0.2450 -0.0985 -0.0635
    8MPD2    C3  118   3.739   2.970  13.241  0.3707 -0.5948  0.6141
    8MPD2    C4  119   3.629   2.988  13.150  0.2361 -0.0883 -0.8031
    8MPD2    C5  120   3.580   2.876  13.098  0.1437  0.5326  0.2066
    8MPD2     H  121   3.895   2.852  13.311  0.4192  2.8930 -0.4070
    8MPD2    H1  122   3.578   3.082  13.131 -1.6715 -0.7907  0.7598
    8MPD2    H2  123   3.594   2.677  13.058  1.0167 -0.6411  0.3193
    8MPD2    H3  124   3.491   2.884  13.037 -0.3064 -2.3046  0.4770
    8MPD2     N  125   3.798   3.083  13.294  0.1723 -0.2469 -0.5279
    8MPD2    H5  126   3.753   3.169  13.264 -1.5334 -0.1851  2.2791
    8MPD2    N1  127   3.803   2.610  13.192  0.2931  0.2432 -0.6683
    8MPD2    H7  128   3.747   2.540  13.144 -0.7233 -1.1622  2.5993
    9TCq1    O1  129   0.962   2.361  10.518  0.4287 -0.6891  0.4088
    9TCq1    C1  130   0.887   2.262  10.566 -0.1865  0.1660  0.2160
    9TCq1    O2  131   0.783   2.226  10.522 -0.6388  0.1479  0.2011
    9TCq1    C2  132   0.942   2.239  10.701  0.2741  0.2623  0.3700
    9TCq1    C3  133   0.846   2.223  10.793  0.0240 -0.1998  0.3458
    9TCq1    C4  134   0.893   2.175  10.914  0.2756  0.1427  0.4712
    9TCq1    C5  135   1.026   2.133  10.922 -0.1022  0.2195  0.5647
    9TCq1    C6  136   1.115   2.145  10.815 -0.6431 -0.1498  0.4565
    9TCq1    C7  137   1.071   2.201  10.702  0.2289 -0.5414  0.8355
    9TCq1    C8  138   1.244   2.079  10.811 -0.7264  0.7850  0.3403
    9TCq1    O4  139   1.325   2.114  10.725 -0.2943  0.0573 -0.0307
    9TCq1    C9  140   0.798   2.152  11.018  0.6070  1.0525  0.7647
    9TCq1    O5  141   0.681   2.206  11.016  0.2863  0.3530  1.0669
    9TCq1    O6  142   0.838   2.081  11.112  0.0062 -0.2076 -0.4407
    9TCq1    H1  143   1.038   2.389  10.572 -0.2815  0.3827  0.8439
    9TCq1    H2  144   0.745   2.260  10.778  0.0440  0.3528  1.5175
    9TCq1    H3  145   1.057   2.097  11.020 -0.5305  1.0157  0.9874
    9TCq1    H4  146   1.132   2.182  10.614 -0.2206  0.6026  0.2730
   10MPD2     C  147   1.479   1.895  10.865  0.1482  0.3539 -0.0148
   10MPD2    C1  148   1.369   1.894  10.947 -0.2975  0.0302  0.4286
   10MPD2    C2  149   1.371   1.809  11.050 -0.8205 -0.1570 -0.6994
   10MPD2    C3  150   1.489   1.739  11.090 -0.1617 -0.2468 -0.4043
   10MPD2    C4  151   1.604   1.753  11.011 -0.0753 -0.3165  0.1000
   10MPD2    C5  152   1.596   1.828  10.899  0.3201  0.9921  0.5029
   10MPD2     H  153   1.283   1.793  11.112 -1.2629  2.6870 -0.5926
   10MPD2    H1  154   1.696   1.698  11.032 -0.7756 -0.9454  1.5756
   10MPD2    H2  155   1.495   1.964  10.783  1.5192 -1.3037 -1.1412
   10MPD2    H3  156   1.682   1.832  10.833  0.4043 -0.9899  0.5058
   10MPD2     N  157   1.511   1.658  11.205  0.4986  1.0581  0.1132
   10MPD2    H5  158   1.602   1.614  11.217  0.6514  1.2290 -0.4449
   10MPD2    N1  159   1.257   1.986  10.920  0.1663 -0.4420 -0.4860
   10MPD2    H7  160   1.189   1.981  10.995  1.8307  2.9373  1.2445
   11TCq1    O1  161   3.264   1.156  14.923  0.2513 -0.5456  0.7686
   11TCq1    C1  162   3.171   1.249  14.888  0.6533 -0.2327  0.6339
   11TCq1    O2  163   3.066   1.276  14.944 -0.4114  0.3390  0.0680
   11TCq1    C2  164   3.223   1.339  14.788  0.3795 -0.1396  0.4852
   11TCq1    C3  165   3.349   1.405  14.799  0.5504 -0.1084 -0.4605
   11TCq1    C4  166   3.375   1.512  14.716  0.2324  0.0134  0.2077
   11TCq1    C5  167   3.282   1.551  14.621 -0.1719  0.7574  0.5951
   11TCq1    C6  168   3.159   1.495  14.626  0.0161  0.2496  0.4968
   11TCq1    C7  169   3.123   1.399  14.710 -0.2385 -0.1844 -0.4288
   11TCq1    C8  170   3.052   1.556  14.552  0.3806  0.3048 -0.5234
   11TCq1    O4  171   3.084   1.671  14.520  0.5321  0.2490  0.1286
   11TCq1    C9  172   3.497   1.586  14.738 -0.6965  0.9339 -0.5927
   11TCq1    O5  173   3.541   1.659  14.645 -0.0117 -0.4123 -0.4558
   11TCq1    O6  174   3.543   1.600  14.853  0.6940  0.1858 -0.7712
   11TCq1    H1  175   3.338   1.160  14.859 -0.5490  0.8400 -0.0885
   11TCq1    H2  176   3.430   1.379  14.866  2.8411  1.2390 -2.7201
   11TCq1    H3  177   3.302   1.633  14.553 -0.4297 -0.3701 -0.8568
   11TCq1    H4  178   3.022   1.365  14.728 -0.6681  0.9835 -0.6492
   12MPD2     C  179   2.790   1.653  14.452 -0.0593  0.1011 -0.3931
   12MPD2    C1  180   2.816   1.515  14.465 -1.0769 -0.1754  0.9513
   12MPD2    C2  181   2.726   1.423  14.418 -0.5165 -0.1836 -0.4642
   12MPD2    C3  182   2.606   1.462  14.354  0.9520  0.1204 -0.6901
   12MPD2    C4  183   2.587   1.600  14.335 -0.0594 -0.0771 -0.2763
   12MPD2    C5  184   2.671   1.691  14.398 -1.2900 -0.6513 -0.8759
   12MPD2     H  185   2.765   1.322  14.425 -0.0948 -0.0746 -1.1533
   12MPD2    H1  186   2.500   1.643  14.286 -0.7109 -2.9825 -1.6426
   12MPD2    H2  187   2.847   1.721  14.515 -1.4635 -0.2184  1.2357
   12MPD2    H3  188   2.649   1.797  14.389 -1.8171 -0.6056  1.0366
   12MPD2     N  189   2.515   1.357  14.310 -0.6205  0.1460 -0.7153
   12MPD2    H5  190   2.543   1.261  14.328  2.3918  1.1852  0.1515
   12MPD2    N1  191   2.937   1.482  14.531  0.7220  0.1929 -0.1196
   12MPD2    H7  192   2.953   1.385  14.559  0.1360  0.9077  2.6475
   13TCq1    O1  193   1.119   1.849  10.312  0.2555  0.0134  0.1429
   13TCq1    C1  194   1.120   1.902  10.438 -0.1213  0.7314  0.5191
   13TCq1    O2  195   1.019   1.931  10.495 -0.2115 -0.0269  0.2972
   13TCq1    C2  196   1.213   1.818  10.508 -0.1767  0.3935  0.1282
   13TCq1    C3  197   1.343   1.823  10.470  0.7976 -0.1948  0.9314
   13TCq1    C4  198   1.431   1.739  10.526 -0.1293  0.3379  0.6744
   13TCq1    C5  199   1.387   1.655  10.626 -0.3044  0.8948  0.0933
   13TCq1    C6  200   1.260   1.660  10.667  0.6764 -0.4931  0.2855
   13TCq1    C7  201   1.166   1.738  10.602  0.3533 -0.0969  0.1377
   13TCq1    C8  202   1.222   1.584  10.779  0.0213  0.9444  0.0560
   13TCq1    O4  203   1.306   1.522  10.844 -0.1243 -0.3852 -0.0847
   13TCq1    C9  204   1.571   1.742  10.494 -0.5801 -0.3211  0.9196
   13TCq1    O5  205   1.636   1.639  10.524 -0.2756  0.2394 -0.2668
   13TCq1    O6  206   1.618   1.856  10.470  0.4526  0.3798 -0.9976
   13TCq1    H1  207   1.202   1.809  10.279  0.7201  2.7173 -1.9468
   13TCq1    H2  208   1.370   1.895  10.394  1.7344 -3.0370 -1.4438
   13TCq1    H3  209   1.463   1.598  10.678 -1.8591  0.9631  2.4434
   13TCq1    H4  210   1.067   1.752  10.645 -0.0745  1.3775 -1.2966
   14MPD2     C  211   0.885   1.492  10.890 -0.0557 -0.3984 -0.3580
   14MPD2    C1  212   1.018   1.523  10.913  0.0790 -0.2853 -0.1848
   14MPD2    C2  213   1.068   1.529  11.037 -0.2892 -0.1479 -0.0038
   14MPD2    C3  214   0.982   1.504  11.145 -0.3260  0.1933 -0.0418
   14MPD2    C4  215   0.843   1.488  11.126  0.3016  0.2408  0.4652
   14MPD2    C5  216   0.801   1.471  10.998 -0.1511 -0.0476  1.2368
   14MPD2     H  217   1.171   1.555  11.060 -0.4396  1.0994 -0.7708
   14MPD2    H1  218   0.772   1.470  11.206 -2.4828 -1.9964 -2.4868
   14MPD2    H2  219   0.855   1.483  10.786  0.8856  4.0768 -1.0291
   14MPD2    H3  220   0.700   1.440  10.976  0.1599 -0.4927  0.4517
   14MPD2     N  221   1.030   1.533  11.268 -0.3835  1.2156  0.5884
   14MPD2    H5  222   1.121   1.579  11.267  0.5781 -0.6921  0.1579
   14MPD2    N1  223   1.085   1.570  10.795  0.3920  0.2551  0.1469
   14MPD2    H7  224   1.023   1.585  10.716 -1.2580  0.7824  1.5390
   15TCq1    O1  225   4.158   1.014   1.877 -0.4142  0.2917  0.2270
   15TCq1    C1  226   4.032   0.979   1.836  0.4141 -0.3886  0.2307
   15TCq1    O2  227   3.935   1.056   1.843 -0.0703 -0.1834 -0.0098
   15TCq1    C2  228   4.016   0.832   1.837  0.3363 -0.6081  0.0952
   15TCq1    C3  229   4.093   0.756   1.923 -0.7520  0.0614 -0.5290
   15TCq1    C4  230   4.065   0.625   1.933  0.6201 -0.0961 -0.0694
   15TCq1    C5  231   3.972   0.568   1.861  0.1879  0.1964  0.0356
   15TCq1    C6  232   3.893   0.645   1.776 -0.2567  0.1705  0.1290
   15TCq1    C7  233   3.911   0.778   1.764 -0.3686  0.2077  0.1308
   15TCq1    C8  234   3.800   0.582   1.687 -0.4384 -0.4836 -0.5170
   15TCq1    O4  235   3.708   0.649   1.644  0.1555 -0.2669  0.7551
   15TCq1    C9  236   4.159   0.532   2.009  0.8145 -0.1777 -0.1213
   15TCq1    O5  237   4.240   0.585   2.088 -0.0637  0.9624 -0.1356
   15TCq1    O6  238   4.123   0.414   2.021 -0.1957  0.5379  0.1530
   15TCq1    H1  239   4.228   0.960   1.835 -0.3322  0.2615  0.4015
   15TCq1    H2  240   4.173   0.804   1.978 -2.9478  1.9860  1.0201
   15TCq1    H3  241   3.964   0.460   1.866 -2.1945  0.3746 -0.0852
   15TCq1    H4  242   3.847   0.831   1.694 -1.9282 -1.4301  0.3272
   16MPD2     C  243   3.693   0.404   1.476  0.5101  0.2828  0.1973
   16MPD2    C1  244   3.801   0.367   1.558  0.3492  0.0252  0.1474
   16MPD2    C2  245   3.846   0.236   1.545  0.1475  0.2901 -0.1815
   16MPD2    C3  246   3.779   0.147   1.458 -0.1135 -0.0672 -0.5346
   16MPD2    C4  247   3.680   0.192   1.372  0.5725  0.0488 -0.0924
   16MPD2    C5  248   3.641   0.321   1.381 -0.7748  0.1607 -0.0460
   16MPD2     H  249   3.936   0.203   1.595 -0.6995 -0.8361  0.5869
   16MPD2    H1  250   3.641   0.138   1.286  0.6014  0.6827 -0.5017
   16MPD2    H2  251   3.651   0.503   1.490 -0.2892  0.2149 -1.8112
   16MPD2    H3  252   3.557   0.353   1.321 -2.3380  0.5662  2.3507
   16MPD2     N  253   3.851   0.027   1.435  0.0834  0.1892  0.0598
   16MPD2    H5  254   3.937   0.017   1.488  0.2015 -0.5835 -0.2775
   16MPD2    N1  255   3.857   0.461   1.647 -0.3622  0.0891  0.0595
   16MPD2    H7  256   3.937   0.425   1.697 -0.3025  1.4456  0.9593
   17TCq1    O1  257   1.097   1.247  10.832  0.4563  0.3761 -0.2451
   17TCq1    C1  258   1.176   1.218  10.728 -0.1838 -0.2973  0.8490
   17TCq1    O2  259   1.137   1.247  10.614  0.3182 -0.2653  0.3112
   17TCq1    C2  260   1.304   1.175  10.776 -0.5626  0.3951 -0.2591
   17TCq1    C3  261   1.420   1.215  10.708 -0.3746  0.4552  0.2526
   17TCq1    C4  262   1.534   1.138  10.720  0.1648  0.5007 -0.1671
   17TCq1    C5  263   1.546   1.038  10.807 -0.2538  0.0807 -0.4936
   17TCq1    C6  264   1.432   1.007  10.877  0.1196 -0.8588  0.0488
   17TCq1    C7  265   1.315   1.067  10.860 -0.5315  0.0467  0.3746
   17TCq1    C8  266   1.441   0.907  10.981 -0.1304 -0.3150 -0.4945
   17TCq1    O4  267   1.347   0.891  11.053 -0.1763  0.2431 -0.4850
   17TCq1    C9  268   1.650   1.172  10.637  0.1109 -0.4377  0.1868
   17TCq1    O5  269   1.756   1.104  10.656 -0.1506  0.3941  0.5049
   17TCq1    O6  270   1.639   1.266  10.549  0.0035 -0.3620  0.3699
   17TCq1    H1  271   1.152   1.254  10.912 -0.0618  2.6748 -0.0900
   17TCq1    H2  272   1.422   1.296  10.637  1.3063  0.8499  0.7508
   17TCq1    H3  273   1.641   0.988  10.824  0.3764  0.7910 -1.9002
   17TCq1    H4  274   1.231   1.033  10.920 -1.2117  1.3983  0.1822
   18MPD2     C  275   1.569   0.716  11.200 -0.4632  0.4864  0.0795
   18MPD2    C1  276   1.603   0.729  11.064  0.4784  0.0167  0.1743
   18MPD2    C2  277   1.701   0.651  11.016 -0.0405  0.3151  0.3931
   18MPD2    C3  278   1.769   0.563  11.096 -0.0825 -1.0419 -0.6540
   18MPD2    C4  279   1.730   0.540  11.221 -0.2711 -0.0793  0.3504
   18MPD2    C5  280   1.628   0.614  11.271  0.5705 -0.0791  0.1473
   18MPD2     H  281   1.739   0.678  10.918  0.9854  2.7007  1.4354
   18MPD2    H1  282   1.784   0.472  11.286 -2.8986 -2.9813 -0.5042
   18MPD2    H2  283   1.495   0.778  11.250 -0.3913 -0.0104  0.8020
   18MPD2    H3  284   1.608   0.607  11.377 -1.5471 -2.3440 -0.4044
   18MPD2     N  285   1.872   0.478  11.047  0.4684 -0.0154 -0.4755
   18MPD2    H5  286   1.895   0.395  11.100  1.3110  1.2169  1.0922
   18MPD2    N1  287   1.549   0.819  10.971 -0.5397  0.0995  0.3826
   18MPD2    H7  288   1.590   0.816  10.878 -2.4994 -2.7693 -0.3883
   19TMC2    C1  289   3.770   1.460  13.827 -0.3925  0.0817  0.4273
   19TMC2    C2  290   3.721   1.583  13.788  0.8355  0.3689 -0.4637
   19TMC2    C3  291   3.591   1.591  13.754  0.0761  0.2451  0.3646
   19TMC2    C4  292   3.695   1.348  13.823 -0.3759 -0.0571  0.4766
   19TMC2    C5  293   3.557   1.367  13.802  0.2009  0.2494  0.2290
   19TMC2    C6  294   3.507   1.485  13.765  0.5931 -0.5731  0.2303
   19TMC2     C  295   3.906   1.458  13.874  0.5292  0.2257  0.2367
   19TMC2     O  296   3.983   1.553  13.874 -1.0197 -0.0559  0.3224
   19TMC2     H  297   3.782   1.673  13.788  0.9679  0.2840 -5.4960
   19TMC2    H1  298   3.738   1.255  13.859 -1.1518 -0.2020  1.0278
   19TMC2    H2  299   3.401   1.499  13.748  0.7545 -0.3963 -0.6457
   19TMC2    C7  300   3.483   1.279  13.877 -0.3460  0.4041  0.1030
   19TMC2    C8  301   3.545   1.718  13.798 -0.1772  0.9278 -0.2089
   19TMC2    O1  302   3.539   1.193  13.937  0.0433 -0.8103 -0.3009
   19TMC2    O2  303   3.509   1.741  13.915  0.1640 -0.3222  0.7097
   19TMC2    O5  304   3.581   1.812  13.708  0.1846 -0.5244  0.2732
   19TMC2    H5  305   3.619   1.774  13.626 -0.9521  0.4208 -0.6955
   20MPD2     C  306   4.151   1.386  14.037  0.1976 -0.3795 -0.6664
   20MPD2    C1  307   4.036   1.307  14.020  0.2398 -0.1177  0.3365
   20MPD2    C2  308   4.027   1.201  14.106  0.4849 -0.0320  0.2051
   20MPD2    C3  309   4.119   1.174  14.209 -0.5168  0.7185  0.3997
   20MPD2    C4  310   4.231   1.252  14.214  0.1705 -0.5249 -0.1141
   20MPD2    C5  311   4.250   1.358  14.127  0.0110  0.1741  0.6986
   20MPD2     H  312   3.942   1.135  14.096  0.6327 -0.2330  0.2480
   20MPD2    H1  313   4.302   1.242  14.296 -0.0662 -0.5017  0.0954
   20MPD2    H2  314   4.177   1.475  13.980 -1.0244 -0.7748 -1.8347
   20MPD2    H3  315   4.335   1.423  14.145 -0.4312  0.7466  0.6938
   20MPD2     N  316   4.098   1.077  14.309 -0.4054 -0.0401  0.0310
   20MPD2    H5  317   4.168   1.078  14.382 -0.6096 -0.4151  0.2332
   20MPD2    N1  318   3.923   1.339  13.944 -0.3462  0.2209  0.5391
   20MPD2    H7  319   3.845   1.276  13.960 -0.9393  0.6531 -0.7256
   21MPD2     C  320   1.310   1.919  14.548 -0.4062  0.5009  0.2816
   21MPD2    C1  321   1.291   1.781  14.553 -0.5048  0.2134 -0.0756
   21MPD2    C2  322   1.170   1.739  14.605 -0.2471  0.5958  0.2744
   21MPD2    C3  323   1.072   1.831  14.652  0.1502  0.0592 -0.4716
   21MPD2    C4  324   1.100   1.967  14.652  0.3338 -0.0357 -0.1489
   21MPD2    C5  325   1.217   2.008  14.596  0.6478 -0.0112  0.0134
   21MPD2     H  326   1.142   1.637  14.582  3.0363 -0.5246  1.1048
   21MPD2    H1  327   1.033   2.042  14.692  3.9309  1.8847  2.2833
   21MPD2    H2  328   1.394   1.975  14.507 -0.0775  1.1939  1.9051
   21MPD2    H3  329   1.230   2.116  14.592 -0.6940  0.2010  1.4034
   21MPD2     N  330   0.953   1.782  14.717  0.5575  0.6148  0.7120
   21MPD2    H5  331   0.901   1.855  14.764 -0.7143 -1.2590  2.2478
   21MPD2    N1  332   1.379   1.690  14.489 -0.5165  0.1486  0.7247
   21MPD2    H7  333   1.357   1.592  14.501  0.5702 -0.1190  0.4990
   22TCq2    C1  334   0.914   1.652  14.721 -0.5728 -0.0335 -0.1025
   22TCq2    O2  335   0.942   1.554  14.651 -0.2717  0.1690  0.3084
   22TCq2    C2  336   0.827   1.628  14.830 -0.8397 -0.1076 -0.0710
   22TCq2    C3  337   0.842   1.509  14.891  0.6992 -0.6423 -0.0088
   22TCq2    C4  338   0.790   1.486  15.016 -0.2079  0.8724  0.1735
   22TCq2    C5  339   0.702   1.578  15.070 -0.0904 -0.0485 -0.4097
   22TCq2    C6  340   0.671   1.685  14.996  0.7984  0.9521 -0.8624
   22TCq2    C7  341   0.740   1.719  14.877 -0.3946  0.3079 -0.8752
   22TCq2    C8  342   0.561   1.767  15.044  0.9183 -0.4876 -0.5718
   22TCq2    O4  343   0.535   1.782  15.162  0.1443  0.2334 -0.5301
   22TCq2    C9  344   0.796   1.360  15.085 -0.6127  0.0802  0.3755
   22TCq2    O5  345   0.741   1.344  15.195 -0.9415 -0.4934 -0.0220
   22TCq2    O6  346   0.883   1.276  15.038  0.0021  0.6689 -0.0999
   22TCq2    H2  347   0.921   1.441  14.862  0.0590 -1.0042 -0.8954
   22TCq2    H3  348   0.642   1.558  15.158 -0.6961 -0.4406 -0.9060
   22TCq2    H4  349   0.740   1.821  14.840  0.4800  0.7449  0.3431
   23MPD2     C  350   2.585   2.430  14.439 -0.0642 -0.2372 -0.6176
   23MPD2    C1  351   2.551   2.471  14.569 -0.0891  0.3829 -0.1404
   23MPD2    C2  352   2.474   2.584  14.599  0.4276  0.3446 -1.0164
   23MPD2    C3  353   2.425   2.659  14.491  0.5535 -0.7468  0.4663
   23MPD2    C4  354   2.484   2.639  14.371  0.3379  0.4166  0.2858
   23MPD2    C5  355   2.558   2.525  14.342  0.3253  0.5921 -0.1534
   23MPD2     H  356   2.450   2.610  14.702  1.5612 -2.0890 -0.1171
   23MPD2    H1  357   2.444   2.691  14.285 -0.1315  0.7224  0.6927
   23MPD2    H2  358   2.641   2.338  14.423  2.7038  1.9239 -3.3018
   23MPD2    H3  359   2.597   2.511  14.242 -1.1274 -2.1591 -0.3385
   23MPD2     N  360   2.323   2.759  14.505 -0.3367 -0.1830  0.2663
   23MPD2    H5  361   2.300   2.822  14.428 -0.4841 -1.3112 -0.6160
   23MPD2    N1  362   2.600   2.400  14.679 -0.1483 -0.2156  0.2570
   23MPD2    H7  363   2.592   2.440  14.772  0.8501 -0.4577  0.4548
   24TCq2    C1  364   2.225   2.760  14.605 -0.2580  0.5750 -0.4250
   24TCq2    O2  365   2.187   2.660  14.667 -0.2973 -0.6405  0.4894
   24TCq2    C2  366   2.124   2.870  14.602  0.5204  0.0578 -0.3126
   24TCq2    C3  367   2.153   2.991  14.544  0.1155  0.5405 -0.1124
   24TCq2    C4  368   2.048   3.077  14.540 -0.9125  0.4653 -0.2105
   24TCq2    C5  369   1.925   3.047  14.592  0.8315  0.0234  0.3903
   24TCq2    C6  370   1.912   2.930  14.658  0.1633 -0.0794 -0.9069
   24TCq2    C7  371   2.017   2.841  14.675  0.5980 -0.0370  0.8377
   24TCq2    C8  372   1.778   2.869  14.666  0.5646 -0.0211 -0.4311
   24TCq2    O4  373   1.755   2.778  14.747 -0.3254  0.1762  0.2985
   24TCq2    C9  374   2.060   3.202  14.468 -0.7856  0.1910 -0.8095
   24TCq2    O5  375   2.183   3.232  14.435  0.1029 -0.1554  0.3730
   24TCq2    O6  376   1.949   3.261  14.434 -0.5061 -0.3388 -0.4859
   24TCq2    H2  377   2.249   3.009  14.497  0.6761 -0.8462  0.5059
   24TCq2    H3  378   1.847   3.122  14.587  0.7085 -0.0930  0.5416
   24TCq2    H4  379   2.002   2.750  14.731 -2.2067 -1.0019 -1.4798
   25TMC2    C1  380   1.379   4.613  11.267 -0.0361 -0.0494  0.0015
   25TMC2    C2  381   1.514   4.586  11.244 -0.3223 -0.1249  0.3665
   25TMC2    C3  382   1.597   4.619  11.348  0.9739  0.0777  0.2262
   25TMC2    C4  383   1.332   4.671  11.386 -0.8114 -0.1594 -0.3038
   25TMC2    C5  384   1.426   4.696  11.480 -0.3334 -0.0245 -0.1717
   25TMC2    C6  385   1.562   4.671  11.471 -0.1608 -0.2112 -0.3735
   25TMC2     C  386   1.287   4.537  11.183  0.5635  0.1816  0.1152
   25TMC2     O  387   1.329   4.457  11.100 -0.3497 -0.4293  0.6280
   25TMC2     H  388   1.544   4.544  11.149  2.3538  3.1453 -0.2650
   25TMC2    H1  389   1.226   4.692  11.395 -0.5843  0.7509  0.2406
   25TMC2    H2  390   1.637   4.711  11.538  0.8554 -1.1398 -0.9661
   25TMC2    C7  391   1.381   0.067  11.584  0.0943  0.5166 -0.3795
   25TMC2    C8  392   1.729   4.578  11.319  0.3912 -0.9132 -0.7214
   25TMC2    O1  393   1.280   0.048  11.654  0.3040 -0.1213  0.0167
   25TMC2    O2  394   1.814   4.564  11.410 -0.5418 -0.3375 -0.6056
   25TMC2    O5  395   1.766   4.658  11.213  0.4298 -0.3345  0.1842
   25TMC2    H5  396   1.685   4.694  11.172  0.4381 -0.3300  0.1714
   26MPD2     C  397   0.817   4.435  10.996  0.3626 -0.6066 -0.3562
   26MPD2    C1  398   0.822   4.566  11.035  0.3157 -0.0628  0.1383
   26MPD2    C2  399   0.935   4.618  11.100  0.0941 -0.6109 -0.1355
   26MPD2    C3  400   1.045   4.539  11.118 -0.7839  0.6456  0.2073
   26MPD2    C4  401   1.044   4.407  11.071 -0.7497  0.0085 -0.1104
   26MPD2    C5  402   0.933   4.356  11.014  0.3346  0.2668  0.3145
   26MPD2     H  403   0.945   0.001  11.126 -1.3413 -1.0003  1.9482
   26MPD2    H1  404   1.131   4.342  11.080  0.9122  2.3732  0.8703
   26MPD2    H2  405   0.728   4.390  10.954  0.7337 -0.0703 -1.7399
   26MPD2    H3  406   0.920   4.252  10.988  1.2181 -0.1092  1.3466
   26MPD2     N  407   1.152   4.590  11.187 -0.3078  0.3853  0.2075
   26MPD2    H5  408   1.140   4.678  11.236  1.4709  0.0034  1.3724
   26MPD2    N1  409   0.705   4.645  11.023  0.3919  0.3644  0.2491
   26MPD2    H7  410   0.620   4.599  10.993 -0.0236  1.3985 -0.1458
   27TMC2    C1  411   0.163   1.988  12.196 -0.3608  0.1686  0.2200
   27TMC2    C2  412   0.299   2.006  12.173  0.3047  0.1970  0.6658
   27TMC2    C3  413   0.337   2.090  12.068  0.6065  0.3458  0.4592
   27TMC2    C4  414   0.065   2.075  12.141  0.6519 -0.4379  1.1236
   27TMC2    C5  415   0.111   2.165  12.045  0.2115  0.0010 -0.3233
   27TMC2    C6  416   0.250   2.183  12.018  0.1800  0.4587 -0.6672
   27TMC2     C  417   0.116   1.908  12.309 -0.8338  0.4151  0.3264
   27TMC2     O  418   0.190   1.814  12.329 -0.4609 -0.5364 -0.6840
   27TMC2     H  419   0.377   1.939  12.207  0.3599 -1.4918 -2.7970
   27TMC2    H1  420   4.679   2.073  12.146  0.7243 -3.6727  1.0628
   27TMC2    H2  421   0.283   2.252  11.940 -0.0516  2.2193  0.7885
   27TMC2    C7  422   0.031   2.283  12.055  0.1383  0.1011 -0.2411
   27TMC2    C8  423   0.489   2.087  12.038 -0.6208  0.2026 -0.3278
   27TMC2    O1  424   4.712   2.301  12.168  0.5806  0.0458 -0.2023
   27TMC2    O2  425   0.572   2.039  12.114  0.2497  0.5079  0.4479
   27TMC2    O5  426   0.511   2.085  11.908 -0.2696  0.1122 -0.1881
   27TMC2    H5  427   0.437   2.122  11.855  1.1304 -1.2792 -3.1317
   28MPD2     C  428   4.524   1.804  12.699 -0.4001  0.2856  0.5767
   28MPD2    C1  429   4.455   1.887  12.612 -0.0969  0.5610 -0.4808
   28MPD2    C2  430   4.520   1.945  12.505 -0.1241 -0.1782 -0.6497
   28MPD2    C3  431   4.650   1.911  12.479 -0.3772 -0.5269 -0.5978
   28MPD2    C4  432   4.715   1.815  12.558  0.1273 -0.0498 -0.4235
   28MPD2    C5  433   4.651   1.764  12.666  0.0406 -0.7301  0.3890
   28MPD2     H  434   4.478   2.031  12.454  0.7724 -1.0539 -2.8637
   28MPD2    H1  435   0.091   1.771  12.549  0.5414  0.9460 -0.6694
   28MPD2    H2  436   4.493   1.751  12.788 -0.1913 -0.7540  0.0356
   28MPD2    H3  437   4.698   1.684  12.723 -0.6382 -0.1841  1.7252
   28MPD2     N  438   4.722   1.958  12.368 -0.8152 -0.3094  0.0096
   28MPD2    H5  439   4.678   2.038  12.323  1.5347  0.1570 -1.4702
   28MPD2    N1  440   4.327   1.934  12.663 -0.0353 -0.2415  0.7265
   28MPD2    H7  441   4.292   1.878  12.740 -0.9595 -0.3796  0.2094
   29MPD2     C  442   3.911   4.439  13.916  0.2894 -0.3294  0.1181
   29MPD2    C1  443   4.009   4.409  14.007 -0.4452 -0.1691  0.5824
   29MPD2    C2  444   4.069   4.509  14.087  1.2083  0.5305 -0.2638
   29MPD2    C3  445   4.010   4.636  14.085 -0.4189  0.2170 -0.3726
   29MPD2    C4  446   3.908   4.659  13.992 -0.0141 -0.6996 -0.1101
   29MPD2    C5  447   3.868   4.561  13.914  0.6823  0.1643  0.1557
   29MPD2     H  448   4.151   4.484  14.153  0.4737 -2.0695 -0.3340
   29MPD2    H1  449   3.873   0.038  13.977 -1.5002 -1.4586 -1.8080
   29MPD2    H2  450   3.857   4.363  13.860  0.8034  0.0482 -0.8831
   29MPD2    H3  451   3.793   4.586  13.840  2.0607  0.6343 -1.0835
   29MPD2     N  452   4.049   0.026  14.168  0.5786  0.4971 -0.4793
   29MPD2    H5  453   3.989   0.108  14.163  2.2053  1.6768 -0.6069
   29MPD2    N1  454   4.068   4.280  14.035  0.2820 -0.6176 -0.6640
   29MPD2    H7  455   4.147   4.276  14.100 -0.4347 -1.4682  0.1494
   30TCq2    C1  456   4.143   0.021  14.273  0.4383 -0.0664 -0.7232
   30TCq2    O2  457   4.212   4.654  14.318  0.1479 -0.0505 -0.4711
   30TCq2    C2  458   4.138   0.144  14.346 -0.6964 -0.5182 -0.8434
   30TCq2    C3  459   4.179   0.138  14.474 -0.3731 -0.2112  0.2239
   30TCq2    C4  460   4.173   0.254  14.554 -0.0145  0.1115 -0.4419
   30TCq2    C5  461   4.110   0.364  14.508  0.0218 -0.5691 -0.3218
   30TCq2    C6  462   4.068   0.363  14.378  0.0652 -0.0190  0.0949
   30TCq2    C7  463   4.086   0.255  14.293 -0.0561  0.7500 -0.2572
   30TCq2    C8  464   4.076   0.488  14.311 -0.3210 -0.6720 -0.2586
   30TCq2    O4  465   3.976   0.534  14.250 -0.5554  0.0911  0.3261
   30TCq2    C9  466   4.204   0.246  14.693 -0.9437 -0.6359  0.4873
   30TCq2    O5  467   4.233   0.132  14.741 -0.3658  0.0526 -0.0445
   30TCq2    O6  468   4.227   0.358  14.739 -0.3064 -0.3428  0.2921
   30TCq2    H2  469   4.213   0.046  14.521  0.8111  0.5711  0.8913
   30TCq2    H3  470   4.101   0.447  14.577 -1.2029 -0.4878 -0.5649
   30TCq2    H4  471   4.059   0.273  14.190 -0.8318 -0.7496 -0.3203
   31MPD2     C  472   2.274   3.795  14.856 -0.6459 -0.0970 -0.2114
   31MPD2    C1  473   2.174   3.726  14.792  0.5854 -0.0348  0.1287
   31MPD2    C2  474   2.093   3.638  14.871  0.0974  0.1473  0.0621
   31MPD2    C3  475   2.110   3.631  15.003 -0.0687 -0.2860  0.4661
   31MPD2    C4  476   2.211   3.697  15.068 -0.0509  0.4640  0.2082
   31MPD2    C5  477   2.288   3.777  14.993 -0.6782 -0.7898 -0.3457
   31MPD2     H  478   2.021   3.577  14.817 -0.0891 -1.8477  2.5873
   31MPD2    H1  479   2.223   3.689  15.176 -1.1964 -1.4980  0.1829
   31MPD2    H2  480   2.344   3.842  14.788 -0.6272 -1.7289 -1.3137
   31MPD2    H3  481   2.369   3.833  15.037  0.8626 -2.8748 -0.5602
   31MPD2     N  482   2.014   3.558  15.081 -0.8097  0.6063  0.4911
   31MPD2    H5  483   2.025   3.568  15.182 -0.9013  0.4472  0.5180
   31MPD2    N1  484   2.160   3.757  14.658  0.6194  0.0451 -0.2081
   31MPD2    H7  485   2.218   3.828  14.615 -1.9733  2.7758  0.7701
   32TCq2    C1  486   1.899   3.500  15.033  0.4287  0.3286  0.0236
   32TCq2    O2  487   1.867   3.471  14.921  0.4313  0.3847  0.2693
   32TCq2    C2  488   1.805   3.474  15.141  0.2173 -0.7551  0.0784
   32TCq2    C3  489   1.690   3.550  15.140  0.0263  0.1950  0.5897
   32TCq2    C4  490   1.630   3.578  15.255 -0.9103 -0.3065 -0.1397
   32TCq2    C5  491   1.671   3.524  15.376  0.1803  0.1924 -0.5002
   32TCq2    C6  492   1.776   3.437  15.378  0.1011  0.0242 -0.1454
   32TCq2    C7  493   1.851   3.422  15.259 -0.0594 -0.3927  0.0906
   32TCq2    C8  494   1.840   3.397  15.499 -0.0223  0.3740 -0.4843
   32TCq2    O4  495   1.952   3.348  15.490  0.8001  0.1732  0.2822
   32TCq2    C9  496   1.507   3.659  15.250  0.2799 -0.6687 -0.6443
   32TCq2    O5  497   1.447   3.664  15.363  0.0123 -0.3033 -0.0597
   32TCq2    O6  498   1.486   3.733  15.152 -0.0108 -0.3825 -0.4832
   32TCq2    H2  499   1.650   3.583  15.045 -0.5141 -1.2021  0.3330
   32TCq2    H3  500   1.615   3.558  15.463  1.2963 -2.7149  1.3618
   32TCq2    H4  501   1.948   3.375  15.260 -1.0890 -2.5305 -0.2952
   33MPD2     C  502   2.172   0.603  10.331 -0.0108 -0.0166  0.3955
   33MPD2    C1  503   2.224   0.592  10.452 -0.6171  0.3299 -0.3361
   33MPD2    C2  504   2.325   0.682  10.490  0.2279  0.1064 -0.8438
   33MPD2    C3  505   2.361   0.782  10.402  0.2445  0.7823  0.4247
   33MPD2    C4  506   2.303   0.785  10.275 -0.4811  0.3673  0.0188
   33MPD2    C5  507   2.218   0.689  10.243  0.0758 -0.3243  0.6956
   33MPD2     H  508   2.376   0.669  10.585 -0.0262 -0.4792 -0.7876
   33MPD2    H1  509   2.332   0.857  10.200  1.3620  1.6570  1.9800
   33MPD2    H2  510   2.086   0.545  10.296  0.0132  1.5343 -2.2537
   33MPD2    H3  511   2.176   0.687  10.143 -2.7714 -1.5319  1.9435
   33MPD2     N  512   2.456   0.883  10.428 -0.2005  0.0201  0.3264
   33MPD2    H5  513   2.481   0.947  10.353  1.6048 -1.4000 -0.2834
   33MPD2    N1  514   2.186   0.478  10.534  0.4702  0.1241  0.2777
   33MPD2    H7  515   2.101   0.427  10.514 -0.3634  2.1589 -1.2819
   34TCq2    C1  516   2.479   0.939  10.553  0.0541  0.0665 -0.3430
   34TCq2    O2  517   2.417   0.927  10.657  0.0008 -0.0328  0.3427
   34TCq2    C2  518   2.599   1.025  10.542  0.1154  0.1213  0.2996
   34TCq2    C3  519   2.665   1.033  10.428 -0.4998  0.1733 -0.2240
   34TCq2    C4  520   2.767   1.129  10.426  0.0280 -0.6712  0.6808
   34TCq2    C5  521   2.787   1.224  10.520  0.7051 -0.1764  0.7184
   34TCq2    C6  522   2.710   1.213  10.637  0.3254  0.7065  0.4554
   34TCq2    C7  523   2.622   1.113  10.651  0.2440  0.2467 -0.2831
   34TCq2    C8  524   2.722   1.316  10.734  0.1761 -0.5133 -0.1647
   34TCq2    O4  525   2.830   1.374  10.731  0.8982  0.4692 -0.2721
   34TCq2    C9  526   2.831   1.144  10.299 -0.4116 -0.0975 -0.8490
   34TCq2    O5  527   2.763   1.114  10.197 -0.3891  0.4053 -0.2310
   34TCq2    O6  528   2.943   1.199  10.308  0.6040  0.1652  0.0320
   34TCq2    H2  529   2.652   0.959  10.350  0.3429 -0.6482  0.4230
   34TCq2    H3  530   2.872   1.290  10.504  1.0259 -0.4252  1.4273
   34TCq2    H4  531   2.567   1.096  10.742  1.0722 -1.5593 -0.1225
   35MPD2     C  532   3.776   2.906  12.114 -0.0911 -0.3355  0.4350
   35MPD2    C1  533   3.803   2.780  12.066 -0.4920 -0.4772 -0.1570
   35MPD2    C2  534   3.776   2.757  11.930  0.2925  0.2897 -0.4547
   35MPD2    C3  535   3.719   2.855  11.850 -0.1123  0.9312  0.2703
   35MPD2    C4  536   3.710   2.983  11.900  0.2799 -1.0120  0.0417
   35MPD2    C5  537   3.737   3.009  12.035  0.2396 -0.0646 -0.2213
   35MPD2     H  538   3.781   2.657  11.890 -0.3189  1.0907 -2.5178
   35MPD2    H1  539   3.671   3.070  11.848  0.3621 -0.2086  1.3366
   35MPD2    H2  540   3.785   2.919  12.221  0.5035 -0.8969  0.4515
   35MPD2    H3  541   3.715   3.111  12.066 -0.4419 -0.6963  1.3923
   35MPD2     N  542   3.673   2.821  11.725  0.2082  0.3452  0.0964
   35MPD2    H5  543   3.693   2.727  11.691  0.0511  0.5552 -0.5821
   35MPD2    N1  544   3.844   2.676  12.152  0.6389  0.4912 -0.1925
   35MPD2    H7  545   3.831   2.691  12.252 -0.8535 -0.7640 -0.1964
   36TCq2    C1  546   3.615   2.902  11.629  0.3701 -0.4988 -0.1991
   36TCq2    O2  547   3.588   3.021  11.628  0.0317  0.3154  0.1627
   36TCq2    C2  548   3.560   2.829  11.515 -1.2598 -0.6066  0.8681
   36TCq2    C3  549   3.516   2.904  11.404 -0.3522  0.3673 -0.1770
   36TCq2    C4  550   3.472   2.832  11.296 -0.7920 -0.1130 -0.8426
   36TCq2    C5  551   3.474   2.697  11.297  0.0010  0.1089  0.0621
   36TCq2    C6  552   3.503   2.631  11.411 -0.4771 -0.1927  1.2556
   36TCq2    C7  553   3.547   2.694  11.522  0.7692  0.3928 -0.6368
   36TCq2    C8  554   3.480   2.487  11.411  0.2303  0.7663  0.5677
   36TCq2    O4  555   3.372   2.454  11.366  0.6074 -0.2930  0.0214
   36TCq2    C9  556   3.432   2.894  11.170 -0.8587  0.3741  0.4198
   36TCq2    O5  557   3.441   2.828  11.065 -0.1258 -0.1492 -0.0571
   36TCq2    O6  558   3.381   3.008  11.173 -0.4902 -0.7901  0.0813
   36TCq2    H2  559   3.521   3.012  11.395  2.2022  0.4711  2.5169
   36TCq2    H3  560   3.435   2.646  11.209 -3.6894 -0.2825  1.9331
   36TCq2    H4  561   3.569   2.640  11.613 -0.9374  1.7786  0.5938
   37TMC2    C1  562   0.798   2.852  11.642 -0.6310  0.2226 -0.3099
   37TMC2    C2  563   0.772   2.931  11.533 -0.4223  0.0186  0.2490
   37TMC2    C3  564   0.859   2.925  11.428 -0.0698 -0.2942 -0.1440
   37TMC2    C4  565   0.908   2.770  11.651 -0.3186 -0.1899  0.0048
   37TMC2    C5  566   0.992   2.767  11.549 -0.0767  0.9757  0.5189
   37TMC2    C6  567   0.972   2.846  11.442 -0.9917 -0.1844  0.5620
   37TMC2     C  568   0.706   2.865  11.752 -0.6899  0.2766 -0.6153
   37TMC2     O  569   0.600   2.921  11.743 -0.1220 -0.1976 -0.5043
   37TMC2     H  570   0.695   3.006  11.539 -1.1514 -0.5181 -2.3279
   37TMC2    H1  571   0.920   2.694  11.727  1.2200 -0.4291 -0.4788
   37TMC2    H2  572   1.044   2.853  11.361 -1.4713  0.4115  0.1842
   37TMC2    C7  573   1.124   2.718  11.577  0.7687  0.3993 -0.7460
   37TMC2    C8  574   0.848   3.036  11.334 -0.7362  0.6434 -0.7153
   37TMC2    O1  575   1.154   2.697  11.696  0.0846 -0.3780 -0.0024
   37TMC2    O2  576   0.940   3.066  11.260  0.7244 -0.4845  0.2969
   37TMC2    O5  577   0.716   3.054  11.297  0.0200  0.3061 -0.0857
   37TMC2    H5  578   0.657   3.023  11.369 -1.7282 -1.3661 -2.2356
   38MPD2     C  579   0.570   2.750  12.233  0.5025  0.1563  0.5105
   38MPD2    C1  580   0.701   2.723  12.220 -0.7526 -0.2383  0.2338
   38MPD2    C2  581   0.753   2.732  12.091  0.1361  0.8946  0.0565
   38MPD2    C3  582   0.682   2.783  11.988  0.8230  0.1312  0.0002
   38MPD2    C4  583   0.551   2.828  12.007  0.3805 -0.0679 -0.0747
   38MPD2    C5  584   0.498   2.802  12.131 -0.1059 -0.1646 -0.0273
   38MPD2     H  585   0.855   2.700  12.070 -0.3610  0.1718 -1.2960
   38MPD2    H1  586   0.486   2.852  11.924  1.9794  4.0405 -0.1166
   38MPD2    H2  587   0.516   2.735  12.326 -2.4770  1.9341 -0.9458
   38MPD2    H3  588   0.391   2.813  12.148 -0.3396 -0.8918 -1.0025
   38MPD2     N  589   0.748   2.801  11.864  0.6364  0.7771  0.1260
   38MPD2    H5  590   0.846   2.775  11.863  0.0096 -1.6362  0.8069
   38MPD2    N1  591   0.785   2.674  12.321  0.0049 -0.1578  0.5504
   38MPD2    H7  592   0.883   2.665  12.298 -0.4689 -1.7627 -0.9224
   39MPD2     C  593   4.007   0.080   1.937  0.3471 -0.2338 -0.2532
   39MPD2    C1  594   4.007   4.677   1.889  0.3913  0.5297 -0.3179
   39MPD2    C2  595   3.900   4.634   1.813  0.9760 -0.4861 -0.0387
   39MPD2    C3  596   3.797   0.005   1.792 -0.0272  0.5871  0.3712
   39MPD2    C4  597   3.796   0.129   1.855  0.4122 -0.6423  0.8129
   39MPD2    C5  598   3.896   0.166   1.939  0.2771  0.2468  0.0224
   39MPD2     H  599   3.908   4.537   1.765  1.5209 -0.4293 -0.0607
   39MPD2    H1  600   3.701   0.181   1.851  0.4840 -0.4377  1.7920
   39MPD2    H2  601   4.095   0.117   1.988 -0.1636  0.6253  0.0091
   39MPD2    H3  602   3.894   0.266   1.980 -1.1047 -0.1940  1.0168
   39MPD2     N  603   3.673   4.695   1.731 -0.4982  0.1256 -0.0679
   39MPD2    H5  604   3.597   0.040   1.733 -0.3493  0.2952 -0.1953
   39MPD2    N1  605   4.119   4.592   1.905  0.0450  0.4377 -0.2510
   39MPD2    H7  606   4.189   4.632   1.966  0.9619 -0.7024 -0.5480
   40TCq2    C1  607   4.123   4.455   1.892 -0.9169 -1.0840 -0.1578
   40TCq2    O2  608   4.034   4.378   1.865  0.2891  0.2583  0.4612
   40TCq2    C2  609   4.244   4.391   1.933 -0.0296 -0.2987  0.5826
   40TCq2    C3  610   4.237   4.278   2.008  0.1718  0.0712  0.3175
   40TCq2    C4  611   4.353   4.232   2.070  0.0305  0.1337  0.1856
   40TCq2    C5  612   4.474   4.290   2.057  0.2806 -0.2414  0.1845
   40TCq2    C6  613   4.474   4.403   1.987 -0.3459 -0.7685 -0.0165
   40TCq2    C7  614   4.365   4.452   1.921 -0.1423 -0.1989  0.3481
   40TCq2    C8  615   4.591   4.489   1.997 -0.1011  0.1134 -0.3935
   40TCq2    O4  616   4.668   4.462   2.089 -0.2582  0.2677  0.0024
   40TCq2    C9  617   4.345   4.117   2.156 -0.5869  0.3474 -0.5916
   40TCq2    O5  618   4.445   4.078   2.221  0.7467  0.1451 -0.3064
   40TCq2    O6  619   4.235   4.044   2.149  0.0439  0.1990 -0.0166
   40TCq2    H2  620   4.140   4.232   2.023 -0.3187  1.0803  0.2090
   40TCq2    H3  621   4.563   4.249   2.104  0.0860 -1.2954 -0.3538
   40TCq2    H4  622   4.364   4.553   1.883  1.6661 -0.4769 -0.4526
   41TMC2    C1  623   2.531   2.925  13.826 -0.0173 -0.3955  0.0360
   41TMC2    C2  624   2.400   2.902  13.849 -0.7550 -0.0514 -0.1305
   41TMC2    C3  625   2.309   2.937  13.757  0.1664 -0.2445  0.0392
   41TMC2    C4  626   2.579   2.961  13.702 -0.0589  0.1560 -0.1327
   41TMC2    C5  627   2.480   2.981  13.610  0.3430 -0.1654 -0.0163
   41TMC2    C6  628   2.342   2.975  13.628  0.5385  0.1396  0.0552
   41TMC2     C  629   2.637   2.872  13.922 -0.5014  0.3278 -0.2389
   41TMC2     O  630   2.743   2.830  13.873 -0.1332 -0.7481 -0.0346
   41TMC2     H  631   2.360   2.861  13.941  0.8540  3.4033  2.0983
   41TMC2    H1  632   2.685   2.984  13.704 -0.1281  0.4108  0.6250
   41TMC2    H2  633   2.272   3.000  13.550 -1.1723 -2.8992  0.6192
   41TMC2    C7  634   2.522   3.013  13.480 -0.1711  0.1593  0.5721
   41TMC2    C8  635   2.168   2.935  13.783  0.5971 -0.8898 -0.1453
   41TMC2    O1  636   2.443   3.055  13.400 -0.1634  0.7618 -0.3613
   41TMC2    O2  637   2.082   2.929  13.696 -0.8419  0.0870 -0.0581
   41TMC2    O5  638   2.160   2.991  13.907  0.4108 -0.5643 -0.6298
   41TMC2    H5  639   2.246   3.026  13.939 -0.7453  2.6538 -1.0658
   42MPD2     C  640   2.766   2.754  14.161 -0.5018  0.1786  0.2638
   42MPD2    C1  641   2.673   2.857  14.168  0.0420  0.2136  0.0338
   42MPD2    C2  642   2.634   2.902  14.293 -0.5008 -0.5751 -0.3735
   42MPD2    C3  643   2.714   2.869  14.398 -0.4196  0.3281  0.1167
   42MPD2    C4  644   2.814   2.776  14.391  1.2427  0.1813  0.3735
   42MPD2    C5  645   2.843   2.717  14.266 -0.2657 -0.8441  0.4026
   42MPD2     H  646   2.554   2.973  14.310  0.2230 -0.1802  1.3357
   42MPD2    H1  647   2.870   2.753  14.480  0.8618 -2.3854 -0.0617
   42MPD2    H2  648   2.778   2.703  14.067  0.9348  0.7328  0.1347
   42MPD2    H3  649   2.915   2.637  14.248  0.5152 -0.6234  2.5912
   42MPD2     N  650   2.696   2.911  14.531  0.3427 -0.5286 -0.0629
   42MPD2    H5  651   2.762   2.887  14.604 -0.6719 -1.0265  0.6938
   42MPD2    N1  652   2.600   2.892  14.054 -0.4137 -0.0801 -0.1387
   42MPD2    H7  653   2.516   2.949  14.065  0.7030  1.4821  0.2673
   43MPD2     C  654   4.353   0.702   0.796 -0.0248  0.1170  0.1044
   43MPD2    C1  655   4.451   0.740   0.706 -0.0557 -0.0185  0.1016
   43MPD2    C2  656   4.477   0.876   0.692  0.8674 -0.0740  0.3115
   43MPD2    C3  657   4.412   0.972   0.767  0.4446 -0.1637  0.6858
   43MPD2    C4  658   4.315   0.929   0.857 -0.0190 -0.4126 -0.5040
   43MPD2    C5  659   4.284   0.797   0.873 -0.2151 -0.0845 -0.5066
   43MPD2     H  660   4.560   0.904   0.628  0.0707  0.2489 -0.5841
   43MPD2    H1  661   4.259   1.001   0.915  1.1475  0.8729 -0.9744
   43MPD2    H2  662   4.331   0.597   0.806 -0.8273  0.2676 -0.1071
   43MPD2    H3  663   4.206   0.761   0.939  1.0674 -1.1185  0.4299
   43MPD2     N  664   4.434   1.109   0.756  0.1659 -0.7792  0.1362
   43MPD2    H5  665   4.391   1.169   0.825 -0.6473 -0.5936 -0.5351
   43MPD2    N1  666   4.533   0.647   0.637 -0.0275  0.1443 -0.2458
   43MPD2    H7  667   4.597   0.682   0.567 -0.3603  2.6306  0.6984
   44TCq2    C1  668   4.609   1.487   1.020 -0.3863 -0.3818 -0.1382
   44TCq2    O2  669   4.659   1.396   1.082  0.3853 -0.0771 -0.2902
   44TCq2    C2  670   4.566   1.462   0.889  0.3748  0.0821  0.3294
   44TCq2    C3  671   4.558   1.569   0.802 -0.1553  0.2517 -0.2670
   44TCq2    C4  672   4.544   1.539   0.670  0.0762 -0.1406 -0.2587
   44TCq2    C5  673   4.544   1.406   0.627 -0.5914  0.6380  0.5632
   44TCq2    C6  674   4.549   1.305   0.716 -0.1357 -0.0682  0.5086
   44TCq2    C7  675   4.571   1.332   0.844 -0.8597 -0.0269 -0.2566
   44TCq2    C8  676   4.527   1.171   0.667  0.3608 -0.7446 -0.1290
   44TCq2    O4  677   4.559   1.152   0.553  0.5927 -0.0525  0.1459
   44TCq2    C9  678   4.553   1.636   0.563 -0.0889 -0.3809  0.4343
   44TCq2    O5  679   4.517   1.598   0.451  0.1469 -0.1691 -0.1639
   44TCq2    O6  680   4.576   1.753   0.604  0.8230  0.1046 -0.0087
   44TCq2    H2  681   4.575   1.671   0.835  1.1121  0.4090 -1.4076
   44TCq2    H3  682   4.531   1.368   0.526 -0.1067 -0.5773  0.9492
   44TCq2    H4  683   4.593   1.256   0.918  0.8677  0.9885  0.2835
   45TMC2    C1  684   4.613   3.612   9.420  0.2142 -0.3246 -0.4665
   45TMC2    C2  685   4.499   3.600   9.355  0.3658 -0.0644  0.7194
   45TMC2    C3  686   4.446   3.710   9.317  0.0455  0.2465  0.1946
   45TMC2    C4  687   4.669   3.732   9.443 -0.3899 -0.7630  0.2182
   45TMC2    C5  688   4.600   3.843   9.407  0.1540  0.1620 -0.0941
   45TMC2    C6  689   4.481   3.835   9.343  0.5418 -0.1254  0.1426
   45TMC2     C  690   4.691   3.494   9.446 -0.2970 -0.1541  0.0853
   45TMC2     O  691   0.069   3.517   9.511  0.6186  0.2217 -0.3679
   45TMC2     H  692   4.456   3.508   9.318  2.7885 -0.5164 -0.9606
   45TMC2    H1  693   0.039   3.755   9.496  0.9621 -2.2201 -1.5393
   45TMC2    H2  694   4.423   3.914   9.297  2.1045  1.1901  0.4531
   45TMC2    C7  695   4.660   3.967   9.439 -0.7482  0.7036  0.1986
   45TMC2    C8  696   4.340   3.687   9.229  0.9593  0.0881 -0.4622
   45TMC2    O1  697   4.722   3.959   9.544  0.3835 -0.2790 -0.2579
   45TMC2    O2  698   4.347   3.590   9.151 -0.2903  0.1403 -0.0116
   45TMC2    O5  699   4.225   3.722   9.291  0.1901 -0.1555 -0.3679
   45TMC2    H5  700   4.224   3.780   9.370  0.4709  1.1034 -1.2844
   46MPD2     C  701   0.104   3.237   9.464 -0.2793  0.1825 -0.2604
   46MPD2    C1  702   4.693   3.251   9.419 -0.9338 -0.8298  0.4929
   46MPD2    C2  703   4.625   3.133   9.392  0.3765  0.4995  0.1168
   46MPD2    C3  704   4.686   3.008   9.401  0.2163 -0.0072 -0.0563
   46MPD2    C4  705   0.098   2.998   9.440 -0.0729  0.6246 -0.2494
   46MPD2    C5  706   0.167   3.112   9.457 -0.1203  0.6892  0.4742
   46MPD2     H  707   4.521   3.136   9.362  0.7136  0.7771 -1.0303
   46MPD2    H1  708   0.149   2.903   9.435  0.9658  1.1456  0.5339
   46MPD2    H2  709   0.168   3.314   9.505 -0.3801  0.5436 -0.7779
   46MPD2    H3  710   0.268   3.115   9.496  0.9244 -1.5193 -2.0059
   46MPD2     N  711   4.602   2.896   9.374  0.2963  0.0654  0.3508
   46MPD2    H5  712   4.503   2.914   9.359  0.7604  0.6268 -2.0711
   46MPD2    N1  713   4.628   3.379   9.409 -0.5371  0.1118 -0.2894
   46MPD2    H7  714   4.536   3.392   9.369 -0.3020  0.7781 -0.6124
   47TMC2    C1  715   3.644   3.087   9.612  0.1012  0.1359 -0.0903
   47TMC2    C2  716   3.685   2.962   9.572  0.4493 -0.6356 -0.8102
   47TMC2    C3  717   3.700   2.931   9.442  0.3973  0.6914  0.0081
   47TMC2    C4  718   3.643   3.187   9.522 -0.3302  0.0075  0.2030
   47TMC2    C5  719   3.651   3.156   9.386 -0.3408  0.3232  0.3286
   47TMC2    C6  720   3.676   3.024   9.351 -0.3153 -0.2559  0.1960
   47TMC2     C  721   3.635   3.111   9.750 -0.0274  0.3287 -0.3715
   47TMC2     O  722   3.635   3.227   9.783 -0.1924 -0.2158 -0.2608
   47TMC2     H  723   3.708   2.878   9.636  0.5327 -2.3106 -3.0429
   47TMC2    H1  724   3.620   3.285   9.563 -0.8103  0.3729 -0.9241
   47TMC2    H2  725   3.671   3.001   9.245  0.9315 -1.5387  0.4229
   47TMC2    C7  726   3.597   3.246   9.281 -0.3065 -0.0112 -0.6262
   47TMC2    C8  727   3.736   2.793   9.410  0.2364  0.1122 -0.0500
   47TMC2    O1  728   3.542   3.192   9.182 -0.1159  0.1031  0.4371
   47TMC2    O2  729   3.786   2.718   9.492  0.2563 -0.6456 -0.2583
   47TMC2    O5  730   3.669   2.750   9.295 -0.3001 -0.9713  0.5646
   47TMC2    H5  731   3.606   2.823   9.274 -0.4594 -1.7070 -1.4354
   48MPD2     C  732   3.641   3.094  10.043  0.0084  0.5022  0.0754
   48MPD2    C1  733   3.612   2.987   9.965 -0.3688  1.2277  0.2550
   48MPD2    C2  734   3.587   2.869  10.027 -0.2012 -0.1412 -0.3332
   48MPD2    C3  735   3.596   2.855  10.164  0.4477  0.0797 -0.6717
   48MPD2    C4  736   3.616   2.964  10.245 -0.2788  0.1282 -0.4491
   48MPD2    C5  737   3.637   3.082  10.182 -0.0943  0.1210 -0.7215
   48MPD2     H  738   3.572   2.781   9.965  0.1901  0.3578 -1.1373
   48MPD2    H1  739   3.613   2.954  10.353  0.8012 -0.2879 -0.4621
   48MPD2    H2  740   3.665   3.194  10.008  0.5544  0.7592  1.1700
   48MPD2    H3  741   3.668   3.163  10.247 -0.1317 -0.5346  0.1252
   48MPD2     N  742   3.578   2.724  10.218 -0.0354 -0.4446  0.5123
   48MPD2    H5  743   3.555   2.651  10.151  1.8217 -0.1528 -0.4388
   48MPD2    N1  744   3.611   2.994   9.823 -0.6966 -0.2086  0.3638
   48MPD2    H7  745   3.597   2.910   9.767 -0.7128  0.4103 -0.5752
   49MPD2     C  746   1.050   0.583  10.467  0.1850  0.1545 -0.1983
   49MPD2    C1  747   1.191   0.572  10.468 -0.8207 -1.0242 -0.2558
   49MPD2    C2  748   1.252   0.545  10.587 -0.0059 -0.2673  0.2108
   49MPD2    C3  749   1.176   0.508  10.696  0.2115  0.7649  0.0365
   49MPD2    C4  750   1.035   0.506  10.684  0.4608  0.2390  0.8002
   49MPD2    C5  751   0.971   0.539  10.568  0.0153  0.6147 -0.0291
   49MPD2     H  752   1.359   0.556  10.596 -0.1092 -0.5016  1.8106
   49MPD2    H1  753   0.969   0.480  10.767 -0.5467  0.0395 -0.0597
   49MPD2    H2  754   0.990   0.610  10.381  1.1592  1.2208 -0.5330
   49MPD2    H3  755   0.864   0.523  10.557  0.0420 -0.5430  1.3935
   49MPD2     N  756   1.235   0.482  10.824 -0.7435 -0.0012 -0.0975
   49MPD2    H5  757   1.174   0.489  10.904  0.5465  4.3412  0.4976
   49MPD2    N1  758   1.281   0.609  10.369 -0.0396 -0.2474 -0.6126
   49MPD2    H7  759   1.379   0.601  10.396 -0.2145 -2.2631 -0.5485
   50TCq2    C1  760   1.240   0.651  10.248  0.4354  0.5076 -0.0926
   50TCq2    O2  761   1.132   0.705  10.212 -0.1960 -0.0031 -0.0207
   50TCq2    C2  762   1.351   0.676  10.161  0.2957  0.4979 -0.1255
   50TCq2    C3  763   1.456   0.590  10.157 -0.8882  0.3256 -0.1848
   50TCq2    C4  764   1.545   0.602  10.056 -0.2939  0.1151 -0.2557
   50TCq2    C5  765   1.543   0.701   9.961  0.2008  0.3490  0.5061
   50TCq2    C6  766   1.438   0.793   9.974 -0.4046 -0.2502  0.4186
   50TCq2    C7  767   1.338   0.774  10.069  0.0040  0.0883  0.0526
   50TCq2    C8  768   1.444   0.899   9.874  0.1591 -0.0330 -0.6236
   50TCq2    O4  769   1.555   0.931   9.828  0.1712 -0.0709 -0.5047
   50TCq2    C9  770   1.637   0.490  10.033  0.0164 -0.2131  0.0897
   50TCq2    O5  771   1.709   0.501   9.932  0.2647 -0.3152 -0.4206
   50TCq2    O6  772   1.652   0.400  10.117  0.1706 -0.1981  0.3220
   50TCq2    H2  773   1.466   0.503  10.222 -3.0101  0.1987 -0.0493
   50TCq2    H3  774   1.622   0.704   9.887  0.2754  2.4435  0.6568
   50TCq2    H4  775   1.258   0.847  10.082  0.1360 -0.0598  1.7454
   51MPD2     C  776   1.019   3.700   1.532 -0.0396 -0.4397 -0.3669
   51MPD2    C1  777   1.126   3.680   1.609  0.2054  0.4718 -0.5010
   51MPD2    C2  778   1.136   3.730   1.737  0.3376 -0.1546  0.2981
   51MPD2    C3  779   1.033   3.812   1.786 -1.1935 -0.4433  0.6392
   51MPD2    C4  780   0.919   3.812   1.717 -0.4839  0.1272 -0.6453
   51MPD2    C5  781   0.904   3.758   1.593 -0.4212 -0.1454 -0.4101
   51MPD2     H  782   1.224   3.713   1.799 -0.5409  0.0409  1.6142
   51MPD2    H1  783   0.837   3.874   1.750 -0.6655  0.4662 -1.7063
   51MPD2    H2  784   1.008   3.649   1.437 -4.1749  0.4129 -0.3441
   51MPD2    H3  785   0.812   3.771   1.537 -0.2884  0.4623 -0.4825
   51MPD2     N  786   1.041   3.890   1.902  0.6682  0.1689 -0.6602
   51MPD2    H5  787   0.962   3.946   1.933  2.8060  2.6971  0.3155
   51MPD2    N1  788   1.237   3.602   1.564  0.6190 -0.2353 -0.2827
   51MPD2    H7  789   1.320   3.590   1.622  1.4126 -2.0790 -1.8076
   52TCq2    C1  790   1.154   3.922   1.969 -0.3485 -0.1486  0.4763
   52TCq2    O2  791   1.265   3.886   1.957 -0.0567  0.2293 -0.1696
   52TCq2    C2  792   1.123   4.020   2.076  0.3015  0.1799 -0.4655
   52TCq2    C3  793   0.996   4.021   2.125 -0.2276  0.1720 -0.2373
   52TCq2    C4  794   0.969   4.111   2.220 -0.4090 -0.7378 -0.4563
   52TCq2    C5  795   1.067   4.199   2.270  0.4559 -0.2407  0.5267
   52TCq2    C6  796   1.194   4.195   2.217  0.4746 -0.2587  0.5072
   52TCq2    C7  797   1.224   4.100   2.124  1.1494  0.5143 -0.7295
   52TCq2    C8  798   1.302   4.281   2.266  0.0715  0.1796 -0.1494
   52TCq2    O4  799   1.395   4.315   2.195  0.4651 -0.8994  0.3390
   52TCq2    C9  800   0.836   4.137   2.249 -0.0722 -0.4783  0.2025
   52TCq2    O5  801   0.809   4.217   2.342  1.0122 -0.6255  0.2099
   52TCq2    O6  802   0.750   4.095   2.171 -0.3169  0.2655  0.3938
   52TCq2    H2  803   0.913   3.957   2.094  0.4415 -0.0832 -1.4765
   52TCq2    H3  804   1.039   4.273   2.345 -0.3286 -1.0134  1.0074
   52TCq2    H4  805   1.323   4.087   2.083  1.0797  0.2813 -0.8250
   53TMC2    C1  806   1.807   2.659  11.837  0.7917  0.5725 -0.1650
   53TMC2    C2  807   1.942   2.688  11.848  0.3968 -0.2079  0.2608
   53TMC2    C3  808   1.978   2.778  11.948 -0.1745  0.2207  0.3453
   53TMC2    C4  809   1.718   2.685  11.937  0.2001  0.0021  0.6713
   53TMC2    C5  810   1.760   2.759  12.044 -0.1008  0.1691  0.2425
   53TMC2    C6  811   1.883   2.820  12.041  0.7063 -0.1079 -0.1539
   53TMC2     C  812   1.757   2.618  11.715  0.3084  0.0437 -0.1507
   53TMC2     O  813   1.839   2.579  11.632 -0.1703 -0.2521 -0.5430
   53TMC2     H  814   2.006   2.674  11.761  0.4617  1.0815  0.0961
   53TMC2    H1  815   1.619   2.640  11.938  0.0786  0.2814  1.0372
   53TMC2    H2  816   1.922   2.881  12.122 -0.5625 -1.1460  1.2268
   53TMC2    C7  817   1.644   2.810  12.113 -0.1526 -0.2016  0.6311
   53TMC2    C8  818   2.098   2.864  11.927  0.6113  0.1552  0.1951
   53TMC2    O1  819   1.533   2.752  12.099  0.1651 -0.1439  0.3045
   53TMC2    O2  820   2.105   2.975  11.978  0.0451  0.0646  0.3807
   53TMC2    O5  821   2.199   2.781  11.900  0.0374  0.3188  0.3075
   53TMC2    H5  822   2.175   2.686  11.904 -1.0780  0.6051  0.6551
   54MPD2     C  823   1.612   2.617  11.453  0.0749 -0.0588 -0.1491
   54MPD2    C1  824   1.556   2.652  11.574 -0.6954  0.2973 -0.0361
   54MPD2    C2  825   1.425   2.690  11.576 -0.3870 -0.6884  0.2130
   54MPD2    C3  826   1.341   2.673  11.468 -0.8911  0.0226  0.0106
   54MPD2    C4  827   1.400   2.641  11.347  0.1305 -0.5187 -0.0124
   54MPD2    C5  828   1.534   2.615  11.341  0.0762 -0.1088 -0.1334
   54MPD2     H  829   1.386   2.722  11.672  0.9972  0.8594  0.2729
   54MPD2    H1  830   1.353   2.646  11.250  0.7595  0.6101 -0.2663
   54MPD2    H2  831   1.711   2.576  11.433  0.5078  0.1163  1.6058
   54MPD2    H3  832   1.579   2.590  11.246 -0.7685  0.1494 -0.5997
   54MPD2     N  833   1.198   2.698  11.468  0.0943 -0.5770 -0.1979
   54MPD2    H5  834   1.150   2.699  11.378  1.5528 -1.0040 -0.9833
   54MPD2    N1  835   1.629   2.653  11.696  0.6650 -0.8583 -0.5529
   54MPD2    H7  836   1.576   2.684  11.776  0.2701 -0.5865 -0.9148
   55MPD2     C  837   2.262   4.428   0.405 -0.7556 -0.0377 -0.4531
   55MPD2    C1  838   2.315   4.553   0.406  0.7685  0.6237  0.5643
   55MPD2    C2  839   2.322   4.624   0.283  0.2519 -0.4393  0.2319
   55MPD2    C3  840   2.280   4.574   0.163  0.1552  0.4857 -0.2512
   55MPD2    C4  841   2.229   4.452   0.171 -0.0681  0.2405  0.8502
   55MPD2    C5  842   2.221   4.385   0.288  0.5231 -0.2005  0.7768
   55MPD2     H  843   2.366   0.001   0.282 -1.6347  0.4199  1.7028
   55MPD2    H1  844   2.193   4.404   0.080 -0.7260  1.1150  0.6523
   55MPD2    H2  845   2.248   4.369   0.495 -1.5776 -2.3052 -2.0474
   55MPD2    H3  846   2.180   4.284   0.290  0.2298 -0.1322 -1.5624
   55MPD2     N  847   2.290   4.648   0.045  0.9509  0.1953  0.0408
   55MPD2    H5  848   2.345   0.011   0.051 -0.8385  1.3021  0.9107
   55MPD2    N1  849   2.358   4.606   0.534  0.3544 -0.1812  0.5977
   55MPD2    H7  850   2.344   4.544   0.613 -0.4402 -1.5563 -0.6143
   56TCq2    C1  851   2.441   4.711   0.550 -0.2479  0.3236 -0.5845
   56TCq2    O2  852   2.489   0.056   0.459 -0.1840  0.4625 -0.1142
   56TCq2    C2  853   2.500   4.703   0.680  0.0770 -0.2694  0.6114
   56TCq2    C3  854   2.433   4.629   0.781  0.1570  0.8067 -0.4880
   56TCq2    C4  855   2.486   4.624   0.909  0.3799  0.3271  0.9291
   56TCq2    C5  856   2.603   4.695   0.933  0.2024  0.7251 -0.0863
   56TCq2    C6  857   2.662   0.050   0.834 -0.1209 -0.2608 -0.6795
   56TCq2    C7  858   2.608   0.063   0.711 -0.2739  0.2690 -0.3468
   56TCq2    C8  859   2.740   0.155   0.893  0.0108  0.0869 -0.0417
   56TCq2    O4  860   2.819   0.139   0.986 -0.1183  0.4422  0.1037
   56TCq2    C9  861   2.422   4.541   1.007 -0.3679  0.4217 -0.4099
   56TCq2    O5  862   2.425   4.589   1.121 -0.5072 -0.2117  0.8995
   56TCq2    O6  863   2.318   4.486   0.963  0.0490  0.0304 -0.3289
   56TCq2    H2  864   2.334   4.585   0.775 -0.2134  1.8043 -1.8122
   56TCq2    H3  865   2.656   4.688   1.028 -0.3791 -1.4305  0.0768
   56TCq2    H4  866   2.657   0.117   0.631  0.4819  1.6235  1.0299
   57TMC2    C1  867   1.610   1.672  13.849  0.2009 -0.7940 -0.1077
   57TMC2    C2  868   1.695   1.597  13.921  0.6992 -0.1249  0.6341
   57TMC2    C3  869   1.795   1.539  13.846 -0.7305 -0.4863  0.5577
   57TMC2    C4  870   1.600   1.669  13.710 -0.2237 -0.2075 -0.3746
   57TMC2    C5  871   1.684   1.585  13.645 -0.2611 -0.2123 -0.0549
   57TMC2    C6  872   1.780   1.518  13.712  0.3038 -1.1566  0.1082
   57TMC2     C  873   1.488   1.715  13.910 -0.2004 -0.1779 -0.0966
   57TMC2     O  874   1.439   1.820  13.872 -0.6440 -0.1646 -0.1645
   57TMC2     H  875   1.701   1.608  14.029  0.6799  3.2654  0.2867
   57TMC2    H1  876   1.523   1.722  13.657 -0.0448  0.8942  0.4612
   57TMC2    H2  877   1.856   1.474  13.648  0.9186  0.3124 -0.1829
   57TMC2    C7  878   1.640   1.551  13.515  0.7345 -0.6655  0.3788
   57TMC2    C8  879   1.913   1.495  13.916  0.3994 -0.1378 -0.8574
   57TMC2    O1  880   1.543   1.612  13.467 -0.2687  0.3699 -0.5966
   57TMC2    O2  881   1.947   1.536  14.027  0.1619 -0.0885 -0.3462
   57TMC2    O5  882   1.969   1.391  13.852 -0.3511  0.3645 -0.3335
   57TMC2    H5  883   1.912   1.346  13.786 -1.1494  1.0976 -0.1397
   58MPD2     C  884   1.109   1.649  14.258  0.4630  0.3362  0.0503
   58MPD2    C1  885   1.154   1.764  14.203 -0.2830  0.0025  0.3183
   58MPD2    C2  886   1.261   1.751  14.119 -0.2804 -0.0487  0.7779
   58MPD2    C3  887   1.320   1.629  14.084  0.2122  0.4103 -1.1153
   58MPD2    C4  888   1.259   1.516  14.135  0.1766  0.4922 -0.1039
   58MPD2    C5  889   1.167   1.527  14.234  0.0689  0.2291  0.6359
   58MPD2     H  890   1.304   1.845  14.084  0.7575 -0.5679  0.6574
   58MPD2    H1  891   1.289   1.414  14.111 -0.2982 -0.0249  1.4394
   58MPD2    H2  892   1.031   1.651  14.334  0.2382  0.2746 -0.1771
   58MPD2    H3  893   1.129   1.438  14.283 -1.5757  0.7389  0.3109
   58MPD2     N  894   1.441   1.621  14.008 -0.2437 -0.4331 -0.5599
   58MPD2    H5  895   1.484   1.529  14.003 -1.3807 -0.8298 -2.7603
   58MPD2    N1  896   1.094   1.883  14.217  0.4283  0.8694 -0.2675
   58MPD2    H7  897   1.127   1.963  14.165  1.8347 -0.1401 -0.9176
   59MPD2     C  898   4.023   1.376  13.353 -0.2675 -0.1701  0.3160
   59MPD2    C1  899   4.087   1.448  13.259  0.4282  0.1197  0.0236
   59MPD2    C2  900   4.191   1.534  13.299  0.7893  0.0627 -0.0570
   59MPD2    C3  901   4.223   1.556  13.433  0.6250  0.2003  0.5598
   59MPD2    C4  902   4.157   1.480  13.523  0.0502 -0.6323  0.7857
   59MPD2    C5  903   4.057   1.392  13.485  0.6855 -0.8438  0.3352
   59MPD2     H  904   4.246   1.588  13.223  1.7655 -3.4948 -1.8870
   59MPD2    H1  905   4.162   1.484  13.631 -3.6621 -0.1610  0.9601
   59MPD2    H2  906   3.940   1.308  13.339  0.6887 -1.3968  0.5805
   59MPD2    H3  907   3.995   1.351  13.564  0.0684 -0.2499  0.1558
   59MPD2     N  908   4.322   1.646  13.479  0.1761  0.0210 -0.0216
   59MPD2    H5  909   4.347   1.643  13.577 -0.6970  1.0161  0.2366
   59MPD2    N1  910   4.050   1.452  13.123 -0.1106  0.5880  0.7780
   59MPD2    H7  911   4.110   1.508  13.063  0.6515 -1.1529 -0.0935
   60TCq2    C1  912   3.952   1.369  13.063  0.5515 -0.4665  0.6218
   60TCq2    O2  913   3.866   1.294  13.108  0.2931  0.0975  0.3059
   60TCq2    C2  914   3.936   1.398  12.916 -0.2274  0.0954 -0.4098
   60TCq2    C3  915   3.825   1.341  12.848  0.9335 -0.5609  0.4996
   60TCq2    C4  916   3.811   1.359  12.718  0.0603 -0.2834 -0.1051
   60TCq2    C5  917   3.902   1.432  12.649  0.0484  0.2260  0.5095
   60TCq2    C6  918   4.006   1.489  12.711  0.3664  0.6858  0.5415
   60TCq2    C7  919   4.038   1.463  12.845 -0.4805  0.1140 -0.2832
   60TCq2    C8  920   4.083   1.585  12.639  0.2421 -0.0971 -0.3805
   60TCq2    O4  921   4.186   1.627  12.698  0.1078  0.3328  0.4799
   60TCq2    C9  922   3.711   1.284  12.639  0.3239 -0.3827  0.2978
   60TCq2    O5  923   3.700   1.301  12.514 -0.4883 -0.4949 -0.2087
   60TCq2    O6  924   3.643   1.194  12.702  0.1160  0.1134  0.6590
   60TCq2    H2  925   3.755   1.278  12.902 -0.5719  1.1655  0.5721
   60TCq2    H3  926   3.888   1.441  12.542 -0.5627  1.5981  0.7083
   60TCq2    H4  927   4.128   1.499  12.894  0.5785  0.7221 -2.6684
   61MPD2     C  928   3.951   2.885  15.161 -0.1783 -0.3035 -0.2905
   61MPD2    C1  929   3.893   3.004  15.184 -0.4922  0.6698 -0.2026
   61MPD2    C2  930   3.865   3.084  15.074  0.8442  0.2472 -0.4129
   61MPD2    C3  931   3.913   3.043  14.947  0.0104 -0.0563  0.3811
   61MPD2    C4  932   3.983   2.927  14.934  0.1062  0.1249  0.0093
   61MPD2    C5  933   4.002   2.849  15.037  0.1409 -0.9072 -0.0379
   61MPD2     H  934   3.808   3.177  15.081 -0.0040 -0.2661 -0.4912
   61MPD2    H1  935   4.029   2.885  14.845 -3.1227  1.3401 -2.2110
   61MPD2    H2  936   3.979   2.812  15.235  0.1838 -0.2714 -0.3963
   61MPD2    H3  937   4.035   2.746  15.024  1.8559 -0.5225  1.3377
   61MPD2     N  938   3.882   3.117  14.834  0.3608  0.1015 -0.2314
   61MPD2    H5  939   3.915   3.084  14.744  2.7231  2.2602 -0.1813
   61MPD2    N1  940   3.855   3.055  15.317 -0.2579  0.0619  0.3023
   61MPD2    H7  941   3.800   3.140  15.309 -0.8760 -0.3843 -0.2065
   62TCq2    C1  942   3.861   2.972  15.425  0.5263 -0.2880 -0.2895
   62TCq2    O2  943   3.910   2.864  15.444  0.4771  0.9109  0.3016
   62TCq2    C2  944   3.804   3.033  15.539 -0.0815  0.9285  0.3347
   62TCq2    C3  945   3.815   2.976  15.662  0.5780  0.3764 -0.2885
   62TCq2    C4  946   3.754   3.035  15.774 -0.5449 -0.1223  0.0021
   62TCq2    C5  947   3.704   3.157  15.768 -0.0449 -0.0283  0.1271
   62TCq2    C6  948   3.699   3.217  15.646  0.2595 -0.2192  0.0004
   62TCq2    C7  949   3.738   3.160  15.525 -0.2579 -0.1543 -0.2594
   62TCq2    C8  950   3.643   3.352  15.630  0.0067  0.0862  0.7526
   62TCq2    O4  951   3.662   3.415  15.526  0.4216  0.8857 -0.1691
   62TCq2    C9  952   3.765   2.963  15.903 -0.3808  0.7583 -0.1690
   62TCq2    O5  953   3.724   3.040  15.990  0.0999 -0.2954 -0.4898
   62TCq2    O6  954   3.852   2.879  15.919 -0.2290 -0.0172 -0.4535
   62TCq2    H2  955   3.847   2.874  15.677 -1.7134 -0.0813  1.4176
   62TCq2    H3  956   3.681   3.211  15.859  2.4059  0.7241  0.2990
   62TCq2    H4  957   3.725   3.218  15.434  0.1496 -2.2124 -1.6184
   63TMC2    C1  958   2.835   2.933   9.780  0.5275 -0.9942 -0.0108
   63TMC2    C2  959   2.861   3.029   9.878  0.2370 -0.5656  0.5828
   63TMC2    C3  960   2.925   3.149   9.852 -0.0604  0.1792 -0.1951
   63TMC2    C4  961   2.876   2.960   9.647  0.0780  0.3673 -0.1070
   63TMC2    C5  962   2.941   3.084   9.626 -1.0204 -0.0297  0.3861
   63TMC2    C6  963   2.969   3.178   9.724 -0.3298  0.5889 -0.3278
   63TMC2     C  964   2.811   2.796   9.813 -1.1534  0.6191  0.0786
   63TMC2     O  965   2.794   2.722   9.720  0.2156  0.5899  0.4406
   63TMC2     H  966   2.828   3.016   9.980 -0.8327  1.9935  0.5649
   63TMC2    H1  967   2.881   2.884   9.570 -0.2738 -1.5898  1.8038
   63TMC2    H2  968   3.032   3.264   9.704  0.3609  0.6991  2.3423
   63TMC2    C7  969   2.974   3.125   9.494 -0.3893 -0.1567 -0.0731
   63TMC2    C8  970   2.978   3.220   9.960 -0.6948  0.2491  0.5994
   63TMC2    O1  971   3.020   3.236   9.489  0.3964 -0.2994 -0.2051
   63TMC2    O2  972   3.000   3.170  10.067  0.1260 -0.4954 -0.1180
   63TMC2    O5  973   3.010   3.346   9.927  0.6595  0.9491 -0.6080
   63TMC2    H5  974   2.942   3.381   9.865  0.1702 -0.4185 -0.8438
   64MPD2     C  975   2.754   2.405  10.127 -0.2943 -0.3346  1.1950
   64MPD2    C1  976   2.778   2.513  10.202 -0.0768 -0.3345 -0.0232
   64MPD2    C2  977   2.782   2.629  10.140  0.5412  0.6990  0.3576
   64MPD2    C3  978   2.779   2.644  10.003 -0.3767 -0.0225 -0.4914
   64MPD2    C4  979   2.754   2.532   9.927  0.0345 -0.0918 -0.8303
   64MPD2    C5  980   2.735   2.413   9.988  0.4193  0.2410  0.3275
   64MPD2     H  981   2.796   2.717  10.201  0.8484 -1.0808  2.8495
   64MPD2    H1  982   2.744   2.543   9.819 -1.5785 -0.0682 -0.6760
   64MPD2    H2  983   2.743   2.312  10.181  3.0986 -1.7471 -0.6094
   64MPD2    H3  984   2.709   2.324   9.933 -0.4936  0.3138  0.6385
   64MPD2     N  985   2.812   2.771   9.944 -0.4791  0.1464  0.0877
   64MPD2    H5  986   2.816   2.849  10.010  0.3755  0.4090 -0.2711
   64MPD2    N1  987   2.784   2.506  10.341 -0.4144 -0.4037  0.9729
   64MPD2    H7  988   2.822   2.586  10.391 -1.1852  0.1764  0.6341
   65MPD2     C  989   4.096   2.313  15.605 -0.3061 -0.3189 -0.2526
   65MPD2    C1  990   4.091   2.324  15.465  0.0693  0.1805 -0.2375
   65MPD2    C2  991   4.066   2.209  15.389 -0.0729 -0.5058 -0.0248
   65MPD2    C3  992   4.047   2.088  15.459  0.5956 -0.5765 -0.2774
   65MPD2    C4  993   4.049   2.081  15.600 -0.3355  0.1095 -0.0992
   65MPD2    C5  994   4.079   2.193  15.667 -0.7475  0.6434 -0.2470
   65MPD2     H  995   4.058   2.219  15.282  0.7132  1.3244  0.0814
   65MPD2    H1  996   4.039   1.986  15.650  1.4516  0.5865  1.1540
   65MPD2    H2  997   4.112   2.400  15.668 -1.3915 -1.9479  2.2467
   65MPD2    H3  998   4.110   2.193  15.771 -0.7132  1.7455 -0.2579
   65MPD2     N  999   4.010   1.976  15.388 -0.1195  0.3059  0.3818
   65MPD2    H5 1000   3.979   1.891  15.435  0.1074 -1.9242 -3.5064
   65MPD2    N1 1001   4.120   2.444  15.392  0.6044 -0.3574 -0.1945
   65MPD2    H7 1002   4.109   2.440  15.291  0.4702 -0.7712 -0.1631
   66TCq2    C1 1003   4.159   2.558  15.449  0.2715  0.7732  0.3720
   66TCq2    O2 1004   4.142   2.596  15.564 -0.1194 -0.1396 -0.0048
   66TCq2    C2 1005   4.213   2.656  15.358  0.1742  0.2101 -0.1505
   66TCq2    C3 1006   4.266   2.613  15.241  0.1536 -1.4442  0.2956
   66TCq2    C4 1007   4.299   2.713  15.152 -0.2578 -0.1125  0.2552
   66TCq2    C5 1008   4.308   2.844  15.185  0.0294  0.3578  0.1053
   66TCq2    C6 1009   4.268   2.885  15.304 -0.2093  0.1047  0.0974
   66TCq2    C7 1010   4.229   2.790  15.396  0.6016 -0.1476 -0.4442
   66TCq2    C8 1011   4.270   3.026  15.333  0.0589 -0.7262  0.6565
   66TCq2    O4 1012   4.310   3.096  15.239 -0.1530  0.0974  0.7443
   66TCq2    C9 1013   4.337   2.666  15.019 -0.4575 -0.7057  0.7508
   66TCq2    O5 1014   4.320   2.546  15.004  0.3200 -0.4948  0.2770
   66TCq2    O6 1015   4.375   2.748  14.931 -0.5880  0.4349  0.2040
   66TCq2    H2 1016   4.271   2.506  15.223 -0.6980 -1.5181  0.4729
   66TCq2    H3 1017   4.337   2.902  15.099  0.4587  1.5045  1.0194
   66TCq2    H4 1018   4.193   2.806  15.498  0.5248  1.7370 -0.7682
   67MPD2     C 1019   4.013   1.930  13.699 -0.0715  0.2133 -0.4496
   67MPD2    C1 1020   3.933   1.943  13.810 -0.0652  0.5333 -0.3837
   67MPD2    C2 1021   3.820   2.029  13.810 -0.5076  0.6636 -0.3148
   67MPD2    C3 1022   3.797   2.106  13.697 -0.2574  0.3540 -0.6872
   67MPD2    C4 1023   3.874   2.084  13.583  0.1289 -0.5755 -0.3639
   67MPD2    C5 1024   3.977   1.993  13.587 -0.4500  0.8195 -0.6541
   67MPD2     H 1025   3.753   2.035  13.896 -0.9100 -0.1760 -0.5658
   67MPD2    H1 1026   3.860   2.147  13.496 -0.1501  0.0739  0.1493
   67MPD2    H2 1027   4.089   1.852  13.696 -0.1358  0.1184  0.2908
   67MPD2    H3 1028   4.040   1.968  13.503 -1.7046 -1.4880 -0.9227
   67MPD2     N 1029   3.703   2.212  13.694 -0.5746  0.2658 -0.6339
   67MPD2    H5 1030   3.692   2.261  13.606  0.3218 -2.3355 -2.2306
   67MPD2    N1 1031   3.963   1.882  13.935  0.2396 -0.2990  0.3142
   67MPD2    H7 1032   3.891   1.881  14.007  0.5845 -0.1924  0.6568
   68TCq2    C1 1033   4.079   1.818  13.966  0.1736  0.0552  0.1617
   68TCq2    O2 1034   4.187   1.812  13.903 -0.1230 -0.1897  0.5375
   68TCq2    C2 1035   4.076   1.777  14.109  0.0973  0.7088  0.3544
   68TCq2    C3 1036   3.959   1.739  14.168  0.7708  0.5104  0.2451
   68TCq2    C4 1037   3.954   1.735  14.309  1.4663 -0.5580  0.8565
   68TCq2    C5 1038   4.061   1.765  14.383  0.5990  1.0860 -0.4403
   68TCq2    C6 1039   4.178   1.802  14.322 -0.0352  0.8479  0.8386
   68TCq2    C7 1040   4.184   1.805  14.188  0.2803  0.8830  0.3438
   68TCq2    C8 1041   4.293   1.841  14.403 -0.1187 -0.4985 -0.0453
   68TCq2    O4 1042   4.397   1.825  14.337  0.7017  0.1105  0.3954
   68TCq2    C9 1043   3.828   1.695  14.368 -0.1223  0.8666 -0.3788
   68TCq2    O5 1044   3.727   1.675  14.294  0.1470  0.5484 -0.3241
   68TCq2    O6 1045   3.809   1.753  14.475  0.0093 -0.7589  0.5212
   68TCq2    H2 1046   3.873   1.704  14.111  0.1731 -0.1309  1.5468
   68TCq2    H3 1047   4.052   1.767  14.491 -0.6707 -1.7956 -0.5139
   68TCq2    H4 1048   4.272   1.843  14.137  1.2393  1.3701  2.3522
   69TMC2    C1 1049   1.427   3.659  12.580 -0.0166 -0.1241 -0.4123
   69TMC2    C2 1050   1.302   3.679  12.531 -1.0720  0.1285 -0.0404
   69TMC2    C3 1051   1.263   3.779  12.449  0.2024  0.1919 -0.8181
   69TMC2    C4 1052   1.524   3.740  12.532  1.1223  0.2388 -0.2518
   69TMC2    C5 1053   1.485   3.836  12.446  0.1619  0.5187  0.0714
   69TMC2    C6 1054   1.356   3.849  12.391  0.2138 -0.9287 -0.4274
   69TMC2     C 1055   1.457   3.534  12.653 -0.2854 -0.4593  0.5380
   69TMC2     O 1056   1.392   3.436  12.627  0.3239  0.1265 -0.3876
   69TMC2     H 1057   1.224   3.613  12.566 -1.3200  0.6075  0.3132
   69TMC2    H1 1058   1.621   3.756  12.578  0.2456  1.8396  1.0303
   69TMC2    H2 1059   1.336   3.922  12.314  1.0550 -1.2777 -0.9725
   69TMC2    C7 1060   1.574   3.925  12.372  0.0686 -0.0860  1.0182
   69TMC2    C8 1061   1.136   3.777  12.377 -0.2879  0.4886 -1.3490
   69TMC2    O1 1062   1.537   4.039  12.340  0.0143  0.3228  0.1489
   69TMC2    O2 1063   1.059   3.689  12.403 -0.2579  0.0809  0.5810
   69TMC2    O5 1064   1.100   3.906  12.365  0.2554  0.2052  0.1316
   69TMC2    H5 1065   1.161   3.975  12.399  1.3680 -0.5977 -0.2267
   70MPD2     C 1066   1.730   3.498  12.905  0.0294  0.0837  0.4025
   70MPD2    C1 1067   1.627   3.451  12.821  0.4639 -0.0528 -0.2004
   70MPD2    C2 1068   1.602   3.322  12.823  0.4219 -0.1323 -0.1237
   70MPD2    C3 1069   1.666   3.233  12.910  0.2607  0.2662  0.3805
   70MPD2    C4 1070   1.753   3.281  13.007 -0.1447  0.1263 -0.0150
   70MPD2    C5 1071   1.789   3.413  13.000  0.0137  0.1584  0.4159
   70MPD2     H 1072   1.537   3.287  12.744  0.4095  0.6799 -0.4710
   70MPD2    H1 1073   1.803   3.216  13.078  0.6386  2.0223  1.1788
   70MPD2    H2 1074   1.747   3.605  12.903  0.8033 -0.0505  0.1213
   70MPD2    H3 1075   1.854   3.463  13.071  2.0757  0.8646 -1.9525
   70MPD2     N 1076   1.644   3.092  12.895 -0.1971  0.0042 -0.3259
   70MPD2    H5 1077   1.707   3.032  12.948  0.1446  1.3225  0.7551
   70MPD2    N1 1078   1.567   3.550  12.736 -0.5582  0.5403  0.1479
   70MPD2    H7 1079   1.593   3.647  12.752 -0.2004  0.8652 -2.3086
   71TMC2    C1 1080   2.960   3.414   1.732  0.1412 -1.0451  0.4873
   71TMC2    C2 1081   3.030   3.317   1.812 -0.1719 -0.0689  0.7481
   71TMC2    C3 1082   3.039   3.338   1.945 -0.4235 -0.0565 -0.5343
   71TMC2    C4 1083   2.895   3.513   1.787 -0.8907 -0.2446 -0.0144
   71TMC2    C5 1084   2.888   3.528   1.920 -0.1329 -0.2974 -0.3092
   71TMC2    C6 1085   2.967   3.440   1.998  0.2733  0.1052 -0.0935
   71TMC2     C 1086   2.930   3.367   1.601 -0.9725  0.3096  0.5560
   71TMC2     O 1087   2.873   3.258   1.599 -0.3569 -0.6125 -0.0517
   71TMC2     H 1088   3.081   3.233   1.765 -0.6710 -1.0033  1.8832
   71TMC2    H1 1089   2.846   3.585   1.721 -0.5898  0.2912  0.3433
   71TMC2    H2 1090   2.973   3.456   2.105 -0.9207  2.2233 -0.3626
   71TMC2    C7 1091   2.820   3.645   1.983 -0.1397 -0.0358 -0.0431
   71TMC2    C8 1092   3.081   3.225   2.028  1.0013  0.5788 -0.1905
   71TMC2    O1 1093   2.863   3.665   2.097  0.4584 -0.1362  1.1711
   71TMC2    O2 1094   3.122   3.118   1.981 -0.3452  0.4654  0.0192
   71TMC2    O5 1095   3.078   3.261   2.161  0.0148  0.0298 -0.1536
   71TMC2    H5 1096   3.037   3.346   2.188 -0.6970 -0.5458  0.5712
   72MPD2     C 1097   2.854   3.432   1.102 -0.1578 -0.8900  0.1496
   72MPD2    C1 1098   2.918   3.542   1.149  0.2900  0.3419  0.2480
   72MPD2    C2 1099   2.951   3.543   1.278  0.6161  0.4995  0.2575
   72MPD2    C3 1100   2.921   3.440   1.362  0.5540  0.2163 -0.4520
   72MPD2    C4 1101   2.855   3.333   1.314  0.0840  0.2134 -0.2867
   72MPD2    C5 1102   2.822   3.329   1.181 -0.0346 -0.9674 -0.2095
   72MPD2     H 1103   3.000   3.631   1.318 -0.3551  0.4885  1.4947
   72MPD2    H1 1104   2.843   3.248   1.379  3.3501  1.3845  1.8037
   72MPD2    H2 1105   2.834   3.423   0.995  0.3615 -2.4497  0.1872
   72MPD2    H3 1106   2.782   3.240   1.135 -0.8487  1.2152 -3.8147
   72MPD2     N 1107   2.960   3.457   1.501 -0.0097 -0.1209  0.1820
   72MPD2    H5 1108   3.019   3.537   1.523 -1.4592  1.3216 -1.2047
   72MPD2    N1 1109   2.971   3.636   1.070 -0.0928 -0.3625  0.1437
   72MPD2    H7 1110   3.051   3.688   1.104 -0.4512 -0.0578  0.5082
   73TMC2    C1 1111   2.776   1.468  13.608 -0.2749  0.9638 -0.3350
   73TMC2    C2 1112   2.654   1.441  13.562  0.2294 -0.5616 -0.5497
   73TMC2    C3 1113   2.588   1.521  13.473  1.2378  0.0293  0.2416
   73TMC2    C4 1114   2.845   1.575  13.557 -0.5774  0.2549  0.1428
   73TMC2    C5 1115   2.789   1.648  13.451 -0.2299  0.6405 -0.6307
   73TMC2    C6 1116   2.659   1.622  13.416  0.0279 -0.4064 -0.7895
   73TMC2     C 1117   2.851   1.355  13.654 -0.0180  0.4995 -0.0720
   73TMC2     O 1118   2.971   1.375  13.638  0.3027 -0.1561 -0.0225
   73TMC2     H 1119   2.596   1.366  13.614 -0.5311  0.5588  0.2426
   73TMC2    H1 1120   2.949   1.593  13.580 -0.6942  1.0488  0.0470
   73TMC2    H2 1121   2.611   1.668  13.331  0.4127 -0.1088 -0.8445
   73TMC2    C7 1122   2.881   1.669  13.339  0.9703 -0.7052 -0.4163
   73TMC2    C8 1123   2.462   1.475  13.426  1.7190  0.1355 -0.1785
   73TMC2    O1 1124   2.851   1.748  13.250  0.3723 -0.7701 -0.1822
   73TMC2    O2 1125   2.425   1.363  13.441  0.0497 -0.0975 -0.7566
   73TMC2    O5 1126   2.394   1.583  13.378  0.4707  0.2434 -0.1420
   73TMC2    H5 1127   2.432   1.669  13.407  1.5519 -0.6702  1.1204
   74MPD2     C 1128   2.984   0.866  13.696  0.1980 -0.4027  0.1798
   74MPD2    C1 1129   3.048   0.965  13.621 -0.5709 -0.2277 -0.3443
   74MPD2    C2 1130   2.984   1.086  13.614  0.1051 -0.0586 -0.0710
   74MPD2    C3 1131   2.850   1.108  13.666  0.1065 -0.1987  0.3295
   74MPD2    C4 1132   2.796   1.003  13.739  0.1327 -0.0497  0.8184
   74MPD2    C5 1133   2.859   0.885  13.747 -0.5282 -0.9676 -0.2220
   74MPD2     H 1134   3.028   1.166  13.556 -0.9393 -0.6874 -1.7351
   74MPD2    H1 1135   2.705   1.012  13.797  0.0969  1.5240  0.5171
   74MPD2    H2 1136   3.027   0.767  13.698 -0.9275 -0.8698  1.2949
   74MPD2    H3 1137   2.800   0.804  13.789 -0.7322  0.3529  2.0006
   74MPD2     N 1138   2.785   1.234  13.663  0.4643  0.0625  0.3773
   74MPD2    H5 1139   2.689   1.243  13.694 -0.0567 -2.3874 -0.4773
   74MPD2    N1 1140   3.175   0.937  13.571 -0.2702 -0.0185 -0.2741
   74MPD2    H7 1141   3.222   0.853  13.604  2.0497  1.2444 -0.3994
   75TCq2    C1 1142   3.623   2.257  13.796 -0.6255  0.1365 -0.3515
   75TCq2    O2 1143   3.646   2.244  13.915  0.4302  0.0026 -0.4467
   75TCq2    C2 1144   3.520   2.344  13.739  0.2448 -0.3851 -0.3807
   75TCq2    C3 1145   3.509   2.470  13.795  0.1672 -0.7464  0.3869
   75TCq2    C4 1146   3.409   2.554  13.741 -0.5583  0.2356  0.5616
   75TCq2    C5 1147   3.327   2.508  13.642  0.7278 -0.3489 -0.2686
   75TCq2    C6 1148   3.343   2.382  13.595 -0.5026 -0.8639  0.5825
   75TCq2    C7 1149   3.442   2.296  13.638  0.1596  0.4742  0.5032
   75TCq2    C8 1150   3.258   2.331  13.484  0.1223 -0.0264  0.1358
   75TCq2    O4 1151   3.293   2.239  13.414  0.3333 -0.2778 -0.4296
   75TCq2    C9 1152   3.399   2.682  13.799  0.4936 -0.4537  1.0282
   75TCq2    O5 1153   3.365   2.779  13.726  0.0716  0.0883 -0.3780
   75TCq2    O6 1154   3.442   2.696  13.916  0.0250  0.4216  0.4816
   75TCq2    H2 1155   3.584   2.508  13.863  1.0609 -1.2863 -0.2984
   75TCq2    H3 1156   3.267   2.585  13.594  2.6698  0.4848 -1.3418
   75TCq2    H4 1157   3.453   2.199  13.592  1.4218  0.8560 -0.0015
   76MPD2     C 1158   2.456   3.001  12.414  0.4254 -1.2548  0.4016
   76MPD2    C1 1159   2.472   3.020  12.278  0.1930 -0.5636  0.4727
   76MPD2    C2 1160   2.567   2.936  12.213 -0.7248  0.2115 -0.4167
   76MPD2    C3 1161   2.627   2.830  12.276  0.6413  0.6934  0.1626
   76MPD2    C4 1162   2.613   2.818  12.410  0.2223  0.1214  0.7503
   76MPD2    C5 1163   2.525   2.898  12.472  0.0890  0.9835 -0.3394
   76MPD2     H 1164   2.593   2.945  12.108 -1.0116 -1.5966 -0.6371
   76MPD2    H1 1165   2.654   2.734  12.465  0.8790  0.5178  0.8592
   76MPD2    H2 1166   2.380   3.050  12.474  0.8787 -0.5524  0.4055
   76MPD2    H3 1167   2.511   2.886  12.579 -2.7840  1.0367 -0.6951
   76MPD2     N 1168   2.714   2.736  12.210 -0.0199  0.0607 -0.0055
   76MPD2    H5 1169   2.746   2.655  12.263 -1.0377  1.4252  2.6836
   76MPD2    N1 1170   2.409   3.110  12.199  0.6578  0.4472 -0.1353
   76MPD2    H7 1171   2.436   3.118  12.101  0.0681  2.6727 -0.1375
   77TCq2    C1 1172   2.746   2.731  12.073  0.4007 -0.2214 -0.8515
   77TCq2    O2 1173   2.711   2.805  11.982 -0.2799  0.6164  0.4072
   77TCq2    C2 1174   2.822   2.607  12.041 -0.1645  0.3718  0.2474
   77TCq2    C3 1175   2.793   2.545  11.919  0.2022 -0.3759 -0.0818
   77TCq2    C4 1176   2.840   2.418  11.895  0.5989 -0.2562  0.3228
   77TCq2    C5 1177   2.917   2.354  11.984 -0.1295  0.6581  0.2355
   77TCq2    C6 1178   2.937   2.412  12.107  0.2647  0.5137 -0.4002
   77TCq2    C7 1179   2.897   2.542  12.137 -0.3562  0.1188  0.1980
   77TCq2    C8 1180   3.036   2.343  12.193  0.1353  0.0016 -0.3971
   77TCq2    O4 1181   3.091   2.242  12.142 -0.0659  0.2045  0.3816
   77TCq2    C9 1182   2.815   2.364  11.763 -0.0400 -0.0277  0.4555
   77TCq2    O5 1183   2.750   2.431  11.679 -0.1564 -0.0712  0.8140
   77TCq2    O6 1184   2.838   2.240  11.747  0.0224 -0.0495 -0.5129
   77TCq2    H2 1185   2.726   2.590  11.846  0.8514 -1.0354 -1.1002
   77TCq2    H3 1186   2.947   2.253  11.961 -1.2486  0.7365 -1.5884
   77TCq2    H4 1187   2.924   2.605  12.221 -0.3774  3.0615 -2.0300
   78MPD1     C 1188   4.638   3.984   0.846 -0.1469 -0.5776  0.1762
   78MPD1    C1 1189   4.584   4.072   0.935 -0.3791 -0.0908 -0.0843
   78MPD1    C2 1190   4.590   4.047   1.073  0.6616 -0.5314 -0.9055
   78MPD1    C3 1191   4.670   3.937   1.115  0.2005  0.5112 -0.1200
   78MPD1    C4 1192   0.018   3.869   1.020  0.3302  0.4042 -0.5338
   78MPD1    C5 1193   0.002   3.889   0.886 -0.2328  0.2680  0.9301
   78MPD1     H 1194   4.544   4.109   1.149  0.8207  0.1275 -1.3458
   78MPD1    H1 1195   0.074   3.783   1.054 -0.6497  0.0636  0.2442
   78MPD1    H2 1196   4.636   4.004   0.739 -0.0374 -2.0576 -0.0922
   78MPD1    H3 1197   0.062   3.850   0.805  1.1329  1.2443  1.4785
   78MPD1     N 1198   4.687   3.903   1.250  0.2190  0.8801 -0.4460
   78MPD1    H5 1199   0.038   3.834   1.265  0.0220  0.1590 -2.7827
   78MPD1    N1 1200   4.506   4.182   0.896  0.2930 -0.7143  0.2550
   78MPD1    H6 1201   4.502   4.265   0.954  1.3122 -0.4291 -0.0806
   78MPD1    H7 1202   4.524   4.204   0.798  1.5165 -1.5512  0.2846
   79TCq2    C1 1203   4.595   3.922   1.351 -0.0052  0.1614 -0.6152
   79TCq2    O2 1204   4.477   3.955   1.343  0.9957 -0.1832 -0.1820
   79TCq2    C2 1205   4.626   3.864   1.483  0.5445  0.3752 -0.1244
   79TCq2    C3 1206   4.525   3.854   1.574  0.0156 -0.1957 -0.8135
   79TCq2    C4 1207   4.572   3.821   1.696 -0.6920 -0.5569  0.8062
   79TCq2    C5 1208   4.702   3.790   1.729  0.6151  0.5405 -0.2449
   79TCq2    C6 1209   0.066   3.807   1.634  0.1739  0.5761  0.1396
   79TCq2    C7 1210   0.034   3.841   1.509  0.1856 -0.6300  0.4064
   79TCq2    C8 1211   0.202   3.764   1.665 -0.2495  0.0843  0.2099
   79TCq2    O4 1212   0.245   3.784   1.780 -0.4410 -0.1695 -0.4631
   79TCq2    C9 1213   4.467   3.823   1.801 -0.6918 -0.0187 -0.5380
   79TCq2    O5 1214   4.351   3.870   1.784 -0.2068 -0.1030  0.6721
   79TCq2    O6 1215   4.499   3.773   1.910 -0.3747 -0.4479  0.3775
   79TCq2    H2 1216   4.419   3.868   1.553 -0.1964 -0.3390  0.1602
   79TCq2    H3 1217   0.010   3.785   1.833  1.2118  1.6695 -0.3630
   79TCq2    H4 1218   0.113   3.870   1.440 -0.3790  0.8296  0.3802
   80MPD2     C 1219   1.708   2.641  12.430  0.3619 -0.2501  0.1773
   80MPD2    C1 1220   1.646   2.535  12.367 -1.1871  0.3342  1.1594
   80MPD2    C2 1221   1.513   2.520  12.394 -0.3590 -0.8042  0.5520
   80MPD2    C3 1222   1.439   2.596  12.483 -0.8428 -0.0795  0.6226
   80MPD2    C4 1223   1.501   2.707  12.541  0.2282 -0.0574  0.8614
   80MPD2    C5 1224   1.634   2.729  12.505  0.2313  0.3990 -0.3421
   80MPD2     H 1225   1.465   2.431  12.353  0.1720 -0.2745 -1.2018
   80MPD2    H1 1226   1.454   2.777  12.609 -0.5299  1.7124 -1.4896
   80MPD2    H2 1227   1.806   2.681  12.406  0.7591 -0.2205  1.8647
   80MPD2    H3 1228   1.677   2.825  12.532 -0.6404  1.2614 -2.0306
   80MPD2     N 1229   1.306   2.562  12.504 -0.2191 -0.1902  0.3454
   80MPD2    H5 1230   1.271   2.470  12.479  0.8586 -0.8909  1.4123
   80MPD2    N1 1231   1.711   2.464  12.262  0.0566 -0.0397  0.4574
   80MPD2    H7 1232   1.657   2.402  12.203  1.4202 -0.6465 -0.1564
   81TCq2    C1 1233   1.845   2.470  12.230 -0.2512 -0.1491 -0.0942
   81TCq2    O2 1234   1.938   2.539  12.269  0.1574 -0.1813  0.1069
   81TCq2    C2 1235   1.884   2.382  12.119 -0.2496  0.4504  0.0386
   81TCq2    C3 1236   2.003   2.416  12.058 -0.2178 -0.3852 -0.7121
   81TCq2    C4 1237   2.027   2.368  11.935 -0.0421  0.2309 -0.1132
   81TCq2    C5 1238   1.943   2.279  11.875  0.2472  0.5101  0.4002
   81TCq2    C6 1239   1.836   2.229  11.944 -0.5641  0.5236 -0.0780
   81TCq2    C7 1240   1.802   2.288  12.064 -0.1466 -0.5350  0.3831
   81TCq2    C8 1241   1.742   2.149  11.865  0.5113 -0.2282  0.0464
   81TCq2    O4 1242   1.751   2.158  11.743 -0.4217  0.0254 -0.4617
   81TCq2    C9 1243   2.146   2.428  11.864 -0.6180 -0.0739 -0.0842
   81TCq2    O5 1244   2.154   2.388  11.745  0.5393 -0.5043 -0.4956
   81TCq2    O6 1245   2.201   2.531  11.911 -0.5211 -0.5052  0.2780
   81TCq2    H2 1246   2.063   2.499  12.094 -0.6526 -0.1974 -0.4204
   81TCq2    H3 1247   1.964   2.246  11.774 -3.3436  1.9863 -0.8429
   81TCq2    H4 1248   1.708   2.263  12.112 -1.1959  1.3327 -0.6956
   82MPD2     C 1249   0.309   2.532  10.755  0.2059 -0.1698 -0.3560
   82MPD2    C1 1250   0.219   2.426  10.737  0.0456  0.6515 -0.2387
   82MPD2    C2 1251   0.254   2.304  10.791 -0.2684  0.1278 -0.3463
   82MPD2    C3 1252   0.375   2.284  10.860  0.2205 -0.3204 -0.1222
   82MPD2    C4 1253   0.457   2.392  10.878  0.2794 -0.4589 -0.3384
   82MPD2    C5 1254   0.421   2.513  10.821  0.6596  0.4175 -0.6159
   82MPD2     H 1255   0.193   2.217  10.769 -0.2709  0.1939 -0.5986
   82MPD2    H1 1256   0.548   2.387  10.935  1.0558 -0.7150 -1.5996
   82MPD2    H2 1257   0.291   2.628  10.708 -0.7823 -0.3963 -0.4590
   82MPD2    H3 1258   0.479   2.601  10.845 -0.5495  2.0227 -3.6048
   82MPD2     N 1259   0.414   2.169  10.919 -0.0196 -0.1446 -0.3542
   82MPD2    H5 1260   0.500   2.171  10.973 -1.5014  2.0638  1.8966
   82MPD2    N1 1261   0.103   2.440  10.657 -0.2768 -0.5953 -0.3747
   82MPD2    H7 1262   0.104   2.520  10.595 -0.3868 -0.9356 -0.8118
   83TCq2    C1 1263   0.347   2.051  10.906 -0.4595  0.2226 -0.0080
   83TCq2    O2 1264   0.281   2.005  10.816  0.2810  0.5233  0.1424
   83TCq2    C2 1265   0.360   1.978  11.028 -0.1062 -0.3110  0.1923
   83TCq2    C3 1266   0.427   2.032  11.138  0.0605  0.6247 -0.2896
   83TCq2    C4 1267   0.405   1.979  11.259  0.1643  0.2390 -0.7154
   83TCq2    C5 1268   0.325   1.868  11.273 -0.5802 -0.3431 -0.5685
   83TCq2    C6 1269   0.270   1.806  11.171 -0.4756 -0.7408  0.4139
   83TCq2    C7 1270   0.292   1.854  11.042 -0.3961  0.0665 -0.1020
   83TCq2    C8 1271   0.165   1.708  11.197  0.4524  0.5020  0.0970
   83TCq2    O4 1272   0.144   1.669  11.315 -0.1743 -0.1177  0.0574
   83TCq2    C9 1273   0.450   2.055  11.372 -0.5456  0.4825 -0.3378
   83TCq2    O5 1274   0.451   2.001  11.490  0.4867  0.0454  0.5293
   83TCq2    O6 1275   0.524   2.154  11.348 -0.1232  0.0490 -0.1798
   83TCq2    H2 1276   0.492   2.118  11.133  0.4878  0.4969  3.0636
   83TCq2    H3 1277   0.296   1.846  11.375 -2.2600  0.4420 -0.8890
   83TCq2    H4 1278   0.247   1.816  10.952  2.5259 -1.8528 -0.7499
   84TCq2    C1 1279   1.369   0.467  10.852 -0.4553  0.5121  0.0676
   84TCq2    O2 1280   1.457   0.441  10.769 -0.7210  0.3391  1.1717
   84TCq2    C2 1281   1.394   0.452  10.996  0.3530  0.1845 -0.5207
   84TCq2    C3 1282   1.466   0.343  11.038 -0.9848  0.7604  0.1309
   84TCq2    C4 1283   1.462   0.309  11.169 -0.7076 -0.0131  0.0898
   84TCq2    C5 1284   1.387   0.383  11.260  0.1616 -0.1679 -0.9483
   84TCq2    C6 1285   1.316   0.487  11.216 -0.0213  0.2585 -0.4478
   84TCq2    C7 1286   1.317   0.525  11.084 -0.4765 -0.6197  0.2075
   84TCq2    C8 1287   1.233   0.561  11.309  0.0226  0.7130  0.6871
   84TCq2    O4 1288   1.177   0.663  11.268 -0.1866 -0.7374 -0.4766
   84TCq2    C9 1289   1.562   0.212  11.215 -0.2020 -0.1293 -0.5475
   84TCq2    O5 1290   1.586   0.215  11.338  0.1792  0.0753  0.3517
   84TCq2    O6 1291   1.607   0.140  11.121  0.3307 -0.0305  0.4018
   84TCq2    H2 1292   1.532   0.294  10.967  0.6441 -1.7584  3.3716
   84TCq2    H3 1293   1.389   0.354  11.365  2.1188  1.3439 -0.5840
   84TCq2    H4 1294   1.270   0.617  11.052 -2.5160 -2.5810 -2.4849
   85MPD2     C 1295   1.605   3.442  16.378 -0.0197  0.8137  0.0024
   85MPD2    C1 1296   1.479   3.429  16.328  0.0591 -0.6387 -0.5902
   85MPD2    C2 1297   1.410   3.540  16.284 -0.5146  0.0512 -1.2010
   85MPD2    C3 1298   1.464   3.667  16.312  0.3647  0.2673 -0.3205
   85MPD2    C4 1299   1.597   3.680  16.348  0.0619 -0.1056 -1.0505
   85MPD2    C5 1300   1.664   3.564  16.383 -1.0086  0.1849 -0.1253
   85MPD2     H 1301   1.312   3.533  16.239  0.0351  0.1933 -2.4184
   85MPD2    H1 1302   1.657   3.770  16.350 -0.2451  0.1230 -1.9381
   85MPD2    H2 1303   1.663   3.353  16.401 -0.5113  0.4953  0.0049
   85MPD2    H3 1304   1.767   3.562  16.418 -1.1008 -0.9571  0.0959
   85MPD2     N 1305   1.387   3.778  16.265  0.1574  0.2096  0.5839
   85MPD2    H5 1306   1.313   3.772  16.197  0.3929  0.0425  0.3445
   85MPD2    N1 1307   1.438   3.299  16.278  0.4388  0.3179 -0.0893
   85MPD2    H7 1308   1.340   3.308  16.255  0.8727  1.3997 -1.5255
   86TCq2    C1 1309   1.425   3.908  16.298 -0.6154  0.0274  0.1941
   86TCq2    O2 1310   1.506   3.949  16.384 -0.3886 -0.0194  0.4171
   86TCq2    C2 1311   1.370   4.001  16.204  0.1099  1.0121  0.5539
   86TCq2    C3 1312   1.241   3.984  16.166 -0.2321  0.2745 -0.0627
   86TCq2    C4 1313   1.199   4.041  16.045 -0.4907  0.3940 -0.4112
   86TCq2    C5 1314   1.292   4.100  15.961  0.6379 -0.3989  0.4678
   86TCq2    C6 1315   1.421   4.109  16.006 -0.0356  0.9326 -0.0791
   86TCq2    C7 1316   1.465   4.073  16.135 -0.0864 -0.2471 -0.2769
   86TCq2    C8 1317   1.523   4.086  15.907  0.9772 -0.0634 -0.7085
   86TCq2    O4 1318   1.631   4.042  15.931  0.1387  0.3466  0.2458
   86TCq2    C9 1319   1.060   4.040  16.017  0.9223  1.1660 -0.2608
   86TCq2    O5 1320   1.018   4.136  15.948  0.4432 -0.2174 -0.1873
   86TCq2    O6 1321   0.987   3.956  16.076  1.1060 -0.7748 -0.6095
   86TCq2    H2 1322   1.171   3.927  16.225 -1.9118  2.1197 -0.2443
   86TCq2    H3 1323   1.255   4.143  15.869 -1.1486  0.1891  1.4614
   86TCq2    H4 1324   1.566   4.075  16.172 -0.5792  2.3210  0.9029
   87MPD2     C 1325   0.342   2.843   1.313  0.2045 -0.3646 -0.0446
   87MPD2    C1 1326   0.372   2.741   1.227  0.0315 -0.1405 -0.3278
   87MPD2    C2 1327   0.281   2.706   1.130 -0.1078  0.1687  0.9251
   87MPD2    C3 1328   0.172   2.791   1.108  0.4328 -0.1195 -0.0765
   87MPD2    C4 1329   0.146   2.891   1.196 -0.3160 -0.7746 -0.6455
   87MPD2    C5 1330   0.235   2.922   1.293  0.7633 -0.4624  0.4778
   87MPD2     H 1331   0.294   2.617   1.068  1.0403  1.2858 -0.4247
   87MPD2    H1 1332   0.052   2.945   1.190  0.8516  1.3045 -0.2153
   87MPD2    H2 1333   0.396   2.869   1.403 -1.5096  0.9197  0.5863
   87MPD2    H3 1334   0.210   2.994   1.370  0.7009  1.7263 -1.5827
   87MPD2     N 1335   0.067   2.757   1.020  0.3878 -0.0768  1.0147
   87MPD2    H5 1336   4.698   2.802   1.019  1.2548  1.6873 -0.4789
   87MPD2    N1 1337   0.491   2.672   1.255 -0.7498 -0.2843  0.0388
   87MPD2    H7 1338   0.545   2.716   1.329 -0.8967 -0.0607  0.0146
   88TCq2    C1 1339   0.537   2.572   1.175 -0.0789 -0.2487  0.7237
   88TCq2    O2 1340   0.511   2.542   1.058 -0.2423  0.0739  0.4981
   88TCq2    C2 1341   0.634   2.493   1.243 -0.6779 -0.3182 -0.3813
   88TCq2    C3 1342   0.654   2.484   1.381 -0.2400 -0.2311  0.1047
   88TCq2    C4 1343   0.716   2.374   1.425  0.3245  0.8619  0.0149
   88TCq2    C5 1344   0.746   2.261   1.353 -0.3142  0.0414  0.2276
   88TCq2    C6 1345   0.726   2.271   1.218  0.1417 -0.0354  0.5421
   88TCq2    C7 1346   0.679   2.386   1.167 -0.6846 -0.1116 -0.5727
   88TCq2    C8 1347   0.726   2.155   1.132  0.0547 -0.1714 -0.6494
   88TCq2    O4 1348   0.662   2.170   1.030  0.0941  0.2569 -0.6012
   88TCq2    C9 1349   0.756   2.371   1.564  0.2804  0.5981 -0.3808
   88TCq2    O5 1350   0.781   2.258   1.612 -0.0807 -0.1028 -0.6204
   88TCq2    O6 1351   0.797   2.475   1.612  0.4748  0.0186  0.1132
   88TCq2    H2 1352   0.631   2.566   1.449  0.4263 -0.9400  1.1830
   88TCq2    H3 1353   0.787   2.174   1.402  0.5415 -1.3357 -2.8830
   88TCq2    H4 1354   0.668   2.379   1.059 -1.6286  0.8963 -0.5448
   89MPD2     C 1355   0.111   4.649   1.935  0.6452 -0.6862 -0.1333
   89MPD2    C1 1356   0.010   4.622   1.844  0.7447 -0.4197  0.1462
   89MPD2    C2 1357   0.003   4.690   1.726 -0.0838  0.5151  0.5004
   89MPD2    C3 1358   0.110   0.056   1.689 -0.3836  0.2327  0.3646
   89MPD2    C4 1359   0.211   0.080   1.775  0.0500 -0.2679 -0.1272
   89MPD2    C5 1360   0.205   0.017   1.897  0.3484 -0.7518 -0.3895
   89MPD2     H 1361   4.647   4.683   1.652  0.9237  0.7299 -0.5875
   89MPD2    H1 1362   0.294   0.150   1.765 -1.2326  1.4704  1.4788
   89MPD2    H2 1363   0.112   4.606   2.035  2.3294  1.0586  0.6040
   89MPD2    H3 1364   0.274   0.052   1.972  1.7214  0.8105 -2.3729
   89MPD2     N 1365   0.101   0.112   1.559 -0.0500  0.3485  0.8359
   89MPD2    H5 1366   0.023   0.091   1.497  1.5000 -0.3226 -0.8622
   89MPD2    N1 1367   4.617   4.551   1.879 -0.2747  0.5213 -0.6072
   89MPD2    H7 1368   4.550   4.548   1.804 -0.9424 -1.1626  0.0539
   90TCq2    C1 1369   0.200   0.186   1.504  0.8237 -0.7139  0.1265
   90TCq2    O2 1370   0.318   0.196   1.544 -0.0110 -0.0850 -0.6809
   90TCq2    C2 1371   0.155   0.222   1.371 -0.4729  0.1263  0.1926
   90TCq2    C3 1372   0.023   0.264   1.352 -0.2278 -0.3772  1.0699
   90TCq2    C4 1373   4.707   0.307   1.226  0.3099 -0.1292  0.2846
   90TCq2    C5 1374   0.078   0.302   1.129  0.1086  0.2230 -0.1185
   90TCq2    C6 1375   0.206   0.265   1.155  0.1214  0.3299 -0.2490
   90TCq2    C7 1376   0.251   0.243   1.280 -0.5850  0.1205  0.4935
   90TCq2    C8 1377   0.308   0.276   1.047 -0.6378 -0.0015  0.3605
   90TCq2    O4 1378   0.419   0.225   1.062  0.9966 -0.4727 -0.0982
   90TCq2    C9 1379   4.572   0.360   1.205  0.0050 -1.0045  0.7033
   90TCq2    O5 1380   4.485   0.344   1.294  0.2341  0.2595  0.6459
   90TCq2    O6 1381   4.542   0.415   1.095  0.5838  0.3963  0.1991
   90TCq2    H2 1382   4.673   0.258   1.433 -0.6842  1.0929  0.7580
   90TCq2    H3 1383   0.053   0.328   1.026 -0.6941  0.7326  0.2068
   90TCq2    H4 1384   0.343   0.188   1.296 -1.2184 -1.4945 -1.4139
   91TMC2    C1 1385   1.951   0.133  16.719  0.0019  0.7582 -0.2079
   91TMC2    C2 1386   1.963   0.228  16.618  0.3150 -0.5002  0.1148
   91TMC2    C3 1387   1.845   0.266  16.558  0.5310  0.6336  0.5575
   91TMC2    C4 1388   1.830   0.094  16.768  0.3802 -0.4608 -0.4710
   91TMC2    C5 1389   1.715   0.127  16.699 -0.0170  0.0693 -0.2080
   91TMC2    C6 1390   1.725   0.208  16.598  0.5725  0.2948  0.4030
   91TMC2     C 1391   2.064   0.041  16.756 -0.0160  0.0097 -0.2309
   91TMC2     O 1392   2.014   4.657  16.793  0.8513 -0.1271  0.3711
   91TMC2     H 1393   2.057   0.269  16.582  0.0249 -0.3803 -0.5133
   91TMC2    H1 1394   1.826   0.047  16.865  1.7164  1.9642  0.7724
   91TMC2    H2 1395   1.630   0.253  16.570  0.8254  0.5368 -0.0570
   91TMC2    C7 1396   1.590   0.070  16.744 -0.4760 -0.3707 -0.2797
   91TMC2    C8 1397   1.862   0.345  16.434 -0.2633 -0.2846 -0.1287
   91TMC2    O1 1398   1.610   0.020  16.856  0.7949 -0.0196  0.0876
   91TMC2    O2 1399   1.974   0.365  16.394 -0.3000 -0.2960  0.4291
   91TMC2    O5 1400   1.747   0.328  16.364  0.0028  0.2537  0.3670
   91TMC2    H5 1401   1.670   0.361  16.416 -0.9721 -0.6268 -0.5071
   92MPD2     C 1402   2.283   4.562  16.761  0.8170 -0.3310  0.0483
   92MPD2    C1 1403   2.296   4.692  16.712  0.4521  0.4694  0.3777
   92MPD2    C2 1404   2.420   0.007  16.658  0.2397  0.5803  0.0540
   92MPD2    C3 1405   2.526   4.643  16.648  0.3623  0.0532  0.3843
   92MPD2    C4 1406   2.511   4.515  16.690 -0.0813 -0.0785 -0.0197
   92MPD2    C5 1407   2.386   4.475  16.738  0.4073 -0.5449  0.2379
   92MPD2     H 1408   2.428   0.101  16.604  2.8323 -0.6173 -1.5938
   92MPD2    H1 1409   2.587   4.439  16.684  0.0852  0.0551  0.4177
   92MPD2    H2 1410   2.192   4.513  16.794  1.2526 -1.7124 -0.8220
   92MPD2    H3 1411   2.375   4.367  16.747  1.2267 -0.6048  0.5256
   92MPD2     N 1412   2.639   4.691  16.582  0.6359 -0.3120  0.1978
   92MPD2    H5 1413   2.631   0.059  16.537  0.7933 -0.2830  0.2282
   92MPD2    N1 1414   2.193   0.067  16.716 -0.7256  0.1915  0.2469
   92MPD2    H7 1415   2.220   0.155  16.675  0.4336  0.2128  1.0457
   93MPD2     C 1416   3.038   0.458  13.626  0.6017 -0.8092 -0.9995
   93MPD2    C1 1417   3.064   0.325  13.646 -0.2724 -0.4944 -0.5320
   93MPD2    C2 1418   2.958   0.240  13.667  0.0496  0.0259  0.4081
   93MPD2    C3 1419   2.828   0.285  13.646  0.1055 -0.5534 -0.3627
   93MPD2    C4 1420   2.814   0.417  13.611  0.0553 -0.1055 -0.2187
   93MPD2    C5 1421   2.915   0.508  13.612 -0.1723 -0.0738 -0.0358
   93MPD2     H 1422   2.975   0.139  13.703 -2.7250 -0.6269 -0.1432
   93MPD2    H1 1423   2.713   0.452  13.596 -0.7781 -2.1852  0.6198
   93MPD2    H2 1424   3.123   0.525  13.615 -0.2383  0.1073 -1.9649
   93MPD2    H3 1425   2.895   0.611  13.585 -1.6462 -0.1924  0.6099
   93MPD2     N 1426   2.718   0.200  13.643 -0.4401 -0.1020  0.1211
   93MPD2    H5 1427   2.626   0.234  13.619  0.1308  1.0404 -0.4479
   93MPD2    N1 1428   3.197   0.276  13.656 -0.0970  0.1953  0.6883
   93MPD2    H7 1429   3.196   0.175  13.668  2.0177  0.2889  1.5587
   94TCq2    C1 1430   3.306   0.354  13.645 -0.1556  0.3196 -0.3837
   94TCq2    O2 1431   3.324   0.468  13.682 -0.1190  0.1542  0.1792
   94TCq2    C2 1432   3.413   0.261  13.617  0.5233  0.2807 -0.1148
   94TCq2    C3 1433   3.383   0.138  13.561 -0.1435 -0.9670  0.8607
   94TCq2    C4 1434   3.468   0.036  13.560  0.2366 -0.2211 -0.6468
   94TCq2    C5 1435   3.590   0.056  13.615  0.5411 -0.4034 -0.3367
   94TCq2    C6 1436   3.622   0.179  13.672  0.7205  0.4504 -0.1605
   94TCq2    C7 1437   3.532   0.287  13.677  0.4280  0.4166 -0.2231
   94TCq2    C8 1438   3.755   0.185  13.720  0.4577  0.5024 -0.5873
   94TCq2    O4 1439   3.832   0.088  13.706  0.0492  0.4578  0.2112
   94TCq2    C9 1440   3.440   4.628  13.522  0.3444  0.2450  0.1768
   94TCq2    O5 1441   3.538   4.548  13.516  0.2945  0.3741  0.3111
   94TCq2    O6 1442   3.315   4.602  13.522 -0.6083  0.0986 -0.1832
   94TCq2    H2 1443   3.287   0.112  13.517  0.7250  1.3570 -2.3367
   94TCq2    H3 1444   3.667   4.703  13.606  0.3932 -0.4414 -1.2346
   94TCq2    H4 1445   3.536   0.388  13.716  0.3197  0.0341  0.7707
   95TMC2    C1 1446   3.342   1.479  15.824 -0.1379 -0.4216 -0.4228
   95TMC2    C2 1447   3.404   1.499  15.947 -0.7670 -0.5465  0.0480
   95TMC2    C3 1448   3.323   1.520  16.052  0.0929  0.1472  0.6870
   95TMC2    C4 1449   3.207   1.494  15.802  0.3981 -0.4734  0.1380
   95TMC2    C5 1450   3.133   1.509  15.914  0.1766 -0.0750 -0.1121
   95TMC2    C6 1451   3.192   1.521  16.042 -0.0330 -0.8011  0.5732
   95TMC2     C 1452   3.434   1.453  15.714 -0.2452 -0.0940 -0.4616
   95TMC2     O 1453   3.553   1.487  15.719 -0.0536 -0.0166 -0.0576
   95TMC2     H 1454   3.510   1.485  15.960 -0.9144 -0.4124  1.3867
   95TMC2    H1 1455   3.170   1.483  15.701  3.4085 -1.2539 -0.8895
   95TMC2    H2 1456   3.122   1.521  16.125  1.1968  2.1695  1.5923
   95TMC2    C7 1457   2.988   1.525  15.890  0.2386 -0.0702 -0.5228
   95TMC2    C8 1458   3.382   1.579  16.167 -0.2341  0.6291  0.4157
   95TMC2    O1 1459   2.949   1.479  15.785 -0.1848 -0.0535  0.5554
   95TMC2    O2 1460   3.502   1.569  16.194 -1.0233 -0.2936 -1.1635
   95TMC2    O5 1461   3.304   1.671  16.212  0.3486  0.2606 -0.8154
   95TMC2    H5 1462   3.209   1.662  16.190  0.5175 -3.0074 -0.1881
   96MPD2     C 1463   3.542   1.313  15.227 -0.3838  1.2163  0.3563
   96MPD2    C1 1464   3.608   1.394  15.308  0.3501 -0.0348 -0.1831
   96MPD2    C2 1465   3.559   1.414  15.434 -0.2509 -0.3547  0.1390
   96MPD2    C3 1466   3.436   1.356  15.480 -0.1600 -0.5900  0.2429
   96MPD2    C4 1467   3.375   1.272  15.395 -0.0508 -0.0158  1.0153
   96MPD2    C5 1468   3.429   1.251  15.271  0.0720 -0.1730  0.3527
   96MPD2     H 1469   3.603   1.483  15.506 -0.8937 -0.5546  0.7164
   96MPD2    H1 1470   3.280   1.230  15.423 -0.4607  0.2712  0.0767
   96MPD2    H2 1471   3.578   1.296  15.126  1.4226  0.7942  1.0911
   96MPD2    H3 1472   3.374   1.190  15.201  0.9421 -0.9551  0.3554
   96MPD2     N 1473   3.377   1.384  15.608  0.2798  0.5888 -0.8482
   96MPD2    H5 1474   3.279   1.358  15.615  0.7260 -1.0587 -0.7085
   96MPD2    N1 1475   3.723   1.460  15.255  0.4016 -0.3455 -0.5811
   96MPD2    H7 1476   3.737   1.449  15.155 -1.2322 -1.0928 -0.7380
   97MPD2     C 1477   1.706   0.264   1.903 -0.4002  0.1282 -0.6605
   97MPD2    C1 1478   1.659   0.176   1.810  0.1639 -0.4038  0.4447
   97MPD2    C2 1479   1.711   0.179   1.682  0.1422 -0.2534 -0.1137
   97MPD2    C3 1480   1.802   0.271   1.636 -0.5904 -0.5478 -0.2384
   97MPD2    C4 1481   1.835   0.369   1.726  0.2346  1.0061  0.1888
   97MPD2    C5 1482   1.785   0.367   1.854  0.1658  0.2448 -0.3375
   97MPD2     H 1483   1.679   0.106   1.609  1.3545 -0.3871 -0.5048
   97MPD2    H1 1484   1.911   0.444   1.706 -0.6481  1.5099 -1.3436
   97MPD2    H2 1485   1.667   0.273   2.003  0.1790  0.4409 -0.4628
   97MPD2    H3 1486   1.826   0.428   1.933 -1.6925  3.4398 -1.8355
   97MPD2     N 1487   1.865   0.267   1.507  0.2297  0.2860  0.7901
   97MPD2    H5 1488   1.948   0.322   1.486  0.1085  0.1295 -0.1052
   97MPD2    N1 1489   1.558   0.092   1.853 -0.4052 -1.4663 -0.1841
   97MPD2    H7 1490   1.511   0.127   1.936 -0.4093 -0.2604 -0.6924
   98TCq2    C1 1491   1.807   0.209   1.402  0.4528  0.2668 -0.0428
   98TCq2    O2 1492   1.691   0.170   1.382  0.2943 -0.2872  0.1748
   98TCq2    C2 1493   1.895   0.216   1.286 -0.0617 -0.4968 -1.0521
   98TCq2    C3 1494   2.026   0.206   1.307 -0.1947  0.9597 -0.2308
   98TCq2    C4 1495   2.109   0.196   1.196 -0.4599 -0.1774  0.1693
   98TCq2    C5 1496   2.060   0.188   1.069  0.6918  0.4003 -0.1748
   98TCq2    C6 1497   1.919   0.178   1.054 -0.0324  0.4880  0.6688
   98TCq2    C7 1498   1.838   0.199   1.161 -0.1391  0.0671 -0.3269
   98TCq2    C8 1499   1.857   0.210   0.923 -0.2036 -0.1426 -0.1491
   98TCq2    O4 1500   1.753   0.271   0.917  0.2825 -0.4286 -0.1910
   98TCq2    C9 1501   2.246   0.195   1.201  0.4482 -0.5658  0.3969
   98TCq2    O5 1502   2.317   0.239   1.105 -0.2516 -0.3839  0.4216
   98TCq2    O6 1503   2.293   0.148   1.308  0.1492  0.1228  0.6626
   98TCq2    H2 1504   2.076   0.211   1.403 -1.1370  0.2125  0.2990
   98TCq2    H3 1505   2.134   0.195   0.990  1.6355  0.3950  0.7139
   98TCq2    H4 1506   1.732   0.179   1.152  0.4713 -2.1140 -2.4374
   99MPD2     C 1507   0.026   1.848   1.338  0.1250 -0.3258 -0.4805
   99MPD2    C1 1508   4.627   1.886   1.282 -0.2913  0.2398  0.0574
   99MPD2    C2 1509   4.562   1.791   1.209  0.6906  0.4219  0.2389
   99MPD2    C3 1510   4.618   1.674   1.177 -0.1605  0.1619 -1.0292
   99MPD2    C4 1511   0.019   1.635   1.232  0.6748  0.4797 -0.3534
   99MPD2    C5 1512   0.082   1.727   1.313 -0.1035  0.8724  0.5003
   99MPD2     H 1513   4.464   1.815   1.170  0.9542 -0.6368 -1.0767
   99MPD2    H1 1514   0.062   1.538   1.212  0.0693  0.6244 -2.3490
   99MPD2    H2 1515   0.088   1.914   1.397 -0.7019 -1.0240  1.1711
   99MPD2    H3 1516   0.179   1.699   1.355  0.0510 -0.6716 -0.8961
   99MPD2     N 1517   4.556   1.601   1.073 -0.0478 -0.0873 -0.1799
   99MPD2    H5 1518   4.477   1.642   1.025 -2.6341 -2.2251  2.2934
   99MPD2    N1 1519   4.557   2.006   1.324  0.3972  0.1694 -0.9228
   99MPD2    H7 1520   4.458   2.009   1.303  0.1865  0.4048  0.1286
  100TCq2    C1 1521   4.613   2.107   1.394 -0.3393 -0.2721 -0.3725
  100TCq2    O2 1522   0.005   2.116   1.436 -0.0228  0.1680 -0.6315
  100TCq2    C2 1523   4.513   2.209   1.441  0.0826 -0.3177  0.3356
  100TCq2    C3 1524   4.560   2.315   1.507 -0.2843  0.1128 -0.0462
  100TCq2    C4 1525   4.480   2.416   1.544 -0.1759 -0.4123  0.7677
  100TCq2    C5 1526   4.347   2.416   1.515  0.5799  0.1445  0.1552
  100TCq2    C6 1527   4.295   2.318   1.430  0.3111 -0.3252  1.1510
  100TCq2    C7 1528   4.379   2.207   1.392  0.2671 -0.1444  0.0337
  100TCq2    C8 1529   4.155   2.322   1.395 -0.4812  0.2576  0.1313
  100TCq2    O4 1530   4.098   2.428   1.393 -0.2710  0.3606 -0.1630
  100TCq2    C9 1531   4.543   2.517   1.628  0.1249 -0.6743 -0.1167
  100TCq2    O5 1532   4.668   2.515   1.646 -0.1288 -0.0639 -0.3278
  100TCq2    O6 1533   4.466   2.596   1.685 -0.1743  0.3989  0.0441
  100TCq2    H2 1534   4.666   2.324   1.531 -0.2867  2.0384 -0.7623
  100TCq2    H3 1535   4.279   2.496   1.542  0.3583  0.4176 -1.2273
  100TCq2    H4 1536   4.331   2.119   1.352 -1.9350  0.6160  1.0375
  101MPD2     C 1537   0.253   2.278  12.940 -0.3741 -0.5944 -0.1578
  101MPD2    C1 1538   0.177   2.355  13.027  0.0295 -0.2133 -0.1187
  101MPD2    C2 1539   0.108   2.291  13.129 -0.2256  0.8919 -0.2370
  101MPD2    C3 1540   0.101   2.150  13.134 -0.2706 -0.1787 -0.7232
  101MPD2    C4 1541   0.182   2.077  13.051  0.0580 -0.2956  0.2212
  101MPD2    C5 1542   0.260   2.141  12.956 -0.0537  0.3905  0.0879
  101MPD2     H 1543   0.036   2.338  13.196 -1.6955 -1.8687  0.1174
  101MPD2    H1 1544   0.193   1.970  13.059  2.0529 -0.1013  0.1045
  101MPD2    H2 1545   0.306   2.324  12.858 -0.7031 -0.0882 -0.0850
  101MPD2    H3 1546   0.315   2.080  12.886 -0.1202  1.1605 -0.6312
  101MPD2     N 1547   0.023   2.086  13.241  0.1580 -0.0949 -0.2334
  101MPD2    H5 1548   4.690   2.146  13.302 -0.6665 -1.2140  0.1141
  101MPD2    N1 1549   0.160   2.494  13.004 -0.1729 -0.1572 -0.7289
  101MPD2    H7 1550   0.202   2.535  12.921 -0.5568 -2.5623 -2.0889
  102TCq2    C1 1551   0.185   2.927  12.745 -0.1142  0.6095 -0.9423
  102TCq2    O2 1552   0.305   2.921  12.774  0.1934  0.0136 -0.1098
  102TCq2    C2 1553   0.082   2.886  12.841 -0.5905 -0.1119 -0.2524
  102TCq2    C3 1554   4.672   2.911  12.804  0.1548  0.4844 -0.0937
  102TCq2    C4 1555   4.586   2.836  12.874  0.0396 -1.2305 -0.5760
  102TCq2    C5 1556   4.617   2.727  12.952  0.2150 -0.6001  0.8603
  102TCq2    C6 1557   0.022   2.694  12.972  0.7213 -0.4461  0.5820
  102TCq2    C7 1558   0.119   2.785  12.928 -0.1963  0.0225  0.3673
  102TCq2    C8 1559   0.048   2.564  13.041 -0.2624 -1.0037  0.8645
  102TCq2    O4 1560   4.680   2.533  13.120  0.1459 -0.1910  0.3386
  102TCq2    C9 1561   4.443   2.861  12.861  0.0537  0.4019  0.2943
  102TCq2    O5 1562   4.413   2.944  12.772 -0.0933 -0.0353  0.0574
  102TCq2    O6 1563   4.359   2.799  12.932 -0.1563  0.3464 -0.4194
  102TCq2    H2 1564   4.631   2.996  12.750  2.8142  2.3347  0.8032
  102TCq2    H3 1565   4.539   2.661  12.988 -1.8871  0.6278 -1.4185
  102TCq2    H4 1566   0.225   2.762  12.931  0.0167  1.2687  2.2717
  103TMC2    C1 1567   3.180   2.499  12.973  0.0110  0.1946 -0.0438
  103TMC2    C2 1568   3.305   2.466  13.024  0.5755  0.5158  0.0062
  103TMC2    C3 1569   3.331   2.518  13.150  0.3335 -0.2925  0.2670
  103TMC2    C4 1570   3.094   2.585  13.040  0.5303 -0.3575  0.2954
  103TMC2    C5 1571   3.133   2.630  13.163 -0.4310 -0.1340 -0.0460
  103TMC2    C6 1572   3.248   2.595  13.220 -0.3383  0.2640 -0.6487
  103TMC2     C 1573   3.148   2.480  12.835  0.0696 -0.1199 -0.8125
  103TMC2     O 1574   3.090   2.570  12.780  0.3968 -0.1564 -0.1376
  103TMC2     H 1575   3.378   2.414  12.962 -0.3246  1.0644 -1.5151
  103TMC2    H1 1576   2.993   2.592  13.003  1.5214  0.0333 -2.3390
  103TMC2    H2 1577   3.276   2.628  13.320  2.1430 -3.2582 -0.1953
  103TMC2    C7 1578   3.046   2.724  13.227 -0.0970  0.4248  0.0333
  103TMC2    C8 1579   3.459   2.473  13.207  0.0205 -0.0199 -0.2123
  103TMC2    O1 1580   3.067   2.740  13.347 -0.2601  0.0172 -0.3504
  103TMC2    O2 1581   3.533   2.399  13.144 -0.8421  0.5259 -0.6930
  103TMC2    O5 1582   3.499   2.551  13.310 -0.3687  0.0972 -0.0118
  103TMC2    H5 1583   3.438   2.627  13.315 -1.7676 -1.1190  1.4058
  104MPD2     C 1584   3.275   2.209  12.621 -0.4165 -0.3937 -0.0093
  104MPD2    C1 1585   3.200   2.323  12.649  0.2820  0.4809 -0.3150
  104MPD2    C2 1586   3.128   2.392  12.546  0.3014  0.3817  0.6068
  104MPD2    C3 1587   3.130   2.342  12.415  0.5267  0.5095 -0.6742
  104MPD2    C4 1588   3.213   2.232  12.392 -0.7904 -0.5550 -0.1291
  104MPD2    C5 1589   3.283   2.170  12.489 -0.6739  0.4719 -0.1089
  104MPD2     H 1590   3.060   2.475  12.564  1.7999  1.5747  0.7206
  104MPD2    H1 1591   3.223   2.190  12.292 -1.8207  0.5212 -0.6822
  104MPD2    H2 1592   3.347   2.167  12.690 -1.2056 -0.6618  0.6504
  104MPD2    H3 1593   3.345   2.082  12.471  0.1905  0.9749  0.4109
  104MPD2     N 1594   3.050   2.397  12.314  0.4958 -0.0716 -0.5791
  104MPD2    H5 1595   2.991   2.477  12.336 -1.8085 -2.1091  0.5477
  104MPD2    N1 1596   3.207   2.366  12.787 -0.1382  0.4973 -0.2850
  104MPD2    H7 1597   3.256   2.306  12.852 -1.3600 -0.7964 -0.5717
  105MPD2     C 1598   0.517   1.727  17.435  0.2933  0.7697  0.5065
  105MPD2    C1 1599   0.403   1.772  17.501 -0.0493 -0.0523 -0.0681
  105MPD2    C2 1600   0.401   1.789  17.638 -0.4451  0.4072  0.4729
  105MPD2    C3 1601   0.511   1.748   0.027 -0.0877  0.7953  0.6624
  105MPD2    C4 1602   0.615   1.696  17.647  0.2428  0.2162  1.1153
  105MPD2    C5 1603   0.620   1.689  17.512 -0.3423 -0.1995 -0.5419
  105MPD2     H 1604   0.316   1.844  17.675 -0.0795  1.1935  0.1271
  105MPD2    H1 1605   0.706   1.660   0.002 -0.2101 -0.0550  1.8031
  105MPD2    H2 1606   0.512   1.703  17.330 -0.2515 -1.0979  0.9668
  105MPD2    H3 1607   0.698   1.635  17.461  0.4285  1.6487 -1.3060
  105MPD2     N 1608   0.504   1.781   0.168 -1.1563  0.0991  0.4511
  105MPD2    H5 1609   0.411   1.803   0.201 -2.3781 -1.4950 -1.9341
  105MPD2    N1 1610   0.278   1.776  17.425 -0.5411  0.0003 -0.3426
  105MPD2    H7 1611   0.198   1.804  17.481 -0.2038 -2.2285  1.2201
  106TCq2    C1 1612   0.611   1.765   0.258  0.1278 -0.4281 -0.2813
  106TCq2    O2 1613   0.724   1.718   0.234  0.1208  0.1519 -0.9366
  106TCq2    C2 1614   0.571   1.763   0.399 -0.7351 -1.0000  0.4918
  106TCq2    C3 1615   0.460   1.827   0.438 -0.2832 -0.0043 -0.0064
  106TCq2    C4 1616   0.408   1.802   0.559 -0.1704 -0.4846 -0.5099
  106TCq2    C5 1617   0.476   1.730   0.656  0.1387 -0.3032  0.0314
  106TCq2    C6 1618   0.604   1.690   0.620 -0.2570 -0.2627  0.5655
  106TCq2    C7 1619   0.651   1.697   0.489 -0.3216  0.4024 -0.0034
  106TCq2    C8 1620   0.714   1.688   0.717 -0.5155  0.3092  0.6609
  106TCq2    O4 1621   0.809   1.614   0.688  0.5644  0.3394  0.3148
  106TCq2    C9 1622   0.270   1.854   0.593  0.2915 -0.3005 -0.3392
  106TCq2    O5 1623   0.199   1.901   0.501 -0.2491 -0.5931 -0.0506
  106TCq2    O6 1624   0.246   1.867   0.717  0.4156  0.8669  0.1059
  106TCq2    H2 1625   0.401   1.890   0.373  0.3705 -0.6040 -1.1896
  106TCq2    H3 1626   0.427   1.717   0.752  0.3248  2.4963  0.5268
  106TCq2    H4 1627   0.752   1.668   0.459 -0.9534 -2.8262  0.9734
  107TMC2    C1 1628   0.736   1.239  11.754 -0.1553 -0.1726  0.2412
  107TMC2    C2 1629   0.681   1.231  11.619  0.5166  0.6674 -0.2605
  107TMC2    C3 1630   0.726   1.130  11.545  0.9748  0.2804  0.4037
  107TMC2    C4 1631   0.820   1.140  11.791 -0.3920  0.1116  0.9508
  107TMC2    C5 1632   0.863   1.041  11.707  0.2899  0.3454  0.3779
  107TMC2    C6 1633   0.809   1.026  11.583  0.0196  0.0122 -0.2736
  107TMC2     C 1634   0.653   1.295  11.855 -0.2027  0.1927 -0.3854
  107TMC2     O 1635   0.654   1.240  11.961  0.1929  0.2039  0.3833
  107TMC2     H 1636   0.603   1.297  11.585  0.0087  0.5035  0.5731
  107TMC2    H1 1637   0.843   1.124  11.896  2.7077  1.3870  0.4706
  107TMC2    H2 1638   0.831   0.947  11.512  0.3210 -1.6410  1.6534
  107TMC2    C7 1639   0.935   0.931  11.757  0.9496 -0.3488 -0.3688
  107TMC2    C8 1640   0.674   1.130  11.409  0.3139  0.2352  0.2926
  107TMC2    O1 1641   0.912   0.897  11.872  0.0470 -0.1884  0.8253
  107TMC2    O2 1642   0.644   1.024  11.355 -0.5383 -0.0451 -0.6272
  107TMC2    O5 1643   0.679   1.251  11.354 -0.1721 -0.2753  0.3909
  107TMC2    H5 1644   0.737   1.313  11.404  2.8722 -2.1179 -0.8366
  108MPD2     C 1645   0.478   1.626  11.854 -0.4833 -0.0773  0.6425
  108MPD2    C1 1646   0.511   1.498  11.898  0.1788 -0.1852 -0.1646
  108MPD2    C2 1647   0.466   1.461  12.020 -0.1543  0.2707 -0.4017
  108MPD2    C3 1648   0.400   1.552  12.100 -0.1299  0.4392  0.3934
  108MPD2    C4 1649   0.368   1.679  12.050 -0.9388 -0.4146  0.0396
  108MPD2    C5 1650   0.406   1.713  11.928 -0.2157 -0.6212 -0.1519
  108MPD2     H 1651   0.487   1.362  12.058 -0.1469  0.4908  0.1766
  108MPD2    H1 1652   0.313   1.745  12.116 -2.1401 -0.5138 -0.8624
  108MPD2    H2 1653   0.515   1.665  11.760 -0.6788 -0.1811  0.5217
  108MPD2    H3 1654   0.376   1.810  11.890  0.9095 -0.0745  0.3419
  108MPD2     N 1655   0.359   1.534  12.230 -0.0189 -0.1140  0.3313
  108MPD2    H5 1656   0.326   1.615  12.282  1.0062  0.9880 -0.7693
  108MPD2    N1 1657   0.586   1.410  11.815  0.5296 -0.6965  0.0875
  108MPD2    H7 1658   0.606   1.456  11.726  0.1528 -0.3075  0.2054
  109MPD2     C 1659   1.274   3.770   2.439  0.0184  0.0227 -0.1064
  109MPD2    C1 1660   1.157   3.814   2.394 -0.0838  0.3429 -0.4627
  109MPD2    C2 1661   1.077   3.903   2.472 -0.3322 -0.0025  0.7471
  109MPD2    C3 1662   1.136   3.972   2.585  0.1092  0.7724  0.0243
  109MPD2    C4 1663   1.267   3.940   2.611 -0.3734 -0.3323  0.7751
  109MPD2    C5 1664   1.334   3.844   2.535  0.1828  0.5017  0.2245
  109MPD2     H 1665   0.985   3.944   2.433  1.1639  1.1161 -1.6149
  109MPD2    H1 1666   1.326   3.988   2.689  2.6769 -1.3189 -0.9362
  109MPD2    H2 1667   1.325   3.693   2.381  1.7765 -1.1518  2.9961
  109MPD2    H3 1668   1.439   3.826   2.557 -0.3735 -0.1292  2.2628
  109MPD2     N 1669   1.047   4.058   2.656  0.2197 -0.1960 -0.3225
  109MPD2    H5 1670   0.949   4.072   2.632  0.4700  0.0601 -1.2142
  109MPD2    N1 1671   1.107   3.746   2.285 -0.0785 -0.3309  0.2900
  109MPD2    H7 1672   1.174   3.692   2.232  0.7067  0.2732  0.6679
  110TCq2    C1 1673   1.086   4.119   2.774 -0.5605 -0.1815 -0.5992
  110TCq2    O2 1674   1.189   4.106   2.834 -0.4516  0.1522 -0.3921
  110TCq2    C2 1675   0.991   4.220   2.816  0.0626 -0.6110  0.0892
  110TCq2    C3 1676   1.032   4.269   2.937 -0.2532  0.1527 -0.6257
  110TCq2    C4 1677   1.015   4.404   2.960  0.1003 -0.1661 -0.7212
  110TCq2    C5 1678   0.968   4.485   2.861  0.2097  0.3245 -1.1176
  110TCq2    C6 1679   0.932   4.433   2.744  0.9264  0.1536  0.4766
  110TCq2    C7 1680   0.928   4.301   2.721 -0.2146 -0.2029  0.1417
  110TCq2    C8 1681   0.971   4.511   2.630 -0.6031 -0.5568 -0.1521
  110TCq2    O4 1682   0.953   4.445   2.525 -0.1970  1.0619  0.0198
  110TCq2    C9 1683   1.031   4.448   3.094  0.4607 -0.6587 -0.2880
  110TCq2    O5 1684   0.937   4.521   3.131  0.1021 -0.4159 -0.3378
  110TCq2    O6 1685   1.109   4.376   3.166 -0.9657  0.2807  0.6907
  110TCq2    H2 1686   1.042   4.199   3.020 -0.7179 -0.7811 -1.3637
  110TCq2    H3 1687   0.955   4.590   2.887  1.4446 -0.1856  1.5433
  110TCq2    H4 1688   0.893   4.262   2.626  0.1611  1.2926 -0.6216
  111TMC2    C1 1689   0.276   3.602  11.520 -0.4699  0.1201  0.2299
  111TMC2    C2 1690   0.164   3.628  11.590  0.4077  0.1594  0.3972
  111TMC2    C3 1691   0.167   3.636  11.722 -0.7138 -0.1715 -0.6360
  111TMC2    C4 1692   0.397   3.605  11.586  0.3617 -0.8133 -0.6109
  111TMC2    C5 1693   0.402   3.625  11.724 -0.1285  0.0346 -0.1377
  111TMC2    C6 1694   0.281   3.647  11.790  0.0979 -0.2360  0.3780
  111TMC2     C 1695   0.264   3.595  11.379  0.0336 -0.8392  0.6284
  111TMC2     O 1696   0.177   3.656  11.318  0.2423  0.0425 -0.1031
  111TMC2     H 1697   0.065   3.637  11.548  1.0969 -0.0565 -1.2993
  111TMC2    H1 1698   0.485   3.584  11.526  1.0186 -2.3750  0.9110
  111TMC2    H2 1699   0.282   3.661  11.898 -1.2767  1.4803  0.1805
  111TMC2    C7 1700   0.519   3.583  11.807 -0.1912  0.2755 -1.2246
  111TMC2    C8 1701   0.037   3.657  11.788  0.1216  1.0606 -0.6096
  111TMC2    O1 1702   0.493   3.530  11.913 -0.2914  0.2906  0.1102
  111TMC2    O2 1703   4.718   3.592  11.882 -0.3619 -0.0076  0.6387
  111TMC2    O5 1704   4.700   3.766  11.734 -0.6071  0.1444  0.9700
  111TMC2    H5 1705   0.047   3.824  11.695 -1.1339 -0.3548 -0.6717
  112MPD2     C 1706   0.461   3.485  10.923  0.5385 -1.0483 -0.2025
  112MPD2    C1 1707   0.337   3.533  10.956  0.2537  0.1121  0.0876
  112MPD2    C2 1708   0.295   3.538  11.094  0.3136  0.2958 -0.6773
  112MPD2    C3 1709   0.392   3.504  11.187 -0.0413  0.0784 -0.2914
  112MPD2    C4 1710   0.512   3.451  11.150  0.4168 -0.0942 -0.2638
  112MPD2    C5 1711   0.542   3.439  11.020 -0.1071 -0.0093  0.3246
  112MPD2     H 1712   0.201   3.589  11.115  0.5265  1.7310 -3.2177
  112MPD2    H1 1713   0.591   3.424  11.219 -0.0135 -0.1257  0.2177
  112MPD2    H2 1714   0.490   3.483  10.819  3.5124 -0.2449  0.5990
  112MPD2    H3 1715   0.638   3.399  10.988 -0.5642 -0.9245  0.0927
  112MPD2     N 1716   0.372   3.537  11.326 -0.1624 -0.1409  0.2522
  112MPD2    H5 1717   0.443   3.496  11.386  0.0161  0.6105  0.5482
  112MPD2    N1 1718   0.255   3.591  10.858  0.3960  0.4346 -0.0764
  112MPD2    H7 1719   0.172   3.638  10.892  0.7006  1.0947 -0.2470
  113MPD2     C 1720   3.985   1.517   1.157 -0.3018 -1.1295 -0.5982
  113MPD2    C1 1721   3.869   1.580   1.109 -0.2549 -0.6411 -0.1901
  113MPD2    C2 1722   3.747   1.516   1.116 -0.2513  0.5391  0.4382
  113MPD2    C3 1723   3.745   1.380   1.145 -0.5228 -1.1491 -0.5504
  113MPD2    C4 1724   3.859   1.315   1.176 -0.3458 -0.4434 -0.0711
  113MPD2    C5 1725   3.979   1.382   1.185 -0.1114  0.2131  0.5134
  113MPD2     H 1726   3.660   1.577   1.094  0.0041  1.0906  0.9680
  113MPD2    H1 1727   3.865   1.210   1.200 -0.1392 -0.3992  0.0672
  113MPD2    H2 1728   4.081   1.568   1.168  0.8060 -3.3333  0.0928
  113MPD2    H3 1729   4.064   1.324   1.218  0.6916  0.4278 -1.1900
  113MPD2     N 1730   3.622   1.308   1.143 -0.1579 -0.0317 -0.0211
  113MPD2    H5 1731   3.622   1.206   1.144  0.8587 -0.0676 -2.7300
  113MPD2    N1 1732   3.874   1.716   1.062  0.0888  0.1504 -0.7358
  113MPD2    H7 1733   3.785   1.753   1.029 -0.1884  2.7927  2.9017
  114TCq2    C1 1734   3.492   1.367   1.128  0.2668  0.7907 -0.5258
  114TCq2    O2 1735   3.458   1.480   1.128  0.0249  0.1926 -0.1620
  114TCq2    C2 1736   3.380   1.268   1.137 -0.2645  0.4382  0.0956
  114TCq2    C3 1737   3.260   1.302   1.075  0.0816  0.5637  0.0863
  114TCq2    C4 1738   3.142   1.235   1.100  0.0003 -0.2989 -0.0696
  114TCq2    C5 1739   3.156   1.119   1.176 -0.4328  0.5910 -1.0268
  114TCq2    C6 1740   3.272   1.088   1.241  0.0573  0.4153 -0.3571
  114TCq2    C7 1741   3.378   1.161   1.224  0.0133  0.1432 -0.3606
  114TCq2    C8 1742   3.283   0.959   1.295  0.3924  0.5543  0.8688
  114TCq2    O4 1743   3.399   0.921   1.307 -0.0899  0.0000 -0.6638
  114TCq2    C9 1744   3.012   1.273   1.049 -0.0119 -0.3758 -0.1689
  114TCq2    O5 1745   2.911   1.203   1.078  0.1676 -0.6670 -0.6366
  114TCq2    O6 1746   3.006   1.388   0.991  0.3112  0.0435  0.0787
  114TCq2    H2 1747   3.252   1.383   1.003 -1.3748 -0.1092 -0.4964
  114TCq2    H3 1748   3.063   1.083   1.218  0.9605 -1.4650  0.2904
  114TCq2    H4 1749   3.475   1.136   1.266  0.3010  2.7940  0.5624
  115TMC2    C1 1750   4.347   3.984   0.117  0.5737  1.0898 -0.1226
  115TMC2    C2 1751   4.388   3.948   0.244 -0.6325  0.1521 -0.2430
  115TMC2    C3 1752   4.398   4.044   0.339  0.3805 -1.1707 -0.1486
  115TMC2    C4 1753   4.324   4.116   0.092  0.1478  0.5028 -0.3466
  115TMC2    C5 1754   4.358   4.205   0.186 -0.4128  0.7019  0.1461
  115TMC2    C6 1755   4.384   4.173   0.315  0.3315 -0.0587  0.8235
  115TMC2     C 1756   4.308   3.885   0.018  0.7564 -0.1425 -0.8393
  115TMC2     O 1757   4.336   3.768   0.049  0.8533 -0.2447 -0.4467
  115TMC2     H 1758   4.399   3.842   0.265 -0.0641  0.5607  1.5037
  115TMC2    H1 1759   4.276   4.145  17.690 -1.5182  0.4262  0.4933
  115TMC2    H2 1760   4.403   4.256   0.382 -1.5451  0.1918  1.0232
  115TMC2    C7 1761   4.357   4.346   0.149 -0.3758 -0.3968 -0.0657
  115TMC2    C8 1762   4.453   4.009   0.464 -0.0601 -0.4139 -0.0425
  115TMC2    O1 1763   4.351   4.418   0.246  0.7106 -0.1344  0.1851
  115TMC2    O2 1764   4.410   4.076   0.557 -0.5700  0.0251  0.9591
  115TMC2    O5 1765   4.580   4.028   0.419 -0.7442 -0.3396 -0.2453
  115TMC2    H5 1766   4.587   3.988   0.330  0.9368 -1.4587  0.3984
  116MPD2     C 1767   4.017   3.786  17.295 -0.1174 -0.3957  0.3284
  116MPD2    C1 1768   4.046   3.704  17.399 -0.0892 -0.7751 -0.0904
  116MPD2    C2 1769   4.129   3.753  17.499 -0.1036 -0.1005 -0.4451
  116MPD2    C3 1770   4.192   3.879  17.490 -0.5298  0.8920 -0.0430
  116MPD2    C4 1771   4.160   3.955  17.382 -0.1157 -0.4207 -0.6324
  116MPD2    C5 1772   4.078   3.901  17.279  1.3721  0.2033 -0.1668
  116MPD2     H 1773   4.143   3.695  17.589 -1.9119  1.0151  0.5559
  116MPD2    H1 1774   4.219   4.041  17.351 -1.1173  0.5643  0.1801
  116MPD2    H2 1775   3.964   3.751  17.208  0.4644 -1.1799  0.2835
  116MPD2    H3 1776   4.055   3.957  17.189 -0.5877 -1.7048 -0.8599
  116MPD2     N 1777   4.279   3.937  17.587  0.2478  0.3779 -0.1101
  116MPD2    H5 1778   4.309   4.033  17.569  0.1925  0.3082 -0.5803
  116MPD2    N1 1779   3.988   3.574  17.406  0.1073 -0.4538  0.0414
  116MPD2    H7 1780   3.929   3.549  17.327 -1.0511  0.2290  0.6775
  117TMC2    C1 1781   3.014   0.505  13.965  0.2605  0.5456 -0.4401
  117TMC2    C2 1782   3.094   0.413  14.031  0.6008 -0.2939 -0.0954
  117TMC2    C3 1783   3.216   0.460  14.076  0.2506 -0.2306 -0.1444
  117TMC2    C4 1784   3.054   0.635  13.961  0.1020 -0.2532 -0.2122
  117TMC2    C5 1785   3.180   0.671  14.013  0.2866  0.5646 -0.1555
  117TMC2    C6 1786   3.260   0.586  14.069  0.1887  0.6243  0.0658
  117TMC2     C 1787   2.869   0.478  13.968 -0.0034 -0.0828 -0.9162
  117TMC2     O 1788   2.849   0.365  14.019  0.0877 -0.2618 -0.0443
  117TMC2     H 1789   3.078   0.306  14.029 -0.0302 -0.2087  0.9393
  117TMC2    H1 1790   2.985   0.704  13.913  1.4253  0.2621 -1.3460
  117TMC2    H2 1791   3.360   0.617  14.098  0.2338  1.3563 -0.8794
  117TMC2    C7 1792   3.222   0.809  14.009 -0.1854 -0.3666  0.4068
  117TMC2    C8 1793   3.265   0.374  14.177  0.0557 -0.8044  0.4407
  117TMC2    O1 1794   3.342   0.843  14.007  0.2141 -0.0887  0.1953
  117TMC2    O2 1795   3.187   0.325  14.254  0.3081  0.0969 -0.5616
  117TMC2    O5 1796   3.399   0.353  14.167 -0.3239 -0.5530  1.0036
  117TMC2    H5 1797   3.440   0.411  14.099 -3.6959 -0.3383 -0.8334
  118MPD2     C 1798   3.008   1.106  13.990 -0.1060 -0.5899  0.6146
  118MPD2    C1 1799   3.125   1.032  13.991 -0.5959  0.5885  0.1319
  118MPD2    C2 1800   3.242   1.105  13.954 -0.1733  0.3518 -0.4352
  118MPD2    C3 1801   3.235   1.241  13.923  0.6605  0.0298 -0.2503
  118MPD2    C4 1802   3.115   1.305  13.911  0.1245 -0.5348  0.6395
  118MPD2    C5 1803   3.001   1.239  13.950  0.0533  0.2866  0.2553
  118MPD2     H 1804   3.343   1.066  13.962 -0.7349 -1.0625 -0.1833
  118MPD2    H1 1805   3.106   1.411  13.890  1.1790 -0.2815  1.4455
  118MPD2    H2 1806   2.914   1.061  14.023  0.1973 -2.3847 -0.9537
  118MPD2    H3 1807   2.903   1.284  13.950  0.1689  0.5379  0.4064
  118MPD2     N 1808   3.347   1.313  13.875 -0.0181 -0.0637  0.0458
  118MPD2    H5 1809   3.323   1.408  13.849 -3.7653 -1.4685 -1.7200
  118MPD2    N1 1810   3.118   0.895  14.021 -0.1811 -0.5722 -0.6159
  118MPD2    H7 1811   3.026   0.863  14.047  0.2378  1.4812  3.3931
  119MPD2     C 1812   1.465   2.204  14.290  0.1919  0.6741  0.0570
  119MPD2    C1 1813   1.331   2.240  14.258  0.2306  0.1049 -0.3556
  119MPD2    C2 1814   1.275   2.192  14.142 -0.0432  0.5498  0.4361
  119MPD2    C3 1815   1.344   2.104  14.062 -0.1927  0.0719 -0.0775
  119MPD2    C4 1816   1.472   2.065  14.096  0.0391 -0.2098 -0.0842
  119MPD2    C5 1817   1.524   2.107  14.211  0.0811 -0.4588  0.0572
  119MPD2     H 1818   1.180   2.233  14.110  0.1893  0.2639 -0.6161
  119MPD2    H1 1819   1.531   1.991  14.043 -0.2565  0.0545 -0.7797
  119MPD2    H2 1820   1.510   2.240  14.383  1.3462  0.7132 -0.5150
  119MPD2    H3 1821   1.623   2.070  14.236  1.1181  2.3432  0.0736
  119MPD2     N 1822   1.280   2.060  13.939 -0.2961  0.1795 -0.7204
  119MPD2    H5 1823   1.343   2.026  13.867  0.1956  0.0595 -0.2283
  119MPD2    N1 1824   1.265   2.329  14.348  0.0269  0.2329 -0.5498
  119MPD2    H7 1825   1.325   2.381  14.412  1.8300 -1.3792 -0.9305
  120TCq2    C1 1826   1.143   2.047  13.919  0.1138  0.3058  0.1885
  120TCq2    O2 1827   1.053   2.066  13.997  0.2251 -0.2902  0.1093
  120TCq2    C2 1828   1.118   1.999  13.780 -0.1054 -0.3807 -0.6437
  120TCq2    C3 1829   1.219   1.982  13.685 -0.4434 -0.1797  0.0842
  120TCq2    C4 1830   1.176   1.972  13.559 -0.0543  0.0796 -0.3683
  120TCq2    C5 1831   1.044   1.967  13.521 -0.2042 -0.4803  0.8068
  120TCq2    C6 1832   0.953   1.952  13.624 -0.0170  0.5091 -0.2485
  120TCq2    C7 1833   0.985   1.974  13.753 -0.4750 -0.1056  0.0426
  120TCq2    C8 1834   0.815   1.912  13.593 -0.7346  0.0849  0.4284
  120TCq2    O4 1835   0.776   1.941  13.482 -0.6571  0.2585 -0.2887
  120TCq2    C9 1836   1.264   1.953  13.456 -0.1312 -0.5629  0.1996
  120TCq2    O5 1837   1.249   2.024  13.354 -0.2693 -0.2382  0.6887
  120TCq2    O6 1838   1.340   1.854  13.473  0.1792 -0.1261 -0.3396
  120TCq2    H2 1839   1.325   1.975  13.707 -0.5439  0.8115  0.8704
  120TCq2    H3 1840   1.009   1.960  13.419 -0.6830 -0.9741  0.9996
  120TCq2    H4 1841   0.906   1.986  13.826 -1.6417  0.8864 -1.3781
  121TMC2    C1 1842   2.443   3.758  13.755  0.2703  0.3682 -0.9185
  121TMC2    C2 1843   2.569   3.735  13.798  0.1976 -0.1095  0.4123
  121TMC2    C3 1844   2.596   3.632  13.884  0.6993 -0.7176  0.2087
  121TMC2    C4 1845   2.339   3.681  13.801  0.1359 -0.2261 -0.0194
  121TMC2    C5 1846   2.365   3.580  13.886 -0.3121  0.3609  0.2311
  121TMC2    C6 1847   2.496   3.556  13.926 -0.3316  0.3976  0.4684
  121TMC2     C 1848   2.416   3.878  13.675 -0.2515 -0.1768 -0.1094
  121TMC2     O 1849   2.300   3.918  13.683  0.4684  0.4245 -0.2516
  121TMC2     H 1850   2.648   3.804  13.768  1.7735 -1.3275  1.7697
  121TMC2    H1 1851   2.234   3.707  13.789  0.5796  1.7492  0.3185
  121TMC2    H2 1852   2.527   3.461  13.969 -0.3537  0.2224  0.0991
  121TMC2    C7 1853   2.275   3.465  13.887  0.0892 -0.5546  0.1524
  121TMC2    C8 1854   2.735   3.589  13.905 -0.0244  0.1988  0.1927
  121TMC2    O1 1855   2.317   3.368  13.951  0.7020  0.3236 -0.2219
  121TMC2    O2 1856   2.832   3.628  13.838  0.1544  0.3126 -0.0326
  121TMC2    O5 1857   2.737   3.538  14.029 -0.5368  0.2849  0.1789
  121TMC2    H5 1858   2.653   3.547  14.079  0.4087 -0.9254  1.9558
  122MPD2     C 1859   2.433   4.137  13.551  0.2619  0.4433 -0.4008
  122MPD2    C1 1860   2.531   4.042  13.534 -0.0529 -0.0076  0.0039
  122MPD2    C2 1861   2.633   4.058  13.449 -0.4881  0.4097 -0.1583
  122MPD2    C3 1862   2.647   4.179  13.377  0.2801 -0.6281  0.1542
  122MPD2    C4 1863   2.543   4.270  13.394 -0.2890  0.0297 -0.4364
  122MPD2    C5 1864   2.444   4.249  13.484  0.0286 -0.3319  0.2637
  122MPD2     H 1865   2.694   3.970  13.432 -0.4883  0.1689  1.0427
  122MPD2    H1 1866   2.543   4.367  13.347  2.8790  1.2346  2.0495
  122MPD2    H2 1867   2.342   4.124  13.609  1.0989 -1.3834  0.4828
  122MPD2    H3 1868   2.367   4.324  13.494 -1.7909 -2.2767  0.9012
  122MPD2     N 1869   2.752   4.217  13.292  0.1394 -0.2015 -0.0872
  122MPD2    H5 1870   2.739   4.309  13.250 -1.3425 -0.9527 -1.2897
  122MPD2    N1 1871   2.523   3.916  13.601 -0.0956 -0.3079  0.5487
  122MPD2    H7 1872   2.596   3.848  13.580 -0.1390  0.0014 -0.6441
  123MPD2     C 1873   1.458   2.527   9.778 -0.3790  0.3700 -0.2532
  123MPD2    C1 1874   1.372   2.416   9.766  0.3778  0.8345 -0.3761
  123MPD2    C2 1875   1.430   2.299   9.711 -0.2633  0.2191  0.1215
  123MPD2    C3 1876   1.561   2.286   9.682 -0.2891  0.4271 -0.2666
  123MPD2    C4 1877   1.638   2.397   9.683  0.5262  0.1104  0.0231
  123MPD2    C5 1878   1.593   2.514   9.732  0.4757  0.4399  0.6143
  123MPD2     H 1879   1.363   2.218   9.682 -0.1059  0.8020 -1.8961
  123MPD2    H1 1880   1.740   2.399   9.647  0.2825 -0.4893 -0.7232
  123MPD2    H2 1881   1.415   2.615   9.825 -0.1667  0.9849 -1.2180
  123MPD2    H3 1882   1.658   2.601   9.743  1.5574  0.1570 -3.6835
  123MPD2     N 1883   1.607   2.154   9.643  0.0216  0.3944  0.2345
  123MPD2    H5 1884   1.542   2.077   9.656 -0.4477  0.7464 -0.0385
  123MPD2    N1 1885   1.230   2.428   9.799 -0.4296  0.1804  0.0272
  123MPD2    H7 1886   1.196   2.522   9.814  1.4339  1.1958 -2.0936
  124TCq2    C1 1887   1.738   2.125   9.598  0.5436 -0.2000 -0.2637
  124TCq2    O2 1888   1.818   2.200   9.537  0.2350  0.3368  0.2907
  124TCq2    C2 1889   1.760   1.979   9.574 -1.2384 -0.0559 -1.2677
  124TCq2    C3 1890   1.846   1.930   9.480 -0.5692  0.3693  0.0302
  124TCq2    C4 1891   1.860   1.792   9.465  0.3923  0.4896  0.0253
  124TCq2    C5 1892   1.794   1.718   9.549  1.4584  0.4644  0.3108
  124TCq2    C6 1893   1.711   1.763   9.643  0.2139 -0.3452 -1.1713
  124TCq2    C7 1894   1.680   1.896   9.652 -0.2337 -0.9564 -0.2157
  124TCq2    C8 1895   1.638   1.659   9.722 -0.4686  0.7421  0.2741
  124TCq2    O4 1896   1.694   1.558   9.755  0.1548  0.1605 -0.2413
  124TCq2    C9 1897   1.921   1.732   9.352  0.2899 -0.2019 -1.0576
  124TCq2    O5 1898   1.997   1.796   9.272  0.3583  0.0163  0.0940
  124TCq2    O6 1899   1.890   1.615   9.334 -0.1370 -0.1334  0.7505
  124TCq2    H2 1900   1.900   1.992   9.409 -1.5201 -0.0286 -1.0551
  124TCq2    H3 1901   1.795   1.610   9.536  0.1143  0.9116 -3.4467
  124TCq2    H4 1902   1.619   1.937   9.731  0.1916  0.4435 -0.6000
  125TMC2    C1 1903   3.028   3.688   8.646 -0.2520 -0.3951  0.4917
  125TMC2    C2 1904   3.006   3.560   8.613 -0.5150  0.0111 -0.3491
  125TMC2    C3 1905   3.056   3.464   8.699 -0.2899 -0.3433  0.7263
  125TMC2    C4 1906   3.104   3.733   8.746 -0.0717 -0.1922  0.8705
  125TMC2    C5 1907   3.173   3.631   8.817  0.2410 -0.7076  0.4923
  125TMC2    C6 1908   3.149   3.497   8.789 -0.6348  0.1903  0.0664
  125TMC2     C 1909   2.990   3.783   8.546 -0.0609 -0.2850  0.5690
  125TMC2     O 1910   3.070   3.872   8.519 -0.1312  0.0662  0.3161
  125TMC2     H 1911   2.928   3.533   8.542 -0.3803 -1.0909 -0.0710
  125TMC2    H1 1912   3.129   3.838   8.754 -1.3562  0.1342  0.4990
  125TMC2    H2 1913   3.192   3.416   8.845  0.4894 -0.6340 -1.9996
  125TMC2    C7 1914   3.275   3.676   8.907 -0.5035 -0.1179  0.6020
  125TMC2    C8 1915   3.015   3.326   8.702 -0.1931 -0.5693 -0.7172
  125TMC2    O1 1916   3.277   3.799   8.921  0.3435  0.9056  0.1302
  125TMC2    O2 1917   3.092   3.231   8.693  0.0519 -0.1653  0.2118
  125TMC2    O5 1918   2.885   3.323   8.678  0.2474 -0.6057 -0.3910
  125TMC2    H5 1919   2.839   3.400   8.718 -1.5534 -2.2202  0.6397
  126MPD1     C 1920   2.678   3.978   8.187  0.3142 -0.0745 -0.1919
  126MPD1    C1 1921   2.612   3.875   8.247  0.2089  0.0764  0.0828
  126MPD1    C2 1922   2.674   3.806   8.351  0.1851  0.2345  0.0333
  126MPD1    C3 1923   2.804   3.838   8.392 -0.1764 -0.3228 -0.3662
  126MPD1    C4 1924   2.870   3.936   8.316 -0.7942  0.8676 -0.1475
  126MPD1    C5 1925   2.807   4.004   8.219  0.6889 -0.2758  0.1190
  126MPD1     H 1926   2.620   3.728   8.404  0.2302 -0.6394 -1.2029
  126MPD1    H1 1927   2.973   3.964   8.333 -0.1258 -0.7750 -1.4439
  126MPD1    H2 1928   2.630   4.044   8.115  1.7545  0.1712 -0.9279
  126MPD1    H3 1929   2.863   4.081   8.166 -0.2142  1.7456  2.1265
  126MPD1     N 1930   2.866   3.764   8.494 -0.4856  0.5736 -0.2060
  126MPD1    H5 1931   2.802   3.701   8.541  0.6368  1.4475  2.5277
  126MPD1    N1 1932   2.481   3.850   8.212 -0.0648 -0.0552 -0.4382
  126MPD1    H6 1933   2.454   3.755   8.235  1.2824 -0.3455 -0.0874
  126MPD1    H7 1934   2.467   3.874   8.114 -0.7745  1.5115  0.0385
  127MPD2     C 1935   2.879   2.078  10.528  0.3725 -0.9673 -0.2592
  127MPD2    C1 1936   2.960   2.100  10.641 -0.9322  0.3226  0.4829
  127MPD2    C2 1937   3.081   2.170  10.621  0.0200  0.0410 -0.5831
  127MPD2    C3 1938   3.131   2.200  10.500  0.5422  0.6498  0.0947
  127MPD2    C4 1939   3.051   2.178  10.389 -0.2919  0.0940  0.2275
  127MPD2    C5 1940   2.930   2.115  10.406 -0.1904 -0.8832  0.3359
  127MPD2     H 1941   3.156   2.184  10.698 -1.1595 -0.1981  0.6100
  127MPD2    H1 1942   3.072   2.219  10.291  2.4993 -2.2580 -0.1549
  127MPD2    H2 1943   2.789   2.018  10.522 -0.7142  0.8609 -2.1934
  127MPD2    H3 1944   2.869   2.083  10.323  1.4078  2.7690 -2.2355
  127MPD2     N 1945   3.263   2.262  10.494 -0.4508 -0.0525 -0.3089
  127MPD2    H5 1946   3.316   2.265  10.580 -2.1041 -1.5773  0.7692
  127MPD2    N1 1947   2.927   2.051  10.772 -0.2546 -0.2844  0.0662
  127MPD2    H7 1948   2.831   2.022  10.785 -0.1459 -0.9519 -0.5660
  128TCq2    C1 1949   3.006   2.062  10.888  0.3922 -0.3513 -0.1683
  128TCq2    O2 1950   3.120   2.098  10.906 -0.0320  0.1009 -0.2878
  128TCq2    C2 1951   2.930   2.030  11.012 -0.0282 -0.1489  0.1505
  128TCq2    C3 1952   2.955   2.117  11.113 -0.0417  0.0404  0.7629
  128TCq2    C4 1953   2.870   2.120  11.213  0.8861  0.1684 -0.2643
  128TCq2    C5 1954   2.768   2.029  11.222 -0.1375  0.4352  0.0976
  128TCq2    C6 1955   2.747   1.944  11.120 -0.3543 -0.3244  0.0128
  128TCq2    C7 1956   2.827   1.946  11.011 -0.7761 -0.2927  0.4369
  128TCq2    C8 1957   2.651   1.834  11.147  0.1027 -0.6822  0.2679
  128TCq2    O4 1958   2.563   1.833  11.234 -0.9779  0.2411  0.1115
  128TCq2    C9 1959   2.881   2.220  11.320 -0.6106 -0.0120 -0.3807
  128TCq2    O5 1960   2.803   2.214  11.414 -0.0921  0.1778  0.3137
  128TCq2    O6 1961   2.964   2.313  11.303 -0.4009 -0.2840  0.0312
  128TCq2    H2 1962   3.037   2.185  11.098  0.4240 -0.6731  0.0439
  128TCq2    H3 1963   2.691   2.043  11.296 -0.3521 -0.6381  0.0846
  128TCq2    H4 1964   2.816   1.889  10.919 -2.9119  1.8105 -0.5849
  129MPD2     C 1965   1.692   3.234   2.125  0.4427  0.0988 -0.0878
  129MPD2    C1 1966   1.586   3.319   2.096  0.4737 -0.3894 -0.2258
  129MPD2    C2 1967   1.556   3.349   1.969  0.5413 -0.4131 -0.6899
  129MPD2    C3 1968   1.617   3.276   1.867 -0.9292 -0.1029 -0.1204
  129MPD2    C4 1969   1.704   3.178   1.896 -0.1219 -0.3364  0.4742
  129MPD2    C5 1970   1.743   3.159   2.021 -0.4135  0.2215 -0.3658
  129MPD2     H 1971   1.475   3.418   1.946  0.7369  0.6326  1.7908
  129MPD2    H1 1972   1.748   3.115   1.820  1.1569  0.2383  0.7453
  129MPD2    H2 1973   1.713   3.196   2.224 -0.3527  0.0409  0.0637
  129MPD2    H3 1974   1.799   3.072   2.052 -1.0775  0.0282  0.3075
  129MPD2     N 1975   1.561   3.298   1.738 -0.2211 -0.3604 -0.3229
  129MPD2    H5 1976   1.497   3.376   1.732 -0.1672 -0.3196 -0.3687
  129MPD2    N1 1977   1.493   3.365   2.195  0.2189  0.2952  0.0541
  129MPD2    H7 1978   1.403   3.402   2.165 -0.1503 -0.7265 -0.0830
  130TCq2    C1 1979   1.524   3.360   2.327  0.5958 -0.4664 -1.1273
  130TCq2    O2 1980   1.630   3.342   2.384 -0.1171  0.1061  0.1790
  130TCq2    C2 1981   1.410   3.381   2.414 -0.1325  0.5215  0.0671
  130TCq2    C3 1982   1.423   3.446   2.534  0.0091 -0.4494  0.2408
  130TCq2    C4 1983   1.310   3.486   2.610  0.1622  0.2507  0.4359
  130TCq2    C5 1984   1.181   3.453   2.562 -0.1502 -0.5853  0.0803
  130TCq2    C6 1985   1.178   3.387   2.436  0.2820 -0.0874  0.5155
  130TCq2    C7 1986   1.287   3.347   2.363  0.0025 -0.5355  0.5819
  130TCq2    C8 1987   1.054   3.389   2.363 -0.4029 -0.2318  0.1140
  130TCq2    O4 1988   1.048   3.320   2.257 -0.1899  0.5939 -0.0207
  130TCq2    C9 1989   1.324   3.563   2.729  0.2640 -0.6111 -0.9222
  130TCq2    O5 1990   1.215   3.607   2.781 -0.1681  0.6731 -0.1463
  130TCq2    O6 1991   1.438   3.562   2.778  0.1985  0.5971 -0.4575
  130TCq2    H2 1992   1.523   3.465   2.572  0.2566  1.1269 -1.2451
  130TCq2    H3 1993   1.098   3.466   2.631 -0.3318  0.3738 -0.3071
  130TCq2    H4 1994   1.275   3.288   2.273  1.9257  2.1529 -1.4349
  131MPD2     C 1995   0.809   3.170   9.913  0.1059  0.2347 -0.4214
  131MPD2    C1 1996   0.933   3.112   9.909  0.1139 -0.3732 -0.4633
  131MPD2    C2 1997   0.951   2.976   9.878 -0.0104  0.1664 -0.2868
  131MPD2    C3 1998   0.843   2.892   9.863 -0.0289  0.2056  0.4039
  131MPD2    C4 1999   0.720   2.950   9.880  1.0471 -0.9473  2.0007
  131MPD2    C5 2000   0.704   3.089   9.894 -0.2477  0.3087 -0.4063
  131MPD2     H 2001   1.048   2.929   9.884  0.5601  1.3085 -0.5181
  131MPD2    H1 2002   0.628   2.894   9.865  1.2221 -0.0335 -2.6559
  131MPD2    H2 2003   0.789   3.272   9.943 -0.6088 -0.6274  2.0495
  131MPD2    H3 2004   0.604   3.132   9.903 -0.4665  0.1489 -2.1107
  131MPD2     N 2005   0.867   2.756   9.836  0.2674  0.1472  0.3933
  131MPD2    H5 2006   0.962   2.724   9.821  0.1426  0.6079 -1.3358
  131MPD2    N1 2007   1.039   3.198   9.943 -0.0719 -0.6561  0.4052
  131MPD2    H7 2008   1.013   3.282   9.994  2.2734  0.0040  0.5327
  132TCq2    C1 2009   1.307   3.602  10.081  0.4184  0.1062 -1.3270
  132TCq2    O2 2010   1.192   3.642  10.109  0.1174 -0.3607 -0.6025
  132TCq2    C2 2011   1.331   3.462  10.062  0.9012 -0.1499  0.0575
  132TCq2    C3 2012   1.457   3.421  10.104  0.4311  0.7629  0.3665
  132TCq2    C4 2013   1.482   3.285  10.106 -0.3524 -0.7344 -0.0773
  132TCq2    C5 2014   1.392   3.192  10.053 -0.0644  0.4190  0.5312
  132TCq2    C6 2015   1.264   3.244  10.023 -0.0773  0.1885 -0.3260
  132TCq2    C7 2016   1.231   3.381  10.023  0.5644 -0.8535  0.0956
  132TCq2    C8 2017   1.175   3.162   9.941 -0.4854 -0.7574  0.3246
  132TCq2    O4 2018   1.231   3.060   9.901  0.2928 -0.6652 -0.1983
  132TCq2    C9 2019   1.620   3.248  10.132 -1.0262 -0.0589 -0.9244
  132TCq2    O5 2020   1.660   3.129  10.125  0.3710  0.3697 -0.1423
  132TCq2    O6 2021   1.699   3.342  10.160  0.4979  0.4808  0.3261
  132TCq2    H2 2022   1.527   3.496  10.138  0.4441  1.3206 -0.9024
  132TCq2    H3 2023   1.430   3.091  10.040  1.9009  0.7677  3.5143
  132TCq2    H4 2024   1.138   3.420   9.982 -0.7359 -1.3442  2.6347
  133MPD2     C 2025   4.550   1.821   9.619  0.3752 -0.3596 -0.0004
  133MPD2    C1 2026   4.573   1.879   9.496 -0.1850  0.0895 -0.5706
  133MPD2    C2 2027   4.542   2.014   9.478 -1.0274 -0.0502  0.1952
  133MPD2    C3 2028   4.500   2.096   9.582 -0.3331 -0.7063  0.9052
  133MPD2    C4 2029   4.477   2.038   9.705  0.1762  1.1025 -0.5656
  133MPD2    C5 2030   4.507   1.902   9.726  0.3879  0.0039  0.1170
  133MPD2     H 2031   4.554   2.057   9.380 -2.4383  0.3179  0.1879
  133MPD2    H1 2032   4.446   2.099   9.789 -0.3980  0.1240 -0.0708
  133MPD2    H2 2033   4.569   1.715   9.633  1.6673 -0.0792  0.2745
  133MPD2    H3 2034   4.485   1.865   9.825  0.7756  1.4056  0.7272
  133MPD2     N 2035   4.471   2.233   9.563 -0.1401 -0.1048  0.5878
  133MPD2    H5 2036   4.419   2.277   9.638 -0.8487  0.6484 -0.3447
  133MPD2    N1 2037   4.634   1.791   9.397 -0.7018  0.2620  0.0311
  133MPD2    H7 2038   4.669   1.704   9.437 -0.6991  0.0327 -0.4694
  134TCq2    C1 2039   4.645   1.819   9.264 -0.0991 -0.3263 -0.7207
  134TCq2    O2 2040   4.587   1.905   9.194 -0.8661  0.4413  0.0993
  134TCq2    C2 2041   0.010   1.729   9.192 -0.0009 -0.3951  0.6637
  134TCq2    C3 2042   4.694   1.717   9.062  0.2722 -0.2852  0.2755
  134TCq2    C4 2043   0.064   1.662   8.978  0.2567  0.6612 -0.0495
  134TCq2    C5 2044   0.191   1.642   9.018 -0.5030 -0.1691  0.1486
  134TCq2    C6 2045   0.226   1.663   9.156  0.3383  0.3757  0.5640
  134TCq2    C7 2046   0.131   1.704   9.243 -0.4456 -0.2400 -0.1122
  134TCq2    C8 2047   0.362   1.688   9.199  0.5802  0.4973 -0.2547
  134TCq2    O4 2048   0.420   1.752   9.110  0.3003 -0.3496 -0.8038
  134TCq2    C9 2049   0.018   1.630   8.843  0.2479 -0.9428 -0.5674
  134TCq2    O5 2050   0.106   1.590   8.760  0.2248 -0.1830  0.5469
  134TCq2    O6 2051   4.615   1.636   8.820 -0.0083 -0.0323  0.6606
  134TCq2    H2 2052   4.594   1.745   9.033  0.2489 -0.0533  0.5850
  134TCq2    H3 2053   0.268   1.601   8.953  0.8914  0.9162  1.1078
  134TCq2    H4 2054   0.152   1.739   9.343  0.5301 -0.8909 -0.0908
  135MPD2     C 2055   3.609   4.224   9.542  0.4209 -0.6430  0.1100
  135MPD2    C1 2056   3.606   4.258   9.405  0.6803  0.0261 -0.4172
  135MPD2    C2 2057   3.657   4.163   9.310 -0.4679  0.1414 -0.3101
  135MPD2    C3 2058   3.717   4.037   9.348 -0.0238 -0.6970 -0.3366
  135MPD2    C4 2059   3.717   4.014   9.485 -0.1301 -0.0140  1.0019
  135MPD2    C5 2060   3.658   4.104   9.573 -0.2199 -0.3816  0.3666
  135MPD2     H 2061   3.665   4.202   9.209 -0.7564 -1.4873 -0.9659
  135MPD2    H1 2062   3.776   3.935   9.529  1.1226 -0.2510 -1.0803
  135MPD2    H2 2063   3.566   4.280   9.624  1.7179 -1.4143  1.3100
  135MPD2    H3 2064   3.661   4.076   9.678 -3.1049  0.9880  0.8084
  135MPD2     N 2065   3.774   3.946   9.261 -0.3178  0.6751 -0.2128
  135MPD2    H5 2066   3.820   3.867   9.305 -1.2449  0.3709  0.2030
  135MPD2    N1 2067   3.578   4.386   9.351 -0.0017  0.2325 -0.2997
  135MPD2    H7 2068   3.578   4.384   9.250 -1.5830  0.1046 -0.2895
  136TCq2    C1 2069   3.523   4.490   9.422  0.2505  0.4957  0.4554
  136TCq2    O2 2070   3.482   4.494   9.536 -0.0382  0.4304 -0.0737
  136TCq2    C2 2071   3.504   4.603   9.339  0.8475 -0.1484  0.1646
  136TCq2    C3 2072   3.534   4.602   9.211 -0.3803  0.2599  0.0103
  136TCq2    C4 2073   3.530   4.721   9.141 -0.4388  0.5440  0.0132
  136TCq2    C5 2074   3.478   0.113   9.200 -0.6987  0.9795  0.1919
  136TCq2    C6 2075   3.446   0.108   9.329 -0.3116 -0.3364 -0.3729
  136TCq2    C7 2076   3.462   4.716   9.405 -0.8917 -0.1330 -0.8575
  136TCq2    C8 2077   3.340   0.203   9.362  0.1516  0.3748  0.4811
  136TCq2    O4 2078   3.341   0.300   9.292  0.1911 -0.1212  0.1271
  136TCq2    C9 2079   3.568   4.720   8.999  0.6226 -0.0370 -0.8371
  136TCq2    O5 2080   3.607   4.608   8.958  0.1553 -0.7324 -0.0229
  136TCq2    O6 2081   3.531   0.097   8.928  0.2631  0.4579 -0.1421
  136TCq2    H2 2082   3.568   4.514   9.159  1.0934  0.9086 -0.1114
  136TCq2    H3 2083   3.472   0.200   9.137 -1.0673  0.5031 -0.4312
  136TCq2    H4 2084   3.441   4.716   9.511  0.8532  1.5553 -0.5418
  137MPD2     C 2085   2.552   3.272   9.321  0.4196  0.5167 -0.4316
  137MPD2    C1 2086   2.466   3.375   9.286 -0.5987 -0.9257  0.4539
  137MPD2    C2 2087   2.419   3.453   9.389 -0.2976 -0.5359 -0.0038
  137MPD2    C3 2088   2.462   3.426   9.519  0.2914 -0.5583 -0.0444
  137MPD2    C4 2089   2.549   3.321   9.551  0.1779  0.3986  0.2094
  137MPD2    C5 2090   2.580   3.235   9.451  0.3974  0.4460  0.1528
  137MPD2     H 2091   2.366   3.547   9.374  1.7939  0.6376 -0.0414
  137MPD2    H1 2092   2.578   3.292   9.652  1.0977 -0.7722 -0.3966
  137MPD2    H2 2093   2.606   3.216   9.245 -0.9437 -0.1912 -0.8784
  137MPD2    H3 2094   2.650   3.154   9.469  0.5877  0.3668 -0.9107
  137MPD2     N 2095   2.427   3.522   9.613  0.2806 -0.2762 -0.1793
  137MPD2    H5 2096   2.345   3.578   9.597 -0.4514 -1.7450 -1.5689
  137MPD2    N1 2097   2.452   3.408   9.153  0.0914  0.4558 -0.1526
  137MPD2    H7 2098   2.513   3.357   9.089  0.2351 -1.3248  1.3750
  138TCq2    C1 2099   2.363   3.496   9.104  0.2818  0.2923 -0.0007
  138TCq2    O2 2100   2.263   3.540   9.151 -0.8332 -0.1437 -0.2267
  138TCq2    C2 2101   2.399   3.540   8.971 -0.5444  0.3083  0.8419
  138TCq2    C3 2102   2.514   3.512   8.910  0.1619  0.1671  0.6614
  138TCq2    C4 2103   2.564   3.602   8.816  0.3489 -0.0913  0.7099
  138TCq2    C5 2104   2.487   3.706   8.771  0.6386 -0.1051  0.7594
  138TCq2    C6 2105   2.370   3.736   8.840  0.4512 -0.1254 -0.0712
  138TCq2    C7 2106   2.327   3.652   8.938  0.5161 -0.2103  0.2191
  138TCq2    C8 2107   2.315   3.867   8.834  0.5338  0.1168  0.3293
  138TCq2    O4 2108   2.332   3.932   8.730 -0.3738 -0.4507  0.3949
  138TCq2    C9 2109   2.681   3.574   8.745  0.6765  0.4593  0.1609
  138TCq2    O5 2110   2.697   3.620   8.627  0.1301  0.2473 -0.1863
  138TCq2    O6 2111   2.767   3.501   8.806 -0.5197 -0.5000  0.3780
  138TCq2    H2 2112   2.573   3.422   8.926  0.4595  0.2324 -0.0950
  138TCq2    H3 2113   2.525   3.771   8.693 -1.7073 -0.3329 -0.5954
  138TCq2    H4 2114   2.228   3.661   8.981 -0.5109  2.3545 -2.6910
  139TMC2    C1 2115   2.098   1.541  13.014 -0.9392  0.0859 -0.0871
  139TMC2    C2 2116   2.007   1.500  12.927  0.3315 -0.7930 -0.0397
  139TMC2    C3 2117   1.877   1.543  12.941 -0.2363  0.5518  0.0231
  139TMC2    C4 2118   2.059   1.617  13.120  0.2270 -0.1161  0.2596
  139TMC2    C5 2119   1.929   1.653  13.134 -0.2622 -0.8489  0.1428
  139TMC2    C6 2120   1.838   1.625  13.041 -0.6397 -0.6889  0.7073
  139TMC2     C 2121   2.230   1.478  13.022 -0.5621 -0.8147 -0.6350
  139TMC2     O 2122   2.243   1.362  12.986  0.1979 -0.1053 -0.4442
  139TMC2     H 2123   2.037   1.430  12.850 -0.2977 -0.6421 -0.4263
  139TMC2    H1 2124   2.133   1.644  13.194  0.5871 -0.0878 -0.1105
  139TMC2    H2 2125   1.733   1.634  13.066 -1.2621 -2.3306 -1.4074
  139TMC2    C7 2126   1.872   1.706  13.254  0.3129 -0.4392 -0.6366
  139TMC2    C8 2127   1.792   1.513  12.827 -0.2615  0.0601 -0.4271
  139TMC2    O1 2128   1.755   1.750  13.248 -0.0264  0.2002  0.0141
  139TMC2    O2 2129   1.673   1.518  12.843 -0.4246  0.0788 -0.5695
  139TMC2    O5 2130   1.844   1.535  12.706 -0.4671 -0.0092  0.1380
  139TMC2    H5 2131   1.937   1.563  12.713  0.1355 -2.2269  0.7652
  140MPD2     C 2132   2.563   1.641  13.034  0.2188  0.5246  0.0502
  140MPD2    C1 2133   2.468   1.545  13.055 -0.4513 -0.0233 -0.0235
  140MPD2    C2 2134   2.503   1.423  13.103  0.9517 -0.2860  0.1557
  140MPD2    C3 2135   2.631   1.396  13.132  0.3773 -0.2399  0.0249
  140MPD2    C4 2136   2.730   1.479  13.100 -0.5407  0.3463  0.3143
  140MPD2    C5 2137   2.696   1.601  13.047  0.6364 -0.6581  0.4157
  140MPD2     H 2138   2.427   1.354  13.137  0.0981  0.3409 -0.4902
  140MPD2    H1 2139   2.833   1.460  13.130 -0.5770  1.1559  0.9477
  140MPD2    H2 2140   2.535   1.740  13.001 -0.6823 -0.0703 -0.9580
  140MPD2    H3 2141   2.778   1.668  13.027 -0.3909  0.7005  0.7825
  140MPD2     N 2142   2.650   1.271  13.208  0.2991 -0.0233 -0.1567
  140MPD2    H5 2143   2.565   1.223  13.235 -0.7947  1.8873 -0.2500
  140MPD2    N1 2144   2.329   1.571  13.043  0.2259  0.0052 -0.0392
  140MPD2    H7 2145   2.295   1.667  13.038 -0.8398 -0.2210  2.8714
  141TCq2    C1 2146   2.607   3.007  14.574  0.3029  0.1234 -0.0715
  141TCq2    O2 2147   2.526   3.073  14.510 -0.0525 -0.0614 -0.0952
  141TCq2    C2 2148   2.649   3.058  14.699  0.3884 -0.0997  0.0513
  141TCq2    C3 2149   2.720   2.970  14.783  0.1694 -0.4888 -0.2384
  141TCq2    C4 2150   2.812   3.023  14.866 -0.6893 -0.0065 -0.2759
  141TCq2    C5 2151   2.844   3.161  14.855 -0.7264  1.0180 -0.4476
  141TCq2    C6 2152   2.764   3.241  14.776 -0.8420  0.3511 -1.3027
  141TCq2    C7 2153   2.672   3.190  14.687 -0.3837  0.8633 -0.6029
  141TCq2    C8 2154   2.831   3.357  14.723 -0.3301 -0.1389  0.5444
  141TCq2    O4 2155   2.764   3.456  14.700 -0.2676 -0.3077  0.0462
  141TCq2    C9 2156   2.916   2.942  14.921 -0.2637 -0.1449  0.5326
  141TCq2    O5 2157   3.014   3.001  14.980 -0.0768 -0.7368  0.2375
  141TCq2    O6 2158   2.911   2.818  14.913 -0.0791 -0.0709  0.3113
  141TCq2    H2 2159   2.701   2.864  14.792  1.1576 -0.8619 -2.7591
  141TCq2    H3 2160   2.916   3.204  14.924 -0.9444 -0.5562  0.7770
  141TCq2    H4 2161   2.630   3.257  14.613 -0.2718  0.4980 -0.9970
  142MPD2     C 2162   0.917   0.849  10.797 -0.5303 -0.2956  0.1619
  142MPD2    C1 2163   0.878   0.914  10.675  0.9820  0.1003 -0.4559
  142MPD2    C2 2164   0.978   0.949  10.581 -0.5139 -0.5444 -0.0031
  142MPD2    C3 2165   1.109   0.911  10.599  0.7319 -0.3436  0.0450
  142MPD2    C4 2166   1.140   0.849  10.713  0.1329 -0.4485  0.3812
  142MPD2    C5 2167   1.050   0.821  10.812  0.0205  0.2010 -0.2589
  142MPD2     H 2168   0.938   0.982  10.486 -0.5611 -2.2983 -0.5912
  142MPD2    H1 2169   1.237   0.806  10.736  0.2820 -0.9563 -1.1949
  142MPD2    H2 2170   0.844   0.811  10.868 -0.4924  0.2822  0.5060
  142MPD2    H3 2171   1.077   0.771  10.905 -1.3217 -2.2145 -1.1436
  142MPD2     N 2172   1.216   0.942  10.510  0.7723  0.1919  0.2480
  142MPD2    H5 2173   1.307   0.920  10.548  0.4832  0.4071  1.0898
  142MPD2    N1 2174   0.740   0.906  10.648 -0.1421 -0.4434  0.3513
  142MPD2    H7 2175   0.690   0.854  10.719  1.0992 -2.0101  0.0729
  143TCq2    C1 2176   1.209   1.021  10.397  0.0522 -0.3056  0.3762
  143TCq2    O2 2177   1.115   1.078  10.341 -0.4615  0.0860  0.2263
  143TCq2    C2 2178   1.341   1.053  10.347  0.4226  0.2710  0.1012
  143TCq2    C3 2179   1.449   0.985  10.384 -0.5810  0.4481  0.4230
  143TCq2    C4 2180   1.567   1.015  10.326  0.2043 -0.2966 -0.4350
  143TCq2    C5 2181   1.574   1.111  10.225 -0.0802  0.0966 -0.4734
  143TCq2    C6 2182   1.460   1.179  10.193  0.1309 -0.0336 -0.1281
  143TCq2    C7 2183   1.343   1.155  10.253  0.4144  0.0285  0.8061
  143TCq2    C8 2184   1.479   1.283  10.096  0.4402  0.8786  0.0791
  143TCq2    O4 2185   1.595   1.312  10.065  0.3860  0.0807 -0.2347
  143TCq2    C9 2186   1.691   0.961  10.372  1.2143 -0.0161 -0.2067
  143TCq2    O5 2187   1.791   1.034  10.356 -0.1917  0.3962  0.0345
  143TCq2    O6 2188   1.689   0.869  10.460 -0.8299  0.5926  0.1813
  143TCq2    H2 2189   1.455   0.906  10.458  2.1658  1.8503  1.6831
  143TCq2    H3 2190   1.674   1.125  10.187  0.2775  0.8178  0.7580
  143TCq2    H4 2191   1.247   1.181  10.211 -0.2263  0.5059  2.5706
  144MPD2     C 2192   3.359   0.625   0.960  0.2794  0.1017  0.3171
  144MPD2    C1 2193   3.436   0.517   0.938  0.6788 -0.2352  0.6654
  144MPD2    C2 2194   3.559   0.500   1.000 -0.0192  0.9533  0.2560
  144MPD2    C3 2195   3.606   0.599   1.087  0.0278 -0.0431 -0.0829
  144MPD2    C4 2196   3.531   0.708   1.101  0.1099  0.2365 -0.0298
  144MPD2    C5 2197   3.407   0.726   1.042  0.0771  0.0629  0.7363
  144MPD2     H 2198   3.606   0.403   0.983 -1.1403  0.5816 -0.7273
  144MPD2    H1 2199   3.558   0.795   1.160 -0.2626  1.0219 -1.0234
  144MPD2    H2 2200   3.262   0.646   0.916  1.8311  2.2954 -2.0082
  144MPD2    H3 2201   3.345   0.810   1.072  0.6346 -0.4823  3.4679
  144MPD2     N 2202   3.731   0.590   1.150  0.6969  0.6849 -0.7118
  144MPD2    H5 2203   3.750   0.660   1.222  0.6657 -0.1968  0.1603
  144MPD2    N1 2204   3.383   0.414   0.860 -0.6398 -0.4372  0.3102
  144MPD2    H7 2205   3.443   0.332   0.861  0.9547  0.6932 -0.4496
  145TCq2    C1 2206   3.821   0.486   1.130 -0.4875  0.0428 -1.1208
  145TCq2    O2 2207   3.819   0.407   1.038 -0.0750  0.4323 -0.3098
  145TCq2    C2 2208   3.941   0.491   1.206 -0.6920  0.0976 -0.0761
  145TCq2    C3 2209   3.997   0.375   1.237 -0.0247 -0.2594 -0.5396
  145TCq2    C4 2210   4.077   0.358   1.349 -0.4699 -0.0774  0.0912
  145TCq2    C5 2211   4.097   0.465   1.426  0.4278 -0.0051  0.3887
  145TCq2    C6 2212   4.045   0.584   1.391 -0.5173 -0.0738  0.3124
  145TCq2    C7 2213   3.968   0.608   1.280 -0.5489 -0.9383 -0.3535
  145TCq2    C8 2214   4.097   0.701   1.464 -0.7483 -0.0029 -0.0038
  145TCq2    O4 2215   4.196   0.685   1.535 -0.4096 -0.1646  0.2541
  145TCq2    C9 2216   4.128   0.227   1.387  0.0820 -0.3777  0.6274
  145TCq2    O5 2217   4.205   0.220   1.489  0.1151 -0.3107 -0.0039
  145TCq2    O6 2218   4.123   0.142   1.291  0.2647  0.8747 -0.5043
  145TCq2    H2 2219   3.978   0.280   1.188  0.7985 -0.6384 -0.1336
  145TCq2    H3 2220   4.158   0.452   1.515 -1.6160  1.4260  2.0119
  145TCq2    H4 2221   3.938   0.703   1.237  1.8576  0.8110  1.7639
  146TMC2    C1 2222   4.487   3.894  12.646 -0.1745 -0.1449 -0.3423
  146TMC2    C2 2223   4.394   3.939  12.549  0.3732 -0.5079  0.2940
  146TMC2    C3 2224   4.396   3.889  12.422 -0.3118  0.3257  0.4750
  146TMC2    C4 2225   4.584   3.799  12.615 -0.2670 -0.0390 -0.1538
  146TMC2    C5 2226   4.582   3.755  12.480 -0.1869 -0.2090 -0.2610
  146TMC2    C6 2227   4.491   3.801  12.383 -0.2374 -0.6505 -0.0553
  146TMC2     C 2228   4.502   3.970  12.773 -0.1395  0.4973  0.0331
  146TMC2     O 2229   4.480   4.090  12.768 -0.2026  0.5092  0.1214
  146TMC2     H 2230   4.327   4.022  12.567  0.7014 -0.1449 -0.1932
  146TMC2    H1 2231   4.659   3.773  12.690  2.0176  1.1181 -2.0589
  146TMC2    H2 2232   4.495   3.773  12.278 -1.0366  0.6535 -0.4387
  146TMC2    C7 2233   4.706   3.702  12.431 -0.7394 -0.2694 -0.0248
  146TMC2    C8 2234   4.303   3.937  12.321  0.2422 -0.0022 -0.3072
  146TMC2    O1 2235   0.012   3.729  12.314 -0.1215  0.3604 -0.2576
  146TMC2    O2 2236   4.201   3.991  12.361  0.5451  0.1685 -0.0758
  146TMC2    O5 2237   4.385   4.008  12.237  0.0141 -0.2943  0.0372
  146TMC2    H5 2238   4.476   3.974  12.225 -0.8010 -2.5663  0.2979
  147MPD2     C 2239   0.414   3.428  12.481 -0.2187 -0.6573 -0.0451
  147MPD2    C1 2240   0.346   3.416  12.601 -0.1262  0.6688  0.6526
  147MPD2    C2 2241   0.227   3.490  12.607  0.2077 -0.5551  1.1860
  147MPD2    C3 2242   0.180   3.566  12.502 -0.2321 -0.6091  0.2253
  147MPD2    C4 2243   0.255   3.579  12.393  0.8992 -0.1963 -0.5142
  147MPD2    C5 2244   0.365   3.504  12.377  0.7622 -0.4859 -0.2136
  147MPD2     H 2245   0.174   3.484  12.701  0.3096 -2.9523  1.1055
  147MPD2    H1 2246   0.228   3.640  12.307 -2.3376 -0.7604  0.1064
  147MPD2    H2 2247   0.505   3.376  12.456 -0.7506 -1.9193  0.6507
  147MPD2    H3 2248   0.414   3.502  12.280  1.7922  1.5054  0.2604
  147MPD2     N 2249   0.055   3.630  12.523  0.2542 -0.6271 -0.2716
  147MPD2    H5 2250   0.011   3.611  12.613  1.2347  2.5384  0.8732
  147MPD2    N1 2251   0.409   3.349  12.711  0.1735 -0.0889 -0.5000
  147MPD2    H7 2252   0.505   3.317  12.702 -0.7833 -2.5409 -2.0973
  148MPD2     C 2253   4.721   2.851  10.095  0.1683 -0.0136 -0.4020
  148MPD2    C1 2254   0.107   2.780  10.138 -0.2133  0.1439  0.5367
  148MPD2    C2 2255   0.094   2.648  10.165 -0.0039 -0.2529 -0.2784
  148MPD2    C3 2256   4.699   2.585  10.132  0.1283 -0.0010 -0.1497
  148MPD2    C4 2257   4.597   2.650  10.072 -0.8736 -0.3778 -0.1901
  148MPD2    C5 2258   4.603   2.784  10.065  0.3236 -0.2135 -0.4316
  148MPD2     H 2259   0.181   2.586  10.185  0.6656  1.2712  1.6129
  148MPD2    H1 2260   4.502   2.609  10.040 -0.8167  0.6175 -1.6496
  148MPD2    H2 2261   4.717   2.959  10.083  0.3852  0.0524  0.1190
  148MPD2    H3 2262   4.519   2.839  10.026 -0.7601 -1.1093  0.6178
  148MPD2     N 2263   4.694   2.444  10.154  0.1694 -0.9501  0.0514
  148MPD2    H5 2264   4.605   2.398  10.137  1.0629 -2.7050  0.0946
  148MPD2    N1 2265   0.226   2.851  10.161  0.0297  0.2701  0.1603
  148MPD2    H7 2266   0.302   2.790  10.188  2.2961  3.1872  0.2497
  149TCq2    C1 2267   0.244   2.992  10.162  0.1748  0.0250 -0.4338
  149TCq2    O2 2268   0.163   3.082  10.159 -0.2147 -0.3250  0.8294
  149TCq2    C2 2269   0.386   3.024  10.169 -0.1915 -0.0146 -0.4428
  149TCq2    C3 2270   0.419   3.155  10.198 -0.1989 -0.4659  0.6695
  149TCq2    C4 2271   0.552   3.193  10.196  0.2077  0.3301  0.0165
  149TCq2    C5 2272   0.649   3.099  10.192  0.1109  0.5196 -0.4960
  149TCq2    C6 2273   0.610   2.967  10.170 -0.6253  0.1094  0.3474
  149TCq2    C7 2274   0.483   2.936  10.148 -0.9317 -0.2766  0.3135
  149TCq2    C8 2275   0.684   2.865  10.233  0.2186 -0.5991 -0.4571
  149TCq2    O4 2276   0.625   2.776  10.292  0.6689 -0.1104 -0.3484
  149TCq2    C9 2277   0.582   3.321  10.249 -0.0390 -0.3109 -0.1433
  149TCq2    O5 2278   0.487   3.394  10.280  0.0446  0.3536 -0.2285
  149TCq2    O6 2279   0.700   3.363  10.245 -0.3009  0.6050  0.2447
  149TCq2    H2 2280   0.343   3.232  10.213  1.0351  0.5525  1.6691
  149TCq2    H3 2281   0.752   3.124  10.214  0.2226 -1.5041  1.3397
  149TCq2    H4 2282   0.469   2.828  10.141  0.1037 -0.3188 -1.2002
  150MPD2     C 2283   1.753   1.658  12.021  0.0150 -0.5198 -0.0170
  150MPD2    C1 2284   1.783   1.681  11.893 -0.2289  0.0001 -1.1813
  150MPD2    C2 2285   1.887   1.770  11.873 -1.2198 -0.5698 -0.2539
  150MPD2    C3 2286   1.947   1.832  11.977 -0.3265  0.0802 -0.2641
  150MPD2    C4 2287   1.914   1.813  12.109  0.4668  0.5565 -0.4340
  150MPD2    C5 2288   1.820   1.717  12.131 -0.0971  0.3074  0.3499
  150MPD2     H 2289   1.918   1.797  11.773 -2.2251  0.3078 -0.3303
  150MPD2    H1 2290   1.943   1.869  12.196  0.6059  0.6984 -0.5720
  150MPD2    H2 2291   1.671   1.589  12.034 -0.3895 -0.0605 -0.1327
  150MPD2    H3 2292   1.785   1.695  12.231 -0.5023 -0.9771 -0.0696
  150MPD2     N 2293   2.046   1.919  11.943  0.3328 -0.1232  0.4500
  150MPD2    H5 2294   2.068   1.914  11.844  0.5731 -0.9576  0.5502
  150MPD2    N1 2295   1.712   1.606  11.799  0.2182  0.7457  0.5912
  150MPD2    H7 2296   1.639   1.546  11.835 -0.2579  1.5336  0.9457
  151TCq2    C1 2297   2.109   2.009  12.032  0.1217  1.1256 -0.5579
  151TCq2    O2 2298   2.075   2.039  12.144 -0.0482 -0.0361 -0.1268
  151TCq2    C2 2299   2.217   2.083  11.974 -0.1434  0.0949 -0.0675
  151TCq2    C3 2300   2.246   2.078  11.841 -0.2856 -0.3091  0.6932
  151TCq2    C4 2301   2.366   2.126  11.800  0.1140  0.0095 -0.3671
  151TCq2    C5 2302   2.459   2.176  11.881 -0.4112  0.5048 -0.4226
  151TCq2    C6 2303   2.429   2.183  12.011 -0.4237 -0.1936  0.1030
  151TCq2    C7 2304   2.309   2.144  12.064 -0.0526 -0.0013 -0.0475
  151TCq2    C8 2305   2.513   2.252  12.109  0.1878  0.1144  0.1713
  151TCq2    O4 2306   2.451   2.305  12.199  0.1586  0.1285 -0.3577
  151TCq2    C9 2307   2.384   2.153  11.662  0.7382  0.1096  0.1218
  151TCq2    O5 2308   2.292   2.116  11.585  0.4084  0.0789  0.3901
  151TCq2    O6 2309   2.494   2.210  11.624  0.1630 -0.3399  0.7639
  151TCq2    H2 2310   2.168   2.043  11.774 -1.3419  2.1419  0.6506
  151TCq2    H3 2311   2.555   2.212  11.847 -0.4669  1.9652  1.0085
  151TCq2    H4 2312   2.277   2.154  12.167  3.0859  0.3559  0.8991
  152MPD2     C 2313   1.551   1.098  12.565  1.1739  0.1966 -0.0039
  152MPD2    C1 2314   1.591   1.190  12.468  0.9917  0.2419  0.3141
  152MPD2    C2 2315   1.488   1.264  12.406 -0.2111 -0.3947  0.7184
  152MPD2    C3 2316   1.355   1.250  12.439 -0.2054 -0.1146 -0.9374
  152MPD2    C4 2317   1.323   1.146  12.524  0.1762  0.1556  0.4884
  152MPD2    C5 2318   1.419   1.076  12.589 -0.4932  0.0576 -0.3654
  152MPD2     H 2319   1.525   1.336  12.335 -2.0453 -2.1585 -2.0244
  152MPD2    H1 2320   1.218   1.126  12.545  0.7568  0.8952  4.0697
  152MPD2    H2 2321   1.620   1.045  12.630 -0.1101 -0.5126  0.7799
  152MPD2    H3 2322   1.406   0.990  12.654 -1.3217  0.3785 -0.0994
  152MPD2     N 2323   1.266   1.336  12.371  0.5977  0.0779 -0.1950
  152MPD2    H5 2324   1.309   1.408  12.313  1.2295  1.0205  1.4321
  152MPD2    N1 2325   1.727   1.203  12.443  0.0661 -0.4921 -0.9458
  152MPD2    H7 2326   1.785   1.133  12.489  2.3645  1.9758 -0.0927
  153TCq2    C1 2327   1.790   1.305  12.374 -0.6286 -0.1902  0.1429
  153TCq2    O2 2328   1.745   1.398  12.306 -0.4547  0.1912 -0.0263
  153TCq2    C2 2329   1.931   1.290  12.354 -0.0910  1.2729 -0.0874
  153TCq2    C3 2330   2.000   1.184  12.416 -0.5612  0.3149  0.0060
  153TCq2    C4 2331   2.136   1.186  12.406 -0.6568  0.3039 -0.4915
  153TCq2    C5 2332   2.197   1.294  12.350 -0.1691 -0.4138  0.0046
  153TCq2    C6 2333   2.128   1.400  12.301 -0.4729 -0.2680  0.1258
  153TCq2    C7 2334   1.994   1.391  12.289 -0.2547  0.1384  0.4661
  153TCq2    C8 2335   2.187   1.526  12.278  0.7547  0.8244 -0.2409
  153TCq2    O4 2336   2.116   1.613  12.221  0.0090  0.2967  0.5154
  153TCq2    C9 2337   2.213   1.080  12.450  0.0333  0.2503 -0.3700
  153TCq2    O5 2338   2.146   0.979  12.493 -0.6533  0.4030 -0.6316
  153TCq2    O6 2339   2.339   1.097  12.457 -0.0335  0.8401 -0.4699
  153TCq2    H2 2340   1.952   1.095  12.456  0.9067 -1.2650 -1.7639
  153TCq2    H3 2341   2.304   1.303  12.346 -0.1543  0.2619  1.9971
  153TCq2    H4 2342   1.937   1.478  12.256 -1.6988 -0.7254  0.6629
  154MPD2     C 2343   3.337   1.680   0.078  0.3138 -0.4428  0.4382
  154MPD2    C1 2344   3.441   1.693   0.166 -0.6064 -0.1714 -0.0740
  154MPD2    C2 2345   3.500   1.811   0.191 -0.4030  0.0482  0.2724
  154MPD2    C3 2346   3.454   1.926   0.124  0.0355 -0.2879 -0.3754
  154MPD2    C4 2347   3.368   1.914   0.020  0.2202 -0.4651  0.4498
  154MPD2    C5 2348   3.312   1.791   0.002 -0.1346  0.6518 -0.5166
  154MPD2     H 2349   3.574   1.825   0.269  1.5691  0.8870 -1.7242
  154MPD2    H1 2350   3.346   1.993  17.641  0.9169  0.5169  1.3406
  154MPD2    H2 2351   3.283   1.586   0.072  1.1062 -0.8794 -0.0534
  154MPD2    H3 2352   3.234   1.789  17.618 -0.1930  0.0299 -0.4430
  154MPD2     N 2353   3.524   2.044   0.153 -0.0861 -0.0576  0.3968
  154MPD2    H5 2354   3.607   2.050   0.210 -0.7548  0.3932  1.3210
  154MPD2    N1 2355   3.488   1.569   0.224  0.0734  0.1705  0.6924
  154MPD2    H7 2356   3.424   1.493   0.203  0.0772  0.1895  0.6094
  155TCq2    C1 2357   3.605   1.554   0.298  0.3948  0.1947  0.1055
  155TCq2    O2 2358   3.694   1.632   0.326  0.0842  0.4206 -0.3625
  155TCq2    C2 2359   3.629   1.418   0.329  0.5749 -0.4077  1.1121
  155TCq2    C3 2360   3.758   1.390   0.363  0.5276  0.0415  0.3262
  155TCq2    C4 2361   3.778   1.265   0.425 -0.8468  0.7491  0.7324
  155TCq2    C5 2362   3.675   1.175   0.438 -0.8124  0.2650  0.3702
  155TCq2    C6 2363   3.544   1.211   0.406  0.3104 -0.1728 -0.9578
  155TCq2    C7 2364   3.519   1.334   0.348  0.5205  0.5068 -0.9611
  155TCq2    C8 2365   3.447   1.108   0.359 -0.3314 -0.3856  0.0472
  155TCq2    O4 2366   3.336   1.145   0.324  0.5597 -0.6529 -0.6720
  155TCq2    C9 2367   3.918   1.236   0.472  0.5422 -0.0200 -0.2407
  155TCq2    O5 2368   4.006   1.321   0.437 -0.0650 -0.2208  0.7130
  155TCq2    O6 2369   3.938   1.119   0.515  0.5455  0.1468 -0.7061
  155TCq2    H2 2370   3.840   1.456   0.340 -1.2556  1.6295 -1.4578
  155TCq2    H3 2371   3.689   1.080   0.489  0.7207 -0.5078 -1.5087
  155TCq2    H4 2372   3.417   1.364   0.326  0.2336 -0.2533 -0.6621
  156MPD2     C 2373   2.850   3.777  11.834 -0.2303  0.4894 -0.2320
  156MPD2    C1 2374   2.754   3.835  11.755 -0.4970  0.1876  0.7921
  156MPD2    C2 2375   2.701   3.954  11.804 -0.4104 -0.0703  0.2235
  156MPD2    C3 2376   2.747   4.021  11.919 -0.4139  0.0929 -0.3306
  156MPD2    C4 2377   2.853   3.964  11.984  0.5433  0.5547  0.0569
  156MPD2    C5 2378   2.900   3.846  11.938 -0.1050  0.4089 -0.2491
  156MPD2     H 2379   2.617   3.995  11.748 -0.9581 -0.8224  0.4873
  156MPD2    H1 2380   2.898   3.995  12.078 -2.6511  1.2346  1.3372
  156MPD2    H2 2381   2.899   3.686  11.802  0.9714  1.2606 -0.5919
  156MPD2    H3 2382   2.977   3.798  11.997 -1.7802  0.3799  1.9151
  156MPD2     N 2383   2.685   4.143  11.953 -0.4272  0.5637 -0.5540
  156MPD2    H5 2384   2.623   4.186  11.885 -0.1005 -0.3464 -1.4299
  156MPD2    N1 2385   2.721   3.772  11.633  0.0804 -0.4868 -0.0726
  156MPD2    H7 2386   2.756   3.680  11.606  3.4147  1.1627 -1.4532
  157TCq2    C1 2387   2.670   3.848  11.530 -0.4650 -0.2979  0.1969
  157TCq2    O2 2388   2.639   3.969  11.527  0.0532 -0.2244  0.3372
  157TCq2    C2 2389   2.682   3.791  11.394 -0.1196  0.4381 -0.2808
  157TCq2    C3 2390   2.669   3.657  11.371  0.0963  0.1446  0.0325
  157TCq2    C4 2391   2.677   3.614  11.243 -0.0387  0.3186  0.5803
  157TCq2    C5 2392   2.686   3.708  11.138 -0.3004 -0.8746 -0.2881
  157TCq2    C6 2393   2.684   3.844  11.168 -0.1618  0.1379 -0.0612
  157TCq2    C7 2394   2.686   3.886  11.296 -0.3939  0.3173  0.0710
  157TCq2    C8 2395   2.662   3.945  11.062  1.1200  0.5395 -0.1845
  157TCq2    O4 2396   2.682   4.056  11.107 -0.3332 -0.2369  0.0828
  157TCq2    C9 2397   2.672   3.470  11.217 -0.0049 -0.3536 -0.4509
  157TCq2    O5 2398   2.620   3.401  11.310 -0.0723  0.2670  0.0718
  157TCq2    O6 2399   2.677   3.440  11.097  0.6929 -0.4466  0.0220
  157TCq2    H2 2400   2.667   3.586  11.453 -1.5700  0.5894  0.3842
  157TCq2    H3 2401   2.679   3.665  11.039  0.6881  1.5508 -1.4299
  157TCq2    H4 2402   2.702   3.991  11.316 -1.2895  0.4895 -0.1154
  158TMC2    C1 2403   2.231   2.855  13.210 -0.2072 -0.1032 -0.4887
  158TMC2    C2 2404   2.282   2.973  13.167 -0.2544  0.3046  0.0372
  158TMC2    C3 2405   2.196   3.081  13.141  0.1422 -0.8069 -0.2437
  158TMC2    C4 2406   2.098   2.838  13.223  0.0436  0.3890 -0.3105
  158TMC2    C5 2407   2.019   2.944  13.192 -0.6026  0.0580 -0.1508
  158TMC2    C6 2408   2.063   3.068  13.144 -0.0201  0.6785 -0.5111
  158TMC2     C 2409   2.322   2.759  13.258 -0.3330 -0.0373 -0.4785
  158TMC2     O 2410   2.432   2.742  13.201 -0.0961  0.0332  0.5395
  158TMC2     H 2411   2.390   2.984  13.157  0.1362 -0.2264  3.6746
  158TMC2    H1 2412   2.058   2.738  13.231  2.3544 -0.4638  0.5345
  158TMC2    H2 2413   1.987   3.133  13.102  1.8789  1.8818 -2.0761
  158TMC2    C7 2414   1.881   2.918  13.170 -0.0176 -0.6525  0.4039
  158TMC2    C8 2415   2.250   3.217  13.117 -0.0313 -0.0267 -0.0446
  158TMC2    O1 2416   1.822   2.970  13.077  0.0708 -0.2087  0.2453
  158TMC2    O2 2417   2.193   3.307  13.053 -0.0281  0.2202 -0.2726
  158TMC2    O5 2418   2.342   3.231  13.214  0.0357 -0.4834  0.1471
  158TMC2    H5 2419   2.366   3.143  13.251 -1.1760  0.2190  2.6249
  159MPD2     C 2420   2.568   2.578  13.681  0.9561  0.8552  0.3790
  159MPD2    C1 2421   2.436   2.591  13.713  0.2258 -1.1320  0.2600
  159MPD2    C2 2422   2.350   2.634  13.614 -0.2814  0.8943  1.1265
  159MPD2    C3 2423   2.386   2.666  13.484  0.4531  0.3607 -0.2468
  159MPD2    C4 2424   2.519   2.650  13.454  1.3723  0.0350  0.2789
  159MPD2    C5 2425   2.609   2.609  13.554 -0.3425  0.4086  0.5635
  159MPD2     H 2426   2.245   2.648  13.637 -0.5557 -1.2805  1.1939
  159MPD2    H1 2427   2.567   2.670  13.359 -2.4078  0.5348 -1.5165
  159MPD2    H2 2428   2.639   2.547  13.757  1.1467 -2.3799 -1.1074
  159MPD2    H3 2429   2.716   2.605  13.533 -0.7593 -0.4603 -1.3336
  159MPD2     N 2430   2.292   2.715  13.386  0.1756 -0.5290  0.2645
  159MPD2    H5 2431   2.198   2.731  13.420  0.2559  0.6822 -0.0917
  159MPD2    N1 2432   2.399   2.573  13.844  0.5202  0.1729 -0.5580
  159MPD2    H7 2433   2.472   2.542  13.906 -1.0302 -1.5899  0.3837
  160TMC2    C1 2434   2.130   0.588   1.142  0.2475 -0.1000 -0.6867
  160TMC2    C2 2435   2.250   0.533   1.138 -0.0843 -0.8234 -0.5529
  160TMC2    C3 2436   2.334   0.576   1.044 -0.0663 -0.3866  0.4363
  160TMC2    C4 2437   2.095   0.687   1.055  0.5055  0.6155  0.3799
  160TMC2    C5 2438   2.183   0.731   0.965  0.1690 -0.2165 -0.2405
  160TMC2    C6 2439   2.308   0.677   0.953  0.2008 -0.2544  0.7355
  160TMC2     C 2440   2.059   0.586   1.269  0.4072 -0.1285  0.3908
  160TMC2     O 2441   2.049   0.485   1.335 -0.2456  0.2103  0.2057
  160TMC2     H 2442   2.274   0.459   1.213 -0.8529  0.4985  1.0093
  160TMC2    H1 2443   1.993   0.725   1.061  0.5711  1.0351 -1.0505
  160TMC2    H2 2444   2.387   0.709   0.887 -0.0229 -2.0948 -0.4209
  160TMC2    C7 2445   2.149   0.850   0.897 -0.4285 -0.9218 -0.1509
  160TMC2    C8 2446   2.478   0.558   1.074 -0.1708  0.2689 -0.1166
  160TMC2    O1 2447   2.033   0.870   0.865  0.4283  0.8398 -0.6489
  160TMC2    O2 2448   2.552   0.654   1.095 -0.1043  0.2128  0.1025
  160TMC2    O5 2449   2.489   0.435   1.124 -1.0510  0.3596  0.0159
  160TMC2    H5 2450   2.423   0.366   1.101 -0.4360 -0.4817  0.7715
  161MPD2     C 2451   1.887   0.659   1.506 -0.1813  0.8988 -0.3607
  161MPD2    C1 2452   1.947   0.749   1.419  0.2856 -0.2609 -0.5300
  161MPD2    C2 2453   1.928   0.882   1.439 -0.0081  0.1359  0.1745
  161MPD2    C3 2454   1.851   0.934   1.545 -0.2223  0.6618  0.6024
  161MPD2    C4 2455   1.804   0.844   1.636 -0.0331  0.1457  0.3032
  161MPD2    C5 2456   1.811   0.711   1.606  0.1796  0.9548 -0.3034
  161MPD2     H 2457   1.987   0.949   1.378 -0.1470  0.1877  0.0974
  161MPD2    H1 2458   1.744   0.876   1.720  1.8322  0.5367  1.5020
  161MPD2    H2 2459   1.897   0.552   1.491  0.0068  1.0086 -1.0140
  161MPD2    H3 2460   1.753   0.646   1.670  2.5139  0.6513  1.5219
  161MPD2     N 2461   1.832   1.074   1.568  0.1657  0.3733  0.4526
  161MPD2    H5 2462   1.777   1.107   1.648 -0.8932 -1.2446  0.3928
  161MPD2    N1 2463   2.032   0.711   1.306  0.2321 -0.8347  0.3291
  161MPD2    H7 2464   2.068   0.780   1.242  3.0213 -1.0912  1.6136
  162TMC2    C1 2465   0.040   3.240   0.817 -0.2232  0.0069 -0.2337
  162TMC2    C2 2466   0.011   3.323   0.713 -0.5382 -0.8538  0.1283
  162TMC2    C3 2467   4.693   3.448   0.750 -0.2423 -0.1792  0.2519
  162TMC2    C4 2468   0.037   3.277   0.948 -0.0074  0.0013 -0.0564
  162TMC2    C5 2469   4.718   3.402   0.978  0.0191  0.3106  0.1553
  162TMC2    C6 2470   4.689   3.487   0.882  0.0064  0.1713 -0.8452
  162TMC2     C 2471   0.091   3.107   0.789  0.1440  0.1102 -0.1249
  162TMC2     O 2472   0.169   3.063   0.872 -0.2622 -0.4677 -0.9544
  162TMC2     H 2473   0.022   3.290   0.610  0.5733 -1.0911  0.3197
  162TMC2    H1 2474   0.068   3.203   1.022 -0.3373 -1.1126 -1.0400
  162TMC2    H2 2475   4.647   3.584   0.906  2.8505  0.7604  1.8097
  162TMC2    C7 2476   4.673   3.434   1.114  0.1591 -0.2587  0.1149
  162TMC2    C8 2477   4.689   3.543   0.648  0.0903  0.6078  0.4811
  162TMC2    O1 2478   4.576   3.512   1.118  0.5915  0.2211 -0.0092
  162TMC2    O2 2479   0.042   3.526   0.552  0.3794 -0.5857 -0.2236
  162TMC2    O5 2480   4.583   3.628   0.657 -0.7734 -0.0772  0.3487
  162TMC2    H5 2481   4.537   3.633   0.744 -0.0099  2.4144  0.6232
  163MPD2     C 2482   0.100   2.685   0.497 -0.2368  0.0127  0.0016
  163MPD2    C1 2483   0.204   2.739   0.574  0.3350 -0.5194 -0.0866
  163MPD2    C2 2484   0.179   2.857   0.640  1.1891  0.2343  0.8907
  163MPD2    C3 2485   0.075   2.931   0.607 -0.8177  0.3441 -0.2378
  163MPD2    C4 2486   4.713   2.886   0.509  0.5198  0.6448  0.2005
  163MPD2    C5 2487   0.003   2.765   0.453 -0.1709  0.2358  0.0813
  163MPD2     H 2488   0.254   2.892   0.710  0.1183  0.1247  2.0743
  163MPD2    H1 2489   4.636   2.952   0.470 -0.0939  0.2828  0.8028
  163MPD2    H2 2490   0.111   2.586   0.456 -0.4565  0.5186 -1.2814
  163MPD2    H3 2491   4.672   2.732   0.365 -0.0607  1.0826 -0.3080
  163MPD2     N 2492   0.041   3.049   0.671  0.3109  0.7757  0.6087
  163MPD2    H5 2493   4.697   3.103   0.617 -0.6291  0.4892  1.4757
  163MPD2    N1 2494   0.317   2.658   0.604 -0.0837 -0.2610 -0.3290
  163MPD2    H7 2495   0.322   2.564   0.566  2.9413 -0.7004  1.2010
  164TCq2    C1 2496   1.036   3.133  11.701  0.1806 -0.1053 -0.2913
  164TCq2    O2 2497   0.985   3.077  11.798 -0.0136  0.0179  0.3854
  164TCq2    C2 2498   0.954   3.218  11.623 -1.2582 -0.1426 -0.2810
  164TCq2    C3 2499   1.011   3.302  11.528  0.6227  0.3718  0.5784
  164TCq2    C4 2500   0.928   3.382  11.457 -0.1703 -0.3039  0.4934
  164TCq2    C5 2501   0.796   3.380  11.493 -0.3134  0.2508 -0.0957
  164TCq2    C6 2502   0.738   3.287  11.580  0.2761 -0.1074 -0.5315
  164TCq2    C7 2503   0.822   3.215  11.656 -0.2211 -1.0852  0.5581
  164TCq2    C8 2504   0.595   3.276  11.584 -0.7232  0.5875  0.0843
  164TCq2    O4 2505   0.541   3.349  11.504 -0.9660  0.5289  0.2570
  164TCq2    C9 2506   0.974   3.465  11.353  0.1234  0.3613 -0.0041
  164TCq2    O5 2507   0.885   3.535  11.300  0.3363 -0.2223 -0.2561
  164TCq2    O6 2508   1.075   3.423  11.293 -0.0348  0.1128  0.0020
  164TCq2    H2 2509   1.116   3.296  11.501  0.8621 -0.0410  1.5997
  164TCq2    H3 2510   0.723   3.441  11.442 -0.0123  1.8607  1.3979
  164TCq2    H4 2511   0.779   3.156  11.736 -0.4251  0.1272  1.3409
  165MPD2     C 2512   1.364   4.351   2.616 -0.0905 -0.2547  0.5603
  165MPD2    C1 2513   1.375   4.378   2.481 -0.0559  0.2215 -0.1254
  165MPD2    C2 2514   1.451   4.490   2.441  0.4653 -0.2415  0.0148
  165MPD2    C3 2515   1.523   4.560   2.539 -0.6967  1.3068  0.8265
  165MPD2    C4 2516   1.525   4.523   2.674 -0.4255  0.0804 -0.1939
  165MPD2    C5 2517   1.435   4.424   2.709 -0.7453  0.2832  0.2642
  165MPD2     H 2518   1.445   4.527   2.339 -0.0327  1.2413  0.5823
  165MPD2    H1 2519   1.575   4.581   2.751 -0.5785 -0.3282  0.2135
  165MPD2    H2 2520   1.301   4.271   2.654 -1.6982  0.0974 -1.3254
  165MPD2    H3 2521   1.418   4.405   2.814 -0.5884  1.8569  0.5791
  165MPD2     N 2522   1.593   4.677   2.512 -0.5539  0.8804 -0.0770
  165MPD2    H5 2523   1.623   4.719   2.599 -0.2003 -0.3881  0.4217
  165MPD2    N1 2524   1.293   4.295   2.402 -0.2016 -0.1211 -0.3382
  165MPD2    H7 2525   1.217   4.252   2.454  0.8532 -0.1324  1.1676
  166TCq2    C1 2526   1.622   0.006   2.389  0.1587 -0.4877  0.7977
  166TCq2    O2 2527   1.608   4.696   2.272 -0.3549  1.1376  0.1246
  166TCq2    C2 2528   1.677   0.138   2.403  0.5126 -0.0150 -0.2606
  166TCq2    C3 2529   1.619   0.224   2.506 -0.1708 -0.1453 -0.1370
  166TCq2    C4 2530   1.649   0.358   2.499 -0.3139  0.7053  0.8566
  166TCq2    C5 2531   1.742   0.404   2.409  0.0085 -0.5996 -0.7663
  166TCq2    C6 2532   1.793   0.322   2.314  0.9979 -0.3415 -0.6235
  166TCq2    C7 2533   1.746   0.193   2.299 -0.2236  0.0117 -0.4777
  166TCq2    C8 2534   1.901   0.360   2.225 -0.5096  0.1960  0.5924
  166TCq2    O4 2535   1.984   0.280   2.190 -1.0046  0.4771 -0.4392
  166TCq2    C9 2536   1.624   0.434   2.619  0.2595  0.3431  0.5665
  166TCq2    O5 2537   1.716   0.520   2.646 -0.1698  0.2151 -0.1207
  166TCq2    O6 2538   1.533   0.401   2.699 -0.8160  0.1185 -0.0646
  166TCq2    H2 2539   1.552   0.187   2.583  0.6736 -3.5792 -1.0315
  166TCq2    H3 2540   1.775   0.507   2.414  0.2102 -0.6526 -0.9974
  166TCq2    H4 2541   1.788   0.128   2.223 -1.4322 -1.1117 -0.1834
  167TMC2    C1 2542   4.285   2.727  12.335 -0.3304  0.5274 -0.1017
  167TMC2    C2 2543   4.216   2.838  12.381  0.5710  0.0015  0.0477
  167TMC2    C3 2544   4.193   2.844  12.512  0.3894 -1.0852  1.1065
  167TMC2    C4 2545   4.343   2.630  12.413  0.5687  0.3400 -0.1436
  167TMC2    C5 2546   4.327   2.652  12.549  0.0441 -0.0107  0.3547
  167TMC2    C6 2547   4.257   2.752  12.600  0.6507 -0.6656 -0.3019
  167TMC2     C 2548   4.320   2.731  12.192  0.9810  0.0157 -0.2945
  167TMC2     O 2549   4.241   2.789  12.118 -0.7845  0.2223  0.3243
  167TMC2     H 2550   4.175   2.919  12.322  0.5075 -0.2413 -0.2382
  167TMC2    H1 2551   4.377   2.532  12.381  0.2332 -0.8615  3.1720
  167TMC2    H2 2552   4.226   2.752  12.704 -0.8827  1.3203 -0.7468
  167TMC2    C7 2553   4.384   2.561  12.648 -0.3962 -0.1923  0.1685
  167TMC2    C8 2554   4.123   2.958  12.562 -0.3909 -0.6807  0.1337
  167TMC2    O1 2555   4.327   2.543  12.754 -0.1314  0.2210 -0.7057
  167TMC2    O2 2556   4.030   3.011  12.506 -0.3920 -0.7616  0.1644
  167TMC2    O5 2557   4.162   2.983  12.689  0.5873  0.1325 -0.4682
  167TMC2    H5 2558   4.250   2.941  12.700  0.4021  0.7479  3.2457
  168MPD2     C 2559   4.425   2.640  11.913 -0.5043 -0.5870 -0.2053
  168MPD2    C1 2560   4.483   2.610  12.038 -0.2827 -0.0743 -0.2284
  168MPD2    C2 2561   4.589   2.521  12.046  0.1733  0.3434 -0.3176
  168MPD2    C3 2562   4.625   2.454  11.935 -0.0648 -0.2908  0.5539
  168MPD2    C4 2563   4.585   2.499  11.810 -0.7339  0.3000 -0.1278
  168MPD2    C5 2564   4.486   2.594  11.798  0.1309 -0.1828 -0.1146
  168MPD2     H 2565   4.630   2.504  12.145  0.9858 -0.1305 -0.7281
  168MPD2    H1 2566   4.623   2.446  11.723 -1.3435 -1.4297  0.6531
  168MPD2    H2 2567   4.337   2.702  11.901  0.8444  1.3005 -0.3255
  168MPD2    H3 2568   4.447   2.628  11.703  1.3327  3.4333  0.6945
  168MPD2     N 2569   4.711   2.342  11.936 -1.1372 -0.0643  0.0377
  168MPD2    H5 2570   0.020   2.298  11.850 -0.4801 -0.0370  0.2617
  168MPD2    N1 2571   4.421   2.647  12.161  0.2204  0.8105  0.2260
  168MPD2    H7 2572   4.469   2.608  12.242  1.1867  1.8200  0.1429
  169MPD1     C 2573   1.992   1.886   9.870 -0.4087  0.1577  0.8173
  169MPD1    C1 2574   2.036   1.755   9.873  0.1010  0.0649  0.6356
  169MPD1    C2 2575   2.157   1.731   9.818  0.2496 -0.3803 -0.1657
  169MPD1    C3 2576   2.228   1.825   9.742  0.3541 -0.1248  0.8406
  169MPD1    C4 2577   2.182   1.950   9.744  0.4254  0.4326 -0.1357
  169MPD1    C5 2578   2.066   1.980   9.805 -0.2107 -0.2960 -0.0150
  169MPD1     H 2579   2.194   1.629   9.828  1.7451  0.3327  1.6482
  169MPD1    H1 2580   2.248   2.029   9.710 -0.4422 -0.1413 -3.1469
  169MPD1    H2 2581   1.897   1.915   9.913 -1.1402 -0.7002 -0.2234
  169MPD1    H3 2582   2.031   2.083   9.810 -0.5232 -0.4578  0.9987
  169MPD1     N 2583   2.347   1.795   9.672 -0.2945  0.1526  0.2805
  169MPD1    H5 2584   2.389   1.703   9.680  2.8579  1.6940  1.2045
  169MPD1    N1 2585   1.988   1.663   9.977 -0.3572  0.9548 -0.0868
  169MPD1    H6 2586   1.987   1.568   9.941  0.6342  0.6959  0.5810
  169MPD1    H7 2587   1.892   1.686  10.002 -0.5765 -0.0031 -0.0596
  170MPD1     C 2588   0.934   4.494  12.905 -0.0944 -0.4377 -0.3934
  170MPD1    C1 2589   0.957   4.625  12.892  0.0994  0.2538 -0.0013
  170MPD1    C2 2590   0.973   4.703  13.005 -0.2536  0.3425  0.3118
  170MPD1    C3 2591   0.968   4.648  13.133  0.1887  0.1421 -0.1983
  170MPD1    C4 2592   0.937   4.515  13.143  0.0013  0.2821 -0.3961
  170MPD1    C5 2593   0.914   4.439  13.029  0.3646  0.3106  0.2551
  170MPD1     H 2594   0.983   0.089  13.004  0.4104  0.2692 -0.4991
  170MPD1    H1 2595   0.929   4.460  13.236  0.7605 -0.3933 -0.7325
  170MPD1    H2 2596   0.921   4.432  12.817  1.6941 -1.9867  0.4324
  170MPD1    H3 2597   0.904   4.332  13.039 -0.0406  0.3736  0.5310
  170MPD1     N 2598   0.975   0.012  13.236 -0.1770 -0.0175  0.3288
  170MPD1    H5 2599   0.992   0.109  13.211 -1.5813  0.4233  1.0515
  170MPD1    N1 2600   0.953   4.679  12.764  0.1783  0.0683  0.4625
  170MPD1    H6 2601   1.008   0.042  12.763 -0.0225  0.2057  2.1363
  170MPD1    H7 2602   0.991   4.613  12.697  1.2559  2.2698 -1.0804
  171MPD1     C 2603   4.578   1.257  15.240 -0.1668  0.6774 -0.2388
  171MPD1    C1 2604   4.517   1.134  15.216  0.1454  0.1162  0.3115
  171MPD1    C2 2605   4.526   1.043  15.317  0.2663  0.9440 -0.5510
  171MPD1    C3 2606   4.574   1.074  15.449 -0.0610 -0.9172  0.0087
  171MPD1    C4 2607   4.610   1.208  15.468 -0.3081  0.2396 -1.0510
  171MPD1    C5 2608   4.602   1.298  15.365  0.3323  0.0192 -0.5578
  171MPD1     H 2609   4.508   0.941  15.285 -0.3706  0.7829  0.2960
  171MPD1    H1 2610   4.648   1.241  15.564 -0.0550 -4.1376  0.3231
  171MPD1    H2 2611   4.584   1.326  15.157 -0.3724 -1.5588 -2.1030
  171MPD1    H3 2612   4.634   1.399  15.391 -0.6055 -0.0148  0.7355
  171MPD1     N 2613   4.617   0.983  15.548  0.2535 -0.2868  1.0374
  171MPD1    H5 2614   4.677   1.019  15.621  0.8638  3.4210 -1.2604
  171MPD1    N1 2615   4.471   1.092  15.086 -0.0934  0.1419 -0.1637
  171MPD1    H6 2616   4.396   1.023  15.089  1.0091 -0.9813  1.6895
  171MPD1    H7 2617   4.441   1.169  15.026 -0.3761  0.3137  0.1991
  172MPD1     C 2618   3.737   4.530   0.562  0.5943  0.0813 -0.0753
  172MPD1    C1 2619   3.659   4.639   0.516  0.4565  0.7373 -0.4992
  172MPD1    C2 2620   3.697   0.039   0.561 -0.0957  1.0435  0.2306
  172MPD1    C3 2621   3.789   0.052   0.662 -0.5891  0.0627  0.1064
  172MPD1    C4 2622   3.865   4.669   0.707  0.0715 -0.1562  0.3459
  172MPD1    C5 2623   3.837   4.551   0.657 -0.1653  0.5386  0.1550
  172MPD1     H 2624   3.646   0.127   0.523 -0.5579  0.5273 -0.3572
  172MPD1    H1 2625   3.948   4.690   0.772 -0.0711 -1.2190  0.8776
  172MPD1    H2 2626   3.713   4.427   0.537  0.4397  0.5466 -1.8670
  172MPD1    H3 2627   3.887   4.463   0.696  0.0054  0.5125 -0.1285
  172MPD1     N 2628   3.825   0.179   0.718  0.0704  0.2665 -0.1876
  172MPD1    H5 2629   3.910   0.179   0.773 -0.2068 -1.0651  0.2479
  172MPD1    N1 2630   3.569   4.630   0.406  0.2525  0.0578  0.3255
  172MPD1    H6 2631   3.514   4.544   0.397  0.6169 -0.0093 -1.2965
  172MPD1    H7 2632   3.507   4.710   0.401 -0.1438 -0.2591  0.1187
  173MPD1     C 2633   0.655   0.384  13.472 -0.4062  0.1284 -0.7328
  173MPD1    C1 2634   0.545   0.298  13.464  0.3285  0.1959  0.3846
  173MPD1    C2 2635   0.519   0.219  13.579  0.4110 -0.5058 -0.4012
  173MPD1    C3 2636   0.618   0.189  13.679  0.1111 -0.1636 -0.4565
  173MPD1    C4 2637   0.729   0.275  13.680 -0.3318  0.1815  0.0386
  173MPD1    C5 2638   0.744   0.368  13.576  0.3015  0.4544  0.1089
  173MPD1     H 2639   0.431   0.157  13.568  2.1197 -2.8346 -1.0793
  173MPD1    H1 2640   0.797   0.278  13.765 -1.1655 -1.2277  0.7566
  173MPD1    H2 2641   0.677   0.454  13.392  1.5731  0.7485  0.3632
  173MPD1    H3 2642   0.832   0.430  13.584  0.3352  0.6522 -1.9833
  173MPD1     N 2643   0.577   0.104  13.784  0.2337 -0.6256  0.4636
  173MPD1    H5 2644   0.486   0.062  13.772 -0.5934  1.0856  0.8730
  173MPD1    N1 2645   0.453   0.307  13.357  0.5765  0.4809 -0.0191
  173MPD1    H6 2646   0.399   0.225  13.332 -0.4116  0.3896  2.3848
  173MPD1    H7 2647   0.495   0.335  13.269  3.1918 -1.1255  0.7041
  174MPD1     C 2648   1.046   4.428  14.585  0.2015  0.2523  0.3724
  174MPD1    C1 2649   0.912   4.410  14.611  0.2114  0.1291  0.2902
  174MPD1    C2 2650   0.822   4.478  14.530  0.1844 -0.1285  0.0182
  174MPD1    C3 2651   0.866   4.564  14.428 -1.3488  0.2513  0.5549
  174MPD1    C4 2652   1.002   4.573  14.401 -0.3835  0.0216 -0.5050
  174MPD1    C5 2653   1.096   4.506  14.477 -0.1837  0.8796  0.1083
  174MPD1     H 2654   0.715   4.474  14.547  0.4203  0.9942  1.8599
  174MPD1    H1 2655   1.035   4.638  14.321 -0.9775 -0.4267 -1.1102
  174MPD1    H2 2656   1.124   4.397  14.654 -0.5993  1.7099  1.9448
  174MPD1    H3 2657   1.202   4.518  14.460  0.3798 -1.4417  2.0501
  174MPD1     N 2658   0.781   4.628  14.340  0.0219  0.1129  1.1009
  174MPD1    H5 2659   0.826   4.668  14.258 -0.9846  0.8479  0.9197
  174MPD1    N1 2660   0.864   4.347  14.723  0.2671 -0.1240 -0.2914
  174MPD1    H6 2661   0.780   4.295  14.700  0.8031 -0.2668 -1.9455
  174MPD1    H7 2662   0.928   4.278  14.762  0.9967  0.2067 -0.8897
  175MPD1     C 2663   3.098   1.065  15.504 -0.4450 -0.0968 -0.1605
  175MPD1    C1 2664   3.087   1.157  15.605 -0.3056 -0.0397  0.0166
  175MPD1    C2 2665   3.175   1.152  15.719  0.2652 -0.4084  0.1468
  175MPD1    C3 2666   3.264   1.045  15.731  0.2127  0.5232  0.2905
  175MPD1    C4 2667   3.270   0.956  15.625 -0.1319  0.7754 -0.2018
  175MPD1    C5 2668   3.189   0.965  15.511  0.0508 -0.0627 -0.4960
  175MPD1     H 2669   3.166   1.220  15.804 -1.6647 -0.6669  0.1351
  175MPD1    H1 2670   3.337   0.871  15.631 -3.0361 -1.4826  0.5036
  175MPD1    H2 2671   3.034   1.055  15.416 -1.3484 -1.8404  0.6876
  175MPD1    H3 2672   3.187   0.886  15.437  1.4574  0.5382 -1.1850
  175MPD1     N 2673   3.356   1.034  15.835 -0.3055  0.0448 -1.0192
  175MPD1    H5 2674   3.430   0.968  15.815 -0.5797 -0.0886 -1.6095
  175MPD1    N1 2675   2.983   1.253  15.597  0.1879 -0.6439 -0.5754
  175MPD1    H6 2676   2.965   1.284  15.502 -0.1493  2.1421  0.3954
  175MPD1    H7 2677   2.994   1.329  15.664 -0.3701  0.0064 -1.2196
  176MPD1     C 2678   0.412   3.160   0.615  0.0427 -0.9376 -0.6045
  176MPD1    C1 2679   0.357   3.197   0.495  0.0770  0.8144  0.5330
  176MPD1    C2 2680   0.357   3.331   0.470  0.4914  0.2402 -0.0356
  176MPD1    C3 2681   0.377   3.427   0.564  0.2398  0.0462  0.0241
  176MPD1    C4 2682   0.413   3.388   0.689 -0.1198 -0.3316 -0.2310
  176MPD1    C5 2683   0.449   3.259   0.707  0.0402  0.0100  0.2842
  176MPD1     H 2684   0.317   3.369   0.376  0.3145 -0.8686 -0.4065
  176MPD1    H1 2685   0.431   3.456   0.771  2.1621 -0.0471 -0.9522
  176MPD1    H2 2686   0.448   3.059   0.635  0.1490 -0.6680  0.5693
  176MPD1    H3 2687   0.469   3.230   0.810  1.1741 -2.2636 -0.5727
  176MPD1     N 2688   0.365   3.565   0.531  0.1931  0.4341 -0.4721
  176MPD1    H5 2689   0.359   3.581   0.431 -1.0555 -2.9918 -0.9470
  176MPD1    N1 2690   0.346   3.104   0.394  0.1714  0.2008 -0.0413
  176MPD1    H6 2691   0.276   3.130   0.324 -0.1357 -2.5697 -0.7759
  176MPD1    H7 2692   0.324   3.008   0.419 -1.0598  1.6523  4.4890
  177MPD1     C 2693   4.108   2.252  10.974 -0.1305  0.4572 -0.3062
  177MPD1    C1 2694   4.127   2.371  10.909 -0.2641 -0.3435 -0.1548
  177MPD1    C2 2695   4.036   2.416  10.818 -0.2624  0.4547  0.4372
  177MPD1    C3 2696   3.928   2.337  10.776 -0.6438  0.2491  0.3874
  177MPD1    C4 2697   3.914   2.218  10.842 -0.4392 -0.1963 -0.5086
  177MPD1    C5 2698   4.000   2.175  10.944 -0.0924  0.2261 -0.2053
  177MPD1     H 2699   4.061   2.509  10.768 -1.5410  1.5686  1.8508
  177MPD1    H1 2700   3.822   2.161  10.837  1.7274 -3.6279 -0.7786
  177MPD1    H2 2701   4.177   2.223  11.052 -0.8397  0.7850  0.4390
  177MPD1    H3 2702   3.975   2.091  11.008  0.1238  0.6046  0.3724
  177MPD1     N 2703   3.840   2.379  10.674 -0.5033  0.0579 -0.6762
  177MPD1    H5 2704   3.861   2.471  10.636  1.0493  0.4340  1.0949
  177MPD1    N1 2705   4.236   2.447  10.957 -0.0522  0.3244  0.8211
  177MPD1    H6 2706   4.272   2.508  10.883  1.3620 -1.4773  0.0310
  177MPD1    H7 2707   4.316   2.391  10.986  0.2840  0.1372 -0.4673
  178MPD1     C 2708   0.770   3.494   0.494  0.4444 -0.1519  0.0965
  178MPD1    C1 2709   0.752   3.379   0.422  0.3662 -0.2986 -0.5873
  178MPD1    C2 2710   0.826   3.357   0.304 -0.1805 -0.2001 -0.0882
  178MPD1    C3 2711   0.910   3.459   0.258 -0.2981 -0.0191 -0.0206
  178MPD1    C4 2712   0.925   3.575   0.331 -0.5907 -0.4725 -0.0396
  178MPD1    C5 2713   0.844   3.601   0.437 -0.0589  0.3171 -0.3133
  178MPD1     H 2714   0.817   3.258   0.261  0.6055  0.3852 -1.6089
  178MPD1    H1 2715   0.989   3.650   0.287  1.8555 -2.1789  0.5781
  178MPD1    H2 2716   0.722   3.500   0.591 -0.9252 -0.7534 -0.5395
  178MPD1    H3 2717   0.852   3.693   0.493  1.4891 -0.3993  0.6374
  178MPD1     N 2718   0.980   3.440   0.143 -0.2337 -0.0899 -0.4562
  178MPD1    H5 2719   1.053   3.506   0.118  0.3847 -0.8271 -0.5987
  178MPD1    N1 2720   0.703   3.263   0.481 -0.5160 -0.5704  0.3021
  178MPD1    H6 2721   0.623   3.279   0.543 -0.7713  0.8399 -0.4050
  178MPD1    H7 2722   0.679   3.185   0.420  0.9179  0.4070 -1.4931
  179MPD1     C 2723   0.697   2.349  15.202  0.2372  0.3429  0.2947
  179MPD1    C1 2724   0.758   2.327  15.323 -0.2243 -0.8673 -0.1876
  179MPD1    C2 2725   0.751   2.209  15.388  0.1101 -0.2835 -0.0502
  179MPD1    C3 2726   0.710   2.097  15.319 -0.4278  0.3500  0.0766
  179MPD1    C4 2727   0.640   2.114  15.200  0.0556 -0.0723  0.8448
  179MPD1    C5 2728   0.637   2.240  15.145 -0.5157  0.2171 -0.4938
  179MPD1     H 2729   0.786   2.208  15.491 -1.5843  0.0902  0.5374
  179MPD1    H1 2730   0.580   2.031  15.163 -1.1976  1.1246  0.2059
  179MPD1    H2 2731   0.694   2.448  15.159 -1.6944  0.6135  1.0235
  179MPD1    H3 2732   0.577   2.256  15.057  0.5412 -0.0339 -1.2541
  179MPD1     N 2733   0.709   1.971  15.366  1.0419 -0.5687 -0.3509
  179MPD1    H5 2734   0.646   1.905  15.321 -0.0302 -0.4073  0.9250
  179MPD1    N1 2735   0.803   2.444  15.387 -0.0402 -0.1287  0.7203
  179MPD1    H6 2736   0.840   2.511  15.319 -0.0509 -0.0375  0.8049
  179MPD1    H7 2737   0.879   2.431  15.453  0.2548 -1.4755  0.1103
  180MPD1     C 2738   1.145   3.310  15.229 -0.1764 -0.0939  0.4973
  180MPD1    C1 2739   1.170   3.406  15.130 -0.4628  0.3358  0.3661
  180MPD1    C2 2740   1.071   3.432  15.035 -0.2027 -0.5208 -0.5720
  180MPD1    C3 2741   0.947   3.355  15.035 -0.1733 -0.5529 -0.1385
  180MPD1    C4 2742   0.932   3.256  15.133  0.1294 -0.2575  0.0650
  180MPD1    C5 2743   1.024   3.245  15.233 -0.4075 -0.0830 -0.1817
  180MPD1     H 2744   1.089   3.515  14.968  2.0739 -0.1452  0.5125
  180MPD1    H1 2745   0.846   3.191  15.133 -0.7434  0.9188 -4.1510
  180MPD1    H2 2746   1.223   3.283  15.300 -2.4279 -2.6820  1.9880
  180MPD1    H3 2747   1.013   3.169  15.309  0.8399 -2.0846 -2.0139
  180MPD1     N 2748   0.850   3.382  14.933  0.2275  0.1796 -0.4514
  180MPD1    H5 2749   0.886   3.452  14.870 -1.8002  0.2512 -1.5208
  180MPD1    N1 2750   1.303   3.444  15.119  0.0475  0.2619 -0.0600
  180MPD1    H6 2751   1.326   3.527  15.066 -1.0206 -0.7629 -2.1459
  180MPD1    H7 2752   1.337   3.466  15.212  0.1584 -1.9446  0.4245
  181MPD1     C 2753   3.691   1.317   9.062 -0.1162  0.2863  0.0293
  181MPD1    C1 2754   3.740   1.247   9.172 -0.3474  0.1832 -0.2624
  181MPD1    C2 2755   3.678   1.128   9.201 -0.0249  0.2102 -0.2002
  181MPD1    C3 2756   3.562   1.079   9.126 -1.0527 -0.3864 -0.7192
  181MPD1    C4 2757   3.515   1.156   9.015 -0.0102  0.3148 -0.4760
  181MPD1    C5 2758   3.575   1.276   8.995 -0.1748 -0.2010  0.1746
  181MPD1     H 2759   3.717   1.063   9.279 -0.4641 -0.7168 -0.7591
  181MPD1    H1 2760   3.432   1.122   8.955 -1.0040  3.4840 -0.8777
  181MPD1    H2 2761   3.737   1.414   9.046  1.9425 -0.4492  1.5281
  181MPD1    H3 2762   3.538   1.340   8.916  1.3779  2.8786  1.9689
  181MPD1     N 2763   3.497   0.962   9.155 -0.0970 -1.1995  0.0510
  181MPD1    H5 2764   3.405   0.945   9.115 -0.1748  0.3988 -0.4339
  181MPD1    N1 2765   3.860   1.281   9.228  0.1427  0.2733  0.0111
  181MPD1    H6 2766   3.859   1.382   9.236  0.4261  0.0873  2.5404
  181MPD1    H7 2767   3.873   1.244   9.323 -0.6971  1.2447  0.4966
  182MPD1     C 2768   2.768   3.827   1.413 -0.3871 -0.4031  0.4250
  182MPD1    C1 2769   2.818   3.913   1.509  0.4750  0.2306 -0.1599
  182MPD1    C2 2770   2.857   4.047   1.469  0.4096  0.3212  0.0433
  182MPD1    C3 2771   2.814   4.082   1.341 -0.2141  0.4324  0.3609
  182MPD1    C4 2772   2.748   3.999   1.258 -0.0175  0.2962  0.3498
  182MPD1    C5 2773   2.726   3.868   1.287  0.3912  0.3996  0.4664
  182MPD1     H 2774   2.918   4.113   1.530  3.4946 -2.5786  0.1036
  182MPD1    H1 2775   2.731   4.029   1.155  3.1715 -2.0903 -0.8627
  182MPD1    H2 2776   2.728   3.728   1.435 -1.2117  0.2846  2.0306
  182MPD1    H3 2777   2.702   3.791   1.215 -0.1533  1.7542 -0.7975
  182MPD1     N 2778   2.848   4.214   1.285 -0.4133 -0.0831 -0.1971
  182MPD1    H5 2779   2.794   4.238   1.202 -1.0400 -0.5073  0.0796
  182MPD1    N1 2780   2.859   3.867   1.637 -0.3437 -0.0293 -0.8578
  182MPD1    H6 2781   2.784   3.817   1.682  0.2640  1.0290  1.3179
  182MPD1    H7 2782   2.867   3.944   1.703 -0.8717 -0.6750 -0.0473
  183MPD1     C 2783   4.354   0.488   9.334 -0.2567 -0.1230 -0.3850
  183MPD1    C1 2784   4.269   0.393   9.376  0.1602 -0.6476 -0.4579
  183MPD1    C2 2785   4.175   0.426   9.475 -0.1949 -0.0980  0.0692
  183MPD1    C3 2786   4.133   0.558   9.490  0.3402  0.1536  0.0930
  183MPD1    C4 2787   4.214   0.652   9.438  0.0185 -0.0548 -0.1790
  183MPD1    C5 2788   4.324   0.624   9.363 -0.1111 -0.4598 -0.1554
  183MPD1     H 2789   4.126   0.344   9.526  2.1960 -0.9228  1.0349
  183MPD1    H1 2790   4.199   0.757   9.461 -2.7661 -0.8677  1.8219
  183MPD1    H2 2791   4.444   0.462   9.278  1.2576 -3.5675  3.6870
  183MPD1    H3 2792   4.388   0.706   9.332  1.0096 -1.0449  0.5930
  183MPD1     N 2793   4.022   0.587   9.570  0.3748 -0.2128  0.4699
  183MPD1    H5 2794   3.976   0.505   9.609 -0.7531  0.2337  0.0606
  183MPD1    N1 2795   4.294   0.255   9.352  0.1745 -0.0453  0.2505
  183MPD1    H6 2796   4.207   0.202   9.353 -0.1193  0.4847  2.3890
  183MPD1    H7 2797   4.336   0.244   9.260  0.6983 -0.1078  0.4995
  184MPD1     C 2798   2.894   1.981  10.036  0.4128  0.1477 -1.1370
  184MPD1    C1 2799   2.795   1.970   9.936 -0.2124 -0.4259  0.4603
  184MPD1    C2 2800   2.802   2.044   9.824  0.3364  0.2982  0.4691
  184MPD1    C3 2801   2.897   2.142   9.813  0.3116 -0.4285  0.5414
  184MPD1    C4 2802   3.001   2.141   9.901  0.1313 -0.2443  0.5712
  184MPD1    C5 2803   2.997   2.065  10.014 -0.0186  0.4063 -0.7016
  184MPD1     H 2804   2.719   2.045   9.754  0.2661 -0.4902  0.5432
  184MPD1    H1 2805   3.090   2.203   9.896 -0.7547  1.1514  1.9537
  184MPD1    H2 2806   2.906   1.907  10.114  0.2396 -0.2659 -1.5077
  184MPD1    H3 2807   3.076   2.074  10.087 -2.3628 -0.9052  1.9768
  184MPD1     N 2808   2.901   2.235   9.707  0.4380  0.2118 -0.5217
  184MPD1    H5 2809   2.989   2.282   9.692  0.2958  0.5081 -0.4202
  184MPD1    N1 2810   2.677   1.903   9.955  0.1042 -0.9371 -0.5672
  184MPD1    H6 2811   2.673   1.839  10.034  0.0710 -0.3561 -0.1012
  184MPD1    H7 2812   2.661   1.846   9.872  2.3575 -1.5293 -0.6009
  185MPD1     C 2813   2.712   2.535   8.683  0.1451 -0.0037 -0.7308
  185MPD1    C1 2814   2.708   2.406   8.738 -0.1919 -0.2889  0.3730
  185MPD1    C2 2815   2.729   2.393   8.875  0.1774 -0.0080  0.2765
  185MPD1    C3 2816   2.761   2.507   8.952  0.5448  0.0438  0.0361
  185MPD1    C4 2817   2.767   2.631   8.892 -0.1152 -0.4907  0.2273
  185MPD1    C5 2818   2.739   2.641   8.759 -0.2394 -1.1327  0.1672
  185MPD1     H 2819   2.709   2.297   8.921  0.4222 -0.0199  0.3557
  185MPD1    H1 2820   2.817   2.717   8.934 -0.9815  0.2067 -0.1722
  185MPD1    H2 2821   2.691   2.543   8.577  0.1061  0.9165 -0.6468
  185MPD1    H3 2822   2.751   2.743   8.722  0.3335 -1.9444 -1.8488
  185MPD1     N 2823   2.777   2.502   9.087  0.4300 -0.1960  0.2357
  185MPD1    H5 2824   2.797   2.588   9.136 -1.7015  0.6708 -0.4645
  185MPD1    N1 2825   2.703   2.292   8.664 -0.6746  0.3246 -0.6879
  185MPD1    H6 2826   2.659   2.312   8.574  0.1452 -3.3327 -1.9042
  185MPD1    H7 2827   2.661   2.211   8.710 -1.1824  2.3385  2.4020
  186MPD1     C 2828   1.602   1.885  15.732 -0.1700 -0.0064  0.6518
  186MPD1    C1 2829   1.494   1.823  15.781  0.3946  0.8501 -1.1112
  186MPD1    C2 2830   1.402   1.906  15.842  0.8436 -0.4527 -0.4749
  186MPD1    C3 2831   1.423   2.039  15.865  0.6931 -0.4471 -0.6381
  186MPD1    C4 2832   1.537   2.097  15.821  0.1464  0.2007 -0.5836
  186MPD1    C5 2833   1.623   2.019  15.752  0.2561  0.3587  0.1623
  186MPD1     H 2834   1.301   1.869  15.855 -0.0281  1.4682 -1.6588
  186MPD1    H1 2835   1.547   2.205  15.830  0.3767 -0.2064  3.8431
  186MPD1    H2 2836   1.676   1.832  15.671 -0.9172 -0.0234 -0.2404
  186MPD1    H3 2837   1.711   2.064  15.706  0.1441  1.9698  1.5137
  186MPD1     N 2838   1.331   2.118  15.941  0.5418 -0.0505  0.2428
  186MPD1    H5 2839   1.343   2.219  15.951 -1.1580  0.2734 -0.9398
  186MPD1    N1 2840   1.442   1.697  15.730 -0.9142 -0.1785  0.0604
  186MPD1    H6 2841   1.513   1.629  15.703  2.2147  2.7019  1.0909
  186MPD1    H7 2842   1.358   1.656  15.771 -0.6654 -1.3701 -0.6098
  187MPD1     C 2843   0.066   4.512   0.427 -0.1836  0.4573 -0.0102
  187MPD1    C1 2844   4.679   4.481   0.352  0.2438 -0.2800  0.0630
  187MPD1    C2 2845   4.691   4.414   0.228 -0.0113  0.6530  0.0319
  187MPD1    C3 2846   0.098   4.377   0.189  0.1349  0.2719 -0.4375
  187MPD1    C4 2847   0.210   4.417   0.261 -0.0157 -0.0936  0.5106
  187MPD1    C5 2848   0.188   4.471   0.382  0.2883  0.2078  0.1367
  187MPD1     H 2849   4.609   4.402   0.158  0.7028 -0.2360 -0.6618
  187MPD1    H1 2850   0.314   4.417   0.229  0.0053  1.3588  0.5486
  187MPD1    H2 2851   0.065   4.569   0.519 -1.0910  1.4305 -0.6206
  187MPD1    H3 2852   0.274   4.507   0.436  0.2916 -0.9000  0.8586
  187MPD1     N 2853   0.122   4.332   0.055  0.2304 -0.1915 -0.5270
  187MPD1    H5 2854   0.214   4.343   0.013  0.9752 -0.6336  0.9810
  187MPD1    N1 2855   4.562   4.561   0.372  0.1295 -0.0271  0.3406
  187MPD1    H6 2856   4.480   4.519   0.330 -0.5096 -0.4761  2.0607
  187MPD1    H7 2857   4.555   4.582   0.471  1.5431 -2.3672  0.9363
  188MPD1     C 2858   4.585   4.568  10.153 -0.3534 -0.6418  0.1489
  188MPD1    C1 2859   4.536   4.463  10.227  0.3033 -0.1512 -0.0034
  188MPD1    C2 2860   4.552   4.332  10.180 -1.0701  0.1944 -0.0802
  188MPD1    C3 2861   4.603   4.311  10.046 -0.0009 -0.1765  0.2004
  188MPD1    C4 2862   4.635   4.422   9.972 -0.7171 -0.4731 -0.1534
  188MPD1    C5 2863   4.613   4.550  10.022  0.3050  0.2812  0.3197
  188MPD1     H 2864   4.524   4.250  10.246 -2.5131  1.3227  0.7091
  188MPD1    H1 2865   4.670   4.408   9.870  1.9697 -0.1639  0.7180
  188MPD1    H2 2866   4.570   4.671  10.185  0.3335 -1.0791  1.8674
  188MPD1    H3 2867   4.617   4.636   9.956  3.0758  0.8757  1.2643
  188MPD1     N 2868   4.604   4.184   9.981 -0.1866  0.0542  0.1124
  188MPD1    H5 2869   4.572   4.104  10.033 -0.6239 -0.0680 -0.3393
  188MPD1    N1 2870   4.506   4.480  10.365 -0.2745  1.1356  0.3399
  188MPD1    H6 2871   4.445   4.406  10.397  1.3102 -0.1100  0.4979
  188MPD1    H7 2872   4.491   4.578  10.388 -1.7176  0.6923  1.3118
  189MPD1     C 2873   0.785   0.564   0.746 -0.8431 -1.3722 -0.1713
  189MPD1    C1 2874   0.896   0.497   0.795  0.3493  0.1181  0.2577
  189MPD1    C2 2875   0.989   0.451   0.704 -0.5951 -1.5528  0.9020
  189MPD1    C3 2876   0.977   0.467   0.567  0.1918 -0.2635  0.3536
  189MPD1    C4 2877   0.873   0.536   0.514 -0.1037 -0.1185  0.3311
  189MPD1    C5 2878   0.780   0.578   0.606 -0.2534  0.7055 -0.4730
  189MPD1     H 2879   1.061   0.381   0.745  0.6853  0.1340  1.5092
  189MPD1    H1 2880   0.860   0.565   0.410 -0.9288  0.0662  0.4793
  189MPD1    H2 2881   0.701   0.605   0.801 -0.1452 -0.9020  0.5595
  189MPD1    H3 2882   0.699   0.636   0.562 -1.2954 -0.5609 -0.2194
  189MPD1     N 2883   1.084   0.417   0.483  0.7576  0.1079 -0.1803
  189MPD1    H5 2884   1.158   0.375   0.538 -1.1557 -0.2797  2.0984
  189MPD1    N1 2885   0.907   0.462   0.927  0.0638 -0.4277 -0.3764
  189MPD1    H6 2886   1.004   0.451   0.958  0.4429  1.9408 -0.7260
  189MPD1    H7 2887   0.867   0.537   0.984  0.1743 -1.1692  0.6769
  190MPD1     C 2888   0.364   3.164  15.368  0.3651  0.8009  0.0016
  190MPD1    C1 2889   0.347   3.134  15.502 -0.4050 -0.1658 -0.3190
  190MPD1    C2 2890   0.465   3.136  15.578 -0.2729  0.1331  0.2106
  190MPD1    C3 2891   0.589   3.146  15.517 -0.6446 -0.5472  0.9475
  190MPD1    C4 2892   0.602   3.158  15.381  0.2001  0.8689 -0.2053
  190MPD1    C5 2893   0.485   3.174  15.311  0.3312 -0.3772  0.2702
  190MPD1     H 2894   0.458   3.139  15.687  1.0607 -0.6976  0.3272
  190MPD1    H1 2895   0.696   3.177  15.329  1.3701  1.5822  2.1452
  190MPD1    H2 2896   0.278   3.168  15.302  0.4047  0.1694 -0.0956
  190MPD1    H3 2897   0.485   3.205  15.207  0.5239 -1.7186 -0.1398
  190MPD1     N 2898   0.706   3.136  15.601  0.3258 -0.3136 -0.1216
  190MPD1    H5 2899   0.690   3.143  15.701  0.1928 -0.3448 -0.1397
  190MPD1    N1 2900   0.221   3.089  15.549 -0.3087  0.3563  0.0347
  190MPD1    H6 2901   0.216   3.095  15.650 -3.3775  3.5860 -0.3196
  190MPD1    H7 2902   0.139   3.135  15.511 -0.4022 -0.2893 -0.5504
  191MPD1     C 2903   0.565   4.116  12.751  0.4604 -0.4298  0.5795
  191MPD1    C1 2904   0.544   4.235  12.827 -0.5696 -0.3817 -0.1127
  191MPD1    C2 2905   0.466   4.333  12.768 -0.3647  0.4257 -0.2348
  191MPD1    C3 2906   0.428   4.328  12.636  0.3873 -0.2708  0.5265
  191MPD1    C4 2907   0.475   4.220  12.559  0.0041  0.5475 -0.0707
  191MPD1    C5 2908   0.539   4.116  12.620  0.6185  0.1040 -0.1625
  191MPD1     H 2909   0.451   4.424  12.825  1.9246  0.0031  1.0446
  191MPD1    H1 2910   0.457   4.217  12.452 -2.2296 -3.2871  0.4103
  191MPD1    H2 2911   0.626   4.033  12.784 -0.6046  0.4103  4.7196
  191MPD1    H3 2912   0.566   4.029  12.561  0.9755 -1.6419  2.5784
  191MPD1     N 2913   0.359   4.438  12.579  0.1216 -0.0965  0.1518
  191MPD1    H5 2914   0.338   4.518  12.637  2.5415  0.1082  0.7556
  191MPD1    N1 2915   0.574   4.240  12.964  0.7302 -0.0381  0.2348
  191MPD1    H6 2916   0.583   4.336  12.997 -0.6615  0.5892 -1.2262
  191MPD1    H7 2917   0.659   4.189  12.986  0.4896 -0.7810 -0.5602
  192MPD1     C 2918   4.617   0.546  12.808  0.0776  0.6316 -0.1821
  192MPD1    C1 2919   4.607   0.416  12.859  0.8143 -0.8138 -0.0034
  192MPD1    C2 2920   4.676   0.313  12.791  0.7645 -0.7895 -0.0875
  192MPD1    C3 2921   0.031   0.341  12.684 -0.1773 -0.2502  1.0761
  192MPD1    C4 2922   0.051   0.472  12.652 -0.1180 -0.1884  0.1951
  192MPD1    C5 2923   4.702   0.571  12.705 -0.2583 -0.5256  0.0405
  192MPD1     H 2924   4.672   0.214  12.834  1.7353 -0.0450  1.7084
  192MPD1    H1 2925   0.135   0.499  12.589 -1.1684  0.0984 -1.0827
  192MPD1    H2 2926   4.561   0.628  12.849 -1.0287 -0.4766  0.5322
  192MPD1    H3 2927   4.716   0.675  12.677 -1.9828 -0.1297  0.6403
  192MPD1     N 2928   0.115   0.244  12.620  0.4889 -0.4068  0.5430
  192MPD1    H5 2929   0.194   0.282  12.569 -1.0722  0.3482 -1.3217
  192MPD1    N1 2930   4.560   0.394  12.993  0.3879  0.0290  0.3640
  192MPD1    H6 2931   4.526   0.299  13.007 -0.8037  0.2577 -0.9612
  192MPD1    H7 2932   4.485   0.455  13.026 -2.2048 -3.4753  0.9827
  193MPD1     C 2933   4.404   0.744  16.053  0.2293  0.5007 -0.7396
  193MPD1    C1 2934   4.383   0.859  16.121 -0.1915 -0.2433 -0.1958
  193MPD1    C2 2935   4.465   0.880  16.235 -0.3180 -0.3828 -0.1066
  193MPD1    C3 2936   4.571   0.796  16.273  0.0850 -0.1128 -0.1335
  193MPD1    C4 2937   4.587   0.677  16.195  0.5318 -0.1148 -0.7123
  193MPD1    C5 2938   4.498   0.651  16.094 -0.3831 -0.5359  0.0875
  193MPD1     H 2939   4.444   0.970  16.292 -1.5196 -0.1574 -0.8933
  193MPD1    H1 2940   4.672   0.612  16.211  1.4599  0.4568 -3.4714
  193MPD1    H2 2941   4.364   0.734  15.953 -0.5226 -3.6993 -0.0184
  193MPD1    H3 2942   4.513   0.559  16.038 -0.7148 -2.1523  2.6253
  193MPD1     N 2943   4.655   0.822  16.384 -0.8492  0.1147  0.0367
  193MPD1    H5 2944   0.001   0.747  16.380 -0.7799  0.2656 -1.6289
  193MPD1    N1 2945   4.270   0.942  16.098 -0.1082  0.3748  0.2785
  193MPD1    H6 2946   4.242   0.935  16.000  1.2622 -1.1288 -0.0113
  193MPD1    H7 2947   4.278   1.040  16.126  1.6091  0.9164 -2.1307
  194MPD1     C 2948   3.513   2.670  16.286  0.2370  0.2710 -0.0202
  194MPD1    C1 2949   3.489   2.751  16.398 -0.4156  0.4504 -0.5348
  194MPD1    C2 2950   3.463   2.688  16.515  0.4736 -0.1617  0.4495
  194MPD1    C3 2951   3.430   2.557  16.518  0.6061  0.2408 -0.3433
  194MPD1    C4 2952   3.444   2.480  16.404 -0.2598  0.4339  0.5639
  194MPD1    C5 2953   3.486   2.539  16.289 -0.4785  0.8115 -0.3396
  194MPD1     H 2954   3.444   2.751  16.600 -0.0718 -2.3444  1.9454
  194MPD1    H1 2955   3.426   2.373  16.399 -2.1367  0.7025  1.6226
  194MPD1    H2 2956   3.549   2.703  16.189  0.4976  0.3667  0.1075
  194MPD1    H3 2957   3.490   2.471  16.205 -1.8512 -0.0494  0.2995
  194MPD1     N 2958   3.381   2.497  16.635  0.2134  0.1852  0.2103
  194MPD1    H5 2959   3.341   2.404  16.625 -0.1091  0.3643 -0.1481
  194MPD1    N1 2960   3.521   2.886  16.393 -0.2864  0.6495 -0.3179
  194MPD1    H6 2961   3.490   2.924  16.304  2.5046  1.4711 -0.9490
  194MPD1    H7 2962   3.464   2.934  16.463  0.8110  0.9340  0.3825
  195MPD1     C 2963   4.038   0.314  17.585 -0.4677  0.2800 -0.5797
  195MPD1    C1 2964   4.033   0.359   0.032  0.4936 -0.2715  0.1037
  195MPD1    C2 2965   4.053   0.267   0.134 -0.0868 -0.0927 -0.0806
  195MPD1    C3 2966   4.062   0.133   0.109 -0.5540 -0.6303  0.0824
  195MPD1    C4 2967   4.056   0.095  17.667  0.1477 -0.3896 -0.1303
  195MPD1    C5 2968   4.042   0.181  17.562 -0.0160 -0.2376 -0.5608
  195MPD1     H 2969   4.075   0.303   0.234 -0.1090 -0.8221  0.1905
  195MPD1    H1 2970   4.077   4.713  17.646  0.1173 -0.0410 -1.9272
  195MPD1    H2 2971   4.024   0.384  17.503  0.1538  0.1615 -0.7843
  195MPD1    H3 2972   4.044   0.137  17.463 -2.1713 -1.8034  0.0600
  195MPD1     N 2973   4.079   0.031   0.200 -0.4242 -0.1381  0.2285
  195MPD1    H5 2974   4.081   4.661   0.158 -2.6744  1.2961 -3.0742
  195MPD1    N1 2975   4.016   0.497   0.057 -0.7217 -0.0379  0.3956
  195MPD1    H6 2976   3.955   0.517   0.136  1.1246 -0.5805  1.9624
  195MPD1    H7 2977   3.981   0.556  17.673  0.2106  3.0249  2.3895
  196MPD1     C 2978   3.017   3.639   0.072  0.4534  0.5011 -1.0891
  196MPD1    C1 2979   3.094   3.747   0.103  0.2054  0.1421  0.2985
  196MPD1    C2 2980   3.098   3.785   0.234 -0.6907  0.0516  0.5613
  196MPD1    C3 2981   3.044   3.702   0.334  0.3410 -0.0100  0.6724
  196MPD1    C4 2982   2.965   3.596   0.305 -0.3232  0.6899 -0.2972
  196MPD1    C5 2983   2.944   3.571   0.164 -0.3973 -0.0014 -0.4201
  196MPD1     H 2984   3.151   3.873   0.266 -0.9701  1.5191 -2.9628
  196MPD1    H1 2985   2.911   3.542   0.382 -0.8838  1.0915 -0.4116
  196MPD1    H2 2986   3.003   3.609  17.660 -0.3487  0.6927 -1.0424
  196MPD1    H3 2987   2.866   3.510   0.121  1.0843 -2.4957  0.4276
  196MPD1     N 2988   3.064   3.726   0.473 -0.1234  0.0673 -0.5676
  196MPD1    H5 2989   3.025   3.656   0.535  0.4181  0.2588 -0.0125
  196MPD1    N1 2990   3.138   3.835   0.002  0.3275 -0.4335  0.8069
  196MPD1    H6 2991   3.214   3.900   0.021 -1.7525  1.4650  2.4743
  196MPD1    H7 2992   3.169   3.782  17.611  2.0965  0.2044  1.0617
  197MPD1     C 2993   3.473   1.137  17.674  0.7223  0.1468 -0.2143
  197MPD1    C1 2994   3.434   1.268  17.663  0.3601 -0.2034  0.1243
  197MPD1    C2 2995   3.484   1.337  17.560  0.0159  0.6044 -0.4767
  197MPD1    C3 2996   3.543   1.274  17.452  0.7217 -0.2305  0.5781
  197MPD1    C4 2997   3.580   1.139  17.468 -0.0134 -0.4076  0.0703
  197MPD1    C5 2998   3.550   1.070  17.581 -0.4256  0.4851 -0.1504
  197MPD1     H 2999   3.451   1.441  17.560 -1.2005  0.2182 -1.6418
  197MPD1    H1 3000   3.628   1.089  17.384  1.9687  0.2068  0.8342
  197MPD1    H2 3001   3.458   1.072   0.068  0.7865 -1.0394 -1.1059
  197MPD1    H3 3002   3.591   0.972  17.600  2.1183  1.7492  0.8838
  197MPD1     N 3003   3.592   1.335  17.333  0.2775 -0.2986 -0.3017
  197MPD1    H5 3004   3.652   1.277  17.275  0.2173  0.4047 -1.0692
  197MPD1    N1 3005   3.355   1.319   0.069 -0.1545 -0.3568  0.0331
  197MPD1    H6 3006   3.313   1.252   0.133 -2.5605 -0.6314 -1.8413
  197MPD1    H7 3007   3.272   1.363   0.030 -0.8308 -0.0265  1.8131
  198MPD1     C 3008   0.338   4.170  15.840  0.2267  0.0545  0.1465
  198MPD1    C1 3009   0.293   4.300  15.840 -0.9393  0.1468  0.0179
  198MPD1    C2 3010   0.357   4.389  15.919  0.4910 -0.2334  0.6058
  198MPD1    C3 3011   0.465   4.351  15.999 -0.2948  0.2010  1.0322
  198MPD1    C4 3012   0.511   4.222  15.996  0.4537  0.3107 -0.1443
  198MPD1    C5 3013   0.446   4.129  15.915 -0.0703  0.0914 -0.5510
  198MPD1     H 3014   0.341   4.494  15.898 -0.5741 -0.5898 -0.3544
  198MPD1    H1 3015   0.594   4.177  16.050 -0.3477  1.1845  1.8329
  198MPD1    H2 3016   0.298   4.099  15.769 -0.9824  1.0904 -0.2087
  198MPD1    H3 3017   0.480   4.026  15.919 -0.4587  0.0213  1.0744
  198MPD1     N 3018   0.536   4.447  16.064 -0.6572 -0.1138 -0.6928
  198MPD1    H5 3019   0.521   4.544  16.036 -0.3280 -0.5002 -2.2417
  198MPD1    N1 3020   0.210   4.354  15.739 -0.6038 -0.0404  0.3310
  198MPD1    H6 3021   0.154   4.280  15.698 -1.6538  2.2430 -2.3989
  198MPD1    H7 3022   0.155   4.437  15.762  0.0627  0.4899 -0.0080
  199MPD1     C 3023   2.439   0.425  10.150  0.6752  0.4332 -0.3525
  199MPD1    C1 3024   2.312   0.376  10.097  0.8607 -0.2180  0.6992
  199MPD1    C2 3025   2.260   0.440   9.987 -0.5739  0.0209 -0.4813
  199MPD1    C3 3026   2.322   0.553   9.933 -0.7436  0.0645  0.3716
  199MPD1    C4 3027   2.443   0.595   9.987 -0.0409  0.3416  0.0035
  199MPD1    C5 3028   2.500   0.536  10.100  1.0919  0.0948  0.2253
  199MPD1     H 3029   2.178   0.397   9.930 -0.8890  0.3930 -0.3126
  199MPD1    H1 3030   2.487   0.685   9.944 -1.2038  1.4182  1.1017
  199MPD1    H2 3031   2.485   0.388  10.241 -2.4589  1.8269  1.7805
  199MPD1    H3 3032   2.594   0.569  10.142  0.8088 -0.5801  1.3937
  199MPD1     N 3033   2.270   0.631   9.824 -0.3569  0.3652 -0.0511
  199MPD1    H5 3034   2.328   0.711   9.800  0.7473 -0.2326  0.5977
  199MPD1    N1 3035   2.260   0.259  10.148 -0.2243  0.3183  0.3513
  199MPD1    H6 3036   2.279   0.232  10.244 -1.1626  0.4987  0.5804
  199MPD1    H7 3037   2.159   0.262  10.135 -0.1604  1.2482  0.0369
  200MPD1     C 3038   1.440   0.980  15.138  0.0274  0.3952 -0.4067
  200MPD1    C1 3039   1.454   0.937  15.008  1.0057 -0.0944  0.5696
  200MPD1    C2 3040   1.576   0.896  14.968 -0.4055  0.0540  0.8321
  200MPD1    C3 3041   1.690   0.920  15.043 -0.4048 -0.5701  0.5612
  200MPD1    C4 3042   1.680   0.995  15.157  0.5868  0.7854 -0.3130
  200MPD1    C5 3043   1.553   1.008  15.211  0.4649  0.2236 -0.0676
  200MPD1     H 3044   1.598   0.856  14.870 -3.8264  0.3015 -0.0366
  200MPD1    H1 3045   1.773   1.023  15.206 -0.6409  2.6440  0.9417
  200MPD1    H2 3046   1.339   1.003  15.172 -0.7749 -1.7610 -1.3169
  200MPD1    H3 3047   1.532   1.045  15.310 -0.3136 -2.2543  0.6912
  200MPD1     N 3048   1.810   0.883  14.986 -0.4159  0.5991  0.0432
  200MPD1    H5 3049   1.808   0.819  14.908 -0.8324  2.0341 -1.1330
  200MPD1    N1 3050   1.346   0.909  14.933  0.3079 -0.7952  0.0886
  200MPD1    H6 3051   1.354   0.931  14.834 -0.5793  1.0538  0.4252
  200MPD1    H7 3052   1.255   0.937  14.969  0.0211  1.6467 -2.5843
  201MPD1     C 3053   3.898   0.333  13.282  0.0528  0.4346 -0.1734
  201MPD1    C1 3054   3.800   0.250  13.334 -0.4250 -0.2519 -0.1507
  201MPD1    C2 3055   3.808   0.114  13.310  0.2291 -0.5913  0.0530
  201MPD1    C3 3056   3.913   0.063  13.235  0.0584  1.1954  0.2584
  201MPD1    C4 3057   4.007   0.144  13.192  0.0044  0.2499 -0.2146
  201MPD1    C5 3058   4.005   0.278  13.220 -0.1346 -0.1694 -0.9617
  201MPD1     H 3059   3.734   0.053  13.359  0.3462 -0.7705  0.0053
  201MPD1    H1 3060   4.092   0.102  13.140  0.8192  0.5097  0.9111
  201MPD1    H2 3061   3.899   0.440  13.298  1.1364  0.1943  1.3678
  201MPD1    H3 3062   4.088   0.341  13.192  0.9030 -0.1372  2.2327
  201MPD1     N 3063   3.922   4.644  13.227  0.0671  0.0503 -0.6482
  201MPD1    H5 3064   3.866   4.590  13.291 -0.9688  1.1441 -0.6295
  201MPD1    N1 3065   3.692   0.314  13.397 -0.6057 -0.1165 -0.3641
  201MPD1    H6 3066   3.710   0.401  13.447  0.3499 -0.1975 -0.5746
  201MPD1    H7 3067   3.637   0.253  13.458 -0.7959  0.6993  0.2863
  202MPD1     C 3068   4.347   4.375   9.276 -0.2161 -0.1557 -0.4740
  202MPD1    C1 3069   4.273   4.476   9.326 -0.2480 -0.3698  0.0448
  202MPD1    C2 3070   4.278   4.486   9.463 -0.5168  0.2613  0.6269
  202MPD1    C3 3071   4.300   4.376   9.546  0.1742 -0.0359  0.0002
  202MPD1    C4 3072   4.340   4.262   9.484 -0.3657 -0.4438  0.3573
  202MPD1    C5 3073   4.375   4.267   9.352  0.0972  0.1041 -0.5439
  202MPD1     H 3074   4.243   4.580   9.504  1.3464  1.5357 -0.7367
  202MPD1    H1 3075   4.359   4.174   9.544 -0.8774  1.3128  3.0982
  202MPD1    H2 3076   4.368   4.364   9.170 -0.6318  0.0857 -0.5842
  202MPD1    H3 3077   4.431   4.183   9.311  0.7173  1.0121 -1.5652
  202MPD1     N 3078   4.279   4.370   9.683 -0.7809  0.0763 -0.5355
  202MPD1    H5 3079   4.294   4.279   9.726  0.8379  1.6707  2.1856
  202MPD1    N1 3080   4.280   4.586   9.244  0.2989 -0.7550 -0.6476
  202MPD1    H6 3081   4.214   4.658   9.273  3.2626  1.9738 -0.8002
  202MPD1    H7 3082   4.258   4.571   9.146  0.0936 -0.9081 -0.5789
  203MPD1     C 3083   2.032   0.043  12.016  0.2445  0.8793 -0.3663
  203MPD1    C1 3084   2.068   4.721  12.143 -0.3854  0.2563 -0.2697
  203MPD1    C2 3085   2.189   0.045  12.195  0.0887 -0.2093 -0.5151
  203MPD1    C3 3086   2.280   0.112  12.115 -0.0030  0.7467  0.5157
  203MPD1    C4 3087   2.247   0.145  11.990 -0.2127 -0.1563 -0.4632
  203MPD1    C5 3088   2.120   0.105  11.939  0.1500  0.4400  0.2236
  203MPD1     H 3089   2.215   0.019  12.297  0.8158  1.4353 -0.2894
  203MPD1    H1 3090   2.305   0.212  11.927  0.6385 -0.0418  0.4523
  203MPD1    H2 3091   1.933   0.029  11.975 -0.3265  0.1971  1.2460
  203MPD1    H3 3092   2.090   0.139  11.840  0.5693 -0.7510 -0.3116
  203MPD1     N 3093   2.409   0.154  12.176 -0.4969  0.6725 -0.7903
  203MPD1    H5 3094   2.443   0.102  12.257  0.5632  3.1007  0.3246
  203MPD1    N1 3095   1.964   4.668  12.229  0.2721  0.0276  1.0351
  203MPD1    H6 3096   1.902   4.613  12.169 -0.1793  0.0329  1.4924
  203MPD1    H7 3097   2.007   4.603  12.294 -0.8173 -2.6452 -0.8932
  204MPD1     C 3098   2.579   1.958  17.529 -0.1028  0.1729  0.4151
  204MPD1    C1 3099   2.679   1.931  17.435 -0.4818 -0.0552 -0.3716
  204MPD1    C2 3100   2.704   1.793  17.411 -0.0819 -0.0897 -0.5489
  204MPD1    C3 3101   2.611   1.694  17.444  0.4667  0.5155  0.3003
  204MPD1    C4 3102   2.503   1.735  17.530 -0.7396  0.7863  0.1289
  204MPD1    C5 3103   2.490   1.863  17.572 -0.0121  0.3974  0.1057
  204MPD1     H 3104   2.782   1.761  17.343  0.2055 -2.7631  1.0378
  204MPD1    H1 3105   2.424   1.668  17.563 -0.1150 -0.5398 -1.0153
  204MPD1    H2 3106   2.577   2.051  17.584 -2.5811  0.7367 -0.6347
  204MPD1    H3 3107   2.401   1.890  17.630 -0.9204 -2.8991  0.2201
  204MPD1     N 3108   2.631   1.561  17.398  0.2341  0.4056  0.3628
  204MPD1    H5 3109   2.707   1.540  17.335 -0.0680  0.0806  0.1098
  204MPD1    N1 3110   2.775   2.029  17.415  0.0343 -0.4953  0.1503
  204MPD1    H6 3111   2.725   2.118  17.415 -0.2193 -0.6261 -1.4365
  204MPD1    H7 3112   2.811   2.017  17.320  0.0196  0.0040  0.0773
  205MPD1     C 3113   3.158   0.208  16.745 -0.2629 -0.6356  0.2229
  205MPD1    C1 3114   3.104   0.330  16.693  0.3362  0.2197 -0.5643
  205MPD1    C2 3115   2.972   0.351  16.710  0.0450 -0.8253 -0.2254
  205MPD1    C3 3116   2.887   0.257  16.777 -0.2373 -0.1672 -0.7720
  205MPD1    C4 3117   2.946   0.141  16.821 -0.5954 -0.1317  0.7831
  205MPD1    C5 3118   3.078   0.120  16.808  0.2120  0.0529 -0.2367
  205MPD1     H 3119   2.926   0.442  16.672 -1.3021 -2.2010 -1.9036
  205MPD1    H1 3120   2.886   0.061  16.863 -0.6309 -0.6042 -0.1518
  205MPD1    H2 3121   3.263   0.181  16.745 -0.0034  0.3490  3.1351
  205MPD1    H3 3122   3.120   0.027  16.846 -3.1281 -0.3320  2.5522
  205MPD1     N 3123   2.748   0.268  16.802 -0.0683  0.9006 -0.1262
  205MPD1    H5 3124   2.703   0.184  16.837 -1.1388  0.5351 -2.3879
  205MPD1    N1 3125   3.188   0.433  16.654  0.3472 -0.1019  0.2389
  205MPD1    H6 3126   3.270   0.400  16.604 -0.3535  0.5897 -1.3919
  205MPD1    H7 3127   3.137   0.507  16.605 -0.5953  0.3856  1.9627
  206MPD1     C 3128   2.619   2.832  16.696 -0.4006 -0.6122  0.0128
  206MPD1    C1 3129   2.617   2.730  16.607  0.0714 -0.4096  0.1986
  206MPD1    C2 3130   2.579   2.757  16.478  0.5392 -0.4485 -0.7341
  206MPD1    C3 3131   2.525   2.880  16.445 -0.6993  0.1430  0.0401
  206MPD1    C4 3132   2.521   2.980  16.538  0.0289 -0.2138  0.1059
  206MPD1    C5 3133   2.570   2.962  16.663 -0.6885  0.4481 -0.3316
  206MPD1     H 3134   2.579   2.674  16.409 -2.2736 -1.8949  0.9850
  206MPD1    H1 3135   2.475   3.075  16.514  1.6605  0.8052  0.9897
  206MPD1    H2 3136   2.660   2.822  16.795 -1.9757  1.1758  0.8456
  206MPD1    H3 3137   2.565   3.040  16.738  1.8681  0.8377 -0.5693
  206MPD1     N 3138   2.479   2.915  16.316 -0.1493  0.2594 -0.7152
  206MPD1    H5 3139   2.444   3.010  16.308 -1.4617 -0.2739 -1.3161
  206MPD1    N1 3140   2.689   2.614  16.631 -0.3596 -0.1248 -0.5876
  206MPD1    H6 3141   2.662   2.576  16.722 -1.5986 -0.0301 -0.9101
  206MPD1    H7 3142   2.673   2.540  16.563 -0.2901 -1.0612  0.4101
  207MPD1     C 3143   0.271   1.007   9.739 -1.0768  0.6945 -0.4282
  207MPD1    C1 3144   0.169   0.968   9.830  0.0063  0.0611  0.0960
  207MPD1    C2 3145   0.200   0.958   9.969 -0.2528 -0.4211  0.6687
  207MPD1    C3 3146   0.333   0.947  10.009  0.1192  0.3611 -1.0105
  207MPD1    C4 3147   0.434   0.976   9.912  0.1736  0.0558  0.2640
  207MPD1    C5 3148   0.405   1.010   9.780  0.1884  0.2781  0.1598
  207MPD1     H 3149   0.123   0.932  10.041 -1.3459  0.8511 -0.0556
  207MPD1    H1 3150   0.537   0.984   9.943 -0.3631  1.0781  1.7817
  207MPD1    H2 3151   0.247   1.026   9.635 -1.5348  1.6801 -0.1382
  207MPD1    H3 3152   0.484   1.040   9.712  0.7640 -2.2420 -0.2874
  207MPD1     N 3153   0.369   0.919  10.147 -0.0485 -0.0919 -0.3731
  207MPD1    H5 3154   0.469   0.904  10.160  0.3579  1.2168 -1.9215
  207MPD1    N1 3155   0.036   0.952   9.785  0.0999 -0.2802 -0.1508
  207MPD1    H6 3156   4.696   0.938   9.864  2.0628  0.7291  1.5921
  207MPD1    H7 3157   0.022   0.884   9.710 -1.7650 -1.1360  0.9730
  208MPD1     C 3158   3.688   4.708  17.565  0.3413  0.6774  0.2546
  208MPD1    C1 3159   3.652   0.000   0.005  0.1177 -0.0632 -0.3809
  208MPD1    C2 3160   3.524   4.694   0.041 -0.3977 -0.5515 -0.3164
  208MPD1    C3 3161   3.425   4.663  17.643 -0.2417 -0.2081  0.2697
  208MPD1    C4 3162   3.461   4.639  17.514 -0.0065 -0.5289 -1.2558
  208MPD1    C5 3163   3.593   4.670  17.472  0.3394 -0.4171  0.2216
  208MPD1     H 3164   3.497   4.709   0.145 -1.3773 -0.3091 -0.6029
  208MPD1    H1 3165   3.386   4.636  17.436 -0.0353 -2.9075 -1.1178
  208MPD1    H2 3166   3.788   0.012  17.532  1.0455 -0.2130  1.6902
  208MPD1    H3 3167   3.620   4.677  17.367  0.7849  1.0309  0.4370
  208MPD1     N 3168   3.296   4.646  17.689  0.1424 -0.4123  0.1788
  208MPD1    H5 3169   3.287   4.662   0.098 -1.5727 -0.2698  0.0122
  208MPD1    N1 3170   3.752   0.017   0.101 -0.3382 -0.4127 -0.3381
  208MPD1    H6 3171   3.719   0.061   0.186 -0.7870  0.9127 -1.2021
  208MPD1    H7 3172   3.823   0.081   0.066 -1.6319  0.3347 -1.6081
  209MPD1     C 3173   4.272   4.598  11.530 -0.8256 -0.3644  0.1986
  209MPD1    C1 3174   4.309   4.585  11.399 -0.5139 -0.9239  0.5568
  209MPD1    C2 3175   4.421   4.650  11.355 -0.0270  0.2304  0.0005
  209MPD1    C3 3176   4.507   4.714  11.444  0.0552  0.5216 -0.8402
  209MPD1    C4 3177   4.474   4.713  11.579  0.3350  0.0418  0.6409
  209MPD1    C5 3178   4.360   4.651  11.624 -0.7777  0.9775 -0.2695
  209MPD1     H 3179   4.456   4.628  11.255  0.5178 -2.1291  0.6901
  209MPD1    H1 3180   4.541   0.015  11.660  0.5434 -1.3172  0.8690
  209MPD1    H2 3181   4.177   4.554  11.556 -1.3055  0.2883 -0.4634
  209MPD1    H3 3182   4.334   4.666  11.728 -1.5035  2.0558 -0.6117
  209MPD1     N 3183   4.623   0.063  11.395  0.5538 -0.0348  0.2002
  209MPD1    H5 3184   4.635   0.068  11.294  1.2732 -0.2197  0.2817
  209MPD1    N1 3185   4.227   4.530  11.303 -0.0170  0.4845  0.4261
  209MPD1    H6 3186   4.181   4.449  11.343 -0.6277  0.7312  0.2169
  209MPD1    H7 3187   4.282   4.510  11.219 -2.2800  0.7768 -1.1290
  210MPD1     C 3188   0.850   0.441  11.740  0.5386 -0.2031  0.3618
  210MPD1    C1 3189   0.812   0.305  11.739  0.8284 -0.1301  0.0060
  210MPD1    C2 3190   0.701   0.270  11.667 -0.4592 -0.6511 -0.5354
  210MPD1    C3 3191   0.627   0.366  11.603  0.1699 -0.0884  0.6773
  210MPD1    C4 3192   0.665   0.498  11.601  0.2565 -0.1051  0.4216
  210MPD1    C5 3193   0.780   0.535  11.666  0.2040  0.3341  0.0056
  210MPD1     H 3194   0.675   0.165  11.656  2.2739 -1.3825 -0.0215
  210MPD1    H1 3195   0.612   0.569  11.538  0.7828  0.8944  1.1147
  210MPD1    H2 3196   0.938   0.461  11.800  0.4867  1.6372 -0.1806
  210MPD1    H3 3197   0.822   0.634  11.652 -0.6115  0.6256 -0.3704
  210MPD1     N 3198   0.513   0.342  11.526 -0.3707  0.2897 -0.5474
  210MPD1    H5 3199   0.477   0.422  11.476  0.1268  0.6127 -0.3884
  210MPD1    N1 3200   0.895   0.205  11.780 -0.0291  0.4971  1.1164
  210MPD1    H6 3201   0.848   0.118  11.803  0.0214  0.3209  0.5668
  210MPD1    H7 3202   0.954   0.236  11.857  0.1710  0.8122  0.8394
  211MPD1     C 3203   3.710   4.550  16.392 -0.3830  0.3086 -0.3119
  211MPD1    C1 3204   3.676   4.643  16.300 -0.3940 -0.1689 -1.0625
  211MPD1    C2 3205   3.540   4.683  16.286  0.6480 -0.0566 -0.2629
  211MPD1    C3 3206   3.446   4.624  16.367 -0.6891  0.2709  0.3150
  211MPD1    C4 3207   3.488   4.527  16.454 -0.3504 -0.0568  0.6355
  211MPD1    C5 3208   3.619   4.504  16.473  0.1236  0.3153 -0.4783
  211MPD1     H 3209   3.512   0.027  16.204 -2.0707 -1.2642 -0.3064
  211MPD1    H1 3210   3.425   4.488  16.533  1.3826 -1.9978  1.0771
  211MPD1    H2 3211   3.814   4.524  16.409 -0.7098 -0.0872  1.0624
  211MPD1    H3 3212   3.661   4.442  16.551  1.0535  2.5794  0.8215
  211MPD1     N 3213   3.310   4.667  16.355 -0.3659 -0.5908 -0.3686
  211MPD1    H5 3214   3.286   0.021  16.292  1.2587 -0.9291 -1.3973
  211MPD1    N1 3215   3.776   4.701  16.227 -0.0999 -0.1809  0.3898
  211MPD1    H6 3216   3.834   0.041  16.283  1.7100 -1.2698 -0.2915
  211MPD1    H7 3217   3.741   0.049  16.162  0.7042 -0.2659 -0.1329
  212MPD1     C 3218   2.148   2.982  16.485  0.5084 -0.9983 -0.2894
  212MPD1    C1 3219   2.096   3.020  16.601  0.6405 -0.3458  0.0070
  212MPD1    C2 3220   2.017   2.929  16.674 -0.6829 -0.8586 -0.4367
  212MPD1    C3 3221   1.993   2.796  16.638 -0.3877 -0.1154  0.5987
  212MPD1    C4 3222   2.062   2.752  16.531  0.8538  0.3564 -0.2795
  212MPD1    C5 3223   2.142   2.843  16.452 -0.4000 -0.5053  0.0082
  212MPD1     H 3224   1.965   2.972  16.759  0.5352  1.0314 -0.6427
  212MPD1    H1 3225   2.063   2.648  16.500 -0.5884  0.5228 -0.8642
  212MPD1    H2 3226   2.183   3.056  16.413  2.7299 -1.0894  0.7135
  212MPD1    H3 3227   2.176   2.800  16.359  0.2994  0.1763 -0.0510
  212MPD1     N 3228   1.916   2.704  16.712  0.9800  0.5992 -0.3865
  212MPD1    H5 3229   1.915   2.610  16.673 -0.1167  0.8211 -0.8835
  212MPD1    N1 3230   2.112   3.151  16.650 -0.4572 -0.6571  0.0826
  212MPD1    H6 3231   2.111   3.161  16.751  0.2147 -0.3663  0.0619
  212MPD1    H7 3232   2.197   3.198  16.620  0.9700 -3.5879 -0.4642
  213MPD1     C 3233   0.505   3.672  15.722 -0.6000  0.1439 -0.1693
  213MPD1    C1 3234   0.445   3.565  15.657 -0.5490  0.2697 -0.1965
  213MPD1    C2 3235   0.383   3.590  15.541  0.8980 -0.4131 -0.2597
  213MPD1    C3 3236   0.357   3.714  15.491 -1.1084 -0.1297  0.0776
  213MPD1    C4 3237   0.404   3.817  15.565  0.4513 -0.4137 -0.1887
  213MPD1    C5 3238   0.491   3.800  15.666 -0.0952  0.3950 -0.1282
  213MPD1     H 3239   0.340   3.508  15.484  0.8472 -0.4400 -0.1826
  213MPD1    H1 3240   0.383   3.920  15.537  0.3297 -0.6402 -0.9388
  213MPD1    H2 3241   0.581   3.661  15.799  2.2319  0.5994 -2.9146
  213MPD1    H3 3242   0.528   3.889  15.715  0.8660  0.3791 -0.8418
  213MPD1     N 3243   0.258   3.727  15.388 -0.6979 -0.1719  0.3037
  213MPD1    H5 3244   0.223   3.644  15.340 -1.6723  0.0048  0.7165
  213MPD1    N1 3245   0.505   3.435  15.679  0.1196 -0.2137  0.3700
  213MPD1    H6 3246   0.506   3.425  15.781  2.4264 -0.5118  0.3108
  213MPD1    H7 3247   0.448   3.360  15.641  1.1169 -0.0075 -1.5236
  214MPD1     C 3248   4.285   3.285  14.816  0.1843 -0.3106 -0.5840
  214MPD1    C1 3249   4.283   3.282  14.957 -0.6475 -0.2154 -0.3416
  214MPD1    C2 3250   4.363   3.377  15.022 -0.0500 -0.1892  0.5291
  214MPD1    C3 3251   4.457   3.458  14.963  0.6448 -1.1670  0.5398
  214MPD1    C4 3252   4.452   3.454  14.828 -0.3927  0.2791 -0.2458
  214MPD1    C5 3253   4.368   3.375  14.754  0.0292  0.2915 -0.2829
  214MPD1     H 3254   4.367   3.380  15.130 -0.3274 -0.6690  0.5515
  214MPD1    H1 3255   4.509   3.527  14.771 -2.1067  1.5570 -0.3345
  214MPD1    H2 3256   4.223   3.217  14.758  0.1939  0.0914 -1.0671
  214MPD1    H3 3257   4.358   3.382  14.647  0.5306  0.5194 -0.3121
  214MPD1     N 3258   4.551   3.543  15.023  0.0616  0.4911  0.4796
  214MPD1    H5 3259   4.623   3.589  14.968  1.4385  0.6059  2.3690
  214MPD1    N1 3260   4.181   3.218  15.028  0.6935  0.3555 -0.4434
  214MPD1    H6 3261   4.142   3.137  14.981 -0.6998  1.1731 -0.6995
  214MPD1    H7 3262   4.216   3.189  15.119 -0.6860 -0.7424 -0.2728
  215MPD1     C 3263   4.118   0.388  10.850 -0.3581  0.0268  0.4400
  215MPD1    C1 3264   4.094   0.416  10.979  0.3390  1.0723 -0.5253
  215MPD1    C2 3265   4.169   0.512  11.041  0.2370  0.6655  0.3859
  215MPD1    C3 3266   4.260   0.588  10.970  0.5624  0.0402  0.0462
  215MPD1    C4 3267   4.256   0.578  10.829  0.0005 -0.0276  0.2146
  215MPD1    C5 3268   4.199   0.468  10.777 -0.3843 -0.7882  0.3975
  215MPD1     H 3269   4.183   0.507  11.149  0.1000 -2.4580  0.2394
  215MPD1    H1 3270   4.322   0.640  10.770 -0.4332 -1.6374 -2.0071
  215MPD1    H2 3271   4.066   0.305  10.803  0.6308  0.5171 -1.5118
  215MPD1    H3 3272   4.210   0.452  10.670 -2.2406 -0.5658  0.1718
  215MPD1     N 3273   4.360   0.654  11.039 -0.5788  0.2580  0.3024
  215MPD1    H5 3274   4.364   0.649  11.141 -1.4568  1.7375  0.4026
  215MPD1    N1 3275   3.996   0.345  11.055  0.7572  0.3957 -0.8126
  215MPD1    H6 3276   3.934   0.409  11.104  1.1140  0.4457 -0.4276
  215MPD1    H7 3277   3.939   0.280  11.001  0.0678 -1.5093  2.1759
  216MPD1     C 3278   2.355   2.470  16.338  0.2578  0.0894 -0.4531
  216MPD1    C1 3279   2.335   2.336  16.320  0.8166  0.1498  0.4160
  216MPD1    C2 3280   2.315   2.250  16.426 -0.6935  0.4291 -0.6436
  216MPD1    C3 3281   2.286   2.302  16.552  0.0766  0.5449 -0.5771
  216MPD1    C4 3282   2.288   2.441  16.571  0.5059  0.2550 -0.1732
  216MPD1    C5 3283   2.326   2.522  16.461  0.4470  0.0711 -0.1381
  216MPD1     H 3284   2.305   2.144  16.407 -1.8512  0.5929 -0.9507
  216MPD1    H1 3285   2.271   2.486  16.668  0.9683 -2.4830  1.1676
  216MPD1    H2 3286   2.378   2.534  16.254  3.0217 -0.3363 -0.0418
  216MPD1    H3 3287   2.347   2.625  16.487  4.7184 -0.4343 -1.5672
  216MPD1     N 3288   2.255   2.215  16.661  0.3016  0.2315 -0.5799
  216MPD1    H5 3289   2.263   2.116  16.642 -0.2897 -0.0278  0.5158
  216MPD1    N1 3290   2.350   2.296  16.185 -0.4408  0.5706  0.1439
  216MPD1    H6 3291   2.345   2.371  16.116  2.3353  0.0966 -0.5952
  216MPD1    H7 3292   2.299   2.212  16.160  0.7211  0.4859 -1.9620
  217MPD1     C 3293   3.375   3.494   8.495  0.1527 -0.4634  0.0563
  217MPD1    C1 3294   3.416   3.401   8.591 -0.4932 -0.2329  0.6013
  217MPD1    C2 3295   3.504   3.446   8.699 -0.6626 -0.1219  0.5694
  217MPD1    C3 3296   3.560   3.571   8.688 -0.5924  0.4175  0.5041
  217MPD1    C4 3297   3.524   3.654   8.589  0.3803  0.0990  0.4359
  217MPD1    C5 3298   3.433   3.618   8.494  0.2016 -0.3520 -0.0374
  217MPD1     H 3299   3.527   3.382   8.783  0.8790 -0.1402  0.1322
  217MPD1    H1 3300   3.577   3.748   8.578 -0.9940  0.6989 -1.0443
  217MPD1    H2 3301   3.304   3.475   8.415 -0.9071 -0.3352  0.9684
  217MPD1    H3 3302   3.401   3.692   8.422 -0.6741 -1.0848 -0.4067
  217MPD1     N 3303   3.658   3.627   8.766  0.3054 -0.1812 -0.2179
  217MPD1    H5 3304   3.675   3.727   8.763 -1.9464  0.2094  0.1642
  217MPD1    N1 3305   3.367   3.269   8.589  0.3027 -0.7968  0.5974
  217MPD1    H6 3306   3.334   3.231   8.678 -1.3370 -3.0372 -0.9725
  217MPD1    H7 3307   3.296   3.253   8.518  1.5535  1.4531 -1.1307
  218MPD1     C 3308   4.603   1.128  12.562 -0.7038  0.3615 -0.4156
  218MPD1    C1 3309   4.621   1.073  12.439 -0.1781  0.2623 -0.0085
  218MPD1    C2 3310   4.607   0.937  12.431 -0.2186 -0.1454  0.0434
  218MPD1    C3 3311   4.556   0.864  12.537 -0.0181  0.0625  0.0339
  218MPD1    C4 3312   4.522   0.922  12.651 -0.0977  0.2124 -0.0984
  218MPD1    C5 3313   4.557   1.051  12.667  0.6330  0.2612 -0.6292
  218MPD1     H 3314   4.632   0.885  12.340  0.2792  0.5844 -0.2308
  218MPD1    H1 3315   4.464   0.877  12.730 -1.6404  3.8376  0.8376
  218MPD1    H2 3316   4.627   1.233  12.577 -0.7690  0.5974 -1.9301
  218MPD1    H3 3317   4.552   1.098  12.764 -2.0622  0.5464 -0.8910
  218MPD1     N 3318   4.519   0.736  12.499 -0.3225 -0.3687 -0.5665
  218MPD1    H5 3319   4.550   0.703  12.408  0.5658 -1.7259  0.2223
  218MPD1    N1 3320   4.679   1.151  12.335  0.2438 -0.3861  0.2232
  218MPD1    H6 3321   4.642   1.246  12.334 -1.6144 -1.0953 -0.3599
  218MPD1    H7 3322   4.661   1.107  12.245  1.7364 -1.2986  0.3695
  219MPD1     C 3323   4.281   0.216  11.729 -0.6809  0.2494  0.3654
  219MPD1    C1 3324   4.390   0.289  11.747 -0.1183  0.6033  0.0341
  219MPD1    C2 3325   4.430   0.315  11.876 -0.3216  0.4742 -0.3906
  219MPD1    C3 3326   4.350   0.269  11.979 -0.2577  0.2359  0.0140
  219MPD1    C4 3327   4.238   0.198  11.951  0.2269 -0.1969  0.2551
  219MPD1    C5 3328   4.207   0.160  11.828 -0.0260  0.6603 -0.0762
  219MPD1     H 3329   4.523   0.367  11.895  0.8921 -1.3100 -1.4916
  219MPD1    H1 3330   4.169   0.171  12.030 -2.1903  0.5811 -1.5756
  219MPD1    H2 3331   4.241   0.198  11.629  0.2466  1.3089 -0.1992
  219MPD1    H3 3332   4.122   0.099  11.800 -0.9970  0.9960  2.1680
  219MPD1     N 3333   4.370   0.295  12.119 -0.1004 -0.2594 -0.4089
  219MPD1    H5 3334   4.315   0.242  12.185 -1.7506  1.6719 -0.2319
  219MPD1    N1 3335   4.460   0.334  11.635  0.6633 -0.7459  0.5906
  219MPD1    H6 3336   4.451   0.278  11.551 -3.0474  1.0041 -0.1884
  219MPD1    H7 3337   4.560   0.342  11.653  1.0543 -1.7532 -1.1188
  220MPD1     C 3338   0.314   1.889   9.761 -0.4897  0.2351 -0.8344
  220MPD1    C1 3339   0.391   1.850   9.866 -0.5380 -0.5923 -0.1551
  220MPD1    C2 3340   0.336   1.754   9.943  0.7062  0.6720  0.3184
  220MPD1    C3 3341   0.213   1.698   9.914  0.2416 -0.4150  0.5772
  220MPD1    C4 3342   0.145   1.730   9.792  0.3940 -0.1661 -0.2068
  220MPD1    C5 3343   0.194   1.840   9.722 -0.2170  0.7169  0.0483
  220MPD1     H 3344   0.389   1.710  10.027  0.9385 -0.8461 -0.6238
  220MPD1    H1 3345   0.049   1.687   9.769  0.8408  0.2776 -2.9231
  220MPD1    H2 3346   0.356   1.976   9.711  2.1758 -0.3537  0.3492
  220MPD1    H3 3347   0.141   1.891   9.642 -1.1706  0.3629  0.4481
  220MPD1     N 3348   0.170   1.600  10.006 -0.4252 -0.3922 -0.4422
  220MPD1    H5 3349   0.222   1.588  10.092  0.6792  1.4822 -0.8583
  220MPD1    N1 3350   0.515   1.912   9.897 -0.6336 -0.5272  0.2506
  220MPD1    H6 3351   0.567   1.951   9.818 -2.2880  1.1748 -0.0022
  220MPD1    H7 3352   0.582   1.870   9.961  0.1061 -0.2100 -0.3136
  221MPD1     C 3353   1.500   4.591  16.364 -0.4429  0.2205 -0.0717
  221MPD1    C1 3354   1.586   4.692  16.342 -0.9194 -0.3802  0.0784
  221MPD1    C2 3355   1.718   4.661  16.348  0.3635 -0.5399  0.0228
  221MPD1    C3 3356   1.763   4.531  16.361  0.5347  0.0187 -0.7378
  221MPD1    C4 3357   1.677   4.428  16.361  0.7364 -0.2136 -0.3626
  221MPD1    C5 3358   1.544   4.460  16.370  0.1945 -0.1529 -0.0088
  221MPD1     H 3359   1.788   0.021  16.361  1.2061 -1.0254 -1.3965
  221MPD1    H1 3360   1.702   4.326  16.387  0.3313 -0.5438 -1.2408
  221MPD1    H2 3361   1.397   4.606  16.393 -0.3776  2.2989 -0.9313
  221MPD1    H3 3362   1.482   4.376  16.400  0.2927 -0.1084  0.3306
  221MPD1     N 3363   1.900   4.499  16.386  0.1405  0.1425  0.4949
  221MPD1    H5 3364   1.924   4.403  16.365 -0.2423  0.5916 -1.9673
  221MPD1    N1 3365   1.545   0.105  16.351 -0.0980  0.3203  0.7644
  221MPD1    H6 3366   1.609   0.175  16.315  0.6209 -1.7157 -1.9311
  221MPD1    H7 3367   1.454   0.117  16.309  0.5376  0.4504 -0.5581
  222MPD1     C 3368   2.274   2.852  16.915  0.4877 -0.3144 -0.3503
  222MPD1    C1 3369   2.273   2.715  16.917 -0.2109  0.5564 -0.0322
  222MPD1    C2 3370   2.193   2.643  17.003  0.2974 -0.0993 -0.3130
  222MPD1    C3 3371   2.097   2.713  17.074  0.5485 -1.1494 -0.5349
  222MPD1    C4 3372   2.086   2.853  17.062  0.1109  0.5329  0.2376
  222MPD1    C5 3373   2.178   2.924  16.982  0.2044 -0.2068  0.5392
  222MPD1     H 3374   2.203   2.535  17.004 -1.6818 -0.2723  1.0813
  222MPD1    H1 3375   2.011   2.911  17.114 -1.2273 -0.8576 -0.1188
  222MPD1    H2 3376   2.329   2.912  16.844  0.3134 -1.7662 -1.7272
  222MPD1    H3 3377   2.171   3.031  16.968 -1.4063 -0.2557  0.8797
  222MPD1     N 3378   2.005   2.662  17.165 -0.0617  0.1781  0.3482
  222MPD1    H5 3379   1.940   2.725  17.210  0.5129  0.9526  0.1083
  222MPD1    N1 3380   2.376   2.652  16.853 -0.2733 -0.1279  0.9433
  222MPD1    H6 3381   2.421   2.716  16.789 -2.1355  0.5754  0.3350
  222MPD1    H7 3382   2.349   2.564  16.810 -1.4199  1.6113 -1.8889
  223MPD1     C 3383   1.624   1.785   0.030 -0.4891 -0.3884  0.4926
  223MPD1    C1 3384   1.590   1.902   0.096 -0.1972  0.9948 -0.3484
  223MPD1    C2 3385   1.606   2.025   0.036  0.7608  0.2067 -0.0745
  223MPD1    C3 3386   1.659   2.027  17.596 -0.2150 -0.3228  0.5333
  223MPD1    C4 3387   1.677   1.915  17.525  0.2817 -0.1735 -0.2822
  223MPD1    C5 3388   1.659   1.796  17.585  0.1748 -0.1285 -0.4192
  223MPD1     H 3389   1.581   2.120   0.082 -0.5458  0.2361 -0.8631
  223MPD1    H1 3390   1.705   1.914  17.420 -0.9919  2.8062 -0.6546
  223MPD1    H2 3391   1.645   1.694   0.085 -0.6550 -0.0539  1.1099
  223MPD1    H3 3392   1.677   1.706  17.528  0.1444 -1.5075  1.7471
  223MPD1     N 3393   1.677   2.158  17.552 -0.8167 -0.2341  0.5338
  223MPD1    H5 3394   1.661   2.230  17.621 -0.4138 -0.6600  1.0720
  223MPD1    N1 3395   1.579   1.894   0.240 -0.2714  0.2022 -0.4576
  223MPD1    H6 3396   1.524   1.969   0.282 -0.1502 -0.5813  1.1249
  223MPD1    H7 3397   1.540   1.807   0.275 -2.6387  1.5647  0.3446
  224MPD1     C 3398   4.143   3.992   8.914  0.1263  0.0869 -0.1824
  224MPD1    C1 3399   4.049   4.096   8.882  0.1517  0.7101 -0.4106
  224MPD1    C2 3400   3.995   4.174   8.983  0.1014  0.6068 -0.1641
  224MPD1    C3 3401   4.051   4.164   9.111  0.5185  0.3693 -0.0145
  224MPD1    C4 3402   4.136   4.056   9.135 -0.4932 -0.1225 -0.0507
  224MPD1    C5 3403   4.180   3.968   9.039  0.1220 -0.1513 -0.3429
  224MPD1     H 3404   3.932   4.257   8.951 -1.8374 -1.6575 -2.2118
  224MPD1    H1 3405   4.179   4.042   9.234  0.1011  0.0105 -0.2921
  224MPD1    H2 3406   4.172   3.925   8.834  1.0259  1.2667 -0.8472
  224MPD1    H3 3407   4.250   3.888   9.061 -1.5119 -1.1234  1.3758
  224MPD1     N 3408   4.029   4.250   9.225  0.3752 -0.0699 -0.3590
  224MPD1    H5 3409   4.082   4.241   9.311 -1.1156  0.6074  0.6257
  224MPD1    N1 3410   3.994   4.102   8.750 -0.1480 -0.2930  0.0353
  224MPD1    H6 3411   4.048   4.061   8.674 -1.2937  0.3451 -1.1248
  224MPD1    H7 3412   3.963   4.197   8.729 -1.8857 -0.4276  2.0102
  225MPD1     C 3413   4.248   1.135  12.985  0.0115  0.1746  0.5287
  225MPD1    C1 3414   4.139   1.047  12.959  0.0093 -0.1344 -0.1484
  225MPD1    C2 3415   4.078   1.043  12.833  0.8101  0.0014  0.0078
  225MPD1    C3 3416   4.145   1.117  12.727  0.3118  0.4727  0.0844
  225MPD1    C4 3417   4.254   1.191  12.757 -0.3694 -0.3058  0.2983
  225MPD1    C5 3418   4.303   1.204  12.882 -0.1240 -0.3317  1.1017
  225MPD1     H 3419   3.985   0.991  12.814  0.5263  0.9550 -1.2599
  225MPD1    H1 3420   4.308   1.242  12.679 -0.2161  1.6039  1.6561
  225MPD1    H2 3421   4.304   1.128  13.078 -1.5839 -2.0713  1.3312
  225MPD1    H3 3422   4.386   1.272  12.898  0.4092 -0.6667 -0.1862
  225MPD1     N 3423   4.096   1.123  12.595  0.2826  0.3332  0.5163
  225MPD1    H5 3424   4.143   1.190  12.535 -0.4201 -0.9905 -1.4945
  225MPD1    N1 3425   4.083   0.962  13.057  0.1229  0.0337 -0.4430
  225MPD1    H6 3426   4.057   0.867  13.033  2.0816 -0.0432 -2.1875
  225MPD1    H7 3427   4.152   0.963  13.133  0.4199  0.1040 -0.7146
  226MPD1     C 3428   2.494   1.827   9.158 -0.1137 -0.3696 -0.1567
  226MPD1    C1 3429   2.634   1.839   9.139 -0.5921 -0.2796  0.0159
  226MPD1    C2 3430   2.698   1.717   9.118  0.4703  0.1370 -0.5789
  226MPD1    C3 3431   2.638   1.599   9.147  0.5348  0.4926  0.4794
  226MPD1    C4 3432   2.504   1.591   9.176 -0.1001  0.4437  0.1175
  226MPD1    C5 3433   2.433   1.707   9.173  0.6252  0.0404  0.2138
  226MPD1     H 3434   2.804   1.726   9.095  0.6133 -0.2295 -0.0505
  226MPD1    H1 3435   2.454   1.496   9.190  1.8905 -0.3497  1.8562
  226MPD1    H2 3436   2.440   1.920   9.171  1.5062  0.7286 -1.2076
  226MPD1    H3 3437   2.324   1.704   9.179  0.6259  2.6642  1.3094
  226MPD1     N 3438   2.718   1.486   9.129 -0.1720 -0.1682  0.6678
  226MPD1    H5 3439   2.815   1.489   9.100  0.5396  0.6753  3.1376
  226MPD1    N1 3440   2.690   1.966   9.128 -0.3364 -0.4367  0.3795
  226MPD1    H6 3441   2.787   1.972   9.158  0.3444  0.8541 -2.0682
  226MPD1    H7 3442   2.640   2.032   9.187 -0.4982 -1.9258  1.9062
  227MPD1     C 3443   3.021   0.422   9.099 -0.5986 -0.1230  0.2309
  227MPD1    C1 3444   3.134   0.500   9.114  0.0477  0.9342 -0.3307
  227MPD1    C2 3445   3.117   0.643   9.122 -0.4824  0.2913  0.0593
  227MPD1    C3 3446   2.989   0.701   9.150 -0.1238  0.3340  0.2591
  227MPD1    C4 3447   2.879   0.620   9.138 -0.4175 -0.3482  0.7997
  227MPD1    C5 3448   2.895   0.487   9.111  0.7269 -0.1440  0.0509
  227MPD1     H 3449   3.201   0.712   9.121 -1.4793  1.4870 -0.5576
  227MPD1    H1 3450   2.780   0.662   9.130 -1.8910 -3.6203  1.7142
  227MPD1    H2 3451   3.026   0.317   9.072 -2.1457  0.7520 -3.4222
  227MPD1    H3 3452   2.806   0.429   9.090  1.0977 -0.0951 -1.6544
  227MPD1     N 3453   2.980   0.841   9.167 -0.4660  0.5117 -0.4775
  227MPD1    H5 3454   3.058   0.897   9.136  1.1681 -1.8962 -0.6989
  227MPD1    N1 3455   3.259   0.454   9.071 -0.7140  0.0431 -0.3439
  227MPD1    H6 3456   3.271   0.362   9.115 -1.0237  0.3165  0.3179
  227MPD1    H7 3457   3.338   0.507   9.106 -1.0796 -0.1404  0.7713
  228MPD1     C 3458   1.219   3.034  13.190  0.2768 -0.3692  0.4035
  228MPD1    C1 3459   1.121   2.958  13.248  0.2203 -0.2168 -0.7456
  228MPD1    C2 3460   0.987   2.971  13.211 -0.1825 -0.2859 -0.5714
  228MPD1    C3 3461   0.952   3.076  13.133 -0.3534  0.1714  0.1814
  228MPD1    C4 3462   1.047   3.169  13.097  0.0413  0.1792 -0.1555
  228MPD1    C5 3463   1.179   3.141  13.111  0.7902 -0.3810  0.0607
  228MPD1     H 3464   0.922   2.888  13.238  0.7935 -1.6491 -2.3755
  228MPD1    H1 3465   1.020   3.264  13.050  0.2477 -0.0367 -0.7103
  228MPD1    H2 3466   1.323   3.018  13.215  0.4845 -0.0741 -0.2471
  228MPD1    H3 3467   1.253   3.207  13.067 -0.9307  1.2208 -0.4356
  228MPD1     N 3468   0.810   3.088  13.119 -0.0745  0.0410  0.1119
  228MPD1    H5 3469   0.761   3.018  13.173 -0.3978 -0.7763 -1.2412
  228MPD1    N1 3470   1.159   2.842  13.314  0.4217 -0.5059  0.9630
  228MPD1    H6 3471   1.082   2.800  13.366 -1.5887  2.4747  0.3801
  228MPD1    H7 3472   1.241   2.846  13.375  1.2003  0.3358 -0.1270
  229MPD1     C 3473   0.632   2.377  14.618  0.0784 -0.1007  0.3856
  229MPD1    C1 3474   0.669   2.459  14.724 -0.1430 -0.3180 -0.2050
  229MPD1    C2 3475   0.762   2.411  14.815 -0.3109 -0.1504  0.4596
  229MPD1    C3 3476   0.795   2.272  14.821  1.2352 -0.1044  0.5752
  229MPD1    C4 3477   0.740   2.192  14.721 -0.6804 -0.4994 -0.0497
  229MPD1    C5 3478   0.663   2.244  14.620 -0.0649 -0.3393  0.1276
  229MPD1     H 3479   0.789   2.464  14.906  2.5439  0.3079 -0.6497
  229MPD1    H1 3480   0.744   2.084  14.714 -0.3409 -0.5825  1.4783
  229MPD1    H2 3481   0.546   2.410  14.561  0.6472  1.0351  0.1834
  229MPD1    H3 3482   0.630   2.184  14.537  0.3014  1.0701 -1.0316
  229MPD1     N 3483   0.881   2.226  14.926  0.1447 -0.2711  0.4953
  229MPD1    H5 3484   0.929   2.288  14.990  0.9509 -1.6790  1.2753
  229MPD1    N1 3485   0.637   2.597  14.724 -0.2866 -0.3647 -0.3611
  229MPD1    H6 3486   0.548   2.602  14.675  0.2362 -1.2663 -1.4002
  229MPD1    H7 3487   0.629   2.639  14.817  0.2867 -2.6381  0.7103
  230MPD1     C 3488   1.058   2.429  15.852 -0.3590 -0.2492  0.0217
  230MPD1    C1 3489   0.990   2.314  15.846 -0.2138 -0.4213 -0.1128
  230MPD1    C2 3490   1.006   2.231  15.733  0.7634  0.0209 -0.0654
  230MPD1    C3 3491   1.068   2.284  15.620 -0.1846  0.4201  1.2026
  230MPD1    C4 3492   1.114   2.417  15.624 -0.0520  0.5701  0.1577
  230MPD1    C5 3493   1.113   2.484  15.745 -0.1881 -0.5847  0.6873
  230MPD1     H 3494   0.973   2.128  15.734 -3.4124  1.3628  1.1533
  230MPD1    H1 3495   1.158   2.459  15.534 -2.1515  0.0496 -1.1175
  230MPD1    H2 3496   1.059   2.491  15.941 -0.3471  0.9815 -0.8371
  230MPD1    H3 3497   1.157   2.583  15.747  1.5750 -1.3528 -0.4393
  230MPD1     N 3498   1.069   2.199  15.499 -0.3879  0.5402  0.9316
  230MPD1    H5 3499   1.006   2.120  15.493  0.7170 -0.3089  0.5462
  230MPD1    N1 3500   0.932   2.258  15.962 -0.5624  0.2206 -0.4762
  230MPD1    H6 3501   0.844   2.214  15.934 -1.0966 -0.0097  1.5563
  230MPD1    H7 3502   0.894   2.321  16.032 -0.1617  0.2155 -0.2555
  231MPD1     C 3503   4.311   3.979  15.379 -0.0626  0.4963 -0.5611
  231MPD1    C1 3504   4.264   3.899  15.279 -0.2427  0.4825 -0.0694
  231MPD1    C2 3505   4.307   3.918  15.150  0.0160  0.5649 -0.6147
  231MPD1    C3 3506   4.378   4.029  15.114 -0.5358 -0.1631 -0.3212
  231MPD1    C4 3507   4.426   4.112  15.212 -0.6525  0.0770  0.0310
  231MPD1    C5 3508   4.393   4.088  15.345  0.6437 -0.4371 -0.3116
  231MPD1     H 3509   4.270   3.852  15.073 -3.4994  2.1532 -0.2904
  231MPD1    H1 3510   4.482   4.202  15.188  0.0516 -0.1237  0.8948
  231MPD1    H2 3511   4.285   3.968  15.484 -0.6717 -1.7235 -0.9396
  231MPD1    H3 3512   4.428   4.161  15.418  1.7456 -0.8829 -0.3907
  231MPD1     N 3513   4.398   4.053  14.979  0.1084  0.0284 -0.0337
  231MPD1    H5 3514   4.374   3.984  14.908 -0.4482  1.3174 -1.1083
  231MPD1    N1 3515   4.190   3.790  15.311  0.0224 -0.1791 -0.8447
  231MPD1    H6 3516   4.123   3.762  15.240 -1.1092  0.7767 -0.1619
  231MPD1    H7 3517   4.143   3.816  15.398  0.2282  0.3147 -0.8809
  232MPD1     C 3518   1.905   1.435  17.365 -0.0716 -0.0352 -0.6267
  232MPD1    C1 3519   1.883   1.482  17.493  0.2059 -0.1595 -0.0827
  232MPD1    C2 3520   1.760   1.438  17.544  0.0620 -0.1532 -0.0374
  232MPD1    C3 3521   1.675   1.351  17.468 -0.3027  0.2650 -0.3759
  232MPD1    C4 3522   1.722   1.293  17.353 -0.3471  0.2482 -0.2237
  232MPD1    C5 3523   1.835   1.340  17.303 -0.6340  0.5763 -0.4966
  232MPD1     H 3524   1.732   1.483  17.639  0.8708  0.0453  0.1068
  232MPD1    H1 3525   1.683   1.215  17.290 -0.2574 -1.3780  1.7368
  232MPD1    H2 3526   1.995   1.467  17.315 -0.4267  3.0500  0.6969
  232MPD1    H3 3527   1.880   1.297  17.214  1.1017 -1.5952  1.4284
  232MPD1     N 3528   1.556   1.309  17.528  0.1846  0.1396  0.2748
  232MPD1    H5 3529   1.531   1.364  17.609 -0.7085 -1.0965  0.8519
  232MPD1    N1 3530   1.961   1.580  17.558 -0.4146 -0.2321 -0.3200
  232MPD1    H6 3531   2.061   1.573  17.542 -0.7882 -0.8651 -2.4059
  232MPD1    H7 3532   1.939   1.577  17.657  1.1844  3.2921  0.1330
  233MPD1     C 3533   2.108   1.207   1.731 -0.4575 -0.1047 -0.7834
  233MPD1    C1 3534   2.227   1.213   1.662 -0.1651  1.2135 -0.2451
  233MPD1    C2 3535   2.278   1.092   1.616 -0.2779  1.0365 -0.0941
  233MPD1    C3 3536   2.227   0.966   1.650 -0.4254 -0.3804  0.1477
  233MPD1    C4 3537   2.116   0.965   1.732 -0.2254  0.7577 -0.3705
  233MPD1    C5 3538   2.055   1.086   1.769  0.5530  0.5215 -0.1278
  233MPD1     H 3539   2.364   1.094   1.550  0.0898  1.2082  0.3904
  233MPD1    H1 3540   2.078   0.868   1.761  1.0329 -0.1939 -1.9120
  233MPD1    H2 3541   2.054   1.296   1.761  1.2156  0.7090 -0.2116
  233MPD1    H3 3542   1.960   1.085   1.820  0.1747  0.4998 -0.8429
  233MPD1     N 3543   2.275   0.838   1.601 -0.7316  0.0279  0.5761
  233MPD1    H5 3544   2.225   0.754   1.625  1.0897 -0.8039  1.4680
  233MPD1    N1 3545   2.273   1.330   1.598  0.0542  0.0939  0.0253
  233MPD1    H6 3546   2.373   1.327   1.581  0.1419 -0.6696  0.6975
  233MPD1    H7 3547   2.256   1.412   1.655  1.0107 -1.4706  2.5500
  234MPD1     C 3548   3.807   3.027  10.671  0.7631  0.2782 -0.0841
  234MPD1    C1 3549   3.781   3.160  10.690  0.4033 -0.8823 -0.4542
  234MPD1    C2 3550   3.800   3.252  10.596  0.1152  0.2224 -0.1752
  234MPD1    C3 3551   3.835   3.219  10.468  0.3391 -0.1700  0.5535
  234MPD1    C4 3552   3.863   3.083  10.444  0.2657  1.0576 -0.0186
  234MPD1    C5 3553   3.860   2.990  10.546  0.3165 -0.6310 -0.3242
  234MPD1     H 3554   3.795   3.359  10.614  0.9129  0.0071  1.2516
  234MPD1    H1 3555   3.892   3.047  10.346  2.2616 -0.1081  0.9842
  234MPD1    H2 3556   3.801   2.951  10.748 -0.9882 -0.2323 -0.7282
  234MPD1    H3 3557   3.879   2.887  10.519  1.4275 -0.6403  0.4998
  234MPD1     N 3558   3.847   3.328  10.380 -0.1935 -0.6101 -0.4973
  234MPD1    H5 3559   3.826   3.425  10.401  0.8502 -0.6060  0.5626
  234MPD1    N1 3560   3.748   3.201  10.820 -0.0942  0.0304 -0.3299
  234MPD1    H6 3561   3.707   3.124  10.873 -0.7754  0.3856 -0.3349
  234MPD1    H7 3562   3.686   3.282  10.823  0.7159  0.4979  3.1506
  235MPD1     C 3563   0.226   2.095   9.452 -0.1226  0.5463  0.4484
  235MPD1    C1 3564   0.212   2.202   9.547  0.5209  0.0929  0.4340
  235MPD1    C2 3565   0.327   2.249   9.602  0.1278 -0.0453  0.4502
  235MPD1    C3 3566   0.450   2.193   9.584  0.1593 -0.9334 -0.3712
  235MPD1    C4 3567   0.467   2.093   9.491  0.2898  0.0963  0.3348
  235MPD1    C5 3568   0.351   2.041   9.427 -0.2259 -0.7328 -0.3906
  235MPD1     H 3569   0.316   2.335   9.667 -1.8263  0.9304 -1.1668
  235MPD1    H1 3570   0.559   2.038   9.473 -0.5996 -1.2121 -0.1686
  235MPD1    H2 3571   0.141   2.052   9.401  1.0054 -0.2099 -0.7930
  235MPD1    H3 3572   0.358   1.951   9.366  1.3336 -0.1181 -1.1190
  235MPD1     N 3573   0.559   2.252   9.656  1.1799  0.4444 -0.3925
  235MPD1    H5 3574   0.533   2.329   9.717 -1.1541 -2.9056  2.9149
  235MPD1    N1 3575   0.092   2.269   9.545  0.1079  0.1582 -0.3287
  235MPD1    H6 3576   0.014   2.219   9.503 -0.1746 -0.2617  0.7161
  235MPD1    H7 3577   0.065   2.304   9.636 -0.2223  1.1110 -0.7942
  236MPD1     C 3578   4.060   1.703  10.059 -0.9393  0.4274 -0.1300
  236MPD1    C1 3579   4.159   1.744   9.973 -0.6625 -0.0793  0.3475
  236MPD1    C2 3580   4.245   1.835  10.026  0.3762 -0.0779  0.0304
  236MPD1    C3 3581   4.245   1.876  10.157  0.3598  0.1180 -0.7780
  236MPD1    C4 3582   4.155   1.826  10.241 -0.2616  0.2784  0.1644
  236MPD1    C5 3583   4.057   1.746  10.189 -0.0961 -0.6536 -0.0557
  236MPD1     H 3584   4.310   1.887   9.957 -0.8708 -0.9489 -1.8320
  236MPD1    H1 3585   4.162   1.847  10.347 -0.0709 -0.5457  0.3166
  236MPD1    H2 3586   3.974   1.644  10.031 -0.5769 -0.3056  0.2908
  236MPD1    H3 3587   3.978   1.702  10.250  1.4064  0.3181  2.6178
  236MPD1     N 3588   4.339   1.970  10.209 -0.5221 -0.1515 -0.5958
  236MPD1    H5 3589   4.361   1.960  10.307  0.2071 -1.2556 -0.8673
  236MPD1    N1 3590   4.157   1.719   9.836  0.1057 -0.4922  0.2239
  236MPD1    H6 3591   4.239   1.737   9.778  0.1234  1.2692  0.8052
  236MPD1    H7 3592   4.098   1.640   9.810  1.5280 -0.8909 -1.8145
  237MPD1     C 3593   4.217   0.344  15.412 -0.0608  0.3793 -0.2697
  237MPD1    C1 3594   4.134   0.268  15.496 -0.4969  0.5666 -0.5600
  237MPD1    C2 3595   4.013   0.212  15.445  0.0513  0.8560  0.2449
  237MPD1    C3 3596   3.977   0.240  15.313  0.5577  0.0782  0.2743
  237MPD1    C4 3597   4.069   0.306  15.236 -0.3448 -0.1755 -0.2563
  237MPD1    C5 3598   4.187   0.354  15.280 -0.4016  0.2007 -0.2832
  237MPD1     H 3599   3.959   0.145  15.511  1.3205 -1.0323 -0.6576
  237MPD1    H1 3600   4.041   0.336  15.135  3.6125 -1.2615 -1.6470
  237MPD1    H2 3601   4.309   0.395  15.438  0.8263 -2.8878  2.9908
  237MPD1    H3 3602   4.256   0.406  15.215 -2.0686  0.6829 -1.6743
  237MPD1     N 3603   3.850   0.207  15.256  0.9087  0.2397 -0.1333
  237MPD1    H5 3604   3.839   0.233  15.159 -1.0254  1.2359  0.3664
  237MPD1    N1 3605   4.162   0.255  15.635  1.2768 -0.7937 -0.1307
  237MPD1    H6 3606   4.113   0.171  15.663  1.9277 -0.6631  1.3944
  237MPD1    H7 3607   4.258   0.223  15.637  1.5969 -0.0187 -2.7097
  238MPD1     C 3608   1.488   4.131  14.706 -0.0589  0.4058 -0.3266
  238MPD1    C1 3609   1.427   4.080  14.812 -1.3015  0.6503 -0.7273
  238MPD1    C2 3610   1.292   4.039  14.798 -0.1372 -0.5406  0.2655
  238MPD1    C3 3611   1.221   4.076  14.677 -0.0783  0.2042  0.1105
  238MPD1    C4 3612   1.291   4.134  14.577  0.6108  0.0435 -0.0528
  238MPD1    C5 3613   1.424   4.159  14.593  0.1312 -0.0386  0.6519
  238MPD1     H 3614   1.245   3.999  14.887  0.0801 -0.6096  0.3493
  238MPD1    H1 3615   1.251   4.170  14.483  0.1135  0.4239  0.3055
  238MPD1    H2 3616   1.594   4.150  14.693  0.0295 -0.0473 -0.2630
  238MPD1    H3 3617   1.481   4.193  14.507 -0.7977 -1.0223 -0.3474
  238MPD1     N 3618   1.087   4.060  14.651 -0.2930 -0.3503  0.2972
  238MPD1    H5 3619   1.055   4.108  14.568  2.3416  0.2518 -0.3466
  238MPD1    N1 3620   1.500   4.050  14.930  0.2907 -0.0823 -0.8169
  238MPD1    H6 3621   1.435   4.063  15.008  0.2022 -0.6273 -0.7986
  238MPD1    H7 3622   1.577   4.116  14.937  0.8451 -0.7185 -0.9350
  239MPD1     C 3623   1.400   0.201  15.102 -0.1221  0.4267  0.6715
  239MPD1    C1 3624   1.459   0.097  15.030 -0.0080  0.0675 -0.2233
  239MPD1    C2 3625   1.427   0.082  14.897  0.4000 -0.3044 -0.4367
  239MPD1    C3 3626   1.325   0.156  14.835 -0.1658 -0.0010 -0.5114
  239MPD1    C4 3627   1.263   0.254  14.913  0.2077  0.0285  0.3456
  239MPD1    C5 3628   1.299   0.267  15.040  0.3566  0.0415  0.0006
  239MPD1     H 3629   1.484   0.014  14.835 -1.0283 -1.1644 -0.8069
  239MPD1    H1 3630   1.192   0.323  14.870 -1.3940 -1.2054  1.0077
  239MPD1    H2 3631   1.432   0.211  15.205 -1.7680  1.0141  1.1167
  239MPD1    H3 3632   1.247   0.338  15.104 -0.0080 -0.8473  0.6963
  239MPD1     N 3633   1.287   0.145  14.696 -0.2050  0.2747 -0.4990
  239MPD1    H5 3634   1.220   0.212  14.659  0.3007 -0.1384 -2.1672
  239MPD1    N1 3635   1.551   0.017  15.093  0.0382 -0.8630 -0.2077
  239MPD1    H6 3636   1.572   4.649  15.050 -0.7859 -2.1271  2.0378
  239MPD1    H7 3637   1.523   0.001  15.190  1.9396  0.6514  0.5918
  240MPD1     C 3638   0.588   4.463  13.750 -0.5353  0.1685 -0.6372
  240MPD1    C1 3639   0.460   4.467  13.803 -0.3098  0.1344  0.7774
  240MPD1    C2 3640   0.434   4.419  13.931  0.3276 -0.1578 -0.3048
  240MPD1    C3 3641   0.535   4.366  14.007 -0.1711  0.3204  0.5995
  240MPD1    C4 3642   0.666   4.382  13.967 -0.6675  0.2640 -0.4432
  240MPD1    C5 3643   0.685   4.421  13.832 -0.2031  0.3506  0.0032
  240MPD1     H 3644   0.333   4.401  13.966 -0.2119  2.2666 -0.6611
  240MPD1    H1 3645   0.753   4.359  14.026 -1.8363  1.9878  1.9289
  240MPD1    H2 3646   0.608   4.515  13.657  0.4192  1.0931  0.0925
  240MPD1    H3 3647   0.787   4.444  13.803  0.0628  0.2833  0.8877
  240MPD1     N 3648   0.499   4.295  14.123 -0.0636 -0.4394  0.3068
  240MPD1    H5 3649   0.403   4.275  14.149 -0.4395  0.9666 -0.0087
  240MPD1    N1 3650   0.371   4.559  13.737 -0.8516  0.1528 -0.1025
  240MPD1    H6 3651   0.382   4.557  13.636 -1.5104  0.2025 -0.1773
  240MPD1    H7 3652   0.275   4.542  13.766 -0.3976 -1.0901  0.6740
  241MPD1     C 3653   0.537   3.960  15.176  0.6235  0.0401  0.7471
  241MPD1    C1 3654   0.594   4.074  15.120  0.0238 -0.6925 -0.5217
  241MPD1    C2 3655   0.565   4.113  14.985  0.0274  0.3087 -0.3326
  241MPD1    C3 3656   0.472   4.046  14.906 -0.3764 -0.0607 -0.8117
  241MPD1    C4 3657   0.408   3.941  14.976 -0.5760  0.3243 -0.4931
  241MPD1    C5 3658   0.440   3.905  15.102 -0.3986  0.3287  0.2963
  241MPD1     H 3659   0.635   4.186  14.946  1.2312 -1.3009 -1.1775
  241MPD1    H1 3660   0.336   3.879  14.924 -0.0714 -2.3454  2.0171
  241MPD1    H2 3661   0.569   3.911  15.268  1.2672 -1.1277 -0.0955
  241MPD1    H3 3662   0.391   3.814  15.133 -0.1501  0.0224 -0.2119
  241MPD1     N 3663   0.457   4.054  14.767 -0.5836 -0.0073  0.5157
  241MPD1    H5 3664   0.383   3.992  14.736 -0.1670 -0.4490  0.3914
  241MPD1    N1 3665   0.699   4.135  15.194  0.6282  0.0169  0.8108
  241MPD1    H6 3666   0.701   4.232  15.164 -0.6833  0.4295  2.0661
  241MPD1    H7 3667   0.781   4.091  15.154  0.5559 -0.0967  0.7858
  242MPD1     C 3668   0.207   2.695  15.936  0.4855  0.1198  0.7767
  242MPD1    C1 3669   0.324   2.627  15.917 -0.7618 -0.5831 -0.2210
  242MPD1    C2 3670   0.396   2.648  15.800  0.2030 -0.1619  0.3261
  242MPD1    C3 3671   0.337   2.721  15.698  0.3341  0.7422 -0.5413
  242MPD1    C4 3672   0.210   2.766  15.711  0.6558 -0.0219  0.4576
  242MPD1    C5 3673   0.151   2.761  15.832 -0.3216  0.3054  0.2690
  242MPD1     H 3674   0.493   2.599  15.803  0.0489 -0.4628  0.3902
  242MPD1    H1 3675   0.165   2.813  15.625 -0.0343  0.3958  1.0493
  242MPD1    H2 3676   0.145   2.684  16.024 -1.0349 -2.1839 -0.5797
  242MPD1    H3 3677   0.057   2.811  15.852 -1.2598 -1.3739  0.0435
  242MPD1     N 3678   0.395   2.746  15.570  0.0576 -0.2735 -0.2099
  242MPD1    H5 3679   0.338   2.792  15.501 -0.4297 -2.9578 -1.6111
  242MPD1    N1 3680   0.376   2.555  16.025 -0.0803 -0.1444 -0.9546
  242MPD1    H6 3681   0.301   2.536  16.092  0.8753 -1.3558 -0.2084
  242MPD1    H7 3682   0.431   2.474  15.997 -0.6416 -0.8728  0.0120
  243MPD1     C 3683   2.364   1.764  17.182 -0.1833 -0.2690  0.5461
  243MPD1    C1 3684   2.440   1.707  17.082  0.4858  0.0689 -0.4270
  243MPD1    C2 3685   2.418   1.574  17.053  0.1961 -0.0209  0.1767
  243MPD1    C3 3686   2.338   1.494  17.135  0.1243  0.0130 -0.2866
  243MPD1    C4 3687   2.272   1.560  17.234  0.0749  0.8134  0.4794
  243MPD1    C5 3688   2.282   1.691  17.256  0.4338  0.3107 -0.4008
  243MPD1     H 3689   2.464   1.523  16.970  0.0629 -0.1473  0.1794
  243MPD1    H1 3690   2.206   1.508  17.302  1.2435 -0.1468  0.8543
  243MPD1    H2 3691   2.354   1.870  17.203  2.7657  0.7142 -3.0807
  243MPD1    H3 3692   2.230   1.731  17.343  0.9205 -0.7688  0.3855
  243MPD1     N 3693   2.321   1.354  17.107 -0.1301  0.0889 -0.2773
  243MPD1    H5 3694   2.361   1.327  17.018  1.0130 -1.5130  0.7437
  243MPD1    N1 3695   2.514   1.795  16.994  0.3865  0.2833 -0.3442
  243MPD1    H6 3696   2.597   1.747  16.961  0.4994 -1.8964  3.0063
  243MPD1    H7 3697   2.556   1.869  17.049  3.5813  0.8783 -3.5951
  244MPD1     C 3698   1.493   0.803  17.360  0.2004  0.9404  0.3335
  244MPD1    C1 3699   1.574   0.890  17.433  0.3842 -0.4950 -0.4144
  244MPD1    C2 3700   1.697   0.933  17.384  0.1546 -0.3816  0.5901
  244MPD1    C3 3701   1.735   0.905  17.256 -0.4098 -0.4112  0.0205
  244MPD1    C4 3702   1.663   0.818  17.177  0.0199 -0.4537 -0.2809
  244MPD1    C5 3703   1.549   0.763  17.235  0.2940 -0.2209  0.2890
  244MPD1     H 3704   1.762   0.995  17.445 -1.0997  0.5713  0.9478
  244MPD1    H1 3705   1.694   0.782  17.079  0.7098  0.8893 -0.5576
  244MPD1    H2 3706   1.398   0.764  17.396  0.0467  0.6957 -0.3294
  244MPD1    H3 3707   1.487   0.701  17.170  2.7855 -1.0294 -1.2975
  244MPD1     N 3708   1.863   0.957  17.211  0.3203 -0.1882  0.4476
  244MPD1    H5 3709   1.906   1.019  17.280 -2.9468  2.7739 -0.1767
  244MPD1    N1 3710   1.547   0.909  17.574  0.0067 -0.4910  0.2544
  244MPD1    H6 3711   1.571   0.999  17.614 -1.1568 -0.4641  0.8725
  244MPD1    H7 3712   1.446   0.900  17.583 -0.0374  0.1253  0.3773
  245MPD1     C 3713   3.588   1.656  13.184  0.0643  0.1438  0.3462
  245MPD1    C1 3714   3.720   1.631  13.220  0.1879  0.2867  0.0836
  245MPD1    C2 3715   3.812   1.740  13.212  0.7051 -0.0686  0.1039
  245MPD1    C3 3716   3.765   1.868  13.177  0.8159  0.5288 -0.3860
  245MPD1    C4 3717   3.632   1.875  13.136  0.3678  0.2241  0.1830
  245MPD1    C5 3718   3.544   1.773  13.142  0.0952 -0.2049 -0.6046
  245MPD1     H 3719   3.914   1.714  13.240 -0.3381 -1.8189  2.2396
  245MPD1    H1 3720   3.589   1.966  13.098  2.8505  1.5104  0.4858
  245MPD1    H2 3721   3.516   1.575  13.192 -1.0508  0.9028 -1.9846
  245MPD1    H3 3722   3.444   1.794  13.106 -0.8047 -1.1129  1.3991
  245MPD1     N 3723   3.855   1.977  13.184 -0.2107  0.8300  0.4412
  245MPD1    H5 3724   3.948   1.944  13.207 -0.0403  0.0424 -1.3897
  245MPD1    N1 3725   3.752   1.506  13.278 -0.0694  0.0971 -0.1342
  245MPD1    H6 3726   3.849   1.479  13.265 -0.1148  0.0747 -0.4299
  245MPD1    H7 3727   3.682   1.440  13.245 -0.2405 -0.3384  1.1240
  246MPD1     C 3728   0.717   1.764   9.564  0.3231  0.1014  0.1016
  246MPD1    C1 3729   0.610   1.703   9.621  0.0524 -0.6189 -0.3075
  246MPD1    C2 3730   0.501   1.675   9.539 -0.1838  0.9669 -0.7439
  246MPD1    C3 3731   0.497   1.713   9.409 -0.0872 -0.7312  0.0205
  246MPD1    C4 3732   0.602   1.788   9.355 -0.3131  0.8440  0.0626
  246MPD1    C5 3733   0.711   1.801   9.432 -1.0338 -0.2177 -0.1502
  246MPD1     H 3734   0.418   1.625   9.586 -0.2795  0.0531 -1.8914
  246MPD1    H1 3735   0.605   1.811   9.249  1.1309  1.7273  0.2848
  246MPD1    H2 3736   0.803   1.799   9.621  1.1824  1.1183 -1.8364
  246MPD1    H3 3737   0.795   1.860   9.395 -1.8496  0.4204 -0.9756
  246MPD1     N 3738   0.384   1.674   9.338  0.2354  0.4637 -0.2440
  246MPD1    H5 3739   0.315   1.618   9.388  0.7819 -1.9640 -2.2459
  246MPD1    N1 3740   0.619   1.654   9.751  0.1786 -0.0946  0.6162
  246MPD1    H6 3741   0.655   1.722   9.818 -1.4052  1.5873 -0.2570
  246MPD1    H7 3742   0.525   1.627   9.778 -0.6647  1.3225 -0.8979
  247MPD1     C 3743   2.524   1.692  15.995  0.3924 -0.0115 -0.1933
  247MPD1    C1 3744   2.558   1.568  15.945  0.1065  0.2783  0.9658
  247MPD1    C2 3745   2.693   1.536  15.937  1.0869  1.0736 -0.3698
  247MPD1    C3 3746   2.789   1.624  15.989 -0.0416 -0.5598 -0.7277
  247MPD1    C4 3747   2.749   1.741  16.046  0.1143 -0.2624 -0.3077
  247MPD1    C5 3748   2.619   1.780  16.034  0.5251  0.0719 -0.3662
  247MPD1     H 3749   2.735   1.445  15.896 -1.9380 -0.6921  0.5083
  247MPD1    H1 3750   2.824   1.809  16.084  0.8274 -1.8926  1.2019
  247MPD1    H2 3751   2.420   1.722  15.991  1.1132  2.5454  0.0822
  247MPD1    H3 3752   2.581   1.876  16.070  0.3651  0.8345 -2.6012
  247MPD1     N 3753   2.925   1.592  15.992  0.7286  0.1206 -0.0535
  247MPD1    H5 3754   2.991   1.637  16.055  1.1228  0.9143 -1.0261
  247MPD1    N1 3755   2.457   1.485  15.882 -1.0002 -0.6373  0.2032
  247MPD1    H6 3756   2.370   1.496  15.934 -0.7791  0.3231  0.3799
  247MPD1    H7 3757   2.478   1.388  15.862  1.7317  0.0583 -0.4249
  248MPD1     C 3758   3.351   0.618   0.237  0.7537 -0.2196  0.1227
  248MPD1    C1 3759   3.481   0.623   0.274  0.9206  0.3618 -0.0263
  248MPD1    C2 3760   3.518   0.748   0.330  0.1051  0.7361  0.0471
  248MPD1    C3 3761   3.448   0.865   0.315 -0.0305  0.0892  0.3111
  248MPD1    C4 3762   3.325   0.856   0.263 -0.3260  0.1646 -0.5258
  248MPD1    C5 3763   3.276   0.736   0.234  0.1414 -0.6245  0.4750
  248MPD1     H 3764   3.616   0.760   0.373 -0.1691  1.5351  0.4485
  248MPD1    H1 3765   3.262   0.943   0.242  1.7745  2.1833  1.5369
  248MPD1    H2 3766   3.305   0.529   0.195 -0.3093 -0.4013  1.6873
  248MPD1    H3 3767   3.175   0.731   0.194 -0.0546 -3.2422  1.2807
  248MPD1     N 3768   3.506   0.983   0.354 -0.3983 -0.3130  0.1392
  248MPD1    H5 3769   3.597   0.975   0.398 -0.4794 -1.0416  0.1767
  248MPD1    N1 3770   3.558   0.510   0.304 -0.1201 -0.5443 -0.1174
  248MPD1    H6 3771   3.657   0.527   0.287 -0.1554  0.3009  0.5020
  248MPD1    H7 3772   3.529   0.437   0.240 -0.1339  0.7938 -1.6346
  249MPD1     C 3773   1.221   1.304   9.647 -0.1225 -0.4214 -0.2427
  249MPD1    C1 3774   1.125   1.221   9.699 -0.3506 -0.4312 -0.0379
  249MPD1    C2 3775   1.161   1.106   9.762 -0.2631 -0.0566 -0.3612
  249MPD1    C3 3776   1.292   1.072   9.790  0.6234 -0.0492  0.0817
  249MPD1    C4 3777   1.392   1.163   9.743 -0.0119 -0.5219  0.3050
  249MPD1    C5 3778   1.354   1.279   9.684  0.0607 -0.1214 -0.8894
  249MPD1     H 3779   1.088   1.030   9.790 -1.2401  1.9141  2.4398
  249MPD1    H1 3780   1.496   1.134   9.756 -0.2821 -1.2479  0.8340
  249MPD1    H2 3781   1.201   1.398   9.596  0.7644  0.6205  1.3213
  249MPD1    H3 3782   1.430   1.344   9.642  1.8271 -1.6412 -0.0981
  249MPD1     N 3783   1.319   0.953   9.862  0.0594 -0.6503 -0.1172
  249MPD1    H5 3784   1.238   0.897   9.884 -0.1121  0.0552  1.0759
  249MPD1    N1 3785   0.997   1.250   9.666 -0.0853  0.7942 -0.1445
  249MPD1    H6 3786   0.926   1.228   9.736  1.0816  1.2898  1.1941
  249MPD1    H7 3787   0.990   1.351   9.660 -1.1168  0.5923 -2.2698
  250MPD2     C 3788   1.990   0.480  13.222  0.7547 -0.6910  0.1377
  250MPD2    C1 3789   1.971   0.548  13.104 -0.0936  0.5768  0.5215
  250MPD2    C2 3790   1.899   0.486  13.006 -0.7052 -0.0102  0.3540
  250MPD2    C3 3791   1.870   0.350  13.024 -0.0941 -0.1530 -0.4525
  250MPD2    C4 3792   1.888   0.288  13.142  0.3284 -0.0598  0.2174
  250MPD2    C5 3793   1.945   0.352  13.243  0.0167  0.6860  0.4575
  250MPD2     H 3794   1.866   0.544  12.920  1.0460 -0.5953 -0.7150
  250MPD2    H1 3795   1.866   0.182  13.155  1.4846 -0.4595 -1.1468
  250MPD2    H2 3796   2.037   0.526  13.308  1.1528 -3.5990  1.4561
  250MPD2    H3 3797   1.953   0.304  13.340 -0.4039 -0.3918 -0.0462
  250MPD2     N 3798   1.824   0.267  12.923  0.2022  0.2972  0.1614
  250MPD2    H5 3799   1.815   0.171  12.953  0.1366  0.2236 -0.0914
  250MPD2    N1 3800   2.025   0.672  13.088 -0.4365 -0.1575 -0.0425
  250MPD2    H7 3801   2.050   0.723  13.172  2.2988  0.6823 -1.3564
  251TMC3    C1 3802   2.119   0.851  12.972 -0.2973  0.0697 -0.6960
  251TMC3    C2 3803   2.044   0.936  13.052 -0.5518 -0.2694 -0.8520
  251TMC3    C3 3804   2.102   1.042  13.116  0.4869 -0.3759 -0.4417
  251TMC3    C4 3805   2.255   0.871  12.949 -0.2900 -0.0358  0.2239
  251TMC3    C5 3806   2.314   0.980  13.012  0.5899 -0.5502  0.8465
  251TMC3    C6 3807   2.245   1.059  13.099  0.8259 -0.0539 -0.0757
  251TMC3     C 3808   2.068   0.718  12.964 -0.4839  0.1744  0.1530
  251TMC3     O 3809   2.092   0.657  12.863 -0.0146 -0.3154  0.0860
  251TMC3     H 3810   1.936   0.922  13.056 -0.3670 -1.6989 -0.7480
  251TMC3    H1 3811   2.320   0.794  12.909 -2.0601 -0.2788 -2.1939
  251TMC3    H2 3812   2.290   1.155  13.123  1.5754 -0.2059 -0.8709
  251TMC3    C7 3813   2.452   0.958  13.050 -0.1937 -0.1779 -0.0542
  251TMC3    C8 3814   2.022   1.150  13.177  0.0675 -0.3776  0.0994
  251TMC3    O1 3815   2.484   0.973  13.167  0.0035 -0.4119 -0.1634
  251TMC3    O2 3816   2.080   1.235  13.241  0.4622  0.3503  0.0112
  252TMC3    C1 3817   2.527   1.807   9.514  0.5765  0.2963 -0.7904
  252TMC3    C2 3818   2.627   1.895   9.490 -0.4330 -0.0132 -0.3765
  252TMC3    C3 3819   2.755   1.838   9.486 -0.2027 -0.3183 -0.1146
  252TMC3    C4 3820   2.536   1.677   9.518 -0.3180  0.8537 -0.7858
  252TMC3    C5 3821   2.662   1.629   9.525  0.2645  0.2954 -0.2066
  252TMC3    C6 3822   2.772   1.709   9.509 -0.0227  0.3406  0.2174
  252TMC3     C 3823   2.416   1.871   9.579  0.0144 -0.4393  0.0404
  252TMC3     O 3824   2.387   1.983   9.535  0.3219  0.3503 -0.1019
  252TMC3     H 3825   2.620   2.003   9.490  0.0683  0.0290  2.8824
  252TMC3    H1 3826   2.451   1.613   9.540  0.5756  0.1108  0.5632
  252TMC3    H2 3827   2.871   1.666   9.498 -0.2077  0.0744 -0.4397
  252TMC3    C7 3828   2.697   1.487   9.529  1.1453 -0.5402 -0.0313
  252TMC3    C8 3829   2.865   1.927   9.466 -0.2331  1.3844 -0.3357
  252TMC3    O1 3830   2.814   1.456   9.557 -0.0964 -0.2395 -0.3447
  252TMC3    O2 3831   2.830   2.022   9.395  0.8086  0.1097  0.3192
  253MPD2     C 3832   3.817   0.629  15.080  0.0357  0.1716  0.2916
  253MPD2    C1 3833   3.686   0.621  15.122 -0.4709 -0.2409 -0.2723
  253MPD2    C2 3834   3.665   0.586  15.255  0.4486 -0.0129  0.9433
  253MPD2    C3 3835   3.758   0.544  15.342  0.8303 -0.3730 -0.5991
  253MPD2    C4 3836   3.888   0.552  15.295 -0.4538 -0.6063 -0.3378
  253MPD2    C5 3837   3.914   0.602  15.170  0.0652  0.1751 -0.3435
  253MPD2     H 3838   3.566   0.609  15.293 -0.1622  0.8483 -1.1513
  253MPD2    H1 3839   3.961   0.526  15.370  0.7866  2.8169 -0.4084
  253MPD2    H2 3840   3.852   0.663  14.983 -0.0701 -0.9475 -0.1407
  253MPD2    H3 3841   4.020   0.613  15.150 -0.3750  3.6411 -0.6298
  253MPD2     N 3842   3.730   0.492  15.471 -0.1251 -0.5098  0.2378
  253MPD2    H5 3843   3.807   0.458  15.528  3.1386  2.5085 -2.3983
  253MPD2    N1 3844   3.572   0.650  15.040  0.3782 -0.1023 -0.1661
  253MPD2    H7 3845   3.487   0.630  15.092 -0.1140 -0.8768 -1.2816
  254TMC3    C1 3846   3.601   0.444  15.663 -0.6965 -0.5516  0.3280
  254TMC3    C2 3847   3.479   0.466  15.724  0.3405  0.3856 -0.0479
  254TMC3    C3 3848   3.439   0.382  15.824 -0.1792 -0.2803 -0.0150
  254TMC3    C4 3849   3.692   0.348  15.712 -0.2117 -0.2581  0.1673
  254TMC3    C5 3850   3.656   0.280  15.828  0.2218 -0.3322  0.1278
  254TMC3    C6 3851   3.527   0.293  15.881 -0.6479  0.1197  0.1881
  254TMC3     C 3852   3.600   0.492  15.520 -0.5175  0.7348  0.0097
  254TMC3     O 3853   3.496   0.533  15.472 -0.2719  0.6359 -0.3221
  254TMC3     H 3854   3.421   0.547  15.682 -1.8355 -1.7603 -1.1791
  254TMC3    H1 3855   3.770   0.300  15.653 -0.2415  0.2001 -0.2423
  254TMC3    H2 3856   3.496   0.224  15.959  2.6082 -0.3828  1.0712
  254TMC3    C7 3857   3.749   0.250  15.939 -0.6287 -0.0589  0.4572
  254TMC3    C8 3858   3.358   0.447  15.924  0.2676 -0.4324  0.2600
  254TMC3    O1 3859   3.710   0.190  16.039  0.2698 -0.3801  0.0331
  254TMC3    O2 3860   3.415   0.441  16.035 -0.4820  0.0710 -0.2683
  255MPD2     C 3861   2.632   4.332  10.297  0.9817  0.0596  0.2699
  255MPD2    C1 3862   2.649   4.352  10.162 -0.6733 -0.1571 -0.4181
  255MPD2    C2 3863   2.647   4.243  10.073 -0.3615  0.2007 -0.8620
  255MPD2    C3 3864   2.624   4.119  10.127 -0.1001 -0.3630  0.5240
  255MPD2    C4 3865   2.605   4.103  10.264  0.3297 -0.7428  0.2107
  255MPD2    C5 3866   2.616   4.205  10.350 -0.5793 -0.3937 -0.9939
  255MPD2     H 3867   2.650   4.258   9.966  1.5381  3.1317 -0.4216
  255MPD2    H1 3868   2.576   4.010  10.313  0.6388 -0.8374  0.2141
  255MPD2    H2 3869   2.625   4.413  10.369 -1.3606  0.7169 -0.6755
  255MPD2    H3 3870   2.597   4.199  10.456 -0.9791  1.1960 -0.9697
  255MPD2     N 3871   2.591   4.021  10.032  0.0885 -0.7409 -0.1776
  255MPD2    H5 3872   2.601   4.043   9.933  1.6298 -0.5818  0.0106
  255MPD2    N1 3873   2.666   4.484  10.121 -0.1555  0.2578 -0.0792
  255MPD2    H7 3874   2.632   4.547  10.193 -2.8921 -1.5909  0.2344
  256TMC3    C1 3875   2.664   4.678   9.985 -0.1482  0.1204 -0.5575
  256TMC3    C2 3876   2.721   0.027   9.886 -0.1834 -0.3113 -0.8591
  256TMC3    C3 3877   2.664   0.144   9.848  0.0335  0.9886 -1.1383
  256TMC3    C4 3878   2.541   4.708  10.037  0.9066  0.1641  0.1634
  256TMC3    C5 3879   2.478   0.095   9.980  0.1295  0.9037 -0.0935
  256TMC3    C6 3880   2.540   0.175   9.896 -0.6242 -0.1206  0.3471
  256TMC3     C 3881   2.695   4.537   9.991 -0.2692 -0.0659 -0.5842
  256TMC3     O 3882   2.736   4.483   9.889  0.2545 -0.5883  0.9982
  256TMC3     H 3883   2.812   4.705   9.848  0.7348  1.0317 -0.2056
  256TMC3    H1 3884   2.494   4.655  10.119 -1.4092  1.3418 -0.3973
  256TMC3    H2 3885   2.488   0.267   9.870  0.3037 -0.6420 -3.4153
  256TMC3    C7 3886   2.346   0.053   9.937 -0.4046  0.0766 -0.2584
  256TMC3    C8 3887   2.725   0.229   9.749 -0.2517 -0.3433 -0.3774
  256TMC3    O1 3888   2.309   4.665   9.973  0.0062  0.5794 -0.0686
  256TMC3    O2 3889   2.657   0.318   9.696  0.8562 -0.2297  0.1890
  257MPD2     C 3890   1.240   0.765  13.068 -0.4031  0.1731  0.2230
  257MPD2    C1 3891   1.198   0.654  13.011 -0.0930 -0.8228 -0.3013
  257MPD2    C2 3892   1.208   0.534  13.085  0.6406 -0.5823 -1.2943
  257MPD2    C3 3893   1.214   0.538  13.223 -0.4696  0.0983 -0.0119
  257MPD2    C4 3894   1.237   0.659  13.284 -0.3985  0.8143 -0.0502
  257MPD2    C5 3895   1.261   0.766  13.199  0.7012 -0.4697  1.0890
  257MPD2     H 3896   1.185   0.441  13.034 -0.8768 -1.7207  1.5044
  257MPD2    H1 3897   1.249   0.673  13.390  1.6823  3.7798 -0.6780
  257MPD2    H2 3898   1.265   0.852  13.010 -1.8830 -0.8380 -1.9065
  257MPD2    H3 3899   1.284   0.861  13.246 -1.5852  0.6013 -0.0131
  257MPD2     N 3900   1.199   0.416  13.293 -0.4289  0.3520  0.0283
  257MPD2    H5 3901   1.182   0.331  13.241 -1.3876 -0.8536  2.3113
  257MPD2    N1 3902   1.156   0.660  12.876 -1.2733 -0.1587 -0.6910
  257MPD2    H7 3903   1.155   0.752  12.834 -0.3527  0.1026 -0.1366
  258TMC3    C1 3904   1.142   0.277  13.477 -0.3084 -0.9189  1.0408
  258TMC3    C2 3905   1.050   0.213  13.398 -0.7011 -0.0060  0.2977
  258TMC3    C3 3906   0.989   0.101  13.455  0.3327 -0.1618 -0.3238
  258TMC3    C4 3907   1.173   0.246  13.610 -0.3637 -0.0738 -1.0178
  258TMC3    C5 3908   1.090   0.151  13.664  0.6987 -0.4931 -0.2329
  258TMC3    C6 3909   1.007   0.078  13.586  0.7337 -0.3384  0.5624
  258TMC3     C 3910   1.199   0.407  13.432 -0.4530 -0.6144 -0.1690
  258TMC3     O 3911   1.233   0.489  13.516  0.1519  0.7530 -0.1262
  258TMC3     H 3912   1.035   0.243  13.295 -1.6731 -0.2678  0.3688
  258TMC3    H1 3913   1.248   0.303  13.663  0.5514 -0.2726 -2.0926
  258TMC3    H2 3914   0.968   4.707  13.624  1.5399 -0.0731  2.0334
  258TMC3    C7 3915   1.156   0.081  13.770  0.2788  0.1052 -0.4080
  258TMC3    C8 3916   0.953   4.708  13.372  0.1330  0.5327 -0.2338
  258TMC3    O1 3917   1.276   0.080  13.763 -0.4447 -0.2619 -0.0338
  258TMC3    O2 3918   0.909   4.610  13.428 -0.6038  0.1848 -0.0987
  259MPD2     C 3919   0.645   1.804   1.495  0.2428  0.1856  0.2598
  259MPD2    C1 3920   0.584   1.826   1.372 -0.0029 -0.3072 -0.3551
  259MPD2    C2 3921   0.616   1.738   1.270 -0.4246  0.5324 -0.1825
  259MPD2    C3 3922   0.696   1.627   1.288  0.1541 -0.1166  1.1367
  259MPD2    C4 3923   0.759   1.607   1.407 -0.1619  0.2011  0.6943
  259MPD2    C5 3924   0.734   1.693   1.509 -0.0176 -0.3580  0.3192
  259MPD2     H 3925   0.572   1.747   1.171 -2.0654 -1.0103  0.4153
  259MPD2    H1 3926   0.823   1.524   1.431 -0.9338 -0.9788 -1.3230
  259MPD2    H2 3927   0.631   1.865   1.584 -1.8562 -0.8487  0.6383
  259MPD2    H3 3928   0.781   1.680   1.606 -0.2168  0.3811  0.5169
  259MPD2     N 3929   0.729   1.550   1.166  0.3035 -0.9576  1.1465
  259MPD2    H5 3930   0.681   1.573   1.080  0.6458 -0.8149  0.9921
  259MPD2    N1 3931   0.505   1.948   1.357 -0.1659 -0.0420 -0.1423
  259MPD2    H7 3932   0.504   2.011   1.436  0.6100 -1.5310  1.0494
  260TMC3    C1 3933   0.841   1.382   1.041 -0.4067  0.0059  0.3946
  260TMC3    C2 3934   0.951   1.305   1.009 -0.1241 -0.2072 -0.0068
  260TMC3    C3 3935   0.974   1.262   0.882  0.2514 -0.4552  0.3793
  260TMC3    C4 3936   0.744   1.394   0.941  0.7201  0.1993 -0.1609
  260TMC3    C5 3937   0.756   1.341   0.825 -0.4384 -0.4959  0.0503
  260TMC3    C6 3938   0.878   1.279   0.790  0.1464  0.3718 -0.0273
  260TMC3     C 3939   0.835   1.458   1.164 -0.2497 -0.8166  0.0480
  260TMC3     O 3940   0.929   1.445   1.238  0.2194  0.1552 -0.2362
  260TMC3     H 3941   1.037   1.321   1.073 -0.5227  0.5742  0.3377
  260TMC3    H1 3942   0.655   1.451   0.967  1.8076  2.5805 -1.7688
  260TMC3    H2 3943   0.885   1.225   0.696  0.4372 -1.4361  1.0447
  260TMC3    C7 3944   0.657   1.343   0.726  0.2033 -0.0044  0.5849
  260TMC3    C8 3945   1.115   1.236   0.845 -0.8691 -0.0928 -0.6029
  260TMC3    O1 3946   0.680   1.298   0.614 -0.1979 -0.2738 -0.0082
  260TMC3    O2 3947   1.192   1.208   0.937 -0.5673 -0.0561 -0.4532
  261MPD2     C 3948   1.568   0.029  12.163 -0.7368 -0.5183 -0.0856
  261MPD2    C1 3949   1.627   0.135  12.237 -0.2623  0.5661 -0.0415
  261MPD2    C2 3950   1.691   0.238  12.173 -0.0757 -0.2255  0.0451
  261MPD2    C3 3951   1.714   0.228  12.038  0.8274 -0.0410 -0.5870
  261MPD2    C4 3952   1.662   0.125  11.966  0.4784  0.0533  0.0821
  261MPD2    C5 3953   1.582   0.030  12.027 -0.1612 -0.8259 -0.0736
  261MPD2     H 3954   1.746   0.317  12.223 -0.8220  1.0451 -1.1510
  261MPD2    H1 3955   1.679   0.119  11.859  0.9000  1.2490  0.0715
  261MPD2    H2 3956   1.512   4.670  12.208 -1.3084  1.2581  2.4836
  261MPD2    H3 3957   1.525   4.685  11.964  0.5802 -0.3056 -1.2899
  261MPD2     N 3958   1.795   0.325  11.981 -0.4039 -0.0193  0.3921
  261MPD2    H5 3959   1.826   0.397  12.045 -0.9076  2.1382 -1.7631
  261MPD2    N1 3960   1.628   0.131  12.386 -0.5486  0.4240 -0.7300
  261MPD2    H7 3961   1.669   0.211  12.433 -0.2270  0.7275 -1.5234
  262TMC3    C1 3962   1.905   0.446  11.830  0.2308 -0.2995  0.4235
  262TMC3    C2 3963   1.852   0.555  11.898 -0.3495 -0.4297 -0.3275
  262TMC3    C3 3964   1.903   0.681  11.866  0.2487  0.2847 -0.5009
  262TMC3    C4 3965   1.999   0.456  11.736 -0.4628 -0.4040 -0.6674
  262TMC3    C5 3966   2.045   0.584  11.705 -0.4518 -0.9500  0.7891
  262TMC3    C6 3967   2.005   0.690  11.776  0.1960 -0.0708 -0.1194
  262TMC3     C 3968   1.839   0.327  11.854 -0.0411 -0.3304  0.2192
  262TMC3     O 3969   1.855   0.236  11.776  0.4172  0.6148 -0.1365
  262TMC3     H 3970   1.757   0.556  11.949 -0.2321 -1.9461 -0.0730
  262TMC3    H1 3971   2.030   0.370  11.678 -0.3266  1.0137 -2.6851
  262TMC3    H2 3972   2.043   0.787  11.746 -0.1811  0.6192  1.6083
  262TMC3    C7 3973   2.075   0.593  11.559  0.1217  0.4005 -0.8038
  262TMC3    C8 3974   1.803   0.780  11.815 -0.1643  0.1418  0.3243
  262TMC3    O1 3975   2.135   0.499  11.510  0.3002 -0.0750 -0.0710
  262TMC3    O2 3976   1.834   0.832  11.709 -0.4823 -0.1750 -0.1605
  263MPD2     C 3977   2.855   4.227  10.809 -0.1541  0.1304 -0.6393
  263MPD2    C1 3978   2.890   4.305  10.918 -0.6182  0.2091  0.2511
  263MPD2    C2 3979   2.943   4.435  10.892  0.0236  0.3855  0.1721
  263MPD2    C3 3980   2.945   4.490  10.759  0.4260 -0.6213  0.0735
  263MPD2    C4 3981   2.898   4.411  10.658  0.5982  0.1705 -0.3126
  263MPD2    C5 3982   2.860   4.282  10.682 -0.2951 -0.3643  0.9932
  263MPD2     H 3983   2.980   4.499  10.971  1.1937  0.7558 -0.6836
  263MPD2    H1 3984   2.893   4.440  10.554 -0.2910  0.0679 -0.3044
  263MPD2    H2 3985   2.822   4.123  10.815  1.2566 -0.2786 -0.0982
  263MPD2    H3 3986   2.831   4.226  10.594  0.9260  0.5857 -0.0234
  263MPD2     N 3987   2.987   4.624  10.747 -0.2465 -0.3946 -0.0513
  263MPD2    H5 3988   3.018   4.673  10.830  0.5194 -1.7097  0.4397
  263MPD2    N1 3989   2.884   4.244  11.049  0.0118  0.1202 -0.3781
  263MPD2    H7 3990   2.844   4.151  11.048 -0.7836  0.4653 -1.8101
  264TMC3    C1 3991   3.032   0.110  10.632  0.5700  0.2952 -0.5860
  264TMC3    C2 3992   2.958   0.186  10.715  0.3990  0.3488 -0.5629
  264TMC3    C3 3993   2.910   0.312  10.672 -0.5982  0.5296  0.2165
  264TMC3    C4 3994   3.073   0.162  10.513  0.7049  0.3276  0.7452
  264TMC3    C5 3995   3.026   0.285  10.465 -0.4636  0.5092 -0.0215
  264TMC3    C6 3996   2.938   0.353  10.545 -0.0278  0.4526  0.1696
  264TMC3     C 3997   3.007   4.690  10.628  0.2076 -0.3032 -0.5608
  264TMC3     O 3998   3.001   4.636  10.521  0.5528 -0.4908  0.9919
  264TMC3     H 3999   2.933   0.142  10.811 -0.6791  2.9613  0.3593
  264TMC3    H1 4000   3.145   0.097  10.464 -0.0885  0.9222 -1.2238
  264TMC3    H2 4001   2.903   0.450  10.512  0.8765  0.8192  0.2946
  264TMC3    C7 4002   3.130   0.366  10.416  0.0181 -0.4511 -0.3344
  264TMC3    C8 4003   2.924   0.425  10.760 -0.3085  0.3938 -0.5780
  264TMC3    O1 4004   3.191   0.329  10.322 -0.5214  0.4586 -0.3794
  264TMC3    O2 4005   2.990   0.518  10.713  0.0779  0.0952  0.3671
  265MPD2     C 4006   0.076   0.168  15.532  1.0508 -0.0804  0.2086
  265MPD2    C1 4007   0.126   0.273  15.463  0.1852 -0.0255 -0.5984
  265MPD2    C2 4008   0.172   0.256  15.333 -0.3857  0.2345  0.8425
  265MPD2    C3 4009   0.171   0.129  15.278  0.1063  0.0961 -0.4262
  265MPD2    C4 4010   0.125   0.022  15.353 -0.4580  0.2618  0.2414
  265MPD2    C5 4011   0.074   0.040  15.484  0.1201  0.3352  0.5248
  265MPD2     H 4012   0.204   0.345  15.278 -0.3510 -0.0921  0.3310
  265MPD2    H1 4013   0.115   4.643  15.316 -1.4855  0.4015  0.1455
  265MPD2    H2 4014   0.027   0.188  15.627  0.6811 -2.0372  0.4273
  265MPD2    H3 4015   0.037   4.675  15.538 -0.3989  0.6769  0.7203
  265MPD2     N 4016   0.202   0.106  15.141 -0.0453  0.4892  0.0427
  265MPD2    H5 4017   0.193   0.011  15.106 -0.7645  0.6656 -0.2493
  265MPD2    N1 4018   0.102   0.405  15.513 -0.1504 -0.6629 -0.1491
  265MPD2    H7 4019   0.116   0.473  15.440 -1.4228  0.3142  0.5299
  266TMC3    C1 4020   0.074   0.573  15.681 -0.2304  0.1610  0.4333
  266TMC3    C2 4021   0.100   0.615  15.804  0.5279 -0.1168 -0.5414
  266TMC3    C3 4022   0.055   0.738  15.842 -0.1892 -0.8508  0.1233
  266TMC3    C4 4023   4.707   0.636  15.596 -1.1309  0.6365 -0.3252
  266TMC3    C5 4024   4.667   0.761  15.638 -0.3257 -0.1972 -0.4695
  266TMC3    C6 4025   4.701   0.816  15.755 -0.3391  0.2009 -0.1673
  266TMC3     C 4026   0.108   0.438  15.646  0.3141  0.6980  0.1928
  266TMC3     O 4027   0.115   0.366  15.744 -0.6084  0.1255  0.5479
  266TMC3     H 4028   0.151   0.553  15.877 -0.1389 -0.9047 -0.7468
  266TMC3    H1 4029   4.709   0.609  15.491  1.3575 -0.2835 -0.0407
  266TMC3    H2 4030   4.655   0.910  15.783 -1.3365 -0.1711 -0.5328
  266TMC3    C7 4031   4.600   0.848  15.534  0.0593 -0.3118  0.5356
  266TMC3    C8 4032   0.093   0.786  15.975 -0.0487 -0.3378 -0.0196
  266TMC3    O1 4033   4.557   0.784  15.436  0.3258  0.1131 -0.9907
  266TMC3    O2 4034   0.180   0.725  16.034 -0.5492 -0.1841 -0.3288
  267MPD2     C 4035   2.153   1.979   0.034  0.2423  0.0049  0.5645
  267MPD2    C1 4036   2.215   2.088  17.670  0.4571 -0.4809 -0.7946
  267MPD2    C2 4037   2.187   2.113  17.536 -0.1493 -0.2962 -0.7677
  267MPD2    C3 4038   2.106   2.024  17.459 -0.1127 -0.3058 -0.3209
  267MPD2    C4 4039   2.043   1.920  17.525  0.1073  0.6889 -0.5898
  267MPD2    C5 4040   2.079   1.891  17.656 -0.5220 -0.4018  0.2616
  267MPD2     H 4041   2.225   2.203  17.490 -0.1091  0.5102  0.8266
  267MPD2    H1 4042   1.980   1.848  17.474  3.2616 -1.6638 -1.2257
  267MPD2    H2 4043   2.172   1.964   0.139 -1.8513  2.3147  1.2673
  267MPD2    H3 4044   2.048   1.798   0.010  0.3136 -1.4335 -1.3014
  267MPD2     N 4045   2.087   2.031  17.316  0.1711 -1.0982 -0.5197
  267MPD2    H5 4046   2.025   1.964  17.272 -1.8271  0.0888  0.4958
  267MPD2    N1 4047   2.299   2.167   0.059 -0.1770 -0.0745  0.5568
  267MPD2    H7 4048   2.317   2.135   0.154 -0.6564  1.4689  1.1804
  268TMC3    C1 4049   2.456   2.331   0.116 -0.3715 -0.7674 -0.0040
  268TMC3    C2 4050   2.573   2.375   0.067 -0.4563 -0.1468  0.3924
  268TMC3    C3 4051   2.685   2.363   0.142 -0.5024  0.1232  0.3726
  268TMC3    C4 4052   2.445   2.281   0.245 -0.5684  0.3832  0.1249
  268TMC3    C5 4053   2.561   2.280   0.321  0.2128 -0.4910  0.3826
  268TMC3    C6 4054   2.684   2.315   0.268 -0.2321 -0.8979 -0.3797
  268TMC3     C 4055   2.362   2.287   0.011  0.0092  0.2441 -0.0193
  268TMC3     O 4056   2.372   2.327  17.590 -0.5046 -0.1254  0.1403
  268TMC3     H 4057   2.583   2.414  17.658 -0.1487  1.0313  0.8756
  268TMC3    H1 4058   2.351   2.240   0.282 -0.1074 -0.6469  0.1444
  268TMC3    H2 4059   2.774   2.310   0.327  0.0064  0.6693 -0.6203
  268TMC3    C7 4060   2.559   2.224   0.450  0.3524  0.2306 -0.2484
  268TMC3    C8 4061   2.804   2.419   0.100  0.2239  0.3480 -0.3269
  268TMC3    O1 4062   2.461   2.155   0.471  0.1009 -0.8397 -0.1013
  268TMC3    O2 4063   2.877   2.461   0.195  0.3354 -0.0004  0.3363
  269MPD2     C 4064   2.740   0.618  15.787  0.3677 -0.1253  0.5199
  269MPD2    C1 4065   2.630   0.677  15.835 -0.8714 -0.5047 -0.6324
  269MPD2    C2 4066   2.611   0.808  15.788 -0.7408 -0.9040 -0.0533
  269MPD2    C3 4067   2.679   0.863  15.672 -0.4587  0.0031  0.2655
  269MPD2    C4 4068   2.788   0.785  15.618  0.3137  0.5844  0.0484
  269MPD2    C5 4069   2.816   0.667  15.678  0.7397 -0.2293 -0.1240
  269MPD2     H 4070   2.542   0.872  15.842  0.7239 -0.0359  0.7886
  269MPD2    H1 4071   2.842   0.820  15.531 -2.3147 -0.8800 -2.1578
  269MPD2    H2 4072   2.750   0.515  15.819  0.1539  0.2247  1.7250
  269MPD2    H3 4073   2.890   0.602  15.634  0.6226  2.0176 -3.6237
  269MPD2     N 4074   2.617   0.980  15.622  0.2942 -0.0943  0.1830
  269MPD2    H5 4075   2.534   1.014  15.670 -0.2275  0.3578 -1.0444
  269MPD2    N1 4076   2.543   0.601  15.926 -0.7473  0.3193  0.2177
  269MPD2    H7 4077   2.562   0.502  15.941 -0.2364  0.3179 -0.3984
  270TMC3    C1 4078   2.339   0.545  16.038  0.3522  0.5356 -0.0878
  270TMC3    C2 4079   2.208   0.580  16.034 -0.4473 -0.0183  0.0808
  270TMC3    C3 4080   2.112   0.482  16.009  0.4529  0.1615 -0.2077
  270TMC3    C4 4081   2.379   0.413  16.036 -0.6358 -0.1999 -0.4734
  270TMC3    C5 4082   2.282   0.320  16.029  0.3859  0.4083  0.0192
  270TMC3    C6 4083   2.150   0.356  16.016  0.4280  0.7176 -0.1968
  270TMC3     C 4084   2.427   0.651  15.986 -0.0642  0.5982 -0.0863
  270TMC3     O 4085   2.384   0.765  15.984 -0.3058 -0.3894 -0.4528
  270TMC3     H 4086   2.170   0.679  16.016 -0.2487  0.1466  0.5618
  270TMC3    H1 4087   2.485   0.392  16.039 -0.7868 -1.1872 -2.0222
  270TMC3    H2 4088   2.083   0.277  15.983 -0.8096  1.4846  0.5227
  270TMC3    C7 4089   2.328   0.187  15.995 -0.0440 -0.6636 -0.5883
  270TMC3    C8 4090   2.058   0.500  15.880  0.3153 -1.4089  0.3770
  270TMC3    O1 4091   2.443   0.178  15.960 -0.7042 -0.0101 -0.0819
  270TMC3    O2 4092   2.138   0.545  15.797 -0.0141  0.0258 -0.6626
  271MPD2     C 4093   1.590   0.527  14.259 -0.4967 -0.5505  0.3539
  271MPD2    C1 4094   1.480   0.494  14.339  0.4033  0.6713  0.2999
  271MPD2    C2 4095   1.347   0.533  14.295 -0.0590  0.2169  0.3631
  271MPD2    C3 4096   1.336   0.594  14.174  0.1879 -0.3850  0.1246
  271MPD2    C4 4097   1.448   0.619  14.094  0.6008  0.0586  0.0333
  271MPD2    C5 4098   1.574   0.587  14.145 -0.0169 -0.1003  0.2824
  271MPD2     H 4099   1.263   0.506  14.358 -0.3316  1.2667  0.4503
  271MPD2    H1 4100   1.438   0.673  14.001  1.5756  2.8026  1.5368
  271MPD2    H2 4101   1.690   0.504  14.294 -1.1332  0.5101  2.9326
  271MPD2    H3 4102   1.667   0.618  14.100 -0.2808  0.9349  0.4646
  271MPD2     N 4103   1.207   0.626  14.122  0.6245  0.2721 -0.0206
  271MPD2    H5 4104   1.196   0.676  14.034  0.9108 -1.0780 -0.8247
  271MPD2    N1 4105   1.497   0.422  14.457 -0.1569  0.1290 -0.1458
  271MPD2    H7 4106   1.428   0.420  14.532 -0.5534 -0.4696 -0.5185
  272TMC3    C1 4107   1.607   0.292  14.623  0.0417 -0.7450 -0.1842
  272TMC3    C2 4108   1.667   0.170  14.641  0.1358  0.0465  0.4208
  272TMC3    C3 4109   1.730   0.155  14.761 -0.5433 -0.2985  0.2977
  272TMC3    C4 4110   1.595   0.387  14.724  0.5904 -0.1004  0.1648
  272TMC3    C5 4111   1.649   0.356  14.846  0.5640 -0.0270 -0.2180
  272TMC3    C6 4112   1.719   0.240  14.869  0.9886  0.9837 -0.2403
  272TMC3     C 4113   1.597   0.329  14.476  0.0957 -0.6181  0.1756
  272TMC3     O 4114   1.685   0.291  14.400  0.0895 -0.9853 -0.2678
  272TMC3     H 4115   1.679   0.108  14.553  1.2226 -0.5711  1.0004
  272TMC3    H1 4116   1.553   0.487  14.714  2.2656  0.8721  2.8565
  272TMC3    H2 4117   1.776   0.222  14.960 -1.4513 -1.5453  0.7870
  272TMC3    C7 4118   1.639   0.458  14.945 -0.0480  0.0578 -0.6374
  272TMC3    C8 4119   1.855   0.077  14.750 -0.8557 -0.1882  0.5982
  272TMC3    O1 4120   1.537   0.524  14.940  0.0010 -0.6651  0.4356
  272TMC3    O2 4121   1.908   0.081  14.637  0.1016 -0.2176  0.3449
  273MPD2     C 4122   2.472   3.577  11.846  0.1095  0.1224 -0.2853
  273MPD2    C1 4123   2.576   3.492  11.877  0.2740 -0.1785 -0.5838
  273MPD2    C2 4124   2.621   3.404  11.782 -0.9991  0.9156 -0.1330
  273MPD2    C3 4125   2.567   3.395  11.657  0.0348  0.0423  0.0096
  273MPD2    C4 4126   2.466   3.487  11.621 -0.0484 -0.1882 -0.2664
  273MPD2    C5 4127   2.424   3.570  11.720  0.1237 -0.3814  0.4036
  273MPD2     H 4128   2.705   3.345  11.817 -0.8431  0.2896 -1.5734
  273MPD2    H1 4129   2.420   3.480  11.523 -0.6573 -0.1827  0.0157
  273MPD2    H2 4130   2.437   3.655  11.912 -0.1411  0.1039 -0.3930
  273MPD2    H3 4131   2.342   3.636  11.694 -0.1940 -0.5557  0.9499
  273MPD2     N 4132   2.625   3.312  11.563 -0.5520 -0.7636 -0.3605
  273MPD2    H5 4133   2.617   3.331  11.463 -0.8566 -0.6185 -0.3081
  273MPD2    N1 4134   2.643   3.521  11.996 -0.5498  0.7358 -0.2706
  273MPD2    H7 4135   2.609   3.597  12.054  1.3249 -1.1564  3.2977
  274TMC3    C1 4136   2.769   3.136  11.512 -0.7350 -0.2180 -0.1252
  274TMC3    C2 4137   2.724   3.102  11.391  0.2613  0.1952  0.0221
  274TMC3    C3 4138   2.801   3.163  11.284 -0.2009 -0.4851  0.1390
  274TMC3    C4 4139   2.885   3.205  11.536  0.5165  0.6775  0.0593
  274TMC3    C5 4140   2.949   3.266  11.426 -0.3212 -0.1643 -0.0188
  274TMC3    C6 4141   2.905   3.248  11.299 -0.5347 -0.8409  0.0667
  274TMC3     C 4142   2.672   3.191  11.606  0.1851 -0.9170  0.4958
  274TMC3     O 4143   2.659   3.127  11.713  0.3798 -0.4787 -0.6456
  274TMC3     H 4144   2.636   3.041  11.375  2.6754 -2.9107 -1.4775
  274TMC3    H1 4145   2.918   3.223  11.638 -0.0106 -2.2428  0.7366
  274TMC3    H2 4146   2.951   3.299  11.215 -1.3828 -1.3153 -0.6864
  274TMC3    C7 4147   3.016   3.394  11.441  0.3421 -0.8790  0.6033
  274TMC3    C8 4148   2.772   3.122  11.153  0.1630  0.0362 -0.4611
  274TMC3    O1 4149   3.036   3.465  11.340  0.1212  0.3733  0.2348
  274TMC3    O2 4150   2.658   3.089  11.122  0.0667  0.6472  0.4428
  275MPD2     C 4151   3.305   0.637  14.463 -0.5059  1.1520 -0.0100
  275MPD2    C1 4152   3.256   0.736  14.382 -0.5269 -0.3712  0.4942
  275MPD2    C2 4153   3.124   0.734  14.344 -1.0793 -0.4251  0.1475
  275MPD2    C3 4154   3.041   0.640  14.390  0.2392 -0.1279 -0.2147
  275MPD2    C4 4155   3.094   0.536  14.462 -0.6196  0.0018  0.4094
  275MPD2    C5 4156   3.220   0.534  14.496 -0.5333 -0.0110  0.2328
  275MPD2     H 4157   3.089   0.815  14.281  0.1125  1.3913  1.8399
  275MPD2    H1 4158   3.035   0.453  14.499  0.7454 -1.2143 -0.1360
  275MPD2    H2 4159   3.407   0.634  14.501 -0.8992  2.1750  1.0798
  275MPD2    H3 4160   3.249   0.444  14.549  0.2567 -0.9088 -1.7207
  275MPD2     N 4161   2.900   0.647  14.357  0.4167 -0.5318 -0.1460
  275MPD2    H5 4162   2.839   0.594  14.420  0.7428 -0.0432  0.5739
  275MPD2    N1 4163   3.333   0.841  14.323  0.1049  0.1601  0.3692
  275MPD2    H7 4164   3.283   0.908  14.265 -1.8089 -1.0090  0.6382
  276TMC3    C1 4165   3.508   1.008  14.352  0.7702  0.0318 -0.0395
  276TMC3    C2 4166   3.429   1.105  14.292 -0.0312 -0.6582 -0.1235
  276TMC3    C3 4167   3.453   1.230  14.331  0.2554  0.4686  0.9753
  276TMC3    C4 4168   3.607   1.036  14.438  0.4845 -0.1608 -0.1225
  276TMC3    C5 4169   3.642   1.166  14.448 -0.4878 -0.3161  0.2707
  276TMC3    C6 4170   3.568   1.264  14.388 -0.0849 -0.6368  0.2216
  276TMC3     C 4171   3.466   0.866  14.350 -0.3150  0.6911 -0.1972
  276TMC3     O 4172   3.547   0.791  14.403 -0.4046  0.0631 -0.4178
  276TMC3     H 4173   3.347   1.084  14.225  1.2265  0.5543 -2.0269
  276TMC3    H1 4174   3.657   0.957  14.493  0.5620 -0.1703 -0.2065
  276TMC3    H2 4175   3.596   1.367  14.407 -0.7093 -0.5348  0.5699
  276TMC3    C7 4176   3.757   1.197  14.528  0.4439 -0.0351 -0.4238
  276TMC3    C8 4177   3.374   1.342  14.273  0.6014 -0.3097 -0.6688
  276TMC3    O1 4178   3.772   1.140  14.633 -0.3612 -0.5788  0.1030
  276TMC3    O2 4179   3.435   1.432  14.221 -0.5054 -0.2555  0.4761
  277MPD2     C 4180   0.124   0.230  13.329  0.1531  0.0156  0.5536
  277MPD2    C1 4181   0.065   0.324  13.413  0.2762  0.1192  0.2721
  277MPD2    C2 4182   0.043   0.285  13.546 -0.4377 -0.4877  0.4310
  277MPD2    C3 4183   0.075   0.162  13.596  0.0781 -0.1863 -0.4287
  277MPD2    C4 4184   0.133   0.071  13.509  1.0082  0.1969  0.3280
  277MPD2    C5 4185   0.164   0.104  13.380 -0.1594 -1.1134  0.7061
  277MPD2     H 4186   0.020   0.361  13.620 -0.6642 -0.2701  0.1345
  277MPD2    H1 4187   0.162   4.694  13.543 -1.6839 -0.7055 -0.0433
  277MPD2    H2 4188   0.137   0.251  13.223  0.6445  0.8844  0.7890
  277MPD2    H3 4189   0.213   0.028  13.320  0.0434  1.2944 -2.1880
  277MPD2     N 4190   0.039   0.130  13.734  0.3785 -0.3643 -0.0714
  277MPD2    H5 4191   0.006   0.207  13.792  1.3124  0.2218 -0.3161
  277MPD2    N1 4192   0.015   0.446  13.356  0.1303  0.8741  0.4894
  277MPD2    H7 4193   0.014   0.461  13.255  1.5296  0.3736  0.4070
  278TMC3    C1 4194   4.684   0.013  13.919  0.4456 -0.4771 -1.0770
  278TMC3    C2 4195   4.648   4.607  13.961  0.2296 -0.1175 -0.0930
  278TMC3    C3 4196   4.518   4.583  13.994  0.0913 -0.1219  0.3670
  278TMC3    C4 4197   4.596   0.117  13.933 -0.0332  0.1425 -0.0001
  278TMC3    C5 4198   4.463   0.085  13.954 -0.6765  0.3036 -0.4827
  278TMC3    C6 4199   4.418   4.681  13.978 -0.3614  0.1533  0.6506
  278TMC3     C 4200   0.039   0.006  13.794  0.1289  0.5992 -0.2926
  278TMC3     O 4201   0.072   4.619  13.754  0.3168 -0.8912  0.4211
  278TMC3     H 4202   4.710   4.518  13.963  0.5623  0.0653 -2.4469
  278TMC3    H1 4203   4.616   0.221  13.909  3.1363 -1.0856 -2.6866
  278TMC3    H2 4204   4.316   4.671  14.014  0.3207  0.4188  2.6754
  278TMC3    C7 4205   4.372   0.197  13.965  0.1544 -0.1771 -0.0133
  278TMC3    C8 4206   4.485   4.446  13.967  0.0127  0.4743  0.0541
  278TMC3    O1 4207   4.403   0.290  14.037 -0.5875 -0.2039  0.0345
  278TMC3    O2 4208   4.546   4.358  14.026  0.1489  0.2638  0.1585
  279MPD2     C 4209   4.392   0.233   0.429  0.1163  0.3282 -0.0834
  279MPD2    C1 4210   4.307   0.346   0.423  0.6964  1.0688  0.0103
  279MPD2    C2 4211   4.313   0.421   0.306  0.0695 -0.6188  0.5995
  279MPD2    C3 4212   4.388   0.385   0.201  0.0867 -0.0431 -0.0235
  279MPD2    C4 4213   4.470   0.270   0.208 -0.9321 -0.5105  0.2309
  279MPD2    C5 4214   4.469   0.193   0.321 -0.4311  0.9385 -0.5387
  279MPD2     H 4215   4.239   0.499   0.289  1.5465  1.0285  1.7519
  279MPD2    H1 4216   4.530   0.238   0.123 -1.8554  1.5173 -1.1884
  279MPD2    H2 4217   4.390   0.171   0.518 -0.1821  1.7488  0.9057
  279MPD2    H3 4218   4.520   0.098   0.324  0.9915  1.6637 -2.1262
  279MPD2     N 4219   4.395   0.462   0.084  0.1657 -0.1877  0.4115
  279MPD2    H5 4220   4.451   0.425   0.008  1.7114 -0.7327  1.8137
  279MPD2    N1 4221   4.229   0.379   0.534 -0.6150 -0.8445 -0.3607
  279MPD2    H7 4222   4.216   0.322   0.618  1.6755  0.6127  0.9786
  280TMC3    C1 4223   4.080   0.501   0.668 -0.3412 -0.3721  0.4284
  280TMC3    C2 4224   3.997   0.390   0.674 -0.0941 -0.4644  0.2344
  280TMC3    C3 4225   3.865   0.406   0.696  0.4082  0.2459 -0.4898
  280TMC3    C4 4226   4.025   0.631   0.688  0.1744  0.1632  0.3757
  280TMC3    C5 4227   3.889   0.643   0.702  0.1136 -0.2228 -0.3012
  280TMC3    C6 4228   3.809   0.529   0.708  0.5038 -0.5115 -0.0003
  280TMC3     C 4229   4.180   0.501   0.563  0.3712  0.8619 -0.1843
  280TMC3     O 4230   4.210   0.606   0.503  0.3955  0.3626  0.5509
  280TMC3     H 4231   4.035   0.296   0.635  1.1725  0.7859 -1.5829
  280TMC3    H1 4232   4.079   0.723   0.669  0.4499 -0.1961 -0.5616
  280TMC3    H2 4233   3.703   0.522   0.731  0.3038  1.0936 -0.4414
  280TMC3    C7 4234   3.828   0.768   0.749 -0.1426 -0.5361 -0.5262
  280TMC3    C8 4235   3.768   0.298   0.686 -0.5138 -0.4721 -0.0119
  280TMC3    O1 4236   3.901   0.857   0.789  0.0209  0.0943 -0.2047
  280TMC3    O2 4237   3.663   0.321   0.632  0.1989 -0.3661  0.0893
  281TMC3    C1 4238   2.767   1.101  13.320 -0.3490 -0.0027  0.5785
  281TMC3    C2 4239   2.861   1.011  13.286 -0.3791 -0.0809 -0.5580
  281TMC3    C3 4240   2.839   0.885  13.330  0.0801 -0.2593  0.5513
  281TMC3    C4 4241   2.667   1.077  13.415  0.8085  0.0080  0.2597
  281TMC3    C5 4242   2.655   0.952  13.458  0.1190 -0.3331  1.1741
  281TMC3    C6 4243   2.739   0.857  13.417  1.0039  0.9029 -0.3575
  281TMC3     C 4244   2.775   1.222  13.235 -0.6411  0.3384 -0.6116
  281TMC3     O 4245   2.882   1.265  13.201 -0.5816  0.9988 -0.2481
  281TMC3     H 4246   2.930   1.035  13.206 -0.4761 -0.0511 -0.6331
  281TMC3    H1 4247   2.587   1.149  13.433  0.1196 -0.1066 -2.4419
  281TMC3    H2 4248   2.741   0.759  13.465 -2.4104  1.2529  0.4893
  281TMC3    C7 4249   2.529   0.906  13.519 -0.7462  0.0678  1.1100
  281TMC3    C8 4250   2.903   0.777  13.268  0.2263 -0.4265  0.2168
  281TMC3    O1 4251   2.454   0.991  13.562  0.0738 -0.0296 -0.0478
  281TMC3    O2 4252   2.953   0.688  13.335  0.2311 -0.3992 -0.5454
  282MPD2     C 4253   4.568   2.066  14.774  0.3281  0.2970 -0.3653
  282MPD2    C1 4254   4.443   2.044  14.825  0.2809  0.2061  0.0874
  282MPD2    C2 4255   4.353   1.975  14.748  1.0615  0.1767 -0.1297
  282MPD2    C3 4256   4.384   1.925  14.623  0.0006 -0.4751  0.8489
  282MPD2    C4 4257   4.512   1.948  14.576 -0.0036 -0.2829 -0.0312
  282MPD2    C5 4258   4.602   2.012  14.653  0.7943 -0.5653  0.0232
  282MPD2     H 4259   4.255   1.945  14.784  1.0841  0.1951 -0.0528
  282MPD2    H1 4260   4.552   1.907  14.485  2.3426 -2.0813  1.8156
  282MPD2    H2 4261   4.648   2.108  14.834  1.1559 -2.2185  0.2681
  282MPD2    H3 4262   4.703   2.017  14.613  1.1326  0.4705  1.0004
  282MPD2     N 4263   4.279   1.878  14.540  0.0561  0.3002  0.5788
  282MPD2    H5 4264   4.183   1.887  14.573 -0.2552  1.2960 -0.5547
  282MPD2    N1 4265   4.404   2.072  14.961 -0.4585  0.0968  0.4522
  282MPD2    H7 4266   4.321   2.026  14.997  0.0686  0.1390  1.7512
  283TMC3    C1 4267   4.408   2.169  15.183  0.5828 -0.1083 -0.5664
  283TMC3    C2 4268   4.459   2.276  15.247  1.4359 -0.3015  0.0021
  283TMC3    C3 4269   4.504   2.262  15.377  0.2713  0.0584 -0.1702
  283TMC3    C4 4270   4.403   2.048  15.247  0.1074 -0.1416 -0.1615
  283TMC3    C5 4271   4.448   2.034  15.377  0.7627  0.5847  0.3715
  283TMC3    C6 4272   4.498   2.143  15.441 -0.3292  0.8593 -0.4004
  283TMC3     C 4273   4.466   2.160  15.048 -0.4936  0.8686  0.5198
  283TMC3     O 4274   4.570   2.225  15.034  0.1271 -0.6032 -0.1198
  283TMC3     H 4275   4.448   2.369  15.192  0.0862 -1.0821 -1.0551
  283TMC3    H1 4276   4.349   1.968  15.197 -1.1157  1.0082 -0.6871
  283TMC3    H2 4277   4.526   2.135  15.545 -1.3601 -0.1814 -0.2069
  283TMC3    C7 4278   4.392   1.934  15.464  0.3536  0.4674 -0.6375
  283TMC3    C8 4279   4.522   2.377  15.462 -0.2886  0.2287  0.2869
  283TMC3    O1 4280   4.391   1.950  15.588 -0.0742  0.1766 -0.1449
  283TMC3    O2 4281   4.481   2.370  15.576  0.3298  0.0459  0.1059
  284MPD2     C 4282   2.510   1.760  11.659  0.0365  0.0192  0.3662
  284MPD2    C1 4283   2.619   1.676  11.658 -0.3468 -0.0646  0.2648
  284MPD2    C2 4284   2.616   1.562  11.731  0.1031  0.5381  0.1351
  284MPD2    C3 4285   2.510   1.533  11.812  1.1460  0.3531  0.2634
  284MPD2    C4 4286   2.407   1.619  11.820  0.0240 -0.5359 -0.5512
  284MPD2    C5 4287   2.402   1.732  11.742  0.4883  0.0213  0.2921
  284MPD2     H 4288   2.699   1.493  11.737  0.4740  1.0460  0.8410
  284MPD2    H1 4289   2.324   1.595  11.885  1.0026 -0.0142  0.9061
  284MPD2    H2 4290   2.511   1.852  11.603  0.6397 -0.8796 -1.0990
  284MPD2    H3 4291   2.316   1.797  11.751  0.6346  0.2371  0.1350
  284MPD2     N 4292   2.532   1.435  11.913  0.0708 -0.3312 -0.7126
  284MPD2    H5 4293   2.625   1.395  11.916 -0.6127 -1.8587  0.2882
  284MPD2    N1 4294   2.740   1.716  11.595 -0.4724 -0.4769 -0.0836
  284MPD2    H7 4295   2.810   1.642  11.603  0.2226  0.1181 -0.6872
  285TMC3    C1 4296   2.919   1.836  11.508  0.3652 -0.1773 -0.3493
  285TMC3    C2 4297   2.978   1.710  11.506  0.1427  1.1249  0.4668
  285TMC3    C3 4298   3.113   1.710  11.487  0.1411  0.4773 -0.2307
  285TMC3    C4 4299   2.993   1.954  11.515 -0.0965 -0.3243 -0.3749
  285TMC3    C5 4300   3.130   1.946  11.518 -0.7377  0.3416 -0.0338
  285TMC3    C6 4301   3.188   1.823  11.484 -0.6000  0.3426 -0.1924
  285TMC3     C 4302   2.777   1.840  11.545  0.6011  0.5439  0.5210
  285TMC3     O 4303   2.725   1.950  11.566  0.5470 -0.0842 -0.3226
  285TMC3     H 4304   2.923   1.618  11.490 -0.3653  1.4077  0.5889
  285TMC3    H1 4305   2.940   2.042  11.549 -0.7363 -1.6159  1.9904
  285TMC3    H2 4306   3.294   1.821  11.462 -0.7744  2.1240 -1.2089
  285TMC3    C7 4307   3.216   2.059  11.518  0.0143  0.0982  0.6846
  285TMC3    C8 4308   3.183   1.592  11.457 -0.3908  0.2507  0.1928
  285TMC3    O1 4309   3.178   2.160  11.462 -0.3563 -0.2541  0.4878
  285TMC3    O2 4310   3.128   1.513  11.376 -0.4548  0.2121  0.3365
  286MPD2     C 4311   2.659   4.656   1.717 -0.0221  0.1256 -0.4440
  286MPD2    C1 4312   2.761   0.025   1.734  0.1383 -0.5226  0.1947
  286MPD2    C2 4313   2.892   4.705   1.728 -0.2446 -0.3793  0.7727
  286MPD2    C3 4314   2.931   4.582   1.694  0.5925  0.0405 -0.9234
  286MPD2    C4 4315   2.831   4.494   1.664  0.1048 -0.1004  0.6464
  286MPD2    C5 4316   2.702   4.533   1.682 -0.8726  0.7467  0.3967
  286MPD2     H 4317   2.966   0.057   1.755 -0.6819  0.3749 -0.1163
  286MPD2    H1 4318   2.843   4.389   1.640  1.7227  0.2259  0.0504
  286MPD2    H2 4319   2.557   4.674   1.750 -0.5360 -0.3627 -1.7703
  286MPD2    H3 4320   2.631   4.451   1.670 -0.3110  0.3070  0.0922
  286MPD2     N 4321   3.064   4.533   1.685 -0.5879  0.2753 -0.1746
  286MPD2    H5 4322   3.069   4.449   1.627 -1.1109  0.0229  0.1460
  286MPD2    N1 4323   2.737   0.167   1.736  0.6049 -0.1866 -0.7052
  286MPD2    H7 4324   2.816   0.230   1.745  1.0083 -0.7743 -0.1117
  287TMC3    C1 4325   3.286   4.575   1.625 -0.0024 -0.7213 -0.9006
  287TMC3    C2 4326   3.272   4.519   1.502  0.6599 -0.5252  0.8016
  287TMC3    C3 4327   3.382   4.478   1.444 -0.3752  0.0930  0.4152
  287TMC3    C4 4328   3.403   4.617   1.675 -0.3604  1.0638 -0.3922
  287TMC3    C5 4329   3.513   4.579   1.602 -0.4290  0.2376  0.2902
  287TMC3    C6 4330   3.507   4.506   1.492  0.7458  0.3898  0.6953
  287TMC3     C 4331   3.172   4.617   1.706 -0.3768 -0.2716  0.2974
  287TMC3     O 4332   3.179   4.715   1.774 -0.3948  0.1478  0.7438
  287TMC3     H 4333   3.176   4.491   1.459  0.9097  3.3847 -2.2293
  287TMC3    H1 4334   3.419   4.649   1.777  0.0340 -0.6943  0.1062
  287TMC3    H2 4335   3.599   4.471   1.445  0.1819 -0.3384  0.1294
  287TMC3    C7 4336   3.647   4.574   1.667  0.3681 -0.6057  0.6701
  287TMC3    C8 4337   3.367   4.409   1.318 -0.0343 -0.2524 -0.2887
  287TMC3    O1 4338   3.724   4.484   1.648 -0.1847  0.2769 -0.3844
  287TMC3    O2 4339   3.264   4.349   1.302 -0.2814  0.5327 -0.0829
  288TMC3    C1 4340   0.586   4.692  14.230 -0.7137  0.8169 -0.0916
  288TMC3    C2 4341   0.450   4.705  14.236  0.0565  0.3231  0.1580
  288TMC3    C3 4342   0.384   0.010  14.122  0.4756 -0.3846 -0.4685
  288TMC3    C4 4343   0.658   4.702  14.110  0.3825  0.0648  0.0968
  288TMC3    C5 4344   0.585   4.718  13.995  0.0974 -0.0708  0.8458
  288TMC3    C6 4345   0.449   0.024  14.001 -0.2909  0.3933  0.9819
  288TMC3     C 4346   0.642   4.634  14.347 -0.0210  0.8569 -0.8527
  288TMC3     O 4347   0.564   4.589  14.431  0.5502 -0.2654  0.7239
  288TMC3     H 4348   0.398   4.697  14.331  0.7233 -2.1203  0.3268
  288TMC3    H1 4349   0.766   4.695  14.109  0.2189 -2.5093  0.0633
  288TMC3    H2 4350   0.394   0.016  13.907  0.4131  1.0000  0.5183
  288TMC3    C7 4351   0.660   0.052  13.886 -0.0096  0.0378 -0.0138
  288TMC3    C8 4352   0.244   0.037  14.135  0.6861 -0.2954  0.8003
  288TMC3    O1 4353   0.784   0.072  13.900  0.1796  0.3987 -0.4429
  288TMC3    O2 4354   0.199   0.146  14.097  0.1495 -0.3794  0.4077
  289MPD2     C 4355   0.122   3.688  14.169  0.5124  0.5320  0.1301
  289MPD2    C1 4356   0.100   3.825  14.174  0.4825 -0.3450  0.4839
  289MPD2    C2 4357   4.702   3.875  14.127 -0.4742 -0.2558 -0.1133
  289MPD2    C3 4358   4.600   3.787  14.094  0.2290 -0.2284 -0.6829
  289MPD2    C4 4359   4.627   3.654  14.078  1.0094 -0.2914  0.5285
  289MPD2    C5 4360   0.027   3.606  14.115  0.4360 -0.2896 -0.4824
  289MPD2     H 4361   4.682   3.981  14.114  1.0950 -0.0300 -0.6524
  289MPD2    H1 4362   4.555   3.576  14.054  0.4237  0.1893  0.7262
  289MPD2    H2 4363   0.209   3.640  14.214 -0.5473 -0.2502  1.3368
  289MPD2    H3 4364   0.051   3.500  14.117  0.3813 -0.3153 -1.0950
  289MPD2     N 4365   4.469   3.818  14.075  0.6601  0.1469  0.1171
  289MPD2    H5 4366   4.402   3.745  14.054  0.8636 -0.3469  1.1822
  289MPD2    N1 4367   0.197   3.919  14.221 -0.1195  0.1249 -0.2006
  289MPD2    H7 4368   0.192   4.017  14.193 -0.0021  0.4001  0.7310
  290TMC3    C1 4369   4.271   3.940  14.103 -0.2055  0.1580  0.1582
  290TMC3    C2 4370   4.205   4.060  14.079 -0.7673  0.2719 -0.3244
  290TMC3    C3 4371   4.072   4.046  14.056  0.7587 -0.4257  0.0100
  290TMC3    C4 4372   4.209   3.818  14.106  0.3027 -0.0334  0.0963
  290TMC3    C5 4373   4.078   3.816  14.070  0.0510 -0.7474 -0.2772
  290TMC3    C6 4374   4.011   3.928  14.046 -0.1154  0.1463  0.0827
  290TMC3     C 4375   4.414   3.938  14.088  0.4574  0.0140 -0.2682
  290TMC3     O 4376   4.471   4.044  14.095  0.4537  0.4187 -0.4677
  290TMC3     H 4377   4.259   4.150  14.051 -0.9184 -0.3055 -2.4841
  290TMC3    H1 4378   4.255   3.727  14.143  2.9986  0.9072 -0.9399
  290TMC3    H2 4379   3.906   3.926  14.018  0.4239 -1.4440 -1.7876
  290TMC3    C7 4380   3.997   3.694  14.071 -0.1429 -0.1495  0.5995
  290TMC3    C8 4381   4.012   4.162  13.990 -0.4301 -0.7202 -0.6283
  290TMC3    O1 4382   3.873   3.702  14.063 -0.3136  0.5549 -0.3058
  290TMC3    O2 4383   3.906   4.144  13.934 -1.1228 -0.4795  0.0503
  291MPD2     C 4384   3.960   3.929   0.046  0.5700 -0.1111  0.3140
  291MPD2    C1 4385   3.985   3.920   0.179 -0.2710 -0.0267 -0.6844
  291MPD2    C2 4386   4.011   4.038   0.248 -0.0636 -0.0653  0.7718
  291MPD2    C3 4387   3.998   4.159   0.193 -0.2916  0.1612 -0.0295
  291MPD2    C4 4388   3.962   4.162   0.058  1.1103 -0.4867 -0.5827
  291MPD2    C5 4389   3.947   4.052  17.678  0.7621  0.1642 -0.0555
  291MPD2     H 4390   4.040   4.020   0.351  2.4034  0.5311  0.1662
  291MPD2    H1 4391   3.966   4.261   0.014  4.6950 -0.4181 -0.1454
  291MPD2    H2 4392   3.960   3.846  17.667  0.7300  1.8738 -2.0610
  291MPD2    H3 4393   3.919   4.062  17.573 -1.6538  0.4105  0.6143
  291MPD2     N 4394   4.025   4.284   0.259  0.0344 -0.0743  0.6585
  291MPD2    H5 4395   4.010   4.369   0.205  2.6096  0.1724  0.3348
  291MPD2    N1 4396   3.986   3.796   0.241  0.1461  0.2431  0.3010
  291MPD2    H7 4397   4.001   3.788   0.341  2.4605  1.2378  0.0312
  292TMC3    C1 4398   3.932   3.573   0.269 -0.1748  0.1082 -0.4797
  292TMC3    C2 4399   4.004   3.571   0.381 -0.3357  0.2216  0.0027
  292TMC3    C3 4400   4.012   3.454   0.455 -1.2191 -0.1812 -0.6824
  292TMC3    C4 4401   3.871   3.458   0.224  0.4097  0.9143  0.0784
  292TMC3    C5 4402   3.884   3.342   0.295 -0.3158 -0.2336 -0.5120
  292TMC3    C6 4403   3.953   3.335   0.408 -0.3937  0.2252  1.1317
  292TMC3     C 4404   3.923   3.686   0.189 -0.5742 -0.2666  0.3673
  292TMC3     O 4405   3.876   3.675   0.078 -0.2479  0.2089  0.0832
  292TMC3     H 4406   4.065   3.658   0.401  1.4800 -0.9152 -0.6490
  292TMC3    H1 4407   3.798   3.458   0.144  0.3817 -2.1727  0.0778
  292TMC3    H2 4408   3.967   3.239   0.456  0.6987  0.0576  0.4766
  292TMC3    C7 4409   3.846   3.217   0.240  0.3485  0.3080  0.2584
  292TMC3    C8 4410   4.115   3.451   0.555 -0.5640 -0.0326 -0.4713
  292TMC3    O1 4411   3.897   3.115   0.286 -0.1519 -0.3522 -0.4848
  292TMC3    O2 4412   4.141   3.556   0.614 -0.0753 -0.0979  0.3435
  293MPD2     C 4413   1.646   0.732  12.639  0.1229 -0.2995  0.4238
  293MPD2    C1 4414   1.555   0.641  12.692 -0.2394 -0.3787 -0.2106
  293MPD2    C2 4415   1.540   0.629  12.827 -0.4943  0.2445  0.3828
  293MPD2    C3 4416   1.605   0.717  12.915  0.2903  0.2734 -0.3121
  293MPD2    C4 4417   1.695   0.809  12.860 -0.7823  0.1853 -0.2140
  293MPD2    C5 4418   1.718   0.810  12.727  0.5439  0.7464  0.4154
  293MPD2     H 4419   1.463   0.567  12.872 -0.7030 -0.8065 -1.4560
  293MPD2    H1 4420   1.748   0.872  12.931 -0.7475  0.0879 -0.1538
  293MPD2    H2 4421   1.663   0.735  12.532 -1.9744 -1.4953  0.0654
  293MPD2    H3 4422   1.797   0.875  12.690 -0.5583  1.6242 -0.3883
  293MPD2     N 4423   1.590   0.701  13.054 -0.1597 -0.4435  0.1520
  293MPD2    H5 4424   1.543   0.616  13.082 -2.0575  1.1621  1.8337
  293MPD2    N1 4425   1.491   0.553  12.591 -0.9559 -0.4089  0.6407
  293MPD2    H7 4426   1.510   0.587  12.497 -1.6066 -2.3734 -0.2162
  294TMC3    C1 4427   1.370   0.372  12.487  0.0900  0.0144 -0.4433
  294TMC3    C2 4428   1.276   0.275  12.494  0.0774 -0.0083 -0.0270
  294TMC3    C3 4429   1.203   0.252  12.384  0.4488 -0.1426  0.0763
  294TMC3    C4 4430   1.421   0.416  12.367  0.5428 -1.0380  0.7059
  294TMC3    C5 4431   1.355   0.376  12.255  0.2119 -0.1425  0.0878
  294TMC3    C6 4432   1.241   0.299  12.260 -0.2352  0.2133 -0.2329
  294TMC3     C 4433   1.407   0.443  12.611 -0.6021  0.4104 -0.3713
  294TMC3     O 4434   1.361   0.398  12.716 -0.2415  0.2912  0.3695
  294TMC3     H 4435   1.248   0.234  12.590  0.9898 -0.2060  0.1521
  294TMC3    H1 4436   1.500   0.489  12.357 -0.7944  0.3001 -0.1182
  294TMC3    H2 4437   1.180   0.301  12.170  0.9522 -1.6788 -1.0887
  294TMC3    C7 4438   1.401   0.426  12.128 -0.1065 -0.0890 -0.4848
  294TMC3    C8 4439   1.077   0.185  12.398  1.0773  0.3050 -0.2494
  294TMC3    O1 4440   1.464   0.530  12.130 -0.7276  0.2999 -0.6275
  294TMC3    O2 4441   1.024   0.194  12.504  0.1242 -0.2860  0.1116
  295MPD2     C 4442   1.577   2.871   0.797 -0.6368  0.3484 -0.0010
  295MPD2    C1 4443   1.493   2.977   0.794  0.3675 -0.0242  0.1325
  295MPD2    C2 4444   1.486   3.062   0.903  0.2232 -0.4272 -0.6906
  295MPD2    C3 4445   1.567   3.051   1.018  0.3959 -0.1996 -0.7251
  295MPD2    C4 4446   1.666   2.958   1.003  0.0928  0.3402 -0.7099
  295MPD2    C5 4447   1.667   2.874   0.897  0.3788 -0.3117 -0.5816
  295MPD2     H 4448   1.408   3.138   0.905  0.5403 -0.0757 -2.5749
  295MPD2    H1 4449   1.739   2.940   1.082  1.2548  0.7799 -1.6857
  295MPD2    H2 4450   1.599   2.808   0.712 -0.1251 -1.0601  1.1866
  295MPD2    H3 4451   1.744   2.797   0.897  0.0120 -0.6737  1.3635
  295MPD2     N 4452   1.566   3.137   1.128  1.1359  0.4597 -0.4133
  295MPD2    H5 4453   1.640   3.113   1.193  0.6849 -2.5605 -1.0326
  295MPD2    N1 4454   1.403   3.003   0.688  0.2935 -0.4910  0.3831
  295MPD2    H7 4455   1.351   3.090   0.695  1.7127  0.2658  1.8112
  296TMC3    C1 4456   1.483   3.302   1.280 -0.7502 -0.0047 -0.4651
  296TMC3    C2 4457   1.400   3.412   1.292  0.1069  0.2230 -0.1182
  296TMC3    C3 4458   1.362   3.448   1.424 -0.0383 -0.3774 -0.2530
  296TMC3    C4 4459   1.539   3.238   1.385 -0.0262 -0.7631 -0.1653
  296TMC3    C5 4460   1.519   3.299   1.506 -1.0560 -0.0527 -0.4118
  296TMC3    C6 4461   1.419   3.390   1.530  0.4543 -0.0255 -0.8486
  296TMC3     C 4462   1.483   3.242   1.149  0.3722 -0.2529 -0.4227
  296TMC3     O 4463   1.401   3.285   1.071 -0.2400  0.1370  0.0788
  296TMC3     H 4464   1.348   3.458   1.208  1.2611  1.1999 -0.3044
  296TMC3    H1 4465   1.596   3.147   1.368 -0.3561 -0.9182 -0.4312
  296TMC3    H2 4466   1.387   3.433   1.625 -3.1714  1.4868 -2.7478
  296TMC3    C7 4467   1.591   3.239   1.622  0.0609 -0.5542  0.3671
  296TMC3    C8 4468   1.250   3.542   1.439 -0.2711 -0.4421 -0.1349
  296TMC3    O1 4469   1.672   3.152   1.598 -0.0042 -0.4480  0.3404
  296TMC3    O2 4470   1.174   3.539   1.341  0.4151  0.5669  0.4430
  297MPD2     C 4471   4.102   1.039  15.810  0.0185 -0.1325 -0.1943
  297MPD2    C1 4472   4.053   1.128  15.902  0.2228 -0.7262  0.6094
  297MPD2    C2 4473   4.140   1.232  15.942  0.3039  0.5754  0.0938
  297MPD2    C3 4474   4.254   1.259  15.869  0.2923 -0.2735 -0.0222
  297MPD2    C4 4475   4.303   1.169  15.773  0.0278  0.5481  0.4451
  297MPD2    C5 4476   4.224   1.057  15.749  0.7616  0.0030  0.2700
  297MPD2     H 4477   4.101   1.305  16.012 -1.1078 -1.5332  1.4828
  297MPD2    H1 4478   4.390   1.186  15.710 -0.2153  0.6763  0.1496
  297MPD2    H2 4479   4.050   0.951  15.773  0.0493 -0.0105 -0.5351
  297MPD2    H3 4480   4.254   0.988  15.671 -1.7996 -0.9966  0.1582
  297MPD2     N 4481   4.321   1.381  15.876 -0.4819  0.0496 -0.7442
  297MPD2    H5 4482   4.395   1.396  15.808 -0.3946 -2.3178 -1.1669
  297MPD2    N1 4483   3.925   1.118  15.968  0.2226 -0.6849 -0.1128
  297MPD2    H7 4484   3.914   1.186  16.042  1.2717 -1.4127  0.7199
  298TMC3    C1 4485   3.714   1.059  16.015 -0.2039 -0.0616  0.5639
  298TMC3    C2 4486   3.602   1.077  15.952  0.2903  0.2505 -0.0441
  298TMC3    C3 4487   3.482   1.093  16.025  0.0606  0.4622 -0.6698
  298TMC3    C4 4488   3.721   1.063  16.150 -0.0640  0.3428  0.1923
  298TMC3    C5 4489   3.608   1.083  16.218  0.8750 -0.2391 -0.3773
  298TMC3    C6 4490   3.484   1.104  16.162  0.0004  0.4813 -0.7495
  298TMC3     C 4491   3.825   1.032  15.934  0.3787 -0.1655 -0.5266
  298TMC3     O 4492   3.803   0.968  15.831 -0.3656 -0.0040  0.6627
  298TMC3     H 4493   3.598   1.075  15.844  2.1324  1.2537 -0.1327
  298TMC3    H1 4494   3.819   1.050  16.195 -0.1193  0.2130  0.2739
  298TMC3    H2 4495   3.390   1.113  16.214  0.5196  1.9292 -0.0723
  298TMC3    C7 4496   3.596   1.078  16.361 -0.0001  0.6041 -0.2359
  298TMC3    C8 4497   3.359   1.116  15.947 -0.0405  0.7517  0.8287
  298TMC3    O1 4498   3.507   1.143  16.404 -0.1386  0.4494 -0.0819
  298TMC3    O2 4499   3.278   1.192  15.998 -0.3738  0.0637  0.0412
  299MPD2     C 4500   4.693   1.650  10.366  0.4580 -0.0358 -0.5758
  299MPD2    C1 4501   4.664   1.549  10.451  0.0326  0.1336 -0.1969
  299MPD2    C2 4502   4.566   1.466  10.412 -0.2818  0.0919  0.1565
  299MPD2    C3 4503   4.497   1.481  10.294 -0.0553 -0.1618 -0.2969
  299MPD2    C4 4504   4.514   1.597  10.222 -0.4366 -0.3967 -0.2423
  299MPD2    C5 4505   4.618   1.677  10.256 -0.3433 -0.8198  0.2057
  299MPD2     H 4506   4.530   1.393  10.484  0.6519 -0.1575  0.3794
  299MPD2    H1 4507   4.445   1.617  10.141  0.4424 -0.1147 -0.9042
  299MPD2    H2 4508   0.054   1.719  10.372  2.3970 -2.4908  0.6466
  299MPD2    H3 4509   4.644   1.766  10.200 -0.0328 -1.4711 -0.6690
  299MPD2     N 4510   4.383   1.410  10.261  0.0154  0.0354  0.5723
  299MPD2    H5 4511   4.332   1.432  10.176 -1.8495 -4.2679  0.5543
  299MPD2    N1 4512   0.015   1.533  10.574 -0.0035  0.4983  0.5928
  299MPD2    H7 4513   0.074   1.609  10.608 -0.3816  1.0709 -0.0165
  300TMC3    C1 4514   4.230   1.223  10.257 -0.6899 -0.2067  0.3673
  300TMC3    C2 4515   4.114   1.307  10.253 -0.7603  0.5437 -0.1605
  300TMC3    C3 4516   3.998   1.241  10.268 -0.6688 -0.2334 -0.0876
  300TMC3    C4 4517   4.222   1.089  10.267 -0.4666 -0.0340  0.1816
  300TMC3    C5 4518   4.101   1.029  10.260  0.5305  0.1449 -0.1955
  300TMC3    C6 4519   3.986   1.105  10.256  0.2867 -0.2415  0.2402
  300TMC3     C 4520   4.344   1.283  10.316 -0.3591  0.1949  1.0862
  300TMC3     O 4521   4.398   1.224  10.408 -0.0622 -0.2544 -0.7212
  300TMC3     H 4522   4.125   1.415  10.261 -2.7077  0.6932  0.3524
  300TMC3    H1 4523   4.320   1.043  10.270  0.1477  1.1532 -1.4647
  300TMC3    H2 4524   3.888   1.058  10.249  0.6920 -0.7716 -1.7351
  300TMC3    C7 4525   4.091   0.911  10.350 -0.1789 -0.2887  0.0612
  300TMC3    C8 4526   3.880   1.325  10.292 -0.3716  0.5048  0.9289
  300TMC3    O1 4527   4.156   0.814  10.322  0.0060  0.8031  0.2049
  300TMC3    O2 4528   3.770   1.279  10.265  0.3132 -0.7332  0.6386
  301MPD2     C 4529   2.374   1.907   1.370 -0.1771 -0.4594  0.5798
  301MPD2    C1 4530   2.243   1.949   1.371  0.1674  0.0295  0.7573
  301MPD2    C2 4531   2.137   1.856   1.380  0.6186 -0.6205  0.1969
  301MPD2    C3 4532   2.166   1.724   1.402  0.4451 -0.1002  0.4039
  301MPD2    C4 4533   2.297   1.687   1.406 -0.8720 -0.1584 -0.4403
  301MPD2    C5 4534   2.400   1.775   1.388 -0.2135 -0.0930  1.0776
  301MPD2     H 4535   2.034   1.891   1.384  0.8745  0.2386 -0.7288
  301MPD2    H1 4536   2.323   1.583   1.418 -1.5327 -0.3390 -0.5759
  301MPD2    H2 4537   2.452   1.980   1.352 -1.1126  0.1844 -0.8161
  301MPD2    H3 4538   2.503   1.742   1.387  0.0002  0.6091 -0.8296
  301MPD2     N 4539   2.068   1.622   1.421  0.8167  0.1387 -0.2034
  301MPD2    H5 4540   2.097   1.530   1.452  1.8947  1.1965  1.9443
  301MPD2    N1 4541   2.214   2.088   1.364 -0.4313 -0.2870  0.8831
  301MPD2    H7 4542   2.115   2.110   1.355  0.4231  2.7691 -1.0252
  302TMC3    C1 4543   1.849   1.522   1.440  0.0829  0.2631 -0.3016
  302TMC3    C2 4544   1.910   1.408   1.484  0.1563  0.5173 -0.2789
  302TMC3    C3 4545   1.826   1.296   1.514  0.5895  0.2455 -0.0657
  302TMC3    C4 4546   1.711   1.542   1.442 -0.1699 -0.1205  0.3287
  302TMC3    C5 4547   1.634   1.438   1.479  0.2426 -0.5200  0.1661
  302TMC3    C6 4548   1.687   1.318   1.509  0.2317 -0.6743 -0.3690
  302TMC3     C 4549   1.931   1.636   1.402 -0.7429 -0.5269 -0.2478
  302TMC3     O 4550   1.874   1.737   1.363  0.1278  0.3523  0.8807
  302TMC3     H 4551   2.015   1.394   1.463  0.1450  1.4704 -0.9469
  302TMC3    H1 4552   1.672   1.637   1.408 -0.6048 -0.1695  0.6891
  302TMC3    H2 4553   1.616   1.238   1.521  0.4776 -0.5505  1.8399
  302TMC3    C7 4554   1.493   1.453   1.490  0.1028 -0.2624  0.1854
  302TMC3    C8 4555   1.891   1.171   1.495  0.0037  0.0732 -0.3463
  302TMC3    O1 4556   1.426   1.367   1.437 -0.0385 -0.4261 -0.1837
  302TMC3    O2 4557   1.960   1.168   1.392 -0.4402  0.0926  0.0528
  303MPD2     C 4558   1.397   0.202  10.561 -0.4982 -0.1734  0.2767
  303MPD2    C1 4559   1.271   0.205  10.505  0.4304  0.4586 -0.2456
  303MPD2    C2 4560   1.260   0.228  10.369  0.4329  0.1436  0.1174
  303MPD2    C3 4561   1.374   0.258  10.293 -0.3768  0.5185  0.9159
  303MPD2    C4 4562   1.494   0.250  10.354 -0.6335 -0.7907 -0.2617
  303MPD2    C5 4563   1.510   0.229  10.487 -0.4825 -0.2201 -0.0763
  303MPD2     H 4564   1.162   0.220  10.322  0.3632 -1.2892  0.5335
  303MPD2    H1 4565   1.581   0.271  10.292 -1.7677  1.1400 -1.2001
  303MPD2    H2 4566   1.413   0.178  10.665 -1.1188  3.7872  1.2802
  303MPD2    H3 4567   1.609   0.214  10.529  0.4699  2.6944 -1.2291
  303MPD2     N 4568   1.352   0.294  10.159  0.4526 -0.7012 -0.3514
  303MPD2    H5 4569   1.438   0.282  10.106  1.3976  0.5926  0.8939
  303MPD2    N1 4570   1.158   0.185  10.587 -0.3667  0.2672 -0.2486
  303MPD2    H7 4571   1.168   0.146  10.680 -0.1168 -0.4058 -0.5579
  304TMC3    C1 4572   0.926   0.132  10.633  0.8666  0.1142  0.2619
  304TMC3    C2 4573   0.805   0.186  10.616  0.2842  0.9722 -0.6961
  304TMC3    C3 4574   0.698   0.101  10.606 -0.1901 -0.0646  0.3943
  304TMC3    C4 4575   0.949   0.000  10.664  0.7482 -0.2872 -0.1880
  304TMC3    C5 4576   0.840   4.636  10.655 -0.5107 -0.4393 -0.1781
  304TMC3    C6 4577   0.714   4.687  10.643 -0.0497  0.0974  0.3120
  304TMC3     C 4578   1.025   0.193  10.539  0.4356  0.0734  0.0582
  304TMC3     O 4579   0.979   0.238  10.434  0.3920  0.0442  0.0758
  304TMC3     H 4580   0.800   0.285  10.572 -1.8897  1.6494  1.0249
  304TMC3    H1 4581   1.046   4.672  10.662  0.0141 -1.6635 -0.8614
  304TMC3    H2 4582   0.627   4.622  10.633 -0.2765  0.5335 -0.5205
  304TMC3    C7 4583   0.856   4.517  10.581  0.3911  0.2948 -0.1626
  304TMC3    C8 4584   0.637   0.115  10.476  0.9485  0.1380  0.2331
  304TMC3    O1 4585   0.752   4.468  10.531  0.0672 -0.1005  0.0343
  304TMC3    O2 4586   0.601   0.229  10.438 -0.0395  0.1765  0.7625
  305MPD2     C 4587   4.700   2.519  13.924  0.1683  0.0997 -0.2376
  305MPD2    C1 4588   4.709   2.393  13.983  0.4180 -0.7925  0.3030
  305MPD2    C2 4589   4.672   2.282  13.904 -0.6252 -0.1360  0.2837
  305MPD2    C3 4590   4.649   2.299  13.767  0.1029  0.2007 -0.4069
  305MPD2    C4 4591   4.650   2.427  13.710  0.1745 -0.0548 -0.3143
  305MPD2    C5 4592   4.681   2.535  13.790  0.6798  0.1965 -0.4492
  305MPD2     H 4593   4.662   2.184  13.948 -2.8231  0.2583  0.6491
  305MPD2    H1 4594   4.628   2.443  13.605 -0.1154 -1.9849 -0.5627
  305MPD2    H2 4595   4.717   2.602  13.992 -0.1509 -0.8603  1.0098
  305MPD2    H3 4596   4.671   2.633  13.744 -1.2518 -0.8816 -2.3371
  305MPD2     N 4597   4.631   2.195  13.673  0.3459  0.0636 -0.4492
  305MPD2    H5 4598   4.641   2.233  13.579  1.1443 -0.6427 -0.6518
  305MPD2    N1 4599   0.017   2.388  14.117 -0.4020 -0.5180 -0.5872
  305MPD2    H7 4600   0.040   2.477  14.160 -3.1818 -0.2998  0.4398
  306TMC3    C1 4601   0.078   2.321  14.320  0.4645  0.1360 -0.3492
  306TMC3    C2 4602   0.157   2.223  14.383  0.3027  0.2112  0.2386
  306TMC3    C3 4603   0.211   2.256  14.507  0.4653  0.2582  0.0277
  306TMC3    C4 4604   0.042   2.443  14.376 -0.9053  0.3003  0.5706
  306TMC3    C5 4605   0.108   2.470  14.497 -0.3629 -0.2135  0.2441
  306TMC3    C6 4606   0.191   2.385  14.562 -0.3630 -0.1881  0.4951
  306TMC3     C 4607   0.022   2.286  14.195 -0.5478 -0.1881  0.1666
  306TMC3     O 4608   0.001   2.167  14.172  0.1392  0.2197  0.2138
  306TMC3     H 4609   0.192   2.136  14.329  1.1116  0.0704  1.0010
  306TMC3    H1 4610   4.688   2.505  14.329  0.3451  1.0223 -0.5129
  306TMC3    H2 4611   0.229   2.408  14.661 -0.6404  2.3541  0.0184
  306TMC3    C7 4612   0.043   2.566  14.584  0.1999  0.6554 -0.0504
  306TMC3    C8 4613   0.273   2.155  14.591  0.5679 -0.3700 -0.2961
  306TMC3    O1 4614   4.644   2.565  14.591  0.0616 -0.2743  0.1129
  306TMC3    O2 4615   0.325   2.054  14.540  0.1171 -0.7680 -0.0033
  307MPD2     C 4616   2.837   0.455   0.937 -0.7064  0.4212 -0.4103
  307MPD2    C1 4617   2.731   0.414   0.854  0.1420  0.0805 -0.4045
  307MPD2    C2 4618   2.671   0.507   0.771 -0.4002 -0.1594 -0.1207
  307MPD2    C3 4619   2.716   0.634   0.758 -0.5304  0.2756  0.3133
  307MPD2    C4 4620   2.820   0.677   0.830 -0.4373  0.2384 -0.3262
  307MPD2    C5 4621   2.872   0.587   0.921  0.2013  0.2038  0.2505
  307MPD2     H 4622   2.578   0.479   0.722 -0.0993 -0.5026 -0.4960
  307MPD2    H1 4623   2.850   0.780   0.820 -0.7102  0.3013 -0.4910
  307MPD2    H2 4624   2.889   0.391   1.007 -1.6645 -0.2416 -0.3010
  307MPD2    H3 4625   2.957   0.618   0.980 -1.1812  2.0903  1.2554
  307MPD2     N 4626   2.643   0.712   0.661 -0.2235  0.2807 -0.5119
  307MPD2    H5 4627   2.564   0.661   0.624 -0.8162  1.2088 -0.5222
  307MPD2    N1 4628   2.691   0.277   0.839 -0.3889 -0.3605 -0.3311
  307MPD2    H7 4629   2.618   0.260   0.771  0.6398  2.5806 -2.1744
  308TMC3    C1 4630   2.332   0.829   0.495  0.2000  0.0715 -0.0936
  308TMC3    C2 4631   2.354   0.836   0.359 -0.2399  0.2430  0.0494
  308TMC3    C3 4632   2.477   0.881   0.323  0.3102  0.7310  0.0455
  308TMC3    C4 4633   2.433   0.853   0.583  0.1065  0.1307  0.2740
  308TMC3    C5 4634   2.558   0.891   0.543  0.7333 -0.6969 -1.0411
  308TMC3    C6 4635   2.582   0.903   0.413 -0.0012 -0.1953 -0.0125
  308TMC3     C 4636   2.236   0.730   0.545  0.1293  0.1866  0.3262
  308TMC3     O 4637   2.272   0.670   0.645  0.0284 -0.3775  0.6919
  308TMC3     H 4638   2.271   0.807   0.296 -0.1156 -2.4087  1.1099
  308TMC3    H1 4639   2.418   0.839   0.690 -0.8346 -1.7338 -0.1052
  308TMC3    H2 4640   2.677   0.938   0.375  0.4024 -0.8630  0.3750
  308TMC3    C7 4641   2.677   0.836   0.619  0.5678  0.2927 -0.4929
  308TMC3    C8 4642   2.510   0.882   0.181 -0.3780 -0.3541 -0.7608
  308TMC3    O1 4643   2.776   0.909   0.634  0.5459  0.2067 -0.0856
  308TMC3    O2 4644   2.583   0.970   0.141  0.2381  0.1711 -0.2590
  309MPD2     C 4645   1.866   0.438  16.896  0.2957 -0.5753 -0.2327
  309MPD2    C1 4646   1.827   0.561  16.845 -0.0723  0.4983 -0.0679
  309MPD2    C2 4647   1.694   0.599  16.854  0.4786 -0.5500 -0.4304
  309MPD2    C3 4648   1.604   0.525  16.924 -0.0118 -0.4063  0.3676
  309MPD2    C4 4649   1.646   0.407  16.977 -0.2669  0.4924  0.0548
  309MPD2    C5 4650   1.775   0.360  16.958  0.3124  0.1181  0.1894
  309MPD2     H 4651   1.670   0.695  16.809 -1.3410 -2.1394 -2.8300
  309MPD2    H1 4652   1.591   0.334  17.035  0.2078 -0.4345 -0.6505
  309MPD2    H2 4653   1.969   0.407  16.908  0.6839 -0.0746 -2.2526
  309MPD2    H3 4654   1.800   0.269  17.010  0.6782 -0.2284 -0.5857
  309MPD2     N 4655   1.466   0.565  16.937 -0.3874  0.3548 -0.0947
  309MPD2    H5 4656   1.408   0.498  16.988 -3.2165  2.2741 -0.8186
  309MPD2    N1 4657   1.917   0.651  16.779  0.0471  0.9186 -0.2606
  309MPD2    H7 4658   1.875   0.741  16.759  1.3686  1.6365  0.2545
  310TMC3    C1 4659   2.106   0.712  16.650  0.1041  0.7309 -0.4624
  310TMC3    C2 4660   2.027   0.762  16.555  0.3607  0.1599  0.3294
  310TMC3    C3 4661   2.086   0.789  16.434  0.3600  0.6019  0.2000
  310TMC3    C4 4662   2.242   0.688  16.635  0.7021 -0.0033 -0.0324
  310TMC3    C5 4663   2.291   0.710  16.509 -0.0683 -0.1970  0.4518
  310TMC3    C6 4664   2.215   0.760  16.403 -0.6723 -0.2407  0.4233
  310TMC3     C 4665   2.044   0.620  16.743 -0.6044 -0.2914 -0.0302
  310TMC3     O 4666   2.120   0.525  16.770 -0.0519 -0.2391  0.4628
  310TMC3     H 4667   1.923   0.787  16.572 -0.0491 -1.1101 -0.2894
  310TMC3    H1 4668   2.314   0.648  16.705  1.6688  3.2297  0.8240
  310TMC3    H2 4669   2.241   0.766  16.298 -3.0095  1.2166 -0.0651
  310TMC3    C7 4670   2.422   0.649  16.489 -0.2339  0.2301  0.0916
  310TMC3    C8 4671   2.005   0.838  16.325 -0.0913 -0.2525  0.3245
  310TMC3    O1 4672   2.445   0.557  16.563 -0.5005  0.1603 -0.2563
  310TMC3    O2 4673   1.887   0.811  16.340 -0.0560 -0.1165  0.2863
  311MPD2     C 4674   3.603   1.707  12.768  0.1356  0.3178  0.3408
  311MPD2    C1 4675   3.586   1.845  12.766 -0.0532 -0.2167 -0.0866
  311MPD2    C2 4676   3.457   1.897  12.773  0.3612 -0.3481 -0.0971
  311MPD2    C3 4677   3.349   1.808  12.772  0.1875 -0.5547 -0.7331
  311MPD2    C4 4678   3.367   1.677  12.754 -0.2110 -0.7917 -0.2618
  311MPD2    C5 4679   3.495   1.627  12.756 -0.1337  0.2142  0.2637
  311MPD2     H 4680   3.431   2.001  12.792  1.0070 -0.1771 -0.1517
  311MPD2    H1 4681   3.292   1.599  12.752 -0.0725 -1.0549  4.5414
  311MPD2    H2 4682   3.695   1.651  12.763  1.2291  2.0458  1.2188
  311MPD2    H3 4683   3.519   1.522  12.761  0.5279  0.2239 -2.8140
  311MPD2     N 4684   3.222   1.863  12.789  0.5277 -1.1012  0.6550
  311MPD2    H5 4685   3.220   1.961  12.815 -3.3375 -0.1810 -3.0157
  311MPD2    N1 4686   3.700   1.937  12.764 -0.2493  0.3389  0.1759
  311MPD2    H7 4687   3.677   2.036  12.754 -0.3787  0.1474 -1.4205
  312TMC3    C1 4688   2.984   1.883  12.803 -0.1857 -0.2401 -0.1345
  312TMC3    C2 4689   2.869   1.843  12.749 -0.4000 -0.2724  0.0541
  312TMC3    C3 4690   2.757   1.926  12.753 -0.0707 -0.2529  0.2667
  312TMC3    C4 4691   2.998   1.994  12.881 -0.6205  0.2053  0.4106
  312TMC3    C5 4692   2.883   2.067  12.897  0.6921 -0.4253  0.5265
  312TMC3    C6 4693   2.766   2.040  12.825  0.4479  0.4714 -0.3108
  312TMC3     C 4694   3.100   1.798  12.777 -0.0190  0.1903  0.4324
  312TMC3     O 4695   3.079   1.682  12.737 -0.6238  0.4445 -0.2520
  312TMC3     H 4696   2.856   1.753  12.690 -1.1346 -0.5480  0.6357
  312TMC3    H1 4697   3.083   2.015  12.946  1.8286 -1.3380 -2.3119
  312TMC3    H2 4698   2.679   2.100  12.849  1.2412  0.4444  2.6820
  312TMC3    C7 4699   2.886   2.199  12.963  0.3421  0.3235 -1.3599
  312TMC3    C8 4700   2.650   1.925  12.659 -1.0753  0.8757  0.1944
  312TMC3    O1 4701   2.819   2.288  12.913 -0.4237 -0.0545 -0.9316
  312TMC3    O2 4702   2.593   2.033  12.647 -0.3676 -0.6311  0.5869
  313MPD2     C 4703   3.498   1.199  10.729  0.8479  0.0866 -0.5138
  313MPD2    C1 4704   3.367   1.214  10.778 -0.5955 -0.1628 -0.1685
  313MPD2    C2 4705   3.268   1.135  10.720  0.3078 -0.1709 -0.7210
  313MPD2    C3 4706   3.297   1.044  10.620  0.4159  0.4301  0.5084
  313MPD2    C4 4707   3.430   1.034  10.576 -0.5607 -0.0340  0.6658
  313MPD2    C5 4708   3.527   1.116  10.628  0.2107 -0.5758  0.0108
  313MPD2     H 4709   3.165   1.148  10.749 -0.4091 -3.9805 -1.5536
  313MPD2    H1 4710   3.460   0.967  10.495  0.3232 -0.2987  1.2061
  313MPD2    H2 4711   3.586   1.253  10.763 -0.2824  0.9586  1.0426
  313MPD2    H3 4712   3.628   1.103  10.592 -0.2192 -0.5756 -1.1898
  313MPD2     N 4713   3.201   0.956  10.564 -0.0497  0.2086 -0.3921
  313MPD2    H5 4714   3.108   0.957  10.606  0.5637 -0.4151  0.9851
  313MPD2    N1 4715   3.338   1.319  10.876 -0.1663 -0.1101  0.4993
  313MPD2    H7 4716   3.240   1.330  10.898 -0.2638 -0.6431  0.3289
  314TMC3    C1 4717   3.346   1.505  11.010  0.0150 -0.0208 -0.1165
  314TMC3    C2 4718   3.410   1.585  11.094 -0.6029 -0.7902  0.3246
  314TMC3    C3 4719   3.346   1.700  11.144  0.4033  0.2838 -0.6106
  314TMC3    C4 4720   3.226   1.545  10.957 -0.1394 -0.2677 -0.3617
  314TMC3    C5 4721   3.152   1.645  11.016  0.2786 -1.1288 -0.0795
  314TMC3    C6 4722   3.221   1.732  11.102  0.1521 -0.6638  0.5264
  314TMC3     C 4723   3.420   1.401  10.940 -0.2073  0.2215 -0.1979
  314TMC3     O 4724   3.537   1.378  10.961 -0.0042 -0.5050 -0.6070
  314TMC3     H 4725   3.514   1.565  11.119  0.2983  1.2463 -1.7182
  314TMC3    H1 4726   3.187   1.498  10.867 -0.6639 -0.3623 -0.0855
  314TMC3    H2 4727   3.155   1.804  11.151  1.9910  0.6360  1.0805
  314TMC3    C7 4728   3.060   1.707  10.928  0.2752 -0.1494 -0.4964
  314TMC3    C8 4729   3.423   1.808  11.192 -0.3494 -0.7482  0.7633
  314TMC3    O1 4730   2.941   1.675  10.932  0.0087 -0.1378 -0.1107
  314TMC3    O2 4731   3.358   1.913  11.204  0.1628  0.1656 -0.0176
  315MPD2     C 4732   2.778   0.348   0.436 -0.1119  0.0639  0.7433
  315MPD2    C1 4733   2.871   0.396   0.528  0.2851 -0.4998 -0.4541
  315MPD2    C2 4734   2.921   0.526   0.517 -0.0997 -0.1873 -0.3752
  315MPD2    C3 4735   2.871   0.615   0.425 -0.1131  0.5000 -0.4325
  315MPD2    C4 4736   2.779   0.564   0.327  0.2687 -0.4150 -0.7836
  315MPD2    C5 4737   2.738   0.434   0.333  0.2409  0.5322 -0.1048
  315MPD2     H 4738   2.989   0.546   0.599 -2.6520 -0.5993  1.8390
  315MPD2    H1 4739   2.738   0.619   0.243 -1.0147 -0.1084  0.0377
  315MPD2    H2 4740   2.736   0.249   0.440  0.0490  0.0367  1.9404
  315MPD2    H3 4741   2.655   0.402   0.271 -0.0446 -2.6048  1.9430
  315MPD2     N 4742   2.933   0.740   0.421  0.4897  0.1791 -0.4609
  315MPD2    H5 4743   2.978   0.768   0.508 -1.0947  0.6153  0.2089
  315MPD2    N1 4744   2.935   0.317   0.624  0.3205  0.3813 -0.7033
  315MPD2    H7 4745   3.005   0.359   0.686 -2.8508  1.5707  2.0878
  316TMC3    C1 4746   2.976   0.956   0.346 -0.2523 -0.0463  0.5209
  316TMC3    C2 4747   3.064   0.962   0.454 -0.5554 -0.2078  0.0836
  316TMC3    C3 4748   3.085   1.082   0.521 -0.3789  0.1711  0.3056
  316TMC3    C4 4749   2.923   1.068   0.295  0.3234 -0.1038 -1.0051
  316TMC3    C5 4750   2.968   1.185   0.349  0.2256  0.6017  0.1787
  316TMC3    C6 4751   3.030   1.199   0.475  0.1113 -0.5737  0.2983
  316TMC3     C 4752   2.913   0.828   0.319 -0.9250 -0.1653 -0.0283
  316TMC3     O 4753   2.840   0.825   0.227  0.5691 -0.3957 -0.6518
  316TMC3     H 4754   3.110   0.876   0.501 -0.8302  0.7467  2.1047
  316TMC3    H1 4755   2.858   1.072   0.208 -0.0767 -0.9141 -0.7440
  316TMC3    H2 4756   3.061   1.297   0.511 -0.4284  0.9591 -3.3969
  316TMC3    C7 4757   2.961   1.303   0.264  0.0492 -0.5675 -0.2444
  316TMC3    C8 4758   3.195   1.101   0.614  0.3323  0.5701 -0.1938
  316TMC3    O1 4759   2.956   1.408   0.326  0.5517  0.0346  0.1339
  316TMC3    O2 4760   3.194   1.207   0.677  0.7753 -0.3966  0.0708
  317MPD2     C 4761   4.595   4.063  13.036 -0.4500  1.0643  0.7686
  317MPD2    C1 4762   4.593   3.931  12.998 -0.7842 -0.5345 -0.5391
  317MPD2    C2 4763   4.648   3.842  13.087  0.2408 -0.1754  0.2007
  317MPD2    C3 4764   4.700   3.871  13.213 -0.1588  0.1919 -0.0494
  317MPD2    C4 4765   4.679   3.998  13.259 -0.1502 -0.0226  0.3926
  317MPD2    C5 4766   4.632   4.093  13.163  0.1757 -0.4759 -0.4667
  317MPD2     H 4767   4.660   3.739  13.055  2.4971 -0.1617  1.0017
  317MPD2    H1 4768   4.705   4.037  13.356  1.5779 -0.8065  0.2454
  317MPD2    H2 4769   4.550   4.144  12.980 -1.5668  0.2275  0.4413
  317MPD2    H3 4770   4.630   4.197  13.193 -4.2244 -0.7650  0.2736
  317MPD2     N 4771   0.034   3.761  13.282 -0.6744 -0.1446 -0.5301
  317MPD2    H5 4772   0.005   3.671  13.247 -2.5103  0.0385  0.5317
  317MPD2    N1 4773   4.560   3.886  12.871 -0.8679 -0.4505  0.8331
  317MPD2    H7 4774   4.555   3.786  12.860  1.1815 -0.3607 -1.0899
  318TMC3    C1 4775   0.172   3.632  13.417  0.1384 -0.6588 -0.8106
  318TMC3    C2 4776   0.075   3.541  13.433  0.2479 -0.5378  0.3821
  318TMC3    C3 4777   0.109   3.421  13.476  0.5322  0.7773  0.3453
  318TMC3    C4 4778   0.302   3.598  13.425 -0.0414 -0.1555 -0.1349
  318TMC3    C5 4779   0.340   3.474  13.466 -0.0896 -0.1122  0.3195
  318TMC3    C6 4780   0.241   3.380  13.487  0.4909 -0.2077 -0.4065
  318TMC3     C 4781   0.135   3.771  13.379 -0.2546 -0.3158  0.8680
  318TMC3     O 4782   0.203   3.869  13.399  0.4891  0.5298  0.2368
  318TMC3     H 4783   4.691   3.561  13.444  0.3023  0.4933 -1.0045
  318TMC3    H1 4784   0.376   3.674  13.403 -0.1753  0.6146  2.1076
  318TMC3    H2 4785   0.286   3.283  13.506 -0.3469 -0.4517  0.3581
  318TMC3    C7 4786   0.469   3.429  13.410 -0.1268 -0.9978  0.1842
  318TMC3    C8 4787   0.019   3.310  13.468 -0.3241  0.6532 -0.0983
  318TMC3    O1 4788   0.545   3.353  13.470  0.2061  0.0271 -0.0835
  318TMC3    O2 4789   0.053   3.208  13.520 -0.4093 -0.3315 -0.0134
  319MPD2     C 4790   1.239   0.322  16.822  0.2921  0.5915 -0.7966
  319MPD2    C1 4791   1.130   0.289  16.893 -0.0495 -0.4019 -0.4524
  319MPD2    C2 4792   1.018   0.272  16.811  0.0112 -0.5390 -0.4832
  319MPD2    C3 4793   1.027   0.288  16.676 -0.1538 -0.6941 -0.3476
  319MPD2    C4 4794   1.144   0.316  16.612 -0.6605 -0.3009  0.6142
  319MPD2    C5 4795   1.252   0.322  16.687  0.0684 -0.6261  0.9727
  319MPD2     H 4796   0.922   0.248  16.858  0.5791 -0.5836  0.6637
  319MPD2    H1 4797   1.148   0.318  16.504 -0.1266  0.1788  0.6459
  319MPD2    H2 4798   1.332   0.342  16.875 -1.4426  2.5805  1.5063
  319MPD2    H3 4799   1.344   0.352  16.638  0.3201 -2.3982  0.3587
  319MPD2     N 4800   0.909   0.269  16.591 -0.3162 -0.3633 -0.6175
  319MPD2    H5 4801   0.919   0.267  16.490 -1.1492  1.4282 -0.7408
  319MPD2    N1 4802   1.123   0.273  17.036  0.0502  0.2451  0.5610
  319MPD2    H7 4803   1.035   0.232  17.066  0.9176 -0.7979  1.6949
  320TMC3    C1 4804   0.695   0.213  16.520  0.5523  0.5066  0.0105
  320TMC3    C2 4805   0.709   0.313  16.423 -0.3173 -0.0218  0.2964
  320TMC3    C3 4806   0.631   0.299  16.310 -0.2553  0.1357  0.3889
  320TMC3    C4 4807   0.595   0.122  16.518  0.6073  0.7523  0.3571
  320TMC3    C5 4808   0.514   0.120  16.409 -0.9646  0.1780 -0.1517
  320TMC3    C6 4809   0.532   0.203  16.301 -1.1004  0.1028 -0.1034
  320TMC3     C 4810   0.787   0.230  16.636 -0.2100  0.6175 -0.3597
  320TMC3     O 4811   0.747   0.182  16.743  0.0325  0.2887  0.5850
  320TMC3     H 4812   0.779   0.396  16.427  0.1278 -0.3919  0.1826
  320TMC3    H1 4813   0.577   0.049  16.596  0.2864  1.5805  1.0541
  320TMC3    H2 4814   0.479   0.190  16.207 -1.2328 -0.8903  0.1084
  320TMC3    C7 4815   0.442   4.719  16.399 -0.5361 -0.0630  0.0414
  320TMC3    C8 4816   0.656   0.369  16.183  0.9375 -1.2219 -0.0646
  320TMC3    O1 4817   0.477   4.621  16.468  0.4487 -0.1172  0.1015
  320TMC3    O2 4818   0.646   0.305  16.082 -0.0214 -0.3663 -0.7267
  321TMC3    C1 4819   1.198   0.282  17.273 -0.0091  0.3444  0.0103
  321TMC3    C2 4820   1.071   0.257  17.318 -0.8738 -0.1388  0.2639
  321TMC3    C3 4821   1.052   0.223  17.448 -0.1566  0.8436  0.2696
  321TMC3    C4 4822   1.303   0.289  17.354 -0.1382 -0.3573  0.9575
  321TMC3    C5 4823   1.284   0.257  17.484 -0.1384  0.3573 -0.1200
  321TMC3    C6 4824   1.155   0.228  17.532  0.5150 -0.2067  0.2000
  321TMC3     C 4825   1.214   0.326  17.134  0.3406  0.4155  0.6752
  321TMC3     O 4826   1.318   0.384  17.099  0.5808  0.2479 -0.1813
  321TMC3     H 4827   0.986   0.257  17.251  1.1864 -1.1410 -2.3508
  321TMC3    H1 4828   1.395   0.328  17.312 -1.2945  1.7113  0.3268
  321TMC3    H2 4829   1.143   0.210  17.638 -0.3743 -2.3394 -0.2695
  321TMC3    C7 4830   1.376   0.157  17.533 -0.1786  0.1936 -0.4735
  321TMC3    C8 4831   0.978   0.111  17.446  0.5975 -0.8285 -0.2898
  321TMC3    O1 4832   1.337   0.093  17.629 -0.0663  0.5953 -0.1210
  321TMC3    O2 4833   0.874   0.107  17.381 -0.3694  0.4923 -0.4060
  322MPD2     C 4834   0.341   1.821  13.240 -0.3776  0.2294  0.7750
  322MPD2    C1 4835   0.289   1.742  13.340  0.1873  0.0069 -0.3015
  322MPD2    C2 4836   0.271   1.608  13.311 -0.5767 -0.5639 -0.3153
  322MPD2    C3 4837   0.317   1.546  13.197  0.0813  0.3674  0.7419
  322MPD2    C4 4838   0.381   1.626  13.100  0.0020  0.3095  0.1267
  322MPD2    C5 4839   0.387   1.759  13.122  0.2140 -0.0214 -0.1904
  322MPD2     H 4840   0.226   1.549  13.390  0.4246  0.0172  0.6772
  322MPD2    H1 4841   0.410   1.593  13.001 -1.6770  0.1666 -0.3197
  322MPD2    H2 4842   0.348   1.929  13.234 -0.4317  0.1116 -1.3532
  322MPD2    H3 4843   0.431   1.824  13.047  0.1680 -0.4957 -0.6262
  322MPD2     N 4844   0.306   1.406  13.188 -0.1082 -0.1934 -0.1079
  322MPD2    H5 4845   0.250   1.370  13.264 -2.0795  0.4640 -1.2174
  322MPD2    N1 4846   0.240   1.801  13.455 -0.0361  0.4797 -0.3427
  322MPD2    H7 4847   0.296   1.882  13.479 -0.3105  0.3729  0.6425
  323TMC3    C1 4848   0.156   1.823  13.672 -0.3817  1.0077  0.0124
  323TMC3    C2 4849   0.205   1.947  13.677  0.5734 -0.2230 -0.5291
  323TMC3    C3 4850   0.197   2.010  13.797 -0.5892 -0.7129 -1.3314
  323TMC3    C4 4851   0.080   1.764  13.777 -0.5119 -0.5213  0.4269
  323TMC3    C5 4852   0.082   1.835  13.893  0.3514  0.4216  0.2147
  323TMC3    C6 4853   0.132   1.962  13.903  0.2905 -0.1241 -0.4058
  323TMC3     C 4854   0.159   1.742  13.548  0.1303  0.7747  0.6610
  323TMC3     O 4855   0.099   1.635  13.542  0.7444  0.0192  0.4801
  323TMC3     H 4856   0.264   1.996  13.600  2.0977  0.3146  0.9887
  323TMC3    H1 4857   0.034   1.666  13.768 -3.8369  1.1043 -0.5475
  323TMC3    H2 4858   0.126   2.015  13.998 -0.6645 -0.2769 -0.3832
  323TMC3    C7 4859   0.048   1.745  14.010  0.2486  0.5760  0.3133
  323TMC3    C8 4860   0.265   2.138  13.805 -0.0146 -0.0485 -0.0952
  323TMC3    O1 4861   4.710   1.641  13.990 -0.4833  0.2207 -0.7959
  323TMC3    O2 4862   0.249   2.209  13.705 -0.2336 -0.5075 -0.1824
  324MPD2     C 4863   1.500   2.791  14.606 -0.5353 -0.3396  0.1771
  324MPD2    C1 4864   1.558   2.889  14.541  0.1771 -0.1893  0.1601
  324MPD2    C2 4865   1.494   2.949  14.439  0.1951  0.4443  0.3831
  324MPD2    C3 4866   1.369   2.900  14.393 -0.1174 -0.4194  0.3362
  324MPD2    C4 4867   1.316   2.791  14.458  0.2698  0.2257 -0.2956
  324MPD2    C5 4868   1.386   2.739  14.568 -0.4978 -0.5165  0.0488
  324MPD2     H 4869   1.542   3.031  14.387  3.5925 -1.1499  1.0645
  324MPD2    H1 4870   1.216   2.764  14.428 -0.0800 -1.6812  2.6228
  324MPD2    H2 4871   1.544   2.738  14.690 -1.5629  0.8106  1.4551
  324MPD2    H3 4872   1.334   2.670  14.633 -0.5210  1.5206  2.1837
  324MPD2     N 4873   1.298   2.943  14.278 -0.1231 -0.4142  0.1946
  324MPD2    H5 4874   1.210   2.896  14.261  0.2583 -0.6841 -1.0940
  324MPD2    N1 4875   1.694   2.931  14.574 -0.3924 -0.1976 -0.3415
  324MPD2    H7 4876   1.721   3.013  14.521  0.3392  0.5763  1.2273
  325TMC3    C1 4877   1.242   3.068  14.087  0.0600 -0.2701 -0.0206
  325TMC3    C2 4878   1.181   2.960  14.034  0.1396 -0.6526 -0.1707
  325TMC3    C3 4879   1.095   2.983  13.932 -0.8976  1.1251  0.3136
  325TMC3    C4 4880   1.252   3.189  14.029  0.1926  0.1057 -0.4644
  325TMC3    C5 4881   1.179   3.198  13.905  0.4314  0.0158  0.3147
  325TMC3    C6 4882   1.093   3.100  13.862 -0.9006  0.3889 -0.2904
  325TMC3     C 4883   1.325   3.054  14.202 -0.3254  0.4776  0.2522
  325TMC3     O 4884   1.420   3.130  14.217  0.1438  0.9153  0.2363
  325TMC3     H 4885   1.191   2.860  14.074  0.0675 -1.6070 -2.5277
  325TMC3    H1 4886   1.324   3.265  14.054 -1.2925  0.8025  1.7061
  325TMC3    H2 4887   1.039   3.107  13.769 -0.2180 -1.1954 -0.8023
  325TMC3    C7 4888   1.099   3.323  13.891 -0.2102  0.0094 -0.3839
  325TMC3    C8 4889   0.999   2.874  13.910  0.1441 -0.4645 -0.3557
  325TMC3    O1 4890   1.063   3.356  13.776 -0.3726 -0.4904  0.2519
  325TMC3    O2 4891   0.997   2.769  13.970  0.4001  0.2882  0.5321
  326MPD2     C 4892   3.519   3.849  10.898  0.1456 -0.4810  0.2171
  326MPD2    C1 4893   3.500   3.887  10.762  0.3761  1.3395  0.2424
  326MPD2    C2 4894   3.587   3.980  10.712 -0.6699 -0.9151 -0.0716
  326MPD2    C3 4895   3.700   4.027  10.770 -0.5245 -0.4114  0.5439
  326MPD2    C4 4896   3.723   3.984  10.895 -0.3135 -0.4416  0.7153
  326MPD2    C5 4897   3.630   3.900  10.956 -0.0880  0.2131  0.0190
  326MPD2     H 4898   3.551   4.022  10.619  0.2814  3.1535  1.3998
  326MPD2    H1 4899   3.796   4.023  10.965 -0.2330 -0.1038  0.4411
  326MPD2    H2 4900   3.457   3.777  10.950 -0.3964 -0.3886 -0.2980
  326MPD2    H3 4901   3.648   3.876  11.060  0.4155 -1.7241 -0.5291
  326MPD2     N 4902   3.762   4.137  10.715  0.8357 -0.8979  0.0314
  326MPD2    H5 4903   3.712   4.182  10.638 -0.3393 -1.0483  0.7079
  326MPD2    N1 4904   3.401   3.829  10.674 -0.0053  0.5114  0.5950
  326MPD2    H7 4905   3.410   3.860  10.578 -1.3658  1.9552  0.9343
  327TMC3    C1 4906   3.216   3.691  10.597  0.1265  0.6356 -0.4378
  327TMC3    C2 4907   3.220   3.752  10.477  0.4800 -0.6111  0.6132
  327TMC3    C3 4908   3.166   3.685  10.368 -0.9828 -0.8675  0.0575
  327TMC3    C4 4909   3.172   3.560  10.607 -0.3139  0.2153 -0.1038
  327TMC3    C5 4910   3.115   3.497  10.492  0.0110  0.8289 -0.1365
  327TMC3    C6 4911   3.105   3.559  10.375 -0.4675  0.0149  0.2534
  327TMC3     C 4912   3.314   3.730  10.705  0.2126  0.1842 -0.3582
  327TMC3     O 4913   3.301   3.658  10.804  0.1178  0.0617  0.4907
  327TMC3     H 4914   3.257   3.853  10.462 -1.5148  0.2998  1.8435
  327TMC3    H1 4915   3.184   3.518  10.705 -0.4377  0.0181 -0.1746
  327TMC3    H2 4916   3.061   3.505  10.292 -0.3744  2.9024 -1.6702
  327TMC3    C7 4917   3.050   3.361  10.501 -0.3601 -0.1434 -0.0993
  327TMC3    C8 4918   3.153   3.769  10.248  0.1521 -0.0832 -0.6176
  327TMC3    O1 4919   3.004   3.300  10.408 -0.1396 -0.0620  0.4760
  327TMC3    O2 4920   3.235   3.858  10.232  0.2842  0.1681 -0.1449
  328MPD2     C 4921   0.423   4.081  17.682  0.0329 -0.2228  0.4457
  328MPD2    C1 4922   0.327   3.991   0.018  0.2543 -0.6586  0.0355
  328MPD2    C2 4923   0.255   3.917  17.615 -0.8335  0.6011  0.3952
  328MPD2    C3 4924   0.294   3.939  17.483 -0.0597 -0.2085 -0.1541
  328MPD2    C4 4925   0.394   4.020  17.455 -0.3244  0.3104 -0.6359
  328MPD2    C5 4926   0.463   4.092  17.553 -0.1212 -0.0976 -0.4509
  328MPD2     H 4927   0.181   3.844  17.645 -1.1833  0.7904  0.0094
  328MPD2    H1 4928   0.440   4.033  17.358  2.1875  2.3078  0.8015
  328MPD2    H2 4929   0.481   4.132   0.067  1.0962 -1.1470  0.2606
  328MPD2    H3 4930   0.552   4.146  17.520  0.3100  0.2860  1.3252
  328MPD2     N 4931   0.240   3.871  17.376  0.3202  0.3820  0.3985
  328MPD2    H5 4932   0.288   3.876  17.287 -1.3975  2.5953 -0.4038
  328MPD2    N1 4933   0.301   3.972   0.154 -0.1303 -0.0956  0.3854
  328MPD2    H7 4934   0.341   4.036   0.221  0.8129 -0.2948  0.0045
  329TMC3    C1 4935   0.231   3.887   0.347 -0.6031  0.0188  0.5295
  329TMC3    C2 4936   0.210   4.015   0.403 -0.1866  0.1631  0.7357
  329TMC3    C3 4937   0.240   4.014   0.534  0.7728  0.4347 -0.0374
  329TMC3    C4 4938   0.253   3.770   0.411  0.3268 -0.1844 -0.3474
  329TMC3    C5 4939   0.282   3.778   0.543  0.0637  0.1940  0.2823
  329TMC3    C6 4940   0.278   3.902   0.606  0.7200  0.4095  0.4229
  329TMC3     C 4941   0.222   3.882   0.209 -0.1028  0.8619  0.6598
  329TMC3     O 4942   0.180   3.777   0.161  0.4957  0.1397 -0.3167
  329TMC3     H 4943   0.184   4.098   0.338  2.2332  1.4680  1.4416
  329TMC3    H1 4944   0.238   3.675   0.361 -0.1926 -0.7468  0.8785
  329TMC3    H2 4945   0.304   3.911   0.711 -0.4680 -0.1430  0.7636
  329TMC3    C7 4946   0.326   3.664   0.622 -0.4268  0.0874 -0.0315
  329TMC3    C8 4947   0.199   4.121   0.623 -0.4828 -0.3624 -0.0978
  329TMC3    O1 4948   0.335   3.676   0.742 -0.8848  0.1300  0.3318
  329TMC3    O2 4949   0.248   4.124   0.736 -0.1116 -0.8349 -0.3282
  330TMC3    C1 4950   3.614   2.548  10.372  0.1116  0.7528  0.5845
  330TMC3    C2 4951   3.492   2.494  10.348 -0.2011 -0.9237  0.3435
  330TMC3    C3 4952   3.451   2.386  10.420  0.9635  0.5080 -0.2246
  330TMC3    C4 4953   3.693   2.499  10.472 -0.2199 -0.3333  0.5265
  330TMC3    C5 4954   3.647   2.385  10.543  1.0658 -0.5017  0.4085
  330TMC3    C6 4955   3.525   2.328  10.518  0.0765  0.2449 -0.2510
  330TMC3     C 4956   3.634   2.687  10.333 -0.1251  0.2735 -0.4698
  330TMC3     O 4957   3.719   2.745  10.404  0.4187  0.3119 -0.0367
  330TMC3     H 4958   3.433   2.534  10.267  1.5497 -1.6838 -1.3137
  330TMC3    H1 4959   3.795   2.535  10.477 -0.2372  0.0288 -1.7112
  330TMC3    H2 4960   3.492   2.236  10.565 -1.2079  0.0058 -1.5927
  330TMC3    C7 4961   3.723   2.312  10.640 -0.5392  0.1606  0.1486
  330TMC3    C8 4962   3.324   2.321  10.384 -0.3404 -0.2463 -0.3808
  330TMC3    O1 4963   3.667   2.214  10.689  0.1114 -0.2685  0.3703
  330TMC3    O2 4964   3.281   2.337  10.273  0.1095  0.5097  0.1057
  331MPD2     C 4965   0.716   2.033  12.778  0.5604  0.6585 -0.4215
  331MPD2    C1 4966   0.829   2.079  12.707  0.3557  0.0511  0.2553
  331MPD2    C2 4967   0.898   1.991  12.625 -0.6170  0.1627  0.6215
  331MPD2    C3 4968   0.855   1.862  12.606  0.0585 -0.1316 -0.4742
  331MPD2    C4 4969   0.750   1.823  12.691  0.6130  0.1350 -0.6619
  331MPD2    C5 4970   0.674   1.907  12.771  0.0802 -0.4557 -0.0497
  331MPD2     H 4971   0.969   2.035  12.557 -0.8652 -0.3646  0.0205
  331MPD2    H1 4972   0.713   1.721  12.695  1.0513 -0.0445 -1.1746
  331MPD2    H2 4973   0.661   2.094  12.849  0.0326  0.8994 -1.0369
  331MPD2    H3 4974   0.606   1.866  12.845 -1.1450 -2.1462 -2.1068
  331MPD2     N 4975   0.911   1.769  12.514  0.2756 -0.2809 -0.2640
  331MPD2    H5 4976   0.875   1.675  12.511  0.3553 -0.2972 -0.7997
  331MPD2    N1 4977   0.853   2.218  12.702  0.6127  0.3149  0.3264
  331MPD2    H7 4978   0.792   2.283  12.751  2.9150  0.5615  2.8702
  332TMC3    C1 4979   1.051   1.690  12.341  0.1896  0.4244  0.3177
  332TMC3    C2 4980   1.134   1.717  12.238  1.0143 -0.3683  0.0164
  332TMC3    C3 4981   1.186   1.613  12.172  0.3568  0.0622  0.9155
  332TMC3    C4 4982   1.028   1.566  12.384 -0.1735  0.1567 -0.2402
  332TMC3    C5 4983   1.091   1.465  12.321 -0.1477  0.1663  0.0893
  332TMC3    C6 4984   1.159   1.489  12.207  0.1400 -0.4673 -0.4254
  332TMC3     C 4985   1.001   1.805  12.412  0.3449  0.6800  0.0246
  332TMC3     O 4986   1.047   1.913  12.396 -0.0872  0.0352  0.6400
  332TMC3     H 4987   1.144   1.820  12.205 -0.0835 -0.2701  0.0059
  332TMC3    H1 4988   0.976   1.541  12.476 -1.0981  0.3537 -0.7117
  332TMC3    H2 4989   1.195   1.411  12.141  0.8742 -1.3398  1.0166
  332TMC3    C7 4990   1.131   1.353  12.392  1.2317 -0.4046 -0.1507
  332TMC3    C8 4991   1.254   1.636  12.049  0.0006  0.1821  0.2023
  332TMC3    O1 4992   1.061   1.290  12.468  0.1898 -0.5700  0.0361
  332TMC3    O2 4993   1.252   1.552  11.957  0.4301 -0.3426  0.0916
  333MPD2     C 4994   1.388   2.278  11.328 -0.3975 -0.1173  0.0428
  333MPD2    C1 4995   1.408   2.155  11.259 -0.8976 -0.0527  0.5680
  333MPD2    C2 4996   1.360   2.038  11.314 -0.8900  0.0930  0.1471
  333MPD2    C3 4997   1.283   2.034  11.429  0.3657  0.1263 -0.1318
  333MPD2    C4 4998   1.259   2.154  11.492  0.3718  0.0580  0.1452
  333MPD2    C5 4999   1.319   2.265  11.445  0.1309  0.8076 -0.7016
  333MPD2     H 5000   1.378   1.937  11.277  0.9350  0.1636  0.8213
  333MPD2    H1 5001   1.208   2.162  11.587 -0.0126 -1.0111  0.0288
  333MPD2    H2 5002   1.429   2.375  11.300  1.0862 -0.9696 -0.6925
  333MPD2    H3 5003   1.313   2.350  11.513 -1.5979 -2.0777  2.7604
  333MPD2     N 5004   1.234   1.911  11.479  0.1666 -0.0866 -0.0172
  333MPD2    H5 5005   1.257   1.823  11.434  2.4046  1.1050 -1.1848
  333MPD2    N1 5006   1.486   2.151  11.141  0.1053 -0.1652  0.2510
  333MPD2    H7 5007   1.516   2.058  11.115 -0.5237 -0.2131 -0.3044
  334TMC3    C1 5008   1.601   2.248  10.958 -0.0990  0.2285 -0.4911
  334TMC3    C2 5009   1.699   2.160  10.974 -0.3517 -0.2168  0.0105
  334TMC3    C3 5010   1.808   2.182  10.896 -0.2254  0.2467  0.6891
  334TMC3    C4 5011   1.591   2.345  10.866  0.3796  0.7460 -0.1187
  334TMC3    C5 5012   1.705   2.365  10.793 -0.0940  0.6667 -0.3400
  334TMC3    C6 5013   1.813   2.283  10.806 -0.2396  0.5554  0.1170
  334TMC3     C 5014   1.508   2.264  11.061  0.4306  0.1213 -0.3263
  334TMC3     O 5015   1.467   2.376  11.078  0.1209 -0.0418  0.1060
  334TMC3     H 5016   1.703   2.083  11.051  1.8930  1.1250  1.2228
  334TMC3    H1 5017   1.499   2.402  10.861 -0.6706 -0.8631  0.7427
  334TMC3    H2 5018   1.903   2.303  10.749 -0.2374 -1.3172 -0.5301
  334TMC3    C7 5019   1.736   2.509  10.763  0.7440 -0.2495 -0.3847
  334TMC3    C8 5020   1.927   2.104  10.919 -0.0383  0.4087 -0.2664
  334TMC3    O1 5021   1.849   2.549  10.767 -0.4592 -0.2841 -0.4724
  334TMC3    O2 5022   1.914   2.006  10.998 -0.0727 -0.7162 -0.3662
  335TMC3    C1 5023   1.038   3.357  17.622 -0.4870  0.1254  0.1365
  335TMC3    C2 5024   0.987   3.311  17.505  0.0058 -0.0441  0.1243
  335TMC3    C3 5025   1.062   3.308  17.390  0.0653  0.1205  0.0180
  335TMC3    C4 5026   1.158   3.425  17.616 -0.7785  0.5710  0.3407
  335TMC3    C5 5027   1.229   3.429  17.497  0.6152 -0.7557 -0.1358
  335TMC3    C6 5028   1.181   3.371  17.387 -0.3717  0.7375 -0.3205
  335TMC3     C 5029   0.952   3.344   0.046 -0.3591 -0.2212 -0.2274
  335TMC3     O 5030   0.871   3.253   0.049 -0.2362  0.9560 -0.3974
  335TMC3     H 5031   0.891   3.261  17.500 -0.8466  1.5702  0.4670
  335TMC3    H1 5032   1.194   3.467   0.018 -1.6160 -0.0648  0.9542
  335TMC3    H2 5033   1.242   3.379  17.298 -1.6118  0.0786 -1.2283
  335TMC3    C7 5034   1.373   3.448  17.495  0.1358 -0.0281  0.5783
  335TMC3    C8 5035   1.007   3.235  17.275  0.8522  0.1889  0.2520
  335TMC3    O1 5036   1.436   3.454  17.387  0.0613  0.1265 -0.4393
  335TMC3    O2 5037   1.054   3.260  17.167 -0.4819 -0.7400  0.2052
  336MPD2     C 5038   0.969   1.476  16.052  0.7034  0.2695 -0.3936
  336MPD2    C1 5039   0.903   1.404  15.954  0.3856 -0.1183  0.2504
  336MPD2    C2 5040   0.907   1.267  15.968  0.1971 -0.4134  0.5191
  336MPD2    C3 5041   0.966   1.203  16.073  0.3121  0.3579 -0.2525
  336MPD2    C4 5042   1.032   1.283  16.167 -0.4720  0.1231  0.1657
  336MPD2    C5 5043   1.029   1.417  16.160 -0.1380 -0.2914  0.2722
  336MPD2     H 5044   0.855   1.210  15.892 -2.2411  1.1711  1.0065
  336MPD2    H1 5045   1.080   1.234  16.251 -3.0076 -1.7819  0.5296
  336MPD2    H2 5046   0.963   1.585  16.053  1.1247  0.2717  1.9781
  336MPD2    H3 5047   1.061   1.470  16.249 -0.1237 -0.7905  0.5639
  336MPD2     N 5048   0.975   1.069  16.074 -0.5005 -0.5636  0.2660
  336MPD2    H5 5049   1.005   1.015  16.154  0.6950  0.2660  0.3856
  336MPD2    N1 5050   0.840   1.470  15.845 -0.2997  0.5112  0.0574
  336MPD2    H7 5051   0.778   1.406  15.794 -1.6151  0.9287  1.1358
  337TMC3    C1 5052   0.778   1.636  15.694  0.1848 -0.1180  0.4122
  337TMC3    C2 5053   0.671   1.560  15.658  0.7673 -0.0116  0.6909
  337TMC3    C3 5054   0.600   1.610  15.549 -1.1208 -0.0773  0.4612
  337TMC3    C4 5055   0.815   1.747  15.627 -0.6924 -0.4008  0.5473
  337TMC3    C5 5056   0.746   1.788  15.518  1.0608  0.1613  0.6057
  337TMC3    C6 5057   0.633   1.722  15.472 -0.3527  0.2641  0.1117
  337TMC3     C 5058   0.866   1.594  15.799  0.0626 -0.3641  0.9131
  337TMC3     O 5059   0.953   1.674  15.836  0.3260  0.6632  0.3670
  337TMC3     H 5060   0.633   1.474  15.712 -0.0881  0.7780  1.3396
  337TMC3    H1 5061   0.891   1.813  15.667 -1.1612  0.1988  0.4454
  337TMC3    H2 5062   0.572   1.762  15.391 -0.4079 -0.1462 -0.0464
  337TMC3    C7 5063   0.782   1.925  15.475  0.1758 -0.4862 -0.3603
  337TMC3    C8 5064   0.462   1.573  15.540  0.1142  0.0985 -0.0238
  337TMC3    O1 5065   0.863   1.995  15.537 -0.1545 -0.2078 -0.1686
  337TMC3    O2 5066   0.422   1.503  15.629 -0.3262  0.1874 -0.1666
  338MPD2     C 5067   0.930   0.900   0.699  0.0487 -0.6508  0.0908
  338MPD2    C1 5068   0.928   0.917   0.568  0.6507 -0.6696 -0.0426
  338MPD2    C2 5069   0.815   0.967   0.514 -0.0541  0.7447  0.6688
  338MPD2    C3 5070   0.699   0.990   0.586  0.0497 -0.1504 -0.6246
  338MPD2    C4 5071   0.698   0.969   0.722  0.7912 -0.4701  0.1800
  338MPD2    C5 5072   0.818   0.927   0.778  0.2595 -0.9211  0.1120
  338MPD2     H 5073   0.809   0.987   0.407 -1.3896 -0.2928  0.5662
  338MPD2    H1 5074   0.618   0.984   0.794  0.8215  0.7273 -0.0380
  338MPD2    H2 5075   1.012   0.853   0.753 -0.1875 -1.4740 -0.2605
  338MPD2    H3 5076   0.814   0.895   0.881  0.5686  1.7881  0.9579
  338MPD2     N 5077   0.580   1.020   0.510 -0.5243 -0.4238 -0.0252
  338MPD2    H5 5078   0.594   1.025   0.409 -1.4027  0.5567 -0.1008
  338MPD2    N1 5079   1.032   0.879   0.486  0.0632  0.4393 -0.4541
  338MPD2    H7 5080   1.008   0.873   0.387  2.2295  0.4473 -0.9982
  339TMC3    C1 5081   0.351   1.018   0.468 -0.6559  0.2245 -0.4701
  339TMC3    C2 5082   0.295   0.894   0.491 -0.1785 -0.4030  0.0986
  339TMC3    C3 5083   0.295   0.807   0.381  0.4732  0.3356 -0.1044
  339TMC3    C4 5084   0.391   1.048   0.342  0.4434 -0.1929  0.4430
  339TMC3    C5 5085   0.375   0.966   0.238  0.2886  0.0268 -0.5423
  339TMC3    C6 5086   0.333   0.837   0.252 -0.2609 -0.2965  0.5482
  339TMC3     C 5087   0.460   1.043   0.563 -0.6688 -0.3403  0.3428
  339TMC3     O 5088   0.427   1.038   0.680  0.4305 -0.6281 -0.1372
  339TMC3     H 5089   0.273   0.873   0.595 -0.5017 -1.2926 -0.1494
  339TMC3    H1 5090   0.440   1.144   0.329  2.8751 -1.1634  2.4373
  339TMC3    H2 5091   0.350   0.754   0.184 -0.1207  0.1027  0.1016
  339TMC3    C7 5092   0.481   0.982   0.140 -0.1687  0.5983  0.1265
  339TMC3    C8 5093   0.337   0.673   0.415  0.3574 -0.5082 -0.7984
  339TMC3    O1 5094   0.576   1.027   0.197 -1.1291 -0.3485 -0.0327
  339TMC3    O2 5095   0.415   0.612   0.338  0.1222 -0.2095 -0.2655
  340MPD2     C 5096   2.020   0.020   9.537 -0.0949  0.7075 -0.3357
  340MPD2    C1 5097   2.050   4.652   9.638 -0.0504 -0.0487 -0.3497
  340MPD2    C2 5098   2.137   4.686   9.738  0.7016  0.5990  0.2435
  340MPD2    C3 5099   2.196   0.092   9.741  0.4871 -0.1335 -0.2712
  340MPD2    C4 5100   2.152   0.189   9.650  0.2770 -0.4955 -0.1279
  340MPD2    C5 5101   2.066   0.150   9.550 -0.5714 -0.5890 -0.1736
  340MPD2     H 5102   2.176   4.610   9.805 -0.8266 -1.0253 -0.7293
  340MPD2    H1 5103   2.200   0.286   9.653 -0.2353 -0.2374 -0.3811
  340MPD2    H2 5104   1.947   4.714   9.462 -0.1600  0.3523 -0.1383
  340MPD2    H3 5105   2.045   0.233   9.483  0.3154 -0.2063  0.0139
  340MPD2     N 5106   2.293   0.138   9.836  0.4075 -0.5182 -0.1339
  340MPD2    H5 5107   2.317   0.235   9.821  0.2051 -0.7500 -2.0600
  340MPD2    N1 5108   2.004   4.517   9.620  0.4860 -0.2066  0.2521
  340MPD2    H7 5109   1.956   4.507   9.532  0.3004 -0.0826  0.3406
  341TMC3    C1 5110   1.958   4.290   9.666  0.4240  0.4949  0.1327
  341TMC3    C2 5111   1.892   4.201   9.747 -0.2705 -0.2200  0.2322
  341TMC3    C3 5112   1.850   4.080   9.698 -0.3509 -0.0921 -0.1640
  341TMC3    C4 5113   1.986   4.257   9.535  0.7817 -0.2278  0.1204
  341TMC3    C5 5114   1.959   4.128   9.496 -0.3544  0.6611  0.3865
  341TMC3    C6 5115   1.891   4.036   9.574 -0.1492 -0.4244 -0.0937
  341TMC3     C 5116   1.994   4.420   9.719 -0.1758 -0.3999  0.5069
  341TMC3     O 5117   2.014   4.432   9.840 -0.4360  0.2119  0.3380
  341TMC3     H 5118   1.868   4.225   9.850  2.2719  1.1384  0.5068
  341TMC3    H1 5119   2.044   4.316   9.465 -1.1269 -0.1569 -1.4248
  341TMC3    H2 5120   1.855   3.943   9.531  1.0274 -0.3744 -1.2109
  341TMC3    C7 5121   2.002   4.074   9.368  0.2832 -0.0625 -0.7009
  341TMC3    C8 5122   1.765   3.978   9.769  0.8108  0.2825  0.2112
  341TMC3    O1 5123   1.990   3.953   9.361 -0.6164 -0.0378 -0.2952
  341TMC3    O2 5124   1.757   3.860   9.736  0.1913 -0.1016 -0.0332
  342MPD2     C 5125   3.777   1.708  17.537 -0.2287 -0.3546 -0.6662
  342MPD2    C1 5126   3.880   1.734  17.452  0.3144  0.0536 -0.8125
  342MPD2    C2 5127   3.914   1.867  17.425 -0.2148  0.1862 -0.5304
  342MPD2    C3 5128   3.826   1.970  17.455  0.2162  0.6186  0.0294
  342MPD2    C4 5129   3.709   1.938  17.522  0.8353 -0.4371 -0.2364
  342MPD2    C5 5130   3.694   1.806  17.571 -0.7599  0.1380  0.5779
  342MPD2     H 5131   4.005   1.895  17.374 -0.0773 -0.4666 -0.6375
  342MPD2    H1 5132   3.632   2.009  17.550  1.4253 -0.8606  2.4241
  342MPD2    H2 5133   3.752   1.608  17.569 -0.0175 -0.2684 -0.2257
  342MPD2    H3 5134   3.610   1.788  17.638 -1.7332 -1.0889 -0.9685
  342MPD2     N 5135   3.862   2.103  17.433 -0.7207 -0.1735 -0.0067
  342MPD2    H5 5136   3.952   2.117  17.387 -1.1879 -0.8750 -1.1030
  342MPD2    N1 5137   3.966   1.636  17.389  0.4525  0.1004  1.0086
  342MPD2    H7 5138   4.029   1.668  17.316  2.6411 -1.0552  2.3646
  343TMC3    C1 5139   4.031   1.416  17.336  0.2477  0.0230 -1.1213
  343TMC3    C2 5140   4.151   1.464  17.316  0.6272 -0.0917  0.1651
  343TMC3    C3 5141   4.242   1.363  17.305 -0.6442  0.2034 -0.5642
  343TMC3    C4 5142   3.993   1.284  17.335 -0.2533 -0.4367 -0.7627
  343TMC3    C5 5143   4.085   1.189  17.300  0.4363  0.4669 -0.6335
  343TMC3    C6 5144   4.212   1.232  17.304 -0.1606  0.2026  0.0031
  343TMC3     C 5145   3.956   1.500  17.423 -1.0291 -0.0552 -0.2742
  343TMC3     O 5146   3.891   1.447  17.510  0.0599 -0.6203 -0.0571
  343TMC3     H 5147   4.186   1.561  17.348  0.4610 -0.3464  1.1170
  343TMC3    H1 5148   3.890   1.254  17.351 -0.4199  1.1316  1.0634
  343TMC3    H2 5149   4.290   1.156  17.303  2.0286  2.4861 -0.8086
  343TMC3    C7 5150   4.059   1.069  17.378  0.1604 -0.7098  0.4100
  343TMC3    C8 5151   4.376   1.403  17.291  0.8924  0.6239  0.0853
  343TMC3    O1 5152   4.090   0.957  17.340 -0.4638 -0.5868 -0.0503
  343TMC3    O2 5153   4.415   1.510  17.338  0.0771  0.1003  0.3685
  344MPD2     C 5154   0.654   1.743  10.849 -0.7831  0.3571 -0.7052
  344MPD2    C1 5155   0.566   1.718  10.744  1.2452  0.2306 -0.0632
  344MPD2    C2 5156   0.586   1.783  10.625  0.0292 -0.1054  0.2865
  344MPD2    C3 5157   0.698   1.865  10.600  0.4786  0.4110  0.9728
  344MPD2    C4 5158   0.784   1.877  10.702 -0.6685 -0.5337  0.1452
  344MPD2    C5 5159   0.760   1.823  10.823  0.6314  0.5027  0.1079
  344MPD2     H 5160   0.508   1.765  10.553  1.4084 -0.5433 -1.1028
  344MPD2    H1 5161   0.875   1.935  10.688 -1.3689  0.0910 -1.7251
  344MPD2    H2 5162   0.637   1.706  10.950  1.9465  0.3374 -0.2520
  344MPD2    H3 5163   0.832   1.842  10.901  0.8198 -1.4777  0.4227
  344MPD2     N 5164   0.724   1.936  10.477 -0.0576  0.0919 -0.9001
  344MPD2    H5 5165   0.814   1.982  10.465 -1.0733  2.2639 -0.2962
  344MPD2    N1 5166   0.446   1.644  10.761 -0.3140  0.6974  0.1006
  344MPD2    H7 5167   0.384   1.638  10.681  0.5862  1.8340 -0.6853
  345TMC3    C1 5168   0.660   2.027  10.270  0.4786 -0.4404 -0.1830
  345TMC3    C2 5169   0.789   2.081  10.262 -0.0172 -0.5365 -1.0811
  345TMC3    C3 5170   0.827   2.161  10.166  0.7778  0.2083 -0.9096
  345TMC3    C4 5171   0.565   2.073  10.182 -0.1156 -0.8257  0.1285
  345TMC3    C5 5172   0.611   2.154  10.078  0.6399  0.1413 -0.1274
  345TMC3    C6 5173   0.737   2.200  10.075 -0.0917 -0.5284 -0.6187
  345TMC3     C 5174   0.626   1.940  10.377 -0.1795 -0.6970  0.0444
  345TMC3     O 5175   0.512   1.901  10.374 -0.1512  0.1668  0.4451
  345TMC3     H 5176   0.865   2.067  10.339  0.1266 -0.5167 -1.2195
  345TMC3    H1 5177   0.460   2.048  10.188 -0.1435 -0.6255  0.4502
  345TMC3    H2 5178   0.776   2.264   9.997 -1.1914  0.5031 -0.3171
  345TMC3    C7 5179   0.512   2.241  10.016 -0.3875  0.3511  0.6235
  345TMC3    C8 5180   0.932   2.261  10.201  0.9969  0.0442 -0.8217
  345TMC3    O1 5181   0.535   2.360  10.009 -0.3931 -0.3924  0.4710
  345TMC3    O2 5182   1.048   2.222  10.197 -0.5174 -0.0236  0.1206
  346MPD2     C 5183   4.615   3.257  14.414  0.4758 -0.0413  0.1895
  346MPD2    C1 5184   4.718   3.247  14.320  0.1944 -1.1180 -0.7307
  346MPD2    C2 5185   0.128   3.286  14.358  0.6773 -0.7097 -0.0180
  346MPD2    C3 5186   0.158   3.339  14.482 -0.2489  0.7927 -0.2224
  346MPD2    C4 5187   0.052   3.347  14.569  0.3809 -0.0679  0.2515
  346MPD2    C5 5188   4.649   3.309  14.535  0.4384 -0.3092  0.4109
  346MPD2     H 5189   0.209   3.271  14.288 -0.5837  0.1522 -1.6500
  346MPD2    H1 5190   0.059   3.396  14.665 -2.0896  0.1976  0.2905
  346MPD2    H2 5191   4.508   3.235  14.409  0.4224 -0.3774  2.6677
  346MPD2    H3 5192   4.566   3.312  14.605 -0.8372 -2.2174 -1.0238
  346MPD2     N 5193   0.284   3.376  14.512 -0.2195  0.4687 -0.2555
  346MPD2    H5 5194   0.344   3.362  14.431  0.9052 -0.2983  0.6897
  346MPD2    N1 5195   4.694   3.213  14.182  0.1019  0.7148  0.5908
  346MPD2    H7 5196   0.055   3.206  14.124 -1.2509  1.2006 -1.4158
  347TMC3    C1 5197   0.472   3.382  14.652 -0.0471  0.5211 -0.2705
  347TMC3    C2 5198   0.548   3.416  14.542 -0.6699 -0.1741 -0.2701
  347TMC3    C3 5199   0.684   3.409  14.551 -0.1981  0.0912  0.4288
  347TMC3    C4 5200   0.530   3.346  14.775 -0.3741 -0.3250 -0.4155
  347TMC3    C5 5201   0.669   3.353  14.779 -0.4633 -0.4025 -0.4841
  347TMC3    C6 5202   0.746   3.389  14.676  0.2366  0.2128  0.3694
  347TMC3     C 5203   0.327   3.381  14.642  0.1286  0.3763 -0.0062
  347TMC3     O 5204   0.267   3.372  14.749 -0.2789  0.5308 -0.2689
  347TMC3     H 5205   0.505   3.437  14.444 -1.8658 -1.4804 -0.0202
  347TMC3    H1 5206   0.476   3.314  14.863 -1.7619  2.2944 -0.3242
  347TMC3    H2 5207   0.854   3.389  14.686  0.1818  1.1551  0.9809
  347TMC3    C7 5208   0.729   3.320  14.907 -0.4526 -0.2699  0.8511
  347TMC3    C8 5209   0.772   3.421  14.436  0.3585 -0.2490 -0.1691
  347TMC3    O1 5210   0.679   3.235  14.978 -0.2823  0.0658 -0.3589
  347TMC3    O2 5211   0.877   3.356  14.447 -0.0298  0.4688  0.0960
  348MPD2     C 5212   3.292   2.260  11.898 -0.4122  0.1242  0.1232
  348MPD2    C1 5213   3.333   2.386  11.941  0.1700  1.3059  0.0939
  348MPD2    C2 5214   3.301   2.496  11.862  0.8023  0.1960 -0.0460
  348MPD2    C3 5215   3.214   2.482  11.755 -0.8273  0.0460 -0.3236
  348MPD2    C4 5216   3.167   2.357  11.722  0.2544  0.7918  0.2049
  348MPD2    C5 5217   3.201   2.252  11.799 -0.3933 -0.1364  0.5420
  348MPD2     H 5218   3.351   2.591  11.878 -0.1013  0.7019 -0.1667
  348MPD2    H1 5219   3.099   2.337  11.639  2.6406  1.7179 -1.9757
  348MPD2    H2 5220   3.318   2.168  11.949  0.2117  0.4169  0.3340
  348MPD2    H3 5221   3.163   2.156  11.765  0.2006  0.4670 -1.8490
  348MPD2     N 5222   3.186   2.598  11.678  0.2456 -0.5271 -0.4956
  348MPD2    H5 5223   3.214   2.691  11.706 -0.4078 -0.7987  1.0251
  348MPD2    N1 5224   3.421   2.409  12.053  0.1670  0.0546 -0.7530
  348MPD2    H7 5225   3.452   2.504  12.073  1.2779 -0.3884 -0.3949
  349TMC3    C1 5226   3.596   2.351  12.200 -0.0526  0.3326  0.4496
  349TMC3    C2 5227   3.649   2.246  12.273 -0.0327  0.0453  0.8186
  349TMC3    C3 5228   3.786   2.235  12.275  0.1271 -0.0994  0.3056
  349TMC3    C4 5229   3.672   2.462  12.172 -1.0348 -0.4789 -0.1070
  349TMC3    C5 5230   3.804   2.457  12.198  0.3500  0.4537 -0.1461
  349TMC3    C6 5231   3.870   2.342  12.239 -0.0325 -0.1231  0.1398
  349TMC3     C 5232   3.477   2.310  12.131  0.2433  0.3559  0.0601
  349TMC3     O 5233   3.459   2.191  12.119 -0.0771 -0.6190  0.6368
  349TMC3     H 5234   3.583   2.167  12.308 -0.1989  0.1992  0.8515
  349TMC3    H1 5235   3.630   2.548  12.121 -0.2450 -0.3408 -0.5293
  349TMC3    H2 5236   3.978   2.345  12.244 -0.1725  3.4038  0.9868
  349TMC3    C7 5237   3.872   2.550  12.114  0.2580  0.3687 -0.1788
  349TMC3    C8 5238   3.828   2.116  12.335  0.2436  0.6032  0.2852
  349TMC3    O1 5239   3.912   2.507  12.003 -0.8147  0.0918 -0.2575
  349TMC3    O2 5240   3.753   2.056  12.404  0.2123  0.3449  0.3669
  350MPD2     C 5241   2.924   0.739   9.635  0.5389  0.5924  0.0343
  350MPD2    C1 5242   3.046   0.745   9.694  0.8673  0.5882 -0.1072
  350MPD2    C2 5243   3.056   0.765   9.825  1.0702 -0.3861  0.2880
  350MPD2    C3 5244   2.941   0.769   9.903 -0.1763 -0.1324  0.8052
  350MPD2    C4 5245   2.819   0.759   9.848 -0.0366  0.0138  0.5490
  350MPD2    C5 5246   2.813   0.754   9.712  0.0402  0.4535 -0.2896
  350MPD2     H 5247   3.150   0.750   9.875 -0.1245  0.2643  2.7207
  350MPD2    H1 5248   2.726   0.758   9.905 -0.4140 -0.0806 -0.0648
  350MPD2    H2 5249   2.912   0.737   9.527  0.2260  2.9245  0.0230
  350MPD2    H3 5250   2.716   0.764   9.664 -0.3098 -0.1000  0.3216
  350MPD2     N 5251   2.959   0.776  10.046 -0.1907  0.3190 -0.1375
  350MPD2    H5 5252   3.055   0.776  10.079 -1.2357 -1.1681  2.8870
  350MPD2    N1 5253   3.163   0.740   9.622 -0.1227  0.1400 -0.3848
  350MPD2    H7 5254   3.246   0.709   9.672 -2.2082 -0.5617  2.6720
  351TMC3    C1 5255   3.302   0.738   9.438 -0.5581  0.0033 -0.7396
  351TMC3    C2 5256   3.356   0.619   9.485 -0.8221 -0.9431  0.2106
  351TMC3    C3 5257   3.476   0.584   9.434 -0.1856 -0.7962  0.3163
  351TMC3    C4 5258   3.348   0.803   9.329  0.3051 -0.1275  0.3857
  351TMC3    C5 5259   3.465   0.756   9.274 -0.3596  0.2097  0.3284
  351TMC3    C6 5260   3.533   0.654   9.337 -0.1537  0.6592 -0.6634
  351TMC3     C 5261   3.171   0.777   9.484  0.1688  0.3422 -0.9236
  351TMC3     O 5262   3.108   0.873   9.438 -0.4472 -0.3364  0.4799
  351TMC3     H 5263   3.287   0.551   9.534  0.1265 -2.9376 -1.2344
  351TMC3    H1 5264   3.307   0.899   9.300 -2.7764 -1.3254  0.7724
  351TMC3    H2 5265   3.635   0.639   9.305  0.3480 -0.6809  1.5864
  351TMC3    C7 5266   3.554   0.866   9.236 -0.2603 -0.2029 -0.8062
  351TMC3    C8 5267   3.547   0.460   9.478 -0.0921 -0.3948 -0.2774
  351TMC3    O1 5268   3.670   0.849   9.264 -0.3225  0.8315 -0.1891
  351TMC3    O2 5269   3.640   0.415   9.413  0.2142 -0.2463  0.0971
  352MPD2     C 5270   1.587   2.502   0.881  0.0940 -0.1878  0.6464
  352MPD2    C1 5271   1.593   2.581   1.000  0.1736  0.4215 -0.2969
  352MPD2    C2 5272   1.707   2.575   1.076  0.4100 -0.4650 -0.0335
  352MPD2    C3 5273   1.813   2.489   1.045 -0.0600  0.5656  0.1234
  352MPD2    C4 5274   1.810   2.423   0.924  0.0913 -0.4188  0.7537
  352MPD2    C5 5275   1.699   2.439   0.841  0.4273  0.3289  0.1401
  352MPD2     H 5276   1.705   2.637   1.166 -0.5984 -1.1819  0.4423
  352MPD2    H1 5277   1.897   2.365   0.896 -0.7851 -0.8877 -1.0169
  352MPD2    H2 5278   1.500   2.509   0.817 -0.6649 -2.7074  1.4198
  352MPD2    H3 5279   1.703   2.376   0.753  1.1618  0.6106 -0.0305
  352MPD2     N 5280   1.928   2.467   1.132 -0.0906 -0.2612 -0.2875
  352MPD2    H5 5281   2.004   2.418   1.086 -0.4975 -1.2340  0.0793
  352MPD2    N1 5282   1.469   2.651   1.028  0.6635  0.0551  0.4898
  352MPD2    H7 5283   1.395   2.645   0.959 -0.4612  0.7223  1.6349
  353TMC3    C1 5284   2.080   2.481   1.322  0.1791 -0.2885  0.7071
  353TMC3    C2 5285   2.145   2.355   1.306 -0.2420  0.4984  0.3411
  353TMC3    C3 5286   2.236   2.318   1.400 -0.3530 -0.1305 -0.0847
  353TMC3    C4 5287   2.117   2.563   1.434 -0.3569 -0.4120  0.6744
  353TMC3    C5 5288   2.207   2.522   1.529 -0.3679 -0.1367 -0.0131
  353TMC3    C6 5289   2.269   2.399   1.503 -0.4445 -0.3394  0.4083
  353TMC3     C 5290   1.948   2.513   1.261 -0.6783  0.2515  0.2263
  353TMC3     O 5291   1.870   2.581   1.321  0.2009 -0.2014 -0.0466
  353TMC3     H 5292   2.117   2.284   1.229 -0.6504  1.6035 -0.5280
  353TMC3    H1 5293   2.056   2.651   1.450  0.0894  0.1206 -0.5405
  353TMC3    H2 5294   2.327   2.352   1.582 -0.7230 -1.3404  0.0112
  353TMC3    C7 5295   2.149   2.507   1.661 -0.0234  0.1724  0.5838
  353TMC3    C8 5296   2.301   2.190   1.389  0.1052  0.5992  0.4030
  353TMC3    O1 5297   2.222   2.476   1.758  0.3098 -0.4391 -0.0418
  353TMC3    O2 5298   2.420   2.187   1.423 -0.5709  0.4109 -0.1356
  354TMC3    C1 5299   2.908   4.166  13.117 -0.2863 -0.4045  0.0278
  354TMC3    C2 5300   2.884   4.286  13.058  0.1135  0.3581  0.6489
  354TMC3    C3 5301   2.940   4.308  12.935  0.6206  0.5708  0.0971
  354TMC3    C4 5302   2.978   4.069  13.059  0.0899  0.0849  0.2915
  354TMC3    C5 5303   3.034   4.091  12.937  0.2721 -0.2374 -0.3987
  354TMC3    C6 5304   3.015   4.211  12.865  0.7303 -0.1613  0.4517
  354TMC3     C 5305   2.851   4.130  13.246 -0.0719  0.4030  0.6455
  354TMC3     O 5306   2.872   4.016  13.285  0.2874 -0.2475  0.0367
  354TMC3     H 5307   2.823   4.359  13.109  1.0326  1.5829 -0.0063
  354TMC3    H1 5308   3.013   3.987  13.121  0.0440 -1.7438 -2.0646
  354TMC3    H2 5309   3.050   4.223  12.763  1.9060  0.1605  0.8966
  354TMC3    C7 5310   3.160   4.024  12.918  0.2878  0.3911  0.6413
  354TMC3    C8 5311   2.903   4.418  12.859  0.4255 -0.0593  0.3417
  354TMC3    O1 5312   3.174   3.918  12.978 -0.3550 -0.2890 -0.3221
  354TMC3    O2 5313   2.922   4.413  12.739 -0.8491  0.2654 -0.0830
  355MPD2     C 5314   3.124   4.556  11.407  0.3528  0.9473  0.0987
  355MPD2    C1 5315   3.167   4.638  11.308  0.2593  0.1923 -0.5420
  355MPD2    C2 5316   3.286   4.703  11.317  1.0159 -0.0264  0.7725
  355MPD2    C3 5317   3.361   4.699  11.436  0.3509 -0.1588  0.2424
  355MPD2    C4 5318   3.327   4.608  11.530  0.7847  0.0730 -0.2061
  355MPD2    C5 5319   3.210   4.535  11.512  0.7822 -0.2834 -0.2042
  355MPD2     H 5320   3.311   0.048  11.235 -3.3790  0.7542  0.0652
  355MPD2    H1 5321   3.383   4.593  11.622 -3.2227 -1.2624  2.0038
  355MPD2    H2 5322   3.024   4.514  11.413  0.3446  0.8344 -0.7574
  355MPD2    H3 5323   3.179   4.472  11.595 -2.3211  0.7271 -0.6284
  355MPD2     N 5324   3.477   0.057  11.461  0.3214 -0.2290 -0.3855
  355MPD2    H5 5325   3.530   0.045  11.546  0.3264  0.0669 -0.3478
  355MPD2    N1 5326   3.063   4.659  11.209 -0.2909 -0.4553  0.3985
  355MPD2    H7 5327   2.996   4.583  11.203 -1.6878  1.0053 -2.3149
  356TMC3    C1 5328   3.618   0.243  11.439  0.1126 -0.1458  0.0246
  356TMC3    C2 5329   3.701   0.318  11.356 -0.2509  0.7327 -0.5361
  356TMC3    C3 5330   3.751   0.429  11.408 -0.1584 -0.3148  0.5428
  356TMC3    C4 5331   3.586   0.276  11.570 -0.4113  0.4829  0.2453
  356TMC3    C5 5332   3.622   0.405  11.598 -0.2012  0.6225 -0.6548
  356TMC3    C6 5333   3.706   0.481  11.524  0.1226 -0.1184  0.3733
  356TMC3     C 5334   3.529   0.150  11.374 -0.4264  0.6527 -0.7416
  356TMC3     O 5335   3.515   0.152  11.252 -0.6486  0.2690 -0.5030
  356TMC3     H 5336   3.723   0.289  11.254  1.1101 -0.8250  0.2004
  356TMC3    H1 5337   3.532   0.209  11.636 -1.7695  0.4319 -0.9248
  356TMC3    H2 5338   3.734   0.582  11.551  1.0199  0.2570 -1.8742
  356TMC3    C7 5339   3.572   0.458  11.729 -0.5304  0.1888 -0.1557
  356TMC3    C8 5340   3.800   0.520  11.311 -0.2612 -0.2107 -0.0007
  356TMC3    O1 5341   3.503   0.377  11.781  0.6613 -0.2765 -0.5485
  356TMC3    O2 5342   3.783   0.491  11.192  0.0095  0.4186  0.1005
  357MPD2     C 5343   3.141   0.404   1.190  0.0910  0.7728  0.4208
  357MPD2    C1 5344   3.047   0.308   1.229 -0.4110 -0.1031 -0.6502
  357MPD2    C2 5345   2.928   0.350   1.291  0.1135 -0.3705 -0.0239
  357MPD2    C3 5346   2.892   0.487   1.302 -0.0777 -0.1906 -0.4172
  357MPD2    C4 5347   2.984   0.576   1.258 -0.3514  0.2312  0.0913
  357MPD2    C5 5348   3.109   0.532   1.214 -0.2668 -0.0889 -0.7440
  357MPD2     H 5349   2.856   0.271   1.314 -1.0885  0.9208  0.6354
  357MPD2    H1 5350   2.961   0.681   1.252  2.4893  0.8592  0.3145
  357MPD2    H2 5351   3.240   0.383   1.152  0.7014  1.4259  1.6666
  357MPD2    H3 5352   3.183   0.602   1.177 -1.0560  0.4863 -1.2229
  357MPD2     N 5353   2.766   0.529   1.346  0.4291  0.3769  0.0665
  357MPD2    H5 5354   2.745   0.628   1.339  2.1887  0.7361 -0.1154
  357MPD2    N1 5355   3.067   0.169   1.215  0.6980 -0.0915  0.4728
  357MPD2    H7 5356   3.151   0.137   1.167 -0.5609  1.5668 -2.8327
  358TMC3    C1 5357   3.014   4.654   1.220  0.6566  0.0487  0.0707
  358TMC3    C2 5358   3.046   4.631   1.083 -0.4273  0.0852 -0.0334
  358TMC3    C3 5359   3.021   4.508   1.030  0.1204 -0.3063 -0.3399
  358TMC3    C4 5360   2.967   4.549   1.297 -0.0026 -0.8507  0.2084
  358TMC3    C5 5361   2.947   4.424   1.243  0.9338 -0.0367  0.7144
  358TMC3    C6 5362   2.967   4.398   1.106 -0.1850 -0.1052  0.0203
  358TMC3     C 5363   2.986   0.070   1.273 -0.1456  0.1621 -0.3008
  358TMC3     O 5364   2.911   0.078   1.368  0.2165 -0.6094  0.5480
  358TMC3     H 5365   3.068   4.710   1.013 -0.4196  0.8728  0.8513
  358TMC3    H1 5366   2.929   4.571   1.397  1.3646 -1.2710  0.8184
  358TMC3    H2 5367   2.963   4.296   1.070 -0.9524  1.0254 -3.0386
  358TMC3    C7 5368   2.927   4.318   1.337  0.4282  0.0544 -1.1266
  358TMC3    C8 5369   2.996   4.503   0.894  0.1663  0.4073  0.7017
  358TMC3    O1 5370   2.977   4.341   1.447  0.2064 -0.4106 -0.1046
  358TMC3    O2 5371   3.071   4.564   0.821 -0.3347  0.0541  0.0556
  359MPD2     C 5372   2.330   3.789  12.436  0.3733  1.1865 -0.3902
  359MPD2    C1 5373   2.381   3.665  12.461  0.0888 -0.6136  0.7546
  359MPD2    C2 5374   2.311   3.561  12.521  0.4136 -0.4999 -0.4207
  359MPD2    C3 5375   2.174   3.584  12.547 -0.0716 -0.0157  0.8327
  359MPD2    C4 5376   2.121   3.710  12.517  0.0501  0.2062  0.5937
  359MPD2    C5 5377   2.196   3.811  12.463 -0.2141 -0.0674 -0.0875
  359MPD2     H 5378   2.365   3.468  12.533  0.9494 -0.1440 -0.1011
  359MPD2    H1 5379   2.015   3.730  12.526  0.4517  3.3681 -1.7778
  359MPD2    H2 5380   2.379   3.862  12.373 -0.2436  0.6770 -1.4679
  359MPD2    H3 5381   2.144   3.900  12.431 -1.4741 -1.3313 -1.5344
  359MPD2     N 5382   2.088   3.480  12.580  0.0910 -0.1968 -1.0440
  359MPD2    H5 5383   1.990   3.492  12.559  0.1970 -0.1704 -1.5352
  359MPD2    N1 5384   2.512   3.635  12.427 -0.0285 -0.3189 -0.6304
  359MPD2    H7 5385   2.539   3.537  12.427 -1.3350 -0.6788 -0.8310
  360TMC3    C1 5386   2.725   3.668  12.330  0.9325  0.0866 -0.2501
  360TMC3    C2 5387   2.844   3.730  12.351 -0.0750  0.2580  0.1996
  360TMC3    C3 5388   2.940   3.692  12.260 -0.1499 -0.1764 -0.8720
  360TMC3    C4 5389   2.707   3.556  12.253 -0.3616  0.1384 -0.0869
  360TMC3    C5 5390   2.808   3.524  12.167  0.2920  0.4517  0.1006
  360TMC3    C6 5391   2.922   3.593  12.166  0.3281  0.4372 -0.5034
  360TMC3     C 5392   2.614   3.728  12.406 -0.0428  0.7931 -0.2081
  360TMC3     O 5393   2.623   3.849  12.428 -0.0169  0.8300  0.4203
  360TMC3     H 5394   2.854   3.826  12.402 -0.9275 -0.1805  1.1790
  360TMC3    H1 5395   2.609   3.510  12.246 -1.0988  1.7348 -0.2837
  360TMC3    H2 5396   2.993   3.575  12.086 -1.2429 -0.4323 -1.6919
  360TMC3    C7 5397   2.761   3.463  12.041 -0.1899  0.0910  0.3938
  360TMC3    C8 5398   3.059   3.776  12.251 -0.7498 -0.1468  0.8996
  360TMC3    O1 5399   2.835   3.374  11.998 -0.2542 -0.2399  0.2863
  360TMC3    O2 5400   3.053   3.886  12.299  0.1110 -0.3329 -0.0794
  361MPD2     C 5401   0.034   1.959  16.876 -0.0965 -0.3117  0.2491
  361MPD2    C1 5402   0.096   2.014  16.986 -0.3344 -0.8415 -0.0335
  361MPD2    C2 5403   0.218   1.968  17.026 -0.5054 -0.1273  0.8490
  361MPD2    C3 5404   0.280   1.865  16.953  0.6214  0.2673 -0.0402
  361MPD2    C4 5405   0.215   1.811  16.838 -0.0330 -0.5468 -0.5744
  361MPD2    C5 5406   0.093   1.862  16.803  0.1316  0.1123 -0.1297
  361MPD2     H 5407   0.277   2.008  17.108 -0.5269  2.1649 -0.2282
  361MPD2    H1 5408   0.265   1.739  16.776 -1.2139 -0.2284 -1.8929
  361MPD2    H2 5409   4.660   1.990  16.837  0.2260  0.7062  0.2628
  361MPD2    H3 5410   0.035   1.817  16.723  0.3639 -0.3132 -0.0540
  361MPD2     N 5411   0.417   1.839  16.981  0.8246  0.1297  0.2479
  361MPD2    H5 5412   0.457   1.771  16.918  4.4410  0.0512  2.6005
  361MPD2    N1 5413   0.041   2.120  17.065  0.2255  0.2557 -0.2789
  361MPD2    H7 5414   0.101   2.145  17.143 -0.2989  1.4359 -0.2569
  362TMC3    C1 5415   4.608   2.291  17.132  0.5283 -0.7557  0.6733
  362TMC3    C2 5416   4.476   2.300  17.166 -0.1734 -0.3234 -0.0596
  362TMC3    C3 5417   4.435   2.430  17.186 -0.3209 -0.1850 -0.1600
  362TMC3    C4 5418   4.695   2.394  17.112  0.3002 -0.4864  0.3797
  362TMC3    C5 5419   4.648   2.518  17.138 -0.0015 -0.3349  0.4140
  362TMC3    C6 5420   4.519   2.539  17.177  0.4152  0.0513  0.1351
  362TMC3     C 5421   4.637   2.176  17.052  0.9278  0.0119  0.4657
  362TMC3     O 5422   4.546   2.136  16.979 -0.4792 -0.2767  0.1111
  362TMC3     H 5423   4.406   2.217  17.167 -0.0799 -0.3210  3.5132
  362TMC3    H1 5424   0.073   2.380  17.073  0.1566  0.4066 -0.3294
  362TMC3    H2 5425   4.490   2.643  17.173 -0.6741 -0.1971  1.3745
  362TMC3    C7 5426   4.693   2.619  17.045  0.1464  0.2410 -0.1808
  362TMC3    C8 5427   4.292   2.443  17.193 -0.1952  0.3463  0.4694
  362TMC3    O1 5428   4.610   2.695  17.000 -0.1034 -0.1906  0.1212
  362TMC3    O2 5429   4.221   2.344  17.172 -0.0676 -0.3412 -0.0802
  363TMC3    C1 5430   3.837   0.708   9.659  0.2694 -0.2501  0.6155
  363TMC3    C2 5431   3.822   0.618   9.758 -0.2855 -0.5358  0.2825
  363TMC3    C3 5432   3.705   0.628   9.834 -0.1746 -0.5092 -0.0019
  363TMC3    C4 5433   3.738   0.800   9.632 -0.1389 -0.2608 -1.2825
  363TMC3    C5 5434   3.625   0.806   9.707 -0.0820  0.3644 -0.0212
  363TMC3    C6 5435   3.601   0.718   9.813  0.2900  0.5875  0.1271
  363TMC3     C 5436   3.958   0.707   9.583  0.2355  0.0604 -0.6432
  363TMC3     O 5437   3.980   0.810   9.522  0.4925  0.3106 -0.3287
  363TMC3     H 5438   3.900   0.549   9.788  1.7353  1.1512 -1.0472
  363TMC3    H1 5439   3.747   0.869   9.548  1.2211  0.4526 -0.5528
  363TMC3    H2 5440   3.517   0.731   9.881 -2.7272  0.3663 -3.5804
  363TMC3    C7 5441   3.523   0.900   9.675 -0.3299 -0.1719  0.2705
  363TMC3    C8 5442   3.668   0.519   9.925  0.3041 -0.5472 -0.4348
  363TMC3    O1 5443   3.405   0.876   9.693  0.8802 -0.5189 -0.1106
  363TMC3    O2 5444   3.561   0.537   9.976  0.1291  0.2745  0.1382
  364MPD2     C 5445   2.892   3.926   9.834 -0.2957  0.2341 -0.6080
  364MPD2    C1 5446   2.966   3.999   9.916 -1.0053 -1.0624 -0.5527
  364MPD2    C2 5447   3.018   3.938  10.034  0.1152 -0.0005 -0.4657
  364MPD2    C3 5448   2.992   3.804  10.068 -0.3500 -0.1269  0.1351
  364MPD2    C4 5449   2.891   3.744   9.992 -0.3465  0.1533  0.5280
  364MPD2    C5 5450   2.840   3.802   9.877  0.0376  0.2671 -0.3820
  364MPD2     H 5451   3.082   3.990  10.104 -0.7171 -0.1444  0.3934
  364MPD2    H1 5452   2.853   3.645  10.011  0.0073  0.5719  3.2965
  364MPD2    H2 5453   2.846   3.977   9.750 -4.2428  1.2454  2.1424
  364MPD2    H3 5454   2.776   3.746   9.809  0.0718  0.1093 -0.2831
  364MPD2     N 5455   3.052   3.730  10.167  0.8296 -0.0860 -0.2667
  364MPD2    H5 5456   3.000   3.649  10.199  1.4605 -0.3473  0.1025
  364MPD2    N1 5457   2.988   4.133   9.889 -0.2371 -0.2932  0.2037
  364MPD2    H7 5458   2.960   4.163   9.797  0.5483  0.1755  0.1134
  365TMC3    C1 5459   3.098   4.346   9.900  0.7497 -0.3336 -0.4350
  365TMC3    C2 5460   3.143   4.344   9.770  0.2106 -0.0700  0.4495
  365TMC3    C3 5461   3.175   4.462   9.716 -0.1266 -0.1418  1.1897
  365TMC3    C4 5462   3.089   4.463   9.976  0.5914 -0.2441  0.7028
  365TMC3    C5 5463   3.137   4.576   9.914  0.3190 -0.4876 -0.0734
  365TMC3    C6 5464   3.188   4.576   9.788  0.3437  0.4245  0.3888
  365TMC3     C 5465   3.055   4.220   9.970  1.2140 -0.6172 -0.1391
  365TMC3     O 5466   3.073   4.226  10.090  0.1678 -0.1275  0.2219
  365TMC3     H 5467   3.151   4.251   9.713  2.1154 -0.8010  1.9210
  365TMC3    H1 5468   3.044   4.463  10.075  1.5655 -1.6478  1.1432
  365TMC3    H2 5469   3.219   4.668   9.739  2.0826 -1.3693 -1.8863
  365TMC3    C7 5470   3.070   4.705   9.955 -0.0812 -0.3810  0.3927
  365TMC3    C8 5471   3.179   4.483   9.576 -0.5945  0.1936 -0.4651
  365TMC3    O1 5472   3.053   0.061   9.862 -0.0592  0.0851  0.1563
  365TMC3    O2 5473   3.177   4.603   9.541 -0.2926  0.4807 -0.1323
  366MPD2     C 5474   0.385   0.654  15.702 -0.3576 -0.0867 -0.1048
  366MPD2    C1 5475   0.371   0.727  15.587  0.2601 -0.5200 -0.0667
  366MPD2    C2 5476   0.401   0.658  15.469 -0.2115 -0.3444  0.3623
  366MPD2    C3 5477   0.445   0.527  15.470 -0.2322 -0.6600  0.1123
  366MPD2    C4 5478   0.451   0.452  15.583  0.0789  0.6283  0.0621
  366MPD2    C5 5479   0.423   0.522  15.704 -0.5515  0.3597 -0.4720
  366MPD2     H 5480   0.417   0.714  15.378 -1.8510  0.4668  0.5695
  366MPD2    H1 5481   0.476   0.346  15.580  3.1932  1.3419  0.9069
  366MPD2    H2 5482   0.369   0.697  15.800 -1.9612  1.3787 -1.0135
  366MPD2    H3 5483   0.437   0.482  15.804 -1.4433  1.1744 -0.0280
  366MPD2     N 5484   0.471   0.466  15.345  0.4396 -0.4148 -0.1389
  366MPD2    H5 5485   0.465   0.534  15.269 -0.6762  0.5279  0.7824
  366MPD2    N1 5486   0.346   0.866  15.598  0.3781  0.0182  0.3587
  366MPD2    H7 5487   0.358   0.914  15.687 -1.1804 -0.1718  0.6649
  367TMC3    C1 5488   0.357   1.082  15.499 -1.1802 -0.2764  0.2944
  367TMC3    C2 5489   0.486   1.109  15.539  0.6155  0.5879 -0.5128
  367TMC3    C3 5490   0.550   1.216  15.489 -0.7242 -0.4394  0.0006
  367TMC3    C4 5491   0.299   1.153  15.396  0.7052  0.4297 -0.3726
  367TMC3    C5 5492   0.376   1.252  15.343  0.4249 -0.1224 -0.5810
  367TMC3    C6 5493   0.497   1.290  15.385 -0.2837 -0.0180  0.6570
  367TMC3     C 5494   0.330   0.939  15.481  0.0900  1.1298  0.7591
  367TMC3     O 5495   0.271   0.916  15.378 -0.0675  0.3932  0.3250
  367TMC3     H 5496   0.548   1.037  15.591 -0.7710  0.0544  0.4020
  367TMC3    H1 5497   0.198   1.126  15.366  0.0806  2.0179  0.3340
  367TMC3    H2 5498   0.554   1.368  15.337 -1.0806 -0.8888 -1.6793
  367TMC3    C7 5499   0.335   1.298  15.212 -0.5749 -0.6405 -0.2523
  367TMC3    C8 5500   0.679   1.241  15.543  0.2779 -0.0977  0.2491
  367TMC3    O1 5501   0.383   1.401  15.172  0.0417 -0.5528  0.0970
  367TMC3    O2 5502   0.691   1.196  15.656 -0.7639 -0.4479  0.3090
  368MPD2     C 5503   1.879   2.489  13.242 -0.1788  0.4368 -0.1742
  368MPD2    C1 5504   1.900   2.525  13.112  0.1605 -0.0866 -0.0217
  368MPD2    C2 5505   2.026   2.511  13.061  0.4851  0.6134 -0.4526
  368MPD2    C3 5506   2.131   2.467  13.139 -0.3008  0.0599 -0.1363
  368MPD2    C4 5507   2.107   2.432  13.272 -0.4072 -0.1600 -0.5667
  368MPD2    C5 5508   1.981   2.466  13.322  0.1829 -0.0306 -0.2974
  368MPD2     H 5509   2.037   2.545  12.959  1.4668 -0.9966 -0.8754
  368MPD2    H1 5510   2.181   2.391  13.340 -1.3087 -1.4294 -0.3403
  368MPD2    H2 5511   1.778   2.497  13.281 -0.2860 -3.0854  0.2277
  368MPD2    H3 5512   1.960   2.447  13.426  0.6739  2.6687  0.2965
  368MPD2     N 5513   2.264   2.439  13.094 -0.0411 -0.3577  0.5037
  368MPD2    H5 5514   2.341   2.400  13.148 -1.2404 -1.6565  1.2663
  368MPD2    N1 5515   1.786   2.576  13.044 -0.1520 -0.7015 -0.3695
  368MPD2    H7 5516   1.702   2.571  13.099  0.8699 -1.2322  1.1468
  369TMC3    C1 5517   1.658   2.694  12.879 -0.2862  0.4139  0.6566
  369TMC3    C2 5518   1.660   2.827  12.863 -0.2609  0.2014 -0.3938
  369TMC3    C3 5519   1.540   2.894  12.853 -0.4363  0.1965  0.1743
  369TMC3    C4 5520   1.546   2.619  12.875 -0.2780  0.7386  0.3812
  369TMC3    C5 5521   1.423   2.683  12.867  0.2995 -0.7730  0.0595
  369TMC3    C6 5522   1.419   2.820  12.860 -0.0217 -0.2681 -0.2695
  369TMC3     C 5523   1.785   2.639  12.916 -0.0808  0.6562 -0.3879
  369TMC3     O 5524   1.881   2.668  12.840 -0.0910  0.1088  0.3562
  369TMC3     H 5525   1.748   2.888  12.878  1.6720 -2.7026  0.1561
  369TMC3    H1 5526   1.537   2.512  12.887 -0.2805  0.4463 -2.1049
  369TMC3    H2 5527   1.326   2.875  12.846 -0.4672 -1.0827 -0.5078
  369TMC3    C7 5528   1.309   2.609  12.925 -1.2152 -0.1716  0.2763
  369TMC3    C8 5529   1.537   3.035  12.827 -0.1041  0.5701 -0.0375
  369TMC3    O1 5530   1.337   2.497  12.958 -0.7069 -0.0437 -0.1924
  369TMC3    O2 5531   1.434   3.079  12.784  0.2019 -0.0022 -0.2155
  370TMC3    C1 5532   1.442   3.063  16.236 -0.8066 -0.6591 -0.0940
  370TMC3    C2 5533   1.333   3.035  16.307  0.1544 -0.2246 -0.3351
  370TMC3    C3 5534   1.270   2.918  16.278  0.0530 -0.5251  0.3995
  370TMC3    C4 5535   1.491   2.991  16.137 -0.6163  0.4771  0.4792
  370TMC3    C5 5536   1.427   2.874  16.112  0.6383 -0.4166  0.1335
  370TMC3    C6 5537   1.316   2.838  16.178  0.8352  0.3676  0.6241
  370TMC3     C 5538   1.519   3.185  16.262  0.5301  0.0898  0.1704
  370TMC3     O 5539   1.639   3.180  16.253  0.3488 -0.2037 -0.1543
  370TMC3     H 5540   1.302   3.098  16.390 -1.5578  2.0032 -2.6628
  370TMC3    H1 5541   1.577   3.024  16.081 -1.8023  2.7898 -0.0166
  370TMC3    H2 5542   1.276   2.738  16.165 -1.2759  1.3878 -0.5873
  370TMC3    C7 5543   1.509   2.776  16.061  0.0310  0.0803 -0.2253
  370TMC3    C8 5544   1.196   2.844  16.374  0.5126  0.2471  0.0961
  370TMC3    O1 5545   1.626   2.810  16.047 -0.4179 -0.4283  0.5377
  370TMC3    O2 5546   1.178   2.722  16.354 -0.0736 -0.4013 -0.0674
  371TMC3    C1 5547   2.567   1.169  15.480 -0.2403 -1.0005  0.4841
  371TMC3    C2 5548   2.455   1.190  15.563  0.7591 -0.1152  0.5279
  371TMC3    C3 5549   2.391   1.310  15.552  0.1544 -0.2280 -0.2676
  371TMC3    C4 5550   2.609   1.261  15.389 -0.5478 -0.4990 -0.3163
  371TMC3    C5 5551   2.537   1.384  15.380  0.3695 -0.5420 -0.1186
  371TMC3    C6 5552   2.429   1.407  15.461  0.4466  0.2594  0.0352
  371TMC3     C 5553   2.655   1.051  15.506  0.0121  0.7834 -0.1676
  371TMC3     O 5554   2.737   1.020  15.422 -0.3244  0.2783 -0.0836
  371TMC3     H 5555   2.414   1.106  15.619  1.6010 -1.5139 -0.9328
  371TMC3    H1 5556   2.705   1.249  15.340 -0.4440 -0.2109 -0.1847
  371TMC3    H2 5557   2.366   1.493  15.445 -0.2355 -0.2523 -0.0215
  371TMC3    C7 5558   2.562   1.485  15.278  0.0625  0.3458  0.5283
  371TMC3    C8 5559   2.253   1.320  15.608 -0.2592  0.1148 -0.1118
  371TMC3    O1 5560   2.503   1.593  15.287  0.4697 -0.0588  0.0286
  371TMC3    O2 5561   2.171   1.232  15.598  0.7028  0.7440 -0.1781
  372MPD2     C 5562   1.594   2.846  13.196 -0.0715 -0.8945  0.1007
  372MPD2    C1 5563   1.688   2.809  13.290  0.7926  0.2002  0.5755
  372MPD2    C2 5564   1.660   2.721  13.392  0.8168 -0.4095 -0.5151
  372MPD2    C3 5565   1.543   2.648  13.390  0.6328 -0.6167  0.0526
  372MPD2    C4 5566   1.447   2.675  13.299  0.3133  0.1334  0.2109
  372MPD2    C5 5567   1.473   2.777  13.206  0.0635 -0.2944  1.0675
  372MPD2     H 5568   1.737   2.706  13.467 -2.0424  1.4997  2.8240
  372MPD2    H1 5569   1.353   2.620  13.290  0.0898  0.7211 -1.0365
  372MPD2    H2 5570   1.602   2.926  13.124  0.4043 -0.7613  0.3002
  372MPD2    H3 5571   1.380   2.806  13.160  1.0582  1.7578  0.3487
  372MPD2     N 5572   1.530   2.555  13.487  0.2411 -0.3353  0.1759
  372MPD2    H5 5573   1.599   2.547  13.562 -0.1561  2.0817  0.7759
  372MPD2    N1 5574   1.820   2.852  13.276 -0.1320 -0.6616 -0.0274
  372MPD2    H7 5575   1.883   2.817  13.348 -0.6985 -1.1981  0.1973
  373TMC3    C1 5576   1.460   2.349  13.575 -0.5320  0.1559 -0.7251
  373TMC3    C2 5577   1.468   2.382  13.705  0.6380  0.1858 -0.2013
  373TMC3    C3 5578   1.500   2.289  13.799 -0.9583  0.4576  0.0167
  373TMC3    C4 5579   1.487   2.222  13.527 -0.4901  0.1068 -0.4349
  373TMC3    C5 5580   1.537   2.135  13.623 -0.7664 -0.2092  0.5307
  373TMC3    C6 5581   1.537   2.160  13.765  0.6194 -0.7649  0.4914
  373TMC3     C 5582   1.444   2.454  13.481  0.6886  0.8296  0.9328
  373TMC3     O 5583   1.375   2.414  13.385 -0.3319  0.2974  0.2860
  373TMC3     H 5584   1.474   2.488  13.725 -3.8772  0.5907 -0.9578
  373TMC3    H1 5585   1.506   2.207  13.422  0.7893 -0.9783 -0.0502
  373TMC3    H2 5586   1.557   2.091  13.847 -1.7204  0.8492  2.4369
  373TMC3    C7 5587   1.618   2.031  13.564  0.6005 -0.5266  0.0569
  373TMC3    C8 5588   1.598   2.337  13.890  0.8593  0.4563  0.4279
  373TMC3    O1 5589   1.592   1.991  13.450 -0.8548 -0.0134 -0.1988
  373TMC3    O2 5590   1.710   2.305  13.862  0.5224 -0.3512  0.2412
  374TMC3    C1 5591   2.830   2.361   9.526 -0.0503 -0.3523  0.8728
  374TMC3    C2 5592   2.907   2.472   9.563 -0.9453  0.1062 -0.4112
  374TMC3    C3 5593   2.943   2.553   9.461 -0.0195 -0.4083  0.2738
  374TMC3    C4 5594   2.789   2.335   9.399 -0.3451  0.2358  0.0014
  374TMC3    C5 5595   2.834   2.423   9.300  0.1632 -0.1442  0.0300
  374TMC3    C6 5596   2.913   2.531   9.328  1.0224 -0.3698 -0.2144
  374TMC3     C 5597   2.788   2.272   9.632 -0.1651 -0.5465 -1.3332
  374TMC3     O 5598   2.673   2.238   9.648  0.1956 -0.1234  0.8626
  374TMC3     H 5599   2.914   2.508   9.665  1.0241  1.7025 -1.1046
  374TMC3    H1 5600   2.712   2.260   9.383 -2.1874  2.1683 -0.2265
  374TMC3    H2 5601   2.949   2.595   9.249  0.6437  1.5750  1.1891
  374TMC3    C7 5602   2.804   2.386   9.159  0.4746  0.2908  0.4421
  374TMC3    C8 5603   3.024   2.667   9.488  0.2578  0.0663  0.2715
  374TMC3    O1 5604   2.790   2.265   9.130  0.4794  0.1405  0.0285
  374TMC3    O2 5605   3.040   2.743   9.390 -0.0675 -0.3687  0.0179
  375MPD2     C 5606   2.661   3.113  17.176 -0.1499  0.6379 -0.3285
  375MPD2    C1 5607   2.599   3.195  17.082  0.1846  0.3934  0.5330
  375MPD2    C2 5608   2.659   3.213  16.956  0.5307  0.0162  0.0939
  375MPD2    C3 5609   2.777   3.150  16.931 -0.1469  0.4500  1.0802
  375MPD2    C4 5610   2.835   3.071  17.024 -0.4394  0.0787 -0.3114
  375MPD2    C5 5611   2.780   3.055  17.144 -0.8129 -0.2451 -0.3473
  375MPD2     H 5612   2.599   3.278  16.893  1.2314 -0.6613 -1.2821
  375MPD2    H1 5613   2.925   3.015  17.000  2.7084  3.9053  2.5854
  375MPD2    H2 5614   2.624   3.081  17.273 -0.3387  0.1047 -0.5730
  375MPD2    H3 5615   2.818   2.983  17.215  2.5855 -0.1240 -2.0636
  375MPD2     N 5616   2.845   3.156  16.807  0.5006  0.1810 -0.5497
  375MPD2    H5 5617   2.932   3.107  16.789  0.7044  0.0140  0.9455
  375MPD2    N1 5618   2.476   3.252  17.098 -0.1625  0.8122 -0.2272
  375MPD2    H7 5619   2.438   3.318  17.031 -0.0466  1.0971 -0.0148
  376TMC3    C1 5620   2.856   3.190  16.569 -0.6448 -0.1401 -0.3451
  376TMC3    C2 5621   2.987   3.169  16.572  0.2292 -0.2807  0.1254
  376TMC3    C3 5622   3.040   3.117  16.459 -0.7054  0.1738 -0.1223
  376TMC3    C4 5623   2.782   3.178  16.458 -0.2212  0.4389 -0.4871
  376TMC3    C5 5624   2.835   3.102  16.359 -0.0339 -0.2279  0.0495
  376TMC3    C6 5625   2.969   3.079  16.353 -0.0354  0.2592  0.2473
  376TMC3     C 5626   2.784   3.215  16.691  0.0408 -0.3087  0.3055
  376TMC3     O 5627   2.680   3.277  16.677  0.0164 -0.1905 -0.0646
  376TMC3     H 5628   3.038   3.210  16.659  0.9208 -0.5908 -0.1356
  376TMC3    H1 5629   2.680   3.216  16.458 -1.0380 -1.7587 -2.0536
  376TMC3    H2 5630   3.020   3.022  16.277  0.7647 -0.7070  1.5015
  376TMC3    C7 5631   2.771   3.119  16.231 -0.5363  0.4896 -0.5010
  376TMC3    C8 5632   3.184   3.126  16.435  0.0298 -0.6116  0.2531
  376TMC3    O1 5633   2.699   3.219  16.205 -0.2164 -0.7171  0.3525
  376TMC3    O2 5634   3.227   3.105  16.320  0.3734  0.3169  0.3801
  377MPD2     C 5635   0.291   3.163  12.299 -0.1559 -0.3338 -0.1947
  377MPD2    C1 5636   0.377   3.106  12.390  0.1423 -0.3435  0.0667
  377MPD2    C2 5637   0.329   3.049  12.508  0.2930 -0.4012  0.8780
  377MPD2    C3 5638   0.190   3.040  12.524  0.1945  0.7291  1.0223
  377MPD2    C4 5639   0.111   3.110  12.439 -0.6175  1.0042  0.5244
  377MPD2    C5 5640   0.156   3.163  12.327  1.0877  0.2626 -0.7415
  377MPD2     H 5641   0.396   2.999  12.577  1.6094  0.8100  0.4789
  377MPD2    H1 5642   0.003   3.110  12.445 -0.4321 -2.0433  3.6118
  377MPD2    H2 5643   0.327   3.214  12.210 -2.0991  0.8111 -0.3146
  377MPD2    H3 5644   0.079   3.211  12.268 -0.3606 -0.1503  0.8071
  377MPD2     N 5645   0.127   2.973  12.630  0.0267  0.1145  0.5310
  377MPD2    H5 5646   0.027   2.955  12.623  0.2811 -1.2841  0.5759
  377MPD2    N1 5647   0.512   3.107  12.354 -0.4925  0.1655 -0.2073
  377MPD2    H7 5648   0.532   3.162  12.271 -1.6031 -0.4273 -0.8591
  378TMC3    C1 5649   0.846   3.113  12.133  0.1393 -0.7044  0.3987
  378TMC3    C2 5650   0.730   3.094  12.201 -0.3754 -0.5797 -0.0278
  378TMC3    C3 5651   0.740   3.052  12.331  0.3106 -0.1157  1.1521
  378TMC3    C4 5652   0.967   3.078  12.180  0.2550 -0.2208  0.4565
  378TMC3    C5 5653   0.976   3.030  12.309 -0.6190  0.0120  0.8505
  378TMC3    C6 5654   0.857   3.013  12.382  0.2230 -0.4977  0.2760
  378TMC3     C 5655   0.828   3.203  12.023  0.5458  0.5180 -0.1039
  378TMC3     O 5656   0.717   3.201  11.972  0.2670  0.2777  0.1073
  378TMC3     H 5657   0.636   3.107  12.148  0.3000  0.9907 -0.8626
  378TMC3    H1 5658   1.056   3.106  12.125 -1.0427 -0.0744 -1.5629
  378TMC3    H2 5659   0.858   2.991  12.488  0.8396  0.1069  0.3928
  378TMC3    C7 5660   1.092   3.042  12.395 -0.0875 -0.1510  0.7021
  378TMC3    C8 5661   0.617   3.043  12.417  0.2028  0.7209  0.1293
  378TMC3    O1 5662   1.082   3.121  12.491  0.3456 -0.5083  0.0618
  378TMC3    O2 5663   0.622   2.983  12.525 -0.7927  0.0773  0.5243
  379MPD2     C 5664   1.867   1.154  15.950  0.1003 -0.4512  0.5752
  379MPD2    C1 5665   1.793   1.059  16.021 -0.4295 -0.2619 -0.7557
  379MPD2    C2 5666   1.858   0.964  16.094  0.3518 -0.5043  0.0691
  379MPD2    C3 5667   1.996   0.982  16.118  0.0881  0.3761 -0.5894
  379MPD2    C4 5668   2.068   1.065  16.045  0.1865 -0.0216 -0.5194
  379MPD2    C5 5669   2.000   1.157  15.968 -0.5340 -0.2455  0.3250
  379MPD2     H 5670   1.804   0.895  16.157 -1.0466  1.7462  1.3612
  379MPD2    H1 5671   2.172   1.091  16.062  0.4668 -1.8996  0.6816
  379MPD2    H2 5672   1.821   1.222  15.879 -1.0974 -1.9273 -0.0723
  379MPD2    H3 5673   2.053   1.236  15.915  1.1114 -2.8707 -1.8868
  379MPD2     N 5674   2.069   0.911  16.219 -0.5450  0.3774 -0.2938
  379MPD2    H5 5675   2.170   0.907  16.215 -0.5874  0.7110 -1.6999
  379MPD2    N1 5676   1.647   1.078  16.019 -0.1565 -0.5502 -0.6137
  379MPD2    H7 5677   1.617   1.149  15.953  2.5546  1.0259 -0.1592
  380TMC3    C1 5678   1.431   0.999  16.049 -0.2781 -0.1432  0.4467
  380TMC3    C2 5679   1.436   0.892  15.965  0.0395  0.4503 -0.1933
  380TMC3    C3 5680   1.388   0.895  15.838 -0.3605 -0.1961 -0.4987
  380TMC3    C4 5681   1.377   1.115  16.001  0.0610  0.0941  0.3403
  380TMC3    C5 5682   1.307   1.105  15.885  0.9733  0.5899  0.7047
  380TMC3    C6 5683   1.310   0.999  15.802  0.0576 -0.6730 -0.6930
  380TMC3     C 5684   1.561   1.014  16.106  0.2069 -0.3442  0.3420
  380TMC3     O 5685   1.589   0.939  16.201 -0.1096 -0.1038 -0.1264
  380TMC3     H 5686   1.485   0.802  15.999 -0.9243  0.5695  1.5206
  380TMC3    H1 5687   1.384   1.210  16.053  0.1946  0.4440 -0.3190
  380TMC3    H2 5688   1.277   1.008  15.699  1.8539 -0.8226 -1.2811
  380TMC3    C7 5689   1.260   1.226  15.827 -0.3196  0.5752 -0.6273
  380TMC3    C8 5690   1.496   0.872  15.740  0.6706  0.1919 -0.1470
  380TMC3    O1 5691   1.314   1.329  15.855  0.0233  0.0152 -0.4578
  380TMC3    O2 5692   1.469   0.922  15.635 -0.0235  0.0027  0.2275
  381TMC3    C1 5693   1.211   2.153  16.126 -0.0020  0.6918 -0.4010
  381TMC3    C2 5694   1.268   2.277  16.132 -0.4699  0.8611 -0.2696
  381TMC3    C3 5695   1.275   2.337  16.252 -0.5570  0.4276  0.4786
  381TMC3    C4 5696   1.148   2.095  16.240 -0.2387 -0.4279 -0.0594
  381TMC3    C5 5697   1.139   2.164  16.353  0.2670 -0.6104 -0.2108
  381TMC3    C6 5698   1.212   2.287  16.361  0.2978  0.2294  0.4512
  381TMC3     C 5699   1.227   2.069  16.008 -0.0626  0.3786  0.6836
  381TMC3     O 5700   1.168   1.962  16.000  0.4690  0.5232  0.8116
  381TMC3     H 5701   1.305   2.325  16.043 -0.0707  3.1893  1.1538
  381TMC3    H1 5702   1.099   2.000  16.222  0.5235 -0.9566  0.6256
  381TMC3    H2 5703   1.238   2.321  16.461 -1.7103  0.4663  0.8780
  381TMC3    C7 5704   1.119   2.078  16.467 -0.6828  0.0139  0.0335
  381TMC3    C8 5705   1.390   2.426  16.263  0.3098 -0.3575  0.0938
  381TMC3    O1 5706   1.137   1.957  16.457  0.2847 -0.2760 -0.0809
  381TMC3    O2 5707   1.462   2.423  16.166  0.3628  0.4707  0.6279
  382MPD2     C 5708   0.331   0.007  16.881  0.3878  0.0811  0.4151
  382MPD2    C1 5709   0.280   0.034  17.010  0.5675  0.1320 -0.0586
  382MPD2    C2 5710   0.266   4.655  17.096  0.5576 -0.2951  0.4146
  382MPD2    C3 5711   0.304   4.527  17.063 -0.1517 -0.3906 -0.1738
  382MPD2    C4 5712   0.366   4.506  16.939  0.3297 -0.3746 -0.0044
  382MPD2    C5 5713   0.374   4.605  16.851  0.6015  0.4159 -0.1106
  382MPD2     H 5714   0.203   4.672  17.183 -0.7717 -0.0082 -0.5886
  382MPD2    H1 5715   0.399   4.406  16.914  2.3962  0.6440 -1.3083
  382MPD2    H2 5716   0.340   0.080  16.801 -1.0759  0.9072  1.0058
  382MPD2    H3 5717   0.411   4.582  16.752  1.0807  0.4377  0.0597
  382MPD2     N 5718   0.272   4.415  17.153 -0.4755 -0.1581 -0.0838
  382MPD2    H5 5719   0.287   4.320  17.121 -0.5977  0.0603 -0.7831
  382MPD2    N1 5720   0.238   0.159  17.050 -0.4371  0.2488  0.1650
  382MPD2    H7 5721   0.195   0.174  17.141 -1.0683 -4.6741  0.6439
  383TMC3    C1 5722   0.192   4.301  17.347  0.4384 -1.0569 -0.9411
  383TMC3    C2 5723   0.113   4.215  17.265 -0.6143 -0.1695 -0.5487
  383TMC3    C3 5724   0.009   4.147  17.317 -0.2314 -0.1618 -0.7360
  383TMC3    C4 5725   0.169   4.301  17.480 -0.0953  0.0507 -0.3400
  383TMC3    C5 5726   0.077   4.219  17.533  0.3062  0.0212  0.3745
  383TMC3    C6 5727   4.713   4.150  17.452  0.4170 -0.1538 -0.3366
  383TMC3     C 5728   0.231   4.426  17.284  0.3668 -0.1359 -0.3581
  383TMC3     O 5729   0.231   4.529  17.351  0.1292 -0.2106 -0.2365
  383TMC3     H 5730   0.127   4.216  17.157  0.4387 -0.4590 -0.4145
  383TMC3    H1 5731   0.235   4.369  17.533  0.4986 -0.8932  0.1164
  383TMC3    H2 5732   4.617   4.115  17.489  0.0210  1.4902  0.2201
  383TMC3    C7 5733   0.030   4.256  17.673 -0.4935  0.2434 -0.3218
  383TMC3    C8 5734   4.661   4.055  17.230  0.0537  0.4650 -0.4497
  383TMC3    O1 5735   4.642   4.223   0.018  0.1762 -0.3065 -0.0073
  383TMC3    O2 5736   4.664   4.076  17.108 -0.3108 -0.0847 -0.2049
  384MPD2     C 5737   1.990   1.176  11.538 -0.3188 -1.1582 -0.8917
  384MPD2    C1 5738   2.034   1.123  11.655 -0.5805 -0.3143  0.3519
  384MPD2    C2 5739   2.125   1.017  11.650  0.4329 -0.2329 -0.7061
  384MPD2    C3 5740   2.185   0.978  11.529  0.1791 -0.1879 -0.6600
  384MPD2    C4 5741   2.137   1.031  11.414  0.3517  0.6907  0.4995
  384MPD2    C5 5742   2.029   1.118  11.419 -0.2781  0.0167 -0.1452
  384MPD2     H 5743   2.160   0.967  11.740  1.3670  0.9649 -0.4026
  384MPD2    H1 5744   2.169   0.990  11.319  2.2271 -0.8627  1.7765
  384MPD2    H2 5745   1.912   1.252  11.543 -0.2867 -1.0729 -1.6803
  384MPD2    H3 5746   1.983   1.151  11.326  1.9372 -0.8094 -1.5219
  384MPD2     N 5747   2.286   0.881  11.540  0.0750  0.6644 -0.3519
  384MPD2    H5 5748   2.312   0.852  11.633  1.3429 -1.2197 -1.2784
  384MPD2    N1 5749   1.987   1.146  11.782  0.2119  0.0698 -0.7811
  384MPD2    H7 5750   2.026   1.094  11.860 -0.1669  0.6920 -0.1786
  385TMC3    C1 5751   2.451   0.719  11.497  0.1795 -0.5515  0.5287
  385TMC3    C2 5752   2.445   0.589  11.448 -0.5935 -0.5565  0.6482
  385TMC3    C3 5753   2.452   0.486  11.539  0.1793  0.6025 -0.1367
  385TMC3    C4 5754   2.479   0.743  11.632  0.0223  0.2582 -0.0214
  385TMC3    C5 5755   2.465   0.644  11.714 -0.1925  0.9745  0.0820
  385TMC3    C6 5756   2.462   0.512  11.675  0.6748 -0.3304 -0.6977
  385TMC3     C 5757   2.363   0.821  11.441  0.1453 -0.1620 -0.1355
  385TMC3     O 5758   2.373   0.849  11.322 -0.0718 -0.6649 -0.3551
  385TMC3     H 5759   2.417   0.572  11.345  1.4608 -1.0817  0.1736
  385TMC3    H1 5760   2.510   0.834  11.681 -0.3522  0.8700 -0.9092
  385TMC3    H2 5761   2.465   0.432  11.748 -1.1521  0.8911  0.7181
  385TMC3    C7 5762   2.371   0.675  11.821  0.7031 -0.1476  0.7913
  385TMC3    C8 5763   2.458   0.347  11.495 -0.7180 -0.4752  0.2355
  385TMC3    O1 5764   2.318   0.778  11.793  0.2818 -0.0995  0.2749
  385TMC3    O2 5765   2.487   0.274  11.587 -0.5684 -0.2414  0.3069
  386TMC3    C1 5766   2.294   3.306  12.150 -0.6529 -0.0868  0.2100
  386TMC3    C2 5767   2.267   3.275  12.017  0.0800 -0.1666 -0.8122
  386TMC3    C3 5768   2.210   3.372  11.942  0.2707 -0.1504 -0.0110
  386TMC3    C4 5769   2.246   3.427  12.203 -0.2216 -0.4798 -0.1658
  386TMC3    C5 5770   2.188   3.515  12.121  0.3072 -0.5391 -0.7892
  386TMC3    C6 5771   2.172   3.496  11.989  0.3017  0.2055 -0.3537
  386TMC3     C 5772   2.323   3.207  12.253 -0.1381  0.0629 -0.3528
  386TMC3     O 5773   2.288   3.228  12.370 -0.4079  0.2695 -0.2801
  386TMC3     H 5774   2.282   3.173  11.983  1.3289 -0.9615  2.1201
  386TMC3    H1 5775   2.247   3.459  12.307 -0.0225 -1.1505  0.0436
  386TMC3    H2 5776   2.113   3.558  11.922  0.3263  0.9326  0.3004
  386TMC3    C7 5777   2.083   3.593  12.178 -0.2117 -0.4174  0.5157
  386TMC3    C8 5778   2.189   3.348  11.797 -0.0956 -0.3516 -0.4952
  386TMC3    O1 5779   2.010   3.535  12.257  0.5820 -0.2201  0.0607
  386TMC3    O2 5780   2.117   3.423  11.729  0.1545  0.3392 -0.4289
  387MPD2     C 5781   4.320   3.501   9.649 -0.0765  0.1192  0.3885
  387MPD2    C1 5782   4.419   3.514   9.735  0.7691 -0.1257 -0.8213
  387MPD2    C2 5783   4.480   3.398   9.763 -0.3271  0.5079 -0.0076
  387MPD2    C3 5784   4.453   3.275   9.708  0.1989  0.3903 -0.3024
  387MPD2    C4 5785   4.358   3.267   9.611 -0.6591  0.4064  0.4496
  387MPD2    C5 5786   4.290   3.381   9.590  0.2577 -0.0615  0.0194
  387MPD2     H 5787   4.566   3.399   9.829  1.2035 -0.7782 -1.9858
  387MPD2    H1 5788   4.337   3.179   9.551 -1.0052  0.5923  0.3020
  387MPD2    H2 5789   4.265   3.588   9.614  1.1549  0.7618  0.0834
  387MPD2    H3 5790   4.217   3.375   9.510  0.9330 -0.4516 -0.5750
  387MPD2     N 5791   4.531   3.163   9.741 -0.0229  0.2327 -0.2992
  387MPD2    H5 5792   4.607   3.180   9.806 -1.4802 -1.6473  1.8806
  387MPD2    N1 5793   4.471   3.624   9.808  0.6062 -0.0269  0.5611
  387MPD2    H7 5794   4.550   3.601   9.868  2.3728  0.4495 -1.5707
  388TMC3    C1 5795   4.578   3.819   9.808  0.2099 -0.0802 -0.3539
  388TMC3    C2 5796   4.579   3.950   9.842 -0.5070  0.4529  0.3140
  388TMC3    C3 5797   4.695   4.011   9.867 -0.4605  0.5519 -0.3451
  388TMC3    C4 5798   4.688   3.742   9.817 -0.2539  0.3636  0.0110
  388TMC3    C5 5799   0.084   3.809   9.833 -0.3060 -0.6977  0.6724
  388TMC3    C6 5800   0.089   3.939   9.867 -0.0319 -0.3153  0.4032
  388TMC3     C 5801   4.458   3.754   9.769 -0.9452  0.4701 -0.2922
  388TMC3     O 5802   4.368   3.805   9.702  0.3376  0.5366  0.4128
  388TMC3     H 5803   4.486   4.006   9.837 -1.9146 -1.9226 -0.6699
  388TMC3    H1 5804   4.689   3.653   9.755  0.8217 -0.6465  1.4890
  388TMC3    H2 5805   0.183   3.992   9.877 -1.1107  1.1151  2.9632
  388TMC3    C7 5806   0.205   3.737   9.805 -0.2406  0.4607 -0.5604
  388TMC3    C8 5807   4.697   4.152   9.887  1.0795  0.1973 -0.5608
  388TMC3    O1 5808   0.284   3.781   9.726  0.0627 -0.3046  0.0163
  388TMC3    O2 5809   0.065   4.215   9.831 -0.2606  0.9085 -0.0724
  389MPD2     C 5810   4.167   1.613  11.547 -0.2554 -0.2643 -0.3533
  389MPD2    C1 5811   4.079   1.551  11.469  0.2953 -1.2966 -0.3326
  389MPD2    C2 5812   3.993   1.454  11.522 -0.3588  0.3151 -1.0311
  389MPD2    C3 5813   4.002   1.424  11.657 -0.2244 -0.4285 -0.2932
  389MPD2    C4 5814   4.088   1.493  11.733 -0.2763  0.1327 -0.2211
  389MPD2    C5 5815   4.170   1.594  11.683 -0.1545 -0.5445  0.1228
  389MPD2     H 5816   3.918   1.408  11.460  0.2498  0.7469 -2.0815
  389MPD2    H1 5817   4.094   1.468  11.839 -1.8904 -0.2194 -0.2163
  389MPD2    H2 5818   4.239   1.682  11.504 -1.4255  1.4666  0.4252
  389MPD2    H3 5819   4.252   1.643  11.735  0.0691 -0.4263 -0.3367
  389MPD2     N 5820   3.937   1.316  11.719 -0.0655 -0.2433  0.2380
  389MPD2    H5 5821   3.945   1.315  11.820  1.0946 -0.6362  0.1443
  389MPD2    N1 5822   4.065   1.603  11.345  0.0315  0.4749  0.7047
  389MPD2    H7 5823   4.123   1.683  11.319  1.9213 -1.0379  0.2692
  390TMC3    C1 5824   3.813   1.116  11.740  0.2939 -0.0376 -0.3388
  390TMC3    C2 5825   3.756   1.017  11.669 -0.7518 -0.0685  0.1744
  390TMC3    C3 5826   3.623   0.988  11.709  1.1001  0.0747  0.0886
  390TMC3    C4 5827   3.764   1.164  11.859 -0.8786  0.2931  0.1953
  390TMC3    C5 5828   3.633   1.136  11.901 -0.4895  0.2158  0.0841
  390TMC3    C6 5829   3.558   1.051  11.811 -0.0312 -0.4085 -0.4693
  390TMC3     C 5830   3.891   1.207  11.655  0.0872 -0.0745 -0.4251
  390TMC3     O 5831   3.906   1.178  11.539  0.2992 -0.4144 -0.3790
  390TMC3     H 5832   3.806   0.966  11.588 -0.4576  0.1525  0.2180
  390TMC3    H1 5833   3.807   1.234  11.929 -2.8081  0.3914  1.2903
  390TMC3    H2 5834   3.454   1.043  11.839  0.5071 -0.0710  1.5771
  390TMC3    C7 5835   3.561   1.245  11.967  0.0981  0.1247 -0.2269
  390TMC3    C8 5836   3.559   0.863  11.660  0.4834 -0.4154  0.4951
  390TMC3    O1 5837   3.621   1.348  11.997  0.3270 -0.3432 -0.1220
  390TMC3    O2 5838   3.628   0.799  11.579 -0.4700  0.0095  0.4551
  391MPD2     C 5839   2.776   2.713  10.988  0.4208  0.3114 -0.2966
  391MPD2    C1 5840   2.898   2.772  10.993 -0.5522  0.0112 -0.4924
  391MPD2    C2 5841   2.965   2.825  10.885  0.8352 -0.5153  0.1639
  391MPD2    C3 5842   2.908   2.811  10.761  0.5334  0.0973  0.2566
  391MPD2    C4 5843   2.783   2.753  10.747 -0.0707 -0.4419 -0.1284
  391MPD2    C5 5844   2.724   2.709  10.865  0.7210 -0.4367  0.9825
  391MPD2     H 5845   3.058   2.882  10.883  1.1273 -0.9568  1.0958
  391MPD2    H1 5846   2.736   2.740  10.650  0.2251  0.7032 -0.4255
  391MPD2    H2 5847   2.719   2.681  11.075  1.0173  1.2266  0.4222
  391MPD2    H3 5848   2.625   2.668  10.852  0.4200  0.9979 -1.2428
  391MPD2     N 5849   2.977   2.871  10.660  0.5597  0.4049 -1.2795
  391MPD2    H5 5850   3.043   2.944  10.685 -0.3634  0.5641  0.6266
  391MPD2    N1 5851   2.956   2.777  11.123 -0.2173 -0.5966 -0.0915
  391MPD2    H7 5852   2.911   2.725  11.197 -3.2808  3.2866  0.8193
  392TMC3    C1 5853   3.039   2.925  10.429 -0.0635  1.0913 -0.2798
  392TMC3    C2 5854   3.057   2.863  10.311  0.4471 -0.9539 -0.4098
  392TMC3    C3 5855   3.161   2.902  10.231 -0.3509 -0.1328 -0.1518
  392TMC3    C4 5856   3.136   3.004  10.477 -0.2472  0.4284 -0.4044
  392TMC3    C5 5857   3.233   3.041  10.392 -0.1996  0.5889 -0.0371
  392TMC3    C6 5858   3.253   2.989  10.265 -0.0274 -0.1552 -0.4277
  392TMC3     C 5859   2.954   2.851  10.522  0.1615  0.4987  0.0086
  392TMC3     O 5860   2.882   2.763  10.474  0.1016 -0.0044  0.0574
  392TMC3     H 5861   2.979   2.797  10.273  0.3384  0.3996 -2.5722
  392TMC3    H1 5862   3.133   3.044  10.577  2.2720 -0.8008  0.1769
  392TMC3    H2 5863   3.343   3.015  10.210  0.3025 -2.1939 -0.8522
  392TMC3    C7 5864   3.327   3.138  10.435  0.1756 -0.2478 -0.8346
  392TMC3    C8 5865   3.172   2.827  10.098 -0.2701  0.2570  0.2448
  392TMC3    O1 5866   3.331   3.157  10.556 -0.6095 -0.1810  0.0334
  392TMC3    O2 5867   3.092   2.739  10.085  0.7090  0.3458 -0.7702
  393TMC3    C1 5868   2.202   0.352  10.740 -0.5476  0.0593 -0.1961
  393TMC3    C2 5869   2.071   0.379  10.772  0.6136  0.0799 -0.4514
  393TMC3    C3 5870   2.035   0.405  10.909 -0.2185  0.0384 -0.4243
  393TMC3    C4 5871   2.293   0.322  10.841  0.6953  0.6152  0.2057
  393TMC3    C5 5872   2.258   0.358  10.968 -0.1405  0.0074  0.1107
  393TMC3    C6 5873   2.132   0.400  10.999 -0.8984  0.1048  0.3911
  393TMC3     C 5874   2.265   0.443  10.641  0.2746 -0.5479 -0.4128
  393TMC3     O 5875   2.387   0.465  10.654 -0.4241 -0.0392 -0.5446
  393TMC3     H 5876   1.992   0.389  10.698  0.0426 -0.3290  0.0989
  393TMC3    H1 5877   2.392   0.290  10.810 -0.0182 -0.6248 -0.8068
  393TMC3    H2 5878   2.114   0.436  11.100 -1.5515  0.5994  0.0934
  393TMC3    C7 5879   2.364   0.441  11.027  0.4656 -0.0420 -0.0861
  393TMC3    C8 5880   1.921   0.490  10.923  0.0681  0.6066 -0.3142
  393TMC3    O1 5881   2.365   0.457  11.148  0.0055  0.1457 -0.2857
  393TMC3    O2 5882   1.877   0.544  10.822 -0.0897 -0.0765  0.1003
  394TMC3    C1 5883   3.959   1.671  11.142  0.1929 -0.4818 -0.1015
  394TMC3    C2 5884   3.844   1.697  11.077  0.0025  0.5643 -0.5927
  394TMC3    C3 5885   3.841   1.776  10.971 -0.6639 -0.1856  1.2107
  394TMC3    C4 5886   4.076   1.726  11.097 -0.1892  0.0323  0.4452
  394TMC3    C5 5887   4.065   1.813  10.991 -0.6483  0.5928  0.3727
  394TMC3    C6 5888   3.952   1.828  10.920  0.1209  0.3688 -0.5504
  394TMC3     C 5889   3.970   1.570  11.251  0.0319  0.5812  0.6198
  394TMC3     O 5890   3.885   1.480  11.240  0.5490 -0.6666 -0.4157
  394TMC3     H 5891   3.754   1.644  11.104  1.3121 -1.5338 -0.3529
  394TMC3    H1 5892   4.175   1.693  11.126 -0.4846  0.1932  1.6151
  394TMC3    H2 5893   3.954   1.894  10.834 -1.1600  0.8705 -0.1873
  394TMC3    C7 5894   4.185   1.817  10.910  0.3372  0.3063  0.5154
  394TMC3    C8 5895   3.745   1.735  10.876  0.8233 -0.6243  0.3144
  394TMC3    O1 5896   4.170   1.782  10.793 -0.2314 -0.6183  0.0736
  394TMC3    O2 5897   3.629   1.711  10.912  0.3264 -0.1412  0.4710
  395TMC3    C1 5898   3.798   3.272  14.690 -0.0193  0.1506 -0.9539
  395TMC3    C2 5899   3.677   3.323  14.664  0.1186 -0.6601  0.3643
  395TMC3    C3 5900   3.662   3.411  14.560  1.0727  0.3770  0.2262
  395TMC3    C4 5901   3.919   3.319  14.635  0.0683 -0.3915  0.0483
  395TMC3    C5 5902   3.897   3.420  14.543  0.1895  0.6664  0.3396
  395TMC3    C6 5903   3.773   3.473  14.506  0.2496 -0.6422  0.4796
  395TMC3     C 5904   3.811   3.231  14.830  0.7754 -0.0749 -0.2883
  395TMC3     O 5905   3.767   3.307  14.919  0.1673  0.0059  0.1260
  395TMC3     H 5906   3.594   3.275  14.716  0.2436  2.0825  3.0679
  395TMC3    H1 5907   4.008   3.258  14.648  0.6419  0.3625 -0.3514
  395TMC3    H2 5908   3.763   3.573  14.465  1.2635 -0.3144  1.0170
  395TMC3    C7 5909   4.012   3.511  14.534 -0.1704  1.0646 -0.0150
  395TMC3    C8 5910   3.534   3.475  14.546  0.1626 -0.0373 -0.6600
  395TMC3    O1 5911   3.983   3.625  14.545 -0.0482  0.8077 -0.6086
  395TMC3    O2 5912   3.545   3.588  14.503  0.4093 -0.2472  0.2281
  396MPD2     C 5913   3.343   4.565  16.917 -0.2326  0.2123 -0.4301
  396MPD2    C1 5914   3.456   4.548  16.990  0.1898  0.6596  0.6798
  396MPD2    C2 5915   3.577   4.593  16.937 -0.4293 -0.1239  0.4234
  396MPD2    C3 5916   3.582   4.664  16.814 -0.4049 -0.3326  0.6121
  396MPD2    C4 5917   3.462   4.691  16.753 -0.1739  0.3047  0.1045
  396MPD2    C5 5918   3.349   4.633  16.795  0.5029  1.4852  0.2166
  396MPD2     H 5919   3.665   4.575  16.997  0.4323 -0.8215 -1.0402
  396MPD2    H1 5920   3.463   0.020  16.658 -3.2302 -0.3201 -0.2440
  396MPD2    H2 5921   3.246   4.532  16.953 -0.3732 -1.0393 -1.9625
  396MPD2    H3 5922   3.260   4.636  16.734  0.3745 -0.1825  0.3121
  396MPD2     N 5923   3.697   4.712  16.747  0.3494 -0.5983 -0.5081
  396MPD2    H5 5924   3.682   0.048  16.665 -0.6080  0.1293  0.1839
  396MPD2    N1 5925   3.441   4.483  17.111  0.1879 -0.0224  0.0489
  396MPD2    H7 5926   3.353   4.434  17.128 -0.6539  0.7071 -2.2018
  397TMC3    C1 5927   3.495   4.347  17.286 -0.2199  0.1191  0.5535
  397TMC3    C2 5928   3.526   4.234  17.209  0.2468 -0.4177  0.3303
  397TMC3    C3 5929   3.422   4.157  17.150  0.4872 -0.3023 -0.5909
  397TMC3    C4 5930   3.365   4.364  17.325  0.4113 -0.5115  1.0382
  397TMC3    C5 5931   3.269   4.270  17.292  1.0687  0.1486  0.2534
  397TMC3    C6 5932   3.300   4.166  17.205  0.1358 -0.1010 -0.5686
  397TMC3     C 5933   3.547   4.455  17.204 -0.3669 -0.1023 -0.0202
  397TMC3     O 5934   3.666   4.486  17.206  0.6322 -0.3176  0.2089
  397TMC3     H 5935   3.624   4.255  17.168 -0.2410 -0.9998 -1.1183
  397TMC3    H1 5936   3.342   4.449  17.388  0.4593  1.0742 -1.0509
  397TMC3    H2 5937   3.224   4.097  17.170  0.6139 -1.2395  0.6633
  397TMC3    C7 5938   3.140   4.272  17.356 -0.0344  0.1815 -0.2443
  397TMC3    C8 5939   3.427   4.121  17.015 -0.5304 -0.4758  0.7398
  397TMC3    O1 5940   3.042   4.256  17.280 -0.1766  0.0622  0.4287
  397TMC3    O2 5941   3.322   4.116  16.951  0.5468 -0.1477 -0.0312
  398MPD2     C 5942   1.614   0.486  17.468 -1.0083  0.2631  0.9454
  398MPD2    C1 5943   1.658   0.411  17.573  0.0756  0.1674  0.3559
  398MPD2    C2 5944   1.770   0.334  17.556  0.1322 -0.0462  0.9647
  398MPD2    C3 5945   1.842   0.325  17.439 -0.9072  0.2548  0.0848
  398MPD2    C4 5946   1.800   0.405  17.338 -0.3538 -0.5617  0.1683
  398MPD2    C5 5947   1.694   0.487  17.356  0.0689  0.1783 -0.2421
  398MPD2     H 5948   1.796   0.278  17.645 -2.0891  0.1489  1.7453
  398MPD2    H1 5949   1.849   0.390  17.242 -0.3615 -2.1086  0.4061
  398MPD2    H2 5950   1.532   0.556  17.464 -1.2289  0.0420  1.6606
  398MPD2    H3 5951   1.653   0.551  17.279  0.9853 -0.2613 -1.1009
  398MPD2     N 5952   1.949   0.234  17.417 -0.3377  0.5733 -0.4595
  398MPD2    H5 5953   1.968   0.168  17.491 -0.9527  0.3236 -0.5196
  398MPD2    N1 5954   1.591   0.405   0.002 -0.0329 -0.4596 -0.4311
  398MPD2    H7 5955   1.625   0.335   0.067 -0.0538  0.0502  0.1282
  399TMC3    C1 5956   1.426   0.443   0.171 -0.0194  0.2935 -0.1881
  399TMC3    C2 5957   1.288   0.433   0.191 -0.6846 -0.3243 -0.5089
  399TMC3    C3 5958   1.243   0.390   0.309 -0.4928  0.5484 -0.6579
  399TMC3    C4 5959   1.512   0.407   0.266 -0.4058 -1.0960  0.1232
  399TMC3    C5 5960   1.458   0.356   0.384 -0.2715 -0.2387  0.5349
  399TMC3    C6 5961   1.330   0.355   0.411 -0.3806  0.5425  0.4671
  399TMC3     C 5962   1.481   0.483   0.043 -1.2312 -0.1046 -0.8868
  399TMC3     O 5963   1.414   0.559  17.670  0.6128  0.2356  0.4366
  399TMC3     H 5964   1.218   0.470   0.117 -2.3842 -0.1964  1.1661
  399TMC3    H1 5965   1.618   0.415   0.247 -0.5813 -0.1301 -0.4289
  399TMC3    H2 5966   1.305   0.286   0.491  1.0098  0.7225  1.0482
  399TMC3    C7 5967   1.553   0.315   0.483  0.2286  0.1412 -0.4176
  399TMC3    C8 5968   1.099   0.434   0.345  0.3271  0.0709 -0.0552
  399TMC3    O1 5969   1.521   0.332   0.600  0.0278  0.2003  0.4206
  399TMC3    O2 5970   1.034   0.497   0.258  0.0230  0.0758 -0.6490
  400TMC3    C1 5971   0.109   3.727  17.248  0.0243  0.8135  0.5635
  400TMC3    C2 5972   0.046   3.609  17.228 -0.2151  0.1982  0.5972
  400TMC3    C3 5973   0.018   3.555  17.100  0.5776  0.4643 -0.5850
  400TMC3    C4 5974   0.150   3.795  17.139  0.1145  0.2984 -0.0841
  400TMC3    C5 5975   0.116   3.757  17.011 -0.0290 -0.3889 -0.0125
  400TMC3    C6 5976   0.063   3.629  16.989  0.2463  0.7140 -0.6165
  400TMC3     C 5977   0.143   3.779  17.382  0.0468  0.2925  0.3320
  400TMC3     O 5978   0.079   3.733  17.475 -0.1205 -0.0711 -0.4214
  400TMC3     H 5979   0.015   3.547  17.312  0.1262 -1.6036 -0.6272
  400TMC3    H1 5980   0.183   3.897  17.159 -3.0157  1.7406 -2.2065
  400TMC3    H2 5981   0.043   3.611  16.884 -1.6744 -0.1554 -0.0915
  400TMC3    C7 5982   0.171   3.838  16.903 -0.2032  0.4680 -0.3540
  400TMC3    C8 5983   4.627   3.468  17.084  0.4257  0.1363 -0.0717
  400TMC3    O1 5984   0.176   3.786  16.789  0.3428  0.3507  0.5906
  400TMC3    O2 5985   4.570   3.412  17.181  0.3372 -0.0631 -0.3434
  401MPD2     C 5986   4.408   2.266   0.367  0.4695 -0.3517 -0.6084
  401MPD2    C1 5987   4.340   2.374   0.425 -0.1769 -0.5926  0.3824
  401MPD2    C2 5988   4.219   2.408   0.374 -0.4696 -0.0497 -0.4335
  401MPD2    C3 5989   4.160   2.337   0.273 -0.1502  0.3083  0.8598
  401MPD2    C4 5990   4.232   2.244   0.205  0.1198  0.5687 -0.4944
  401MPD2    C5 5991   4.355   2.202   0.256  0.2157 -0.4139  0.3805
  401MPD2     H 5992   4.167   2.485   0.429 -0.1147 -0.2742  0.2205
  401MPD2    H1 5993   4.211   2.193   0.112 -3.0242  0.0016  0.5408
  401MPD2    H2 5994   4.511   2.239   0.391  0.9209  0.3012 -1.7866
  401MPD2    H3 5995   4.411   2.124   0.205  1.8402  0.8658  0.2322
  401MPD2     N 5996   4.022   2.367   0.238 -0.2145  0.6248  0.5731
  401MPD2    H5 5997   3.978   2.444   0.287 -1.1262 -0.3137  1.2382
  401MPD2    N1 5998   4.389   2.449   0.534 -0.0657  0.1400  0.0203
  401MPD2    H7 5999   4.330   2.525   0.566 -0.9889 -0.4332 -0.3390
  402TMC3    C1 6000   3.806   2.337   0.164  0.2700 -0.6798  0.4645
  402TMC3    C2 6001   3.763   2.458   0.217 -0.6381  0.3900 -0.2397
  402TMC3    C3 6002   3.629   2.471   0.240 -0.6673  0.2394  0.1625
  402TMC3    C4 6003   3.719   2.244   0.113 -0.1832 -0.6502  0.7772
  402TMC3    C5 6004   3.586   2.271   0.120  0.0567 -0.2993 -0.1086
  402TMC3    C6 6005   3.543   2.380   0.191 -0.5705  0.4342 -0.7555
  402TMC3     C 6006   3.940   2.293   0.157 -0.8693  0.4764 -0.0948
  402TMC3     O 6007   3.969   2.192   0.091 -0.1329 -1.2336  0.1770
  402TMC3     H 6008   3.826   2.540   0.249  2.2268 -1.2513 -1.6810
  402TMC3    H1 6009   3.748   2.143   0.085 -0.2366 -0.0670 -1.3767
  402TMC3    H2 6010   3.435   2.388   0.200 -0.5649 -1.3766  1.0578
  402TMC3    C7 6011   3.487   2.165   0.104  0.4742  0.0793 -0.5776
  402TMC3    C8 6012   3.606   2.491   0.380 -0.1019 -0.1467 -0.7420
  402TMC3    O1 6013   3.379   2.195   0.049  0.5483  0.4460 -0.0625
  402TMC3    O2 6014   3.706   2.510   0.447  0.0273 -0.4182 -0.1928
  403MPD2     C 6015   1.537   1.010  13.931  0.5275  0.3386  0.0729
  403MPD2    C1 6016   1.633   0.986  13.836  0.7016  0.0989  0.0492
  403MPD2    C2 6017   1.769   1.011  13.856 -0.9452 -0.0337  0.7485
  403MPD2    C3 6018   1.806   1.062  13.972 -0.3567 -0.2389 -0.3546
  403MPD2    C4 6019   1.711   1.088  14.071  0.3085 -0.2977  0.4402
  403MPD2    C5 6020   1.579   1.058  14.055  0.8117  0.4707  0.0507
  403MPD2     H 6021   1.844   0.986  13.782 -1.8250  0.8296 -0.4442
  403MPD2    H1 6022   1.738   1.136  14.164  0.1007 -1.5892  1.1770
  403MPD2    H2 6023   1.431   0.988  13.928  0.7972 -1.0429  0.6125
  403MPD2    H3 6024   1.494   1.073  14.121 -0.5297  1.7341 -1.9456
  403MPD2     N 6025   1.940   1.082  14.002  0.5746  0.0440  0.3216
  403MPD2    H5 6026   2.003   1.067  13.924 -0.8032 -1.7933 -0.4449
  403MPD2    N1 6027   1.580   0.930  13.717 -0.3251 -0.2688  0.0329
  403MPD2    H7 6028   1.480   0.914  13.715 -0.4279  0.5151 -1.3798
  404TMC3    C1 6029   1.574   0.841  13.503  0.1569  0.1425 -1.3231
  404TMC3    C2 6030   1.528   0.719  13.546  0.0446 -0.2858  0.1444
  404TMC3    C3 6031   1.554   0.611  13.470 -0.1346  0.7319 -0.0561
  404TMC3    C4 6032   1.601   0.866  13.374  0.0422 -0.8505 -1.0869
  404TMC3    C5 6033   1.590   0.764  13.285  0.6779 -0.2124 -0.4214
  404TMC3    C6 6034   1.584   0.639  13.334 -0.3418  0.7939 -0.0620
  404TMC3     C 6035   1.653   0.910  13.599  0.1488 -0.2768  0.7932
  404TMC3     O 6036   1.762   0.949  13.568  0.0917 -0.7744 -0.3502
  404TMC3     H 6037   1.502   0.699  13.649 -0.8015  1.6928  0.3123
  404TMC3    H1 6038   1.613   0.966  13.333 -0.2964  0.1301  1.1653
  404TMC3    H2 6039   1.619   0.557  13.272 -1.6687 -1.4145  2.0831
  404TMC3    C7 6040   1.637   0.784  13.148  0.0497 -0.1333  0.5314
  404TMC3    C8 6041   1.588   0.481  13.514  0.2730  0.1161 -0.0587
  404TMC3    O1 6042   1.700   0.888  13.142  0.0386  0.4587 -0.1098
  404TMC3    O2 6043   1.668   0.414  13.449 -0.1366  0.6363 -0.0620
  405MPD2     C 6044   2.202   1.385  14.707  0.6603 -0.1238 -0.0009
  405MPD2    C1 6045   2.151   1.276  14.645  0.1018 -1.0826 -0.4321
  405MPD2    C2 6046   2.075   1.295  14.528 -0.7286 -0.2509  0.9883
  405MPD2    C3 6047   2.067   1.418  14.471 -0.6858 -0.8900  0.1669
  405MPD2    C4 6048   2.134   1.525  14.531  0.3038  0.3162  0.6793
  405MPD2    C5 6049   2.203   1.507  14.647 -0.6120  0.0309 -0.7636
  405MPD2     H 6050   2.016   1.213  14.488  0.4732 -1.2561  1.2564
  405MPD2    H1 6051   2.138   1.626  14.490 -2.2184  0.0093 -0.3045
  405MPD2    H2 6052   2.250   1.380  14.804  0.0866 -0.5879  0.2609
  405MPD2    H3 6053   2.253   1.588  14.698 -0.5671 -0.3723 -0.1780
  405MPD2     N 6054   1.968   1.430  14.371 -0.5593  0.0236  0.1885
  405MPD2    H5 6055   1.935   1.342  14.333 -0.1750 -0.2127  0.4110
  405MPD2    N1 6056   2.163   1.152  14.720  0.3424 -0.4471 -0.0935
  405MPD2    H7 6057   2.201   1.160  14.813 -1.2108  0.5337  0.4544
  406TMC3    C1 6058   1.560   1.618  14.364  0.7766  0.1220 -0.2620
  406TMC3    C2 6059   1.504   1.490  14.362  0.3285 -0.5830  0.2211
  406TMC3    C3 6060   1.578   1.385  14.321  0.3283 -0.1744  0.9127
  406TMC3    C4 6061   1.689   1.641  14.319  0.1244 -0.6582 -0.6764
  406TMC3    C5 6062   1.766   1.532  14.279 -0.2440  1.0537 -0.0349
  406TMC3    C6 6063   1.709   1.405  14.275 -0.4297 -0.5121  0.0097
  406TMC3     C 6064   1.497   1.730  14.425  0.4119  0.2960 -0.4212
  406TMC3     O 6065   1.553   1.839  14.413  0.1962  1.1514  0.2951
  406TMC3     H 6066   1.406   1.457  14.395  0.0844  0.6774  0.7513
  406TMC3    H1 6067   1.724   1.743  14.315 -0.0479 -0.5773 -0.0278
  406TMC3    H2 6068   1.772   1.321  14.249 -2.6538 -1.7349 -1.5130
  406TMC3    C7 6069   1.900   1.548  14.339  0.1797  0.6896  0.0478
  406TMC3    C8 6070   1.527   1.256  14.355  0.8626 -0.2051 -0.0264
  406TMC3    O1 6071   1.913   1.652  14.398 -0.1280  0.1781  0.0847
  406TMC3    O2 6072   1.410   1.227  14.376 -0.2731  0.0104 -0.6581
  407MPD2     C 6073   4.031   2.803   9.804  0.3884 -0.6871  0.8630
  407MPD2    C1 6074   4.151   2.853   9.768 -0.3358  0.0431  0.4624
  407MPD2    C2 6075   4.195   2.970   9.833  0.6776  0.1109 -0.3152
  407MPD2    C3 6076   4.120   3.032   9.938  0.2504  0.0048 -0.0651
  407MPD2    C4 6077   3.997   2.987   9.965  0.1289  0.2891  0.1273
  407MPD2    C5 6078   3.951   2.873   9.888  0.3413  0.5123 -0.1216
  407MPD2     H 6079   4.293   3.009   9.807  0.2449  0.8013 -0.8597
  407MPD2    H1 6080   3.930   3.029  10.039 -0.0015 -2.1510  1.4054
  407MPD2    H2 6081   3.987   2.711   9.770 -2.4490  0.8897  0.3078
  407MPD2    H3 6082   3.860   2.823   9.921  0.4360 -0.7956 -1.8441
  407MPD2     N 6083   4.166   3.132  10.026  0.5184 -0.1440 -0.2662
  407MPD2    H5 6084   4.097   3.163  10.094  0.9869 -0.1054  0.1914
  407MPD2    N1 6085   4.240   2.783   9.679 -1.1607  0.1269  0.0204
  407MPD2    H7 6086   4.317   2.846   9.656 -1.1375 -0.1527 -0.6647
  408TMC3    C1 6087   4.334   2.625   9.538  1.1711  0.2631 -0.0708
  408TMC3    C2 6088   4.418   2.719   9.485 -0.1213  0.1763  0.1785
  408TMC3    C3 6089   4.525   2.668   9.413 -0.0109  0.1406  0.1739
  408TMC3    C4 6090   4.363   2.489   9.536  0.4239  0.5418 -0.1236
  408TMC3    C5 6091   4.479   2.449   9.471 -0.0192 -0.1338  0.3680
  408TMC3    C6 6092   4.564   2.538   9.407  0.0236 -0.6137 -0.0861
  408TMC3     C 6093   4.216   2.664   9.618 -0.2202  0.8811  0.6555
  408TMC3     O 6094   4.132   2.575   9.639 -0.1991  0.7130 -0.0699
  408TMC3     H 6095   4.384   2.821   9.474  0.3819  0.4685  1.3416
  408TMC3    H1 6096   4.288   2.418   9.568  1.2772 -1.0494 -1.6803
  408TMC3    H2 6097   4.653   2.502   9.356  1.1241  1.6311  0.2394
  408TMC3    C7 6098   4.515   2.310   9.457 -0.4662 -0.6491 -0.1299
  408TMC3    C8 6099   4.629   2.761   9.379 -0.3908 -0.1104  0.4600
  408TMC3    O1 6100   4.592   2.285   9.368  0.3772 -0.7123 -0.3664
  408TMC3    O2 6101   0.021   2.715   9.368 -0.0826  0.0767  0.0824
  409MPD2     C 6102   3.505   3.379  17.006 -0.2475 -0.5446 -0.6172
  409MPD2    C1 6103   3.592   3.451  17.085  0.3610 -0.3887  0.5909
  409MPD2    C2 6104   3.650   3.561  17.035 -0.4886  0.1054 -0.6543
  409MPD2    C3 6105   3.633   3.602  16.908  0.1130 -0.0117 -0.3829
  409MPD2    C4 6106   3.533   3.531  16.840  0.6586  0.3141 -0.0219
  409MPD2    C5 6107   3.474   3.416  16.880 -0.0460 -0.2722 -0.3568
  409MPD2     H 6108   3.710   3.622  17.102  1.4193 -3.2412  0.6690
  409MPD2    H1 6109   3.495   3.563  16.744 -2.0141 -1.6171  0.3710
  409MPD2    H2 6110   3.457   3.286  17.035 -2.2220  0.6699  0.0228
  409MPD2    H3 6111   3.388   3.381  16.824 -0.3831  0.6310 -0.4002
  409MPD2     N 6112   3.698   3.708  16.838 -0.4544  0.0674 -0.1603
  409MPD2    H5 6113   3.678   3.724  16.740 -1.1582  0.9249  0.1165
  409MPD2    N1 6114   3.639   3.413  17.214  0.0850 -0.0892 -0.7270
  409MPD2    H7 6115   3.680   3.487  17.270  0.5867 -0.5003 -0.5413
  410TMC3    C1 6116   3.901   3.838  16.814 -0.4372 -0.9086  0.9337
  410TMC3    C2 6117   4.024   3.837  16.874 -0.5947 -0.2306 -0.0164
  410TMC3    C3 6118   4.142   3.859  16.802  0.9692  0.4846 -0.0804
  410TMC3    C4 6119   3.892   3.840  16.678  0.0740 -0.1785 -0.2530
  410TMC3    C5 6120   4.007   3.871  16.610 -0.2236  0.4104 -0.4283
  410TMC3    C6 6121   4.130   3.878  16.670  0.9425 -0.2506 -0.2250
  410TMC3     C 6122   3.792   3.788  16.898  0.4308 -0.1760 -0.4377
  410TMC3     O 6123   3.798   3.812  17.020  0.1107  0.1402  0.4033
  410TMC3     H 6124   4.033   3.828  16.982 -0.7222  1.4868  0.1408
  410TMC3    H1 6125   3.793   3.835  16.633  0.6275  0.1245 -1.4996
  410TMC3    H2 6126   4.222   3.881  16.613  2.5685  1.4820  2.5526
  410TMC3    C7 6127   4.000   3.863  16.465  0.0481 -0.5749  0.5486
  410TMC3    C8 6128   4.266   3.859  16.874 -0.2696  0.0380  0.7166
  410TMC3    O1 6129   3.930   3.775  16.421 -0.0186 -0.0625 -0.3031
  410TMC3    O2 6130   4.361   3.922  16.830 -0.0729 -0.2529  0.0266
  411MPD2     C 6131   4.080   4.105  14.421 -0.2578 -0.6085  0.2964
  411MPD2    C1 6132   3.965   4.178  14.384 -0.2113  0.5570 -0.0840
  411MPD2    C2 6133   3.854   4.108  14.346 -0.3933  0.1445 -0.3111
  411MPD2    C3 6134   3.855   3.969  14.340  0.1545 -0.1295  0.4586
  411MPD2    C4 6135   3.971   3.902  14.371  0.3933  0.9253  0.1106
  411MPD2    C5 6136   4.086   3.968  14.412  0.1465 -0.3724  0.4319
  411MPD2     H 6137   3.770   4.163  14.306 -0.1759  2.1442  1.9800
  411MPD2    H1 6138   3.983   3.795  14.357  1.9687  1.1036 -0.0059
  411MPD2    H2 6139   4.171   4.153  14.454 -0.5585  1.1382 -1.3794
  411MPD2    H3 6140   4.183   3.919  14.413  0.5605  0.4318 -1.5210
  411MPD2     N 6141   3.746   3.892  14.293 -0.5276  0.0351 -0.3284
  411MPD2    H5 6142   3.752   3.793  14.271 -1.5704 -0.3737  1.2379
  411MPD2    N1 6143   3.978   4.324  14.390 -0.1719 -0.3383  0.2980
  411MPD2    H7 6144   4.055   4.368  14.439  1.1039 -2.3749  0.1046
  412TMC3    C1 6145   3.517   3.870  14.218  0.2363 -0.5201 -0.1018
  412TMC3    C2 6146   3.384   3.888  14.251 -0.3668 -0.2997  0.3510
  412TMC3    C3 6147   3.290   3.800  14.193  0.2026  0.2570  0.5287
  412TMC3    C4 6148   3.566   3.757  14.150 -0.1715  0.7899 -0.4848
  412TMC3    C5 6149   3.470   3.680  14.097 -0.0646  0.8934 -0.1600
  412TMC3    C6 6150   3.339   3.700  14.120  0.1626  0.7761 -0.3175
  412TMC3     C 6151   3.618   3.953  14.284  0.0966 -0.1354  0.3201
  412TMC3     O 6152   3.580   4.058  14.338  0.6834  0.7751  0.1517
  412TMC3     H 6153   3.351   3.977  14.303  0.9824  0.8005 -0.6948
  412TMC3    H1 6154   3.665   3.746  14.108  0.2623 -0.2014  0.7598
  412TMC3    H2 6155   3.271   3.623  14.085  0.2829  0.4353  0.2071
  412TMC3    C7 6156   3.487   3.669  13.954  0.3771  0.3209  0.4665
  412TMC3    C8 6157   3.173   3.862  14.139 -0.4769  0.2195 -0.1552
  412TMC3    O1 6158   3.385   3.685  13.894 -0.4761 -0.1906 -0.1740
  412TMC3    O2 6159   3.110   3.933  14.217  0.6448 -0.4405  0.0410
  413MPD2     C 6160   1.187   2.915  15.382 -0.7303  0.6873  0.9759
  413MPD2    C1 6161   1.101   2.818  15.335  0.1192 -0.1174  0.1322
  413MPD2    C2 6162   1.156   2.698  15.313 -0.0973  0.5844 -0.0053
  413MPD2    C3 6163   1.291   2.674  15.323  0.6879 -0.0024 -0.4208
  413MPD2    C4 6164   1.375   2.774  15.358  0.2100  0.6150 -0.3839
  413MPD2    C5 6165   1.324   2.896  15.387  0.1407  0.2181  0.0928
  413MPD2     H 6166   1.100   2.622  15.260 -1.9076  1.5425  0.5500
  413MPD2    H1 6167   1.483   2.764  15.366  0.3544  0.9505 -2.0252
  413MPD2    H2 6168   1.152   3.017  15.394 -1.0038  0.4812  1.9115
  413MPD2    H3 6169   1.377   2.987  15.411 -0.3754  1.0578 -1.9795
  413MPD2     N 6170   1.338   2.548  15.279 -0.0571 -0.2263 -0.4882
  413MPD2    H5 6171   1.269   2.479  15.255 -0.1563 -0.6075  0.9143
  413MPD2    N1 6172   0.966   2.838  15.322  0.4074 -0.3835  0.2421
  413MPD2    H7 6173   0.918   2.923  15.351 -0.7012 -0.5294 -1.1818
  414TMC3    C1 6174   1.482   2.361  15.258 -0.3806  0.0708 -0.3548
  414TMC3    C2 6175   1.536   2.274  15.341 -0.0296 -0.2925  0.3035
  414TMC3    C3 6176   1.508   2.141  15.322  0.4682  0.3880  0.1486
  414TMC3    C4 6177   1.399   2.321  15.150 -0.4908  0.1000  0.4271
  414TMC3    C5 6178   1.388   2.185  15.127 -0.2423  1.3028 -0.0378
  414TMC3    C6 6179   1.429   2.092  15.216  0.1786  0.5208  0.0966
  414TMC3     C 6180   1.463   2.495  15.312 -0.0327 -0.8355  0.3819
  414TMC3     O 6181   1.562   2.549  15.359 -0.3858  0.3088 -0.5603
  414TMC3     H 6182   1.586   2.313  15.430  1.2423 -1.9031  0.2986
  414TMC3    H1 6183   1.356   2.400  15.090  0.8961  0.8537  0.4078
  414TMC3    H2 6184   1.415   1.987  15.195  0.0405  0.6744 -0.5700
  414TMC3    C7 6185   1.347   2.158  14.991 -0.3745  0.4635 -0.4085
  414TMC3    C8 6186   1.595   2.037  15.379  0.0774  0.4150 -0.9419
  414TMC3    O1 6187   1.276   2.247  14.948  0.3280 -0.9756 -0.3449
  414TMC3    O2 6188   1.547   1.926  15.378 -0.2016  0.4219 -0.8441
  415TMC3    C1 6189   1.247   0.316   9.956  0.6255  0.4217 -0.2302
  415TMC3    C2 6190   1.232   0.426   9.880  0.0291  0.0114  0.1296
  415TMC3    C3 6191   1.283   0.431   9.753 -0.0269 -0.7471  0.1267
  415TMC3    C4 6192   1.326   0.213   9.910  1.2479 -0.4212  0.2111
  415TMC3    C5 6193   1.376   0.219   9.784  0.6148  0.7189 -0.2567
  415TMC3    C6 6194   1.355   0.328   9.701 -0.1635 -0.2677  0.0895
  415TMC3     C 6195   1.228   0.326  10.098  0.3386 -0.3237  0.1096
  415TMC3     O 6196   1.124   0.373  10.141  0.0228 -0.1679  0.0619
  415TMC3     H 6197   1.184   0.512   9.926  0.3112  0.7889 -1.0266
  415TMC3    H1 6198   1.358   0.133   9.976  1.3512  0.0989  0.8019
  415TMC3    H2 6199   1.369   0.316   9.594  0.4375  0.8063  0.0550
  415TMC3    C7 6200   1.384   0.092   9.713 -0.6985  0.0664 -0.1219
  415TMC3    C8 6201   1.286   0.559   9.696  0.1881 -0.0471 -0.0628
  415TMC3    O1 6202   1.429   0.087   9.597  0.4299 -0.1724  0.6498
  415TMC3    O2 6203   1.185   0.622   9.717 -0.5704  0.0879  0.7987
  416MPD2     C 6204   3.170   3.790  11.732 -0.8047  0.4069 -0.2712
  416MPD2    C1 6205   3.103   3.783  11.609  0.5736 -1.0489 -0.2175
  416MPD2    C2 6206   3.069   3.664  11.548  0.3850 -0.0409  0.1595
  416MPD2    C3 6207   3.100   3.546  11.613 -0.4224 -0.6400  0.3464
  416MPD2    C4 6208   3.179   3.553  11.731 -0.2871  0.2738 -0.1189
  416MPD2    C5 6209   3.211   3.675  11.786  0.1395 -1.1483 -0.0815
  416MPD2     H 6210   3.014   3.662  11.455 -0.0119 -1.3948  0.4257
  416MPD2    H1 6211   3.236   3.468  11.767  0.2865  1.2758  1.3787
  416MPD2    H2 6212   3.213   3.880  11.775  0.6342 -0.6416  0.4408
  416MPD2    H3 6213   3.274   3.675  11.874  0.2597 -0.6624 -0.1721
  416MPD2     N 6214   3.059   3.421  11.570 -0.0601 -0.0775 -0.3962
  416MPD2    H5 6215   3.051   3.348  11.639  1.3173  0.6373  0.5285
  416MPD2    N1 6216   3.073   3.905  11.544 -0.4315  0.5133  0.4867
  416MPD2    H7 6217   3.101   3.989  11.593  1.0216  0.9791 -1.1254
  417TMC3    C1 6218   2.968   4.057  11.407  0.7700 -0.3638 -0.0213
  417TMC3    C2 6219   2.935   4.124  11.524 -0.5015 -0.4487 -0.7861
  417TMC3    C3 6220   2.897   4.249  11.514  0.5150 -0.7200  0.1976
  417TMC3    C4 6221   2.945   4.112  11.286 -0.1052 -0.3810 -0.2947
  417TMC3    C5 6222   2.902   4.243  11.280 -0.9410 -0.3247 -0.1310
  417TMC3    C6 6223   2.868   4.307  11.397  0.2581  0.1302  0.1244
  417TMC3     C 6224   3.016   3.920  11.418  0.2148 -0.0494  0.2686
  417TMC3     O 6225   2.986   3.837  11.334 -0.1334  0.7060  0.2715
  417TMC3     H 6226   2.923   4.072  11.618  0.3128  1.5423  0.4127
  417TMC3    H1 6227   2.970   4.057  11.195  1.4006  1.5184 -1.0245
  417TMC3    H2 6228   2.845   4.412  11.396  0.9246  0.2671 -1.7395
  417TMC3    C7 6229   2.919   4.321  11.162 -0.5313  0.6086  0.1421
  417TMC3    C8 6230   2.892   4.324  11.634  0.8017 -0.6182  0.3348
  417TMC3    O1 6231   2.919   4.442  11.175  0.1162  0.2402  0.6204
  417TMC3    O2 6232   2.821   4.423  11.638 -0.1790 -0.0429  0.6077
  418TMC3    C1 6233   2.242   0.010  17.520  0.3543 -0.0297  0.3581
  418TMC3    C2 6234   2.139   0.052  17.437 -0.2082  0.0250 -0.0070
  418TMC3    C3 6235   2.160   0.162  17.353  0.6092  0.3469 -0.3148
  418TMC3    C4 6236   2.349   0.092  17.543 -0.4849  0.3917  0.2942
  418TMC3    C5 6237   2.363   0.212  17.469 -0.5216  0.4901  0.4106
  418TMC3    C6 6238   2.283   0.233  17.359  0.2520  0.4467 -0.2910
  418TMC3     C 6239   2.212   4.635  17.624  0.2750  0.5245  0.7363
  418TMC3     O 6240   2.107   4.578  17.614  0.0252 -0.5659  0.7199
  418TMC3     H 6241   2.055   4.707  17.423 -1.1522  1.7965 -3.0211
  418TMC3    H1 6242   2.423   0.074  17.619 -0.8790  3.0718  1.3151
  418TMC3    H2 6243   2.300   0.326  17.305 -0.0393  0.3305 -0.5821
  418TMC3    C7 6244   2.413   0.313  17.558 -0.2675 -0.3731  0.1575
  418TMC3    C8 6245   2.053   0.256  17.326 -0.7864  1.0283  0.2457
  418TMC3    O1 6246   2.407   0.294  17.678  0.1349  0.5162  0.4638
  418TMC3    O2 6247   2.075   0.341  17.240 -0.2135 -0.1693 -0.0196
  419MPD2     C 6248   0.455   3.958  11.954  0.3595 -0.3643 -0.3729
  419MPD2    C1 6249   0.393   4.084  11.966 -0.0921  0.4580 -0.3763
  419MPD2    C2 6250   0.327   4.102  12.087 -0.3014 -0.6093 -0.3821
  419MPD2    C3 6251   0.317   4.008  12.183  0.5561 -0.2461 -0.5838
  419MPD2    C4 6252   0.372   3.881  12.166 -0.8494 -0.4630 -0.3999
  419MPD2    C5 6253   0.448   3.862  12.056 -0.2802  0.1618  0.5418
  419MPD2     H 6254   0.279   4.197  12.109  0.3563  0.5633 -3.9032
  419MPD2    H1 6255   0.369   3.804  12.242 -2.2573  1.4154  1.4567
  419MPD2    H2 6256   0.506   3.933  11.862  1.0648  1.8404 -0.6024
  419MPD2    H3 6257   0.499   3.768  12.044  1.6378  1.1159  1.2625
  419MPD2     N 6258   0.250   4.052  12.301 -0.3435 -0.3310  0.1090
  419MPD2    H5 6259   0.207   4.144  12.296  1.1952  0.4983  2.3164
  419MPD2    N1 6260   0.407   4.202  11.889  0.2482 -0.1076 -0.4486
  419MPD2    H7 6261   0.387   4.291  11.932 -0.3951 -1.3398  1.8244
  420TMC3    C1 6262   0.162   4.045  12.514 -0.1168 -0.0005  0.0864
  420TMC3    C2 6263   0.081   4.148  12.467  1.2315 -0.6494  0.3400
  420TMC3    C3 6264   0.010   4.214  12.563  0.6480 -0.2343  0.5300
  420TMC3    C4 6265   0.171   4.011  12.643 -0.7617  0.1420  0.1253
  420TMC3    C5 6266   0.110   4.096  12.739  0.4914 -0.5399  0.9216
  420TMC3    C6 6267   0.030   4.199  12.703  0.5690  0.3588  0.0289
  420TMC3     C 6268   0.243   3.982  12.420 -0.4398  0.3928  0.4258
  420TMC3     O 6269   0.301   3.879  12.447 -0.5417  0.2498  0.4685
  420TMC3     H 6270   0.046   4.154  12.365  2.6873 -1.6759 -0.2212
  420TMC3    H1 6271   0.231   3.931  12.684  0.6771  1.5032  0.6581
  420TMC3    H2 6272   4.686   4.242  12.777  0.0385  1.9259 -1.3602
  420TMC3    C7 6273   0.150   4.094  12.876 -0.9014  0.0749  0.0423
  420TMC3    C8 6274   4.645   4.316  12.527 -0.1555 -0.6415  1.1896
  420TMC3    O1 6275   0.173   3.987  12.937  0.4800  0.4802 -0.3876
  420TMC3    O2 6276   4.672   4.379  12.428  0.0189 -0.2350  0.3729
  421TMC3    C1 6277   2.138   1.165  14.088  0.3724 -0.4865  0.0141
  421TMC3    C2 6278   2.197   1.262  14.167 -0.2959  0.5986  0.5032
  421TMC3    C3 6279   2.328   1.250  14.201 -0.2653 -0.3287  0.5351
  421TMC3    C4 6280   2.207   1.051  14.053  0.0162 -0.1211 -0.7963
  421TMC3    C5 6281   2.342   1.050  14.094 -0.2756  0.4768  0.3123
  421TMC3    C6 6282   2.403   1.146  14.160 -0.8296  0.0980 -0.3149
  421TMC3     C 6283   1.990   1.148  14.112  0.4664  0.4240  0.2757
  421TMC3     O 6284   1.942   1.186  14.217  0.1340 -0.0819  0.4852
  421TMC3     H 6285   2.138   1.349  14.195  1.0395  1.2874  1.1701
  421TMC3    H1 6286   2.174   0.961  14.004 -2.0872  0.1992  0.0078
  421TMC3    H2 6287   2.511   1.138  14.171 -0.3684  0.1640 -4.5466
  421TMC3    C7 6288   2.427   0.945  14.047 -0.2233  0.6197  0.1693
  421TMC3    C8 6289   2.398   1.376  14.236  0.2838 -0.3999 -0.3733
  421TMC3    O1 6290   2.547   0.977  14.042  0.4338  0.8648  0.3132
  421TMC3    O2 6291   2.348   1.485  14.201 -0.2270 -0.4037  0.4335
  422TMC3    C1 6292   4.144   2.074  12.706 -0.4009 -0.7036 -0.0533
  422TMC3    C2 6293   4.100   2.202  12.699 -0.9326 -0.9460  0.3992
  422TMC3    C3 6294   3.973   2.232  12.728 -0.4943 -0.0971 -0.4969
  422TMC3    C4 6295   4.055   1.981  12.740  0.5568  0.1290 -0.2137
  422TMC3    C5 6296   3.927   2.010  12.773 -0.0551 -0.1609 -0.7289
  422TMC3    C6 6297   3.882   2.137  12.769  0.0253  0.1670 -0.0797
  422TMC3     C 6298   4.267   2.048  12.629  0.5155 -0.1293  0.3697
  422TMC3     O 6299   4.292   2.138  12.547  0.0079  0.0988 -0.2154
  422TMC3     H 6300   4.168   2.280  12.665 -1.8077  0.1316  1.1394
  422TMC3    H1 6301   4.097   1.883  12.761 -2.3071 -1.0281  0.0722
  422TMC3    H2 6302   3.782   2.166  12.799  1.1344  2.6627  1.2006
  422TMC3    C7 6303   3.831   1.899  12.788 -0.0732 -0.2029 -0.2835
  422TMC3    C8 6304   3.933   2.369  12.745 -0.0177  0.2343  0.3632
  422TMC3    O1 6305   3.881   1.787  12.801 -0.1222 -0.2685  0.0340
  422TMC3    O2 6306   4.021   2.457  12.727  0.6482  0.2034 -0.4889
  423MPD2     C 6307   0.889   2.957   0.716 -0.1902 -0.1607  0.0214
  423MPD2    C1 6308   0.995   2.868   0.732 -0.3189  0.5415 -0.3260
  423MPD2    C2 6309   1.019   2.786   0.620 -0.5656  0.3698 -0.2828
  423MPD2    C3 6310   0.945   2.792   0.504  0.0413  0.0954  0.1250
  423MPD2    C4 6311   0.850   2.890   0.489  0.5871  0.7029 -0.3584
  423MPD2    C5 6312   0.820   2.965   0.600  0.2672 -0.6721  0.6555
  423MPD2     H 6313   1.102   2.717   0.621  0.4411  1.5837 -0.4546
  423MPD2    H1 6314   0.789   2.904   0.400 -1.1959 -1.0883  0.5810
  423MPD2    H2 6315   0.856   3.017   0.800 -0.7786  1.4865 -1.4068
  423MPD2    H3 6316   0.735   3.032   0.599 -0.1383 -1.2158 -1.2325
  423MPD2     N 6317   0.966   2.713   0.392  0.6300 -0.0868  0.9864
  423MPD2    H5 6318   0.921   2.736   0.304 -1.6744 -0.5621  2.0456
  423MPD2    N1 6319   1.076   2.865   0.847 -0.4184 -0.0797 -0.4857
  423MPD2    H7 6320   1.138   2.784   0.851 -2.0948 -1.3227  0.1167
  424TMC3    C1 6321   1.165   2.928   1.054  0.6528 -0.0772 -0.5857
  424TMC3    C2 6322   1.260   2.831   1.038 -0.1983 -0.1878 -0.3993
  424TMC3    C3 6323   1.325   2.787   1.150  0.8984  0.0888 -0.3189
  424TMC3    C4 6324   1.136   2.983   1.173  0.8475  0.1380 -0.2663
  424TMC3    C5 6325   1.209   2.949   1.280 -0.4045  0.5416 -0.0461
  424TMC3    C6 6326   1.301   2.844   1.273  0.0869  0.0404  0.6941
  424TMC3     C 6327   1.079   2.963   0.947  0.8652 -0.7076 -0.6890
  424TMC3     O 6328   1.016   3.069   0.953  0.2517 -0.4025 -0.3321
  424TMC3     H 6329   1.306   2.805   0.943  1.8771 -1.2081  0.8639
  424TMC3    H1 6330   1.053   3.054   1.177 -0.2573 -1.2023  0.5192
  424TMC3    H2 6331   1.359   2.823   1.362  0.9710 -3.3792 -0.7093
  424TMC3    C7 6332   1.201   3.039   1.393  0.1210 -0.2803  0.3315
  424TMC3    C8 6333   1.454   2.724   1.146 -0.4228  0.0185 -0.3911
  424TMC3    O1 6334   1.149   3.146   1.366  0.2127  0.1509  0.2299
  424TMC3    O2 6335   1.513   2.711   1.253 -0.3280 -0.1061  0.3741
  425MPD2     C 6336   4.671   2.297  17.521  0.1615 -0.2599  0.1174
  425MPD2    C1 6337   4.582   2.198  17.473 -0.1990 -0.4288  0.0506
  425MPD2    C2 6338   4.446   2.223  17.476  0.3630 -0.4098  0.5833
  425MPD2    C3 6339   4.400   2.336  17.537 -0.2378 -0.3871 -0.3306
  425MPD2    C4 6340   4.486   2.426  17.595 -0.1136  0.4306 -0.4749
  425MPD2    C5 6341   4.618   2.405  17.587  0.1227  0.1663 -0.6027
  425MPD2     H 6342   4.373   2.149  17.446 -0.8256  0.6790  0.8028
  425MPD2    H1 6343   4.443   2.512  17.645 -1.0034  0.6122 -1.5387
  425MPD2    H2 6344   0.055   2.278  17.530  0.3949  1.8618  1.7222
  425MPD2    H3 6345   4.693   2.469  17.632 -0.0737 -0.1858  0.2145
  425MPD2     N 6346   4.262   2.352  17.529 -0.0073 -0.1217  0.0298
  425MPD2    H5 6347   4.211   2.286  17.472 -2.7368 -1.0113  3.4619
  425MPD2    N1 6348   4.636   2.075  17.420 -0.7909 -0.4652 -0.0805
  425MPD2    H7 6349   0.013   2.057  17.430 -1.5764 -2.9121  3.3013
  426TMC3    C1 6350   4.633   1.867  17.300  0.6659 -0.2553 -0.0678
  426TMC3    C2 6351   4.581   1.807  17.195  0.4171  0.5024  0.2540
  426TMC3    C3 6352   4.657   1.709  17.139  0.5890 -0.5548  0.6817
  426TMC3    C4 6353   0.027   1.823  17.361 -0.1446  0.1190  0.2693
  426TMC3    C5 6354   0.108   1.739  17.279  0.1481 -1.2350  0.1216
  426TMC3    C6 6355   0.063   1.686  17.162 -0.5618  0.3765 -0.4757
  426TMC3     C 6356   4.565   1.987  17.340  0.7354  0.8213 -0.3022
  426TMC3     O 6357   4.455   2.001  17.287  0.2124  0.4005 -0.6110
  426TMC3     H 6358   4.475   1.816  17.173 -0.1888 -4.0924  1.1725
  426TMC3    H1 6359   0.057   1.857  17.460 -1.6254  0.0854  0.7273
  426TMC3    H2 6360   0.110   1.620  17.089 -0.5917 -0.6709  0.4455
  426TMC3    C7 6361   0.253   1.715  17.306 -0.7220  0.2753 -0.3155
  426TMC3    C8 6362   4.598   1.635  17.022 -0.5771  0.2051 -0.1954
  426TMC3    O1 6363   0.328   1.650  17.236  0.2114 -0.7925  0.3038
  426TMC3    O2 6364   4.678   1.590  16.937 -0.4023 -0.0050  0.1995
  427MPD2     C 6365   3.035   4.543  15.312  0.1740  0.6515  0.0073
  427MPD2    C1 6366   2.989   4.422  15.359 -0.3548 -0.4745 -0.4484
  427MPD2    C2 6367   2.858   4.404  15.385 -0.0006 -0.6515 -0.3611
  427MPD2    C3 6368   2.763   4.504  15.366  0.6978 -0.4685  0.3985
  427MPD2    C4 6369   2.809   4.630  15.333 -0.4008 -0.6179  0.1774
  427MPD2    C5 6370   2.945   4.642  15.299 -0.9748  0.5707 -0.3446
  427MPD2     H 6371   2.822   4.307  15.418 -3.1304  1.1460  1.5108
  427MPD2    H1 6372   2.739   4.710  15.314 -1.0236 -1.2983 -0.3802
  427MPD2    H2 6373   3.136   4.575  15.290 -0.4337  0.5433 -2.9701
  427MPD2    H3 6374   2.986   0.014  15.268  0.5492  0.4229  1.2239
  427MPD2     N 6375   2.628   4.496  15.409  0.5135 -0.5088  0.1078
  427MPD2    H5 6376   2.578   4.582  15.395  3.2876  1.0246 -0.4048
  427MPD2    N1 6377   3.079   4.316  15.371 -0.1246 -0.2416 -0.9637
  427MPD2    H7 6378   3.047   4.229  15.412 -0.5517  0.4420  0.1712
  428TMC3    C1 6379   3.277   4.193  15.379 -0.1990  0.0040  0.9203
  428TMC3    C2 6380   3.234   4.107  15.477 -0.5318  0.2207 -0.2471
  428TMC3    C3 6381   3.330   4.019  15.523 -0.5187  0.4000 -0.7238
  428TMC3    C4 6382   3.404   4.188  15.321 -0.1847 -0.2347  0.1444
  428TMC3    C5 6383   3.493   4.098  15.378 -0.0262  0.5026  0.5890
  428TMC3    C6 6384   3.456   4.020  15.480 -0.5248  0.2293  0.4071
  428TMC3     C 6385   3.217   4.329  15.373 -0.3388  0.5857 -0.7762
  428TMC3     O 6386   3.291   4.424  15.361 -0.0048 -0.0495 -0.2033
  428TMC3     H 6387   3.140   4.120  15.528 -0.2928 -0.7213  0.4394
  428TMC3    H1 6388   3.430   4.249  15.235 -0.6940  1.2590  1.0434
  428TMC3    H2 6389   3.536   3.966  15.529 -0.2611 -0.1155 -0.3972
  428TMC3    C7 6390   3.630   4.091  15.339  0.2128  0.3214  1.0538
  428TMC3    C8 6391   3.288   3.914  15.617  0.5091  0.6449  0.0314
  428TMC3    O1 6392   3.715   4.060  15.421 -0.0090 -0.8906  0.3531
  428TMC3    O2 6393   3.179   3.932  15.670  0.0976 -0.6633  0.8824
  429MPD2     C 6394   4.348   4.612   0.025 -0.7370  0.4847 -0.6744
  429MPD2    C1 6395   4.403   4.503  17.654  0.5102 -0.0281  0.1131
  429MPD2    C2 6396   4.474   4.516  17.535 -0.1900  0.2349 -0.7791
  429MPD2    C3 6397   4.479   4.638  17.474  0.1010  0.0696 -0.1524
  429MPD2    C4 6398   4.417   0.025  17.540 -0.8388  0.3419 -0.0533
  429MPD2    C5 6399   4.358   0.016  17.658 -0.3360  0.4097  0.2203
  429MPD2     H 6400   4.514   4.429  17.485  0.5771  0.6784 -0.9413
  429MPD2    H1 6401   4.429   0.127  17.507 -1.6262  0.4164 -0.1168
  429MPD2    H2 6402   4.294   4.595   0.118  1.8176 -2.6560  0.2541
  429MPD2    H3 6403   4.313   0.104   0.012  0.6658  0.6323  0.7795
  429MPD2     N 6404   4.552   4.658  17.355 -0.9506  0.0956  0.0711
  429MPD2    H5 6405   4.583   4.571  17.312  1.8963  0.6600  0.9557
  429MPD2    N1 6406   4.393   4.375   0.023  0.5610 -0.2081 -0.3002
  429MPD2    H7 6407   4.412   4.293  17.658  2.3213 -0.5849  0.8670
  430TMC3    C1 6408   4.618   0.034  17.141  1.1413  0.2670  0.4611
  430TMC3    C2 6409   4.613   0.131  17.041 -0.1457  0.7991  0.6125
  430TMC3    C3 6410   4.619   0.084  16.908  0.5399  0.0011 -0.2799
  430TMC3    C4 6411   4.647   4.623  17.106  0.6368  0.2922  0.7440
  430TMC3    C5 6412   4.682   4.596  16.976 -0.1969 -0.0091  0.6438
  430TMC3    C6 6413   4.658   4.683  16.877  0.3685  0.0252 -0.0542
  430TMC3     C 6414   4.577   0.057  17.281 -0.5937 -0.9503 -0.6404
  430TMC3     O 6415   4.542   0.170  17.306  0.1141 -0.3131 -0.2052
  430TMC3     H 6416   4.584   0.232  17.067  0.1743  0.9663  0.3188
  430TMC3    H1 6417   4.683   4.562  17.188  1.1812 -0.8828 -0.3846
  430TMC3    H2 6418   4.686   4.652  16.777 -0.7299 -3.2189  0.6527
  430TMC3    C7 6419   4.705   4.449  16.942  0.5832 -0.4552 -0.5588
  430TMC3    C8 6420   4.605   0.179  16.804 -0.5900  0.4326 -0.0946
  430TMC3    O1 6421   4.677   4.374  17.035 -0.7535  0.1985 -0.0847
  430TMC3    O2 6422   4.672   0.278  16.808 -0.2381  0.2463 -0.2856
  431MPD2     C 6423   0.844   0.017  12.393  0.2437 -0.7388  1.3830
  431MPD2    C1 6424   0.909   0.051  12.277  0.3850  0.1999  0.0810
  431MPD2    C2 6425   0.853   0.001  12.157  0.4103  0.1053  0.2834
  431MPD2    C3 6426   0.748   4.638  12.158  0.3437  0.1876 -0.2244
  431MPD2    C4 6427   0.677   4.618  12.275  0.0313  0.2700  0.6488
  431MPD2    C5 6428   0.726   4.668  12.389 -0.9122 -0.3834 -0.7643
  431MPD2     H 6429   0.898   0.033  12.064  1.4082 -0.5082  0.5526
  431MPD2    H1 6430   0.591   4.552  12.274  0.3521 -0.1839  2.7356
  431MPD2    H2 6431   0.880   0.037  12.494  2.1756  1.0228  0.3353
  431MPD2    H3 6432   0.669   4.649  12.479  2.5832  0.9622  1.7358
  431MPD2     N 6433   0.689   4.576  12.045 -0.1414 -0.2740  0.2665
  431MPD2    H5 6434   0.619   4.504  12.054 -0.2896 -0.0883  0.6161
  431MPD2    N1 6435   1.032   0.121  12.282  0.3200  0.5897 -0.1234
  431MPD2    H7 6436   1.089   0.133  12.199 -1.2101  0.6378 -1.1782
  432TMC3    C1 6437   0.674   4.510  11.815 -0.4864 -0.5552  0.5162
  432TMC3    C2 6438   0.723   4.525  11.688  0.1283 -0.0617  0.1326
  432TMC3    C3 6439   0.672   4.441  11.584  0.6760  0.0070  0.0698
  432TMC3    C4 6440   0.582   4.407  11.840 -0.2353  0.3060 -0.4448
  432TMC3    C5 6441   0.527   4.335  11.738 -0.4575 -0.7444  0.6834
  432TMC3    C6 6442   0.570   4.354  11.607  0.1513  0.0160  0.3344
  432TMC3     C 6443   0.731   4.598  11.918 -0.1820  0.6832 -0.1524
  432TMC3     O 6444   0.798   4.689  11.871 -0.5726 -0.2762 -0.2500
  432TMC3     H 6445   0.800   4.598  11.666  0.2038 -0.5311 -1.2026
  432TMC3    H1 6446   0.576   4.378  11.944  1.3455  0.5675 -0.2830
  432TMC3    H2 6447   0.537   4.291  11.526  0.9025  1.7487 -1.3226
  432TMC3    C7 6448   0.472   4.202  11.771  0.1209 -0.0608 -0.2738
  432TMC3    C8 6449   0.779   4.372  11.501  0.5834  0.0121  0.8872
  432TMC3    O1 6450   0.510   4.106  11.700 -0.3641  0.5319 -0.5178
  432TMC3    O2 6451   0.741   4.308  11.404  0.3863  0.3234 -0.2999
  433MPD2     C 6452   4.179   3.550  11.227 -1.0191  0.9076  0.8048
  433MPD2    C1 6453   4.095   3.444  11.212 -0.4500 -0.5947  0.3406
  433MPD2    C2 6454   4.006   3.420  11.316 -0.4665 -0.1699 -0.3941
  433MPD2    C3 6455   4.003   3.502  11.428 -0.6159 -0.1921  0.5592
  433MPD2    C4 6456   4.092   3.602  11.436  0.3661 -0.4781 -0.3483
  433MPD2    C5 6457   4.168   3.634  11.327 -0.6960 -0.1282 -0.2030
  433MPD2     H 6458   3.928   3.346  11.315 -2.8948  2.4143 -0.8979
  433MPD2    H1 6459   4.100   3.669  11.521  0.5725 -0.2535 -0.5439
  433MPD2    H2 6460   4.250   3.585  11.152 -0.1348  1.6348  1.9889
  433MPD2    H3 6461   4.233   3.720  11.322 -1.4829  0.4894  0.0675
  433MPD2     N 6462   3.925   3.466  11.537  0.8400  0.7278 -0.2877
  433MPD2    H5 6463   3.895   3.369  11.541 -0.3354  1.0841 -0.3441
  433MPD2    N1 6464   4.112   3.363  11.097  0.1708 -0.3708 -0.1409
  433MPD2    H7 6465   4.181   3.395  11.029 -0.0698 -1.5800 -0.9522
  434TMC3    C1 6466   4.101   3.181  10.963 -0.4996 -0.0047 -0.1181
  434TMC3    C2 6467   4.182   3.073  11.001 -0.2657 -0.2252 -0.8602
  434TMC3    C3 6468   4.313   3.059  10.957 -0.0277  0.1193  0.1868
  434TMC3    C4 6469   4.140   3.263  10.859  0.3665  0.4587 -0.3434
  434TMC3    C5 6470   4.265   3.231  10.805  0.1694  0.5243  0.1810
  434TMC3    C6 6471   4.354   3.142  10.857  0.2731 -0.8677  0.1297
  434TMC3     C 6472   4.046   3.245  11.081  0.2702 -0.0912  0.4381
  434TMC3     O 6473   3.982   3.170  11.152 -0.1441 -0.0823  0.1751
  434TMC3     H 6474   4.145   3.018  11.087 -2.9723  0.6584 -1.4534
  434TMC3    H1 6475   4.073   3.333  10.810 -1.7206 -0.4714  1.1450
  434TMC3    H2 6476   4.458   3.143  10.827 -0.3395 -0.3778 -1.9703
  434TMC3    C7 6477   4.241   3.215  10.655  0.3212  0.4271  0.1981
  434TMC3    C8 6478   4.403   3.048  11.071 -0.0029 -0.4640  0.5340
  434TMC3    O1 6479   4.153   3.275  10.598 -0.4600  0.0060  0.0551
  434TMC3    O2 6480   4.348   3.048  11.178 -0.3583 -0.2300  0.3181
  435MPD2     C 6481   1.574   3.126  15.551  0.3218 -0.1492 -0.9405
  435MPD2    C1 6482   1.517   3.072  15.664  0.0253 -0.0256 -0.0166
  435MPD2    C2 6483   1.594   2.977  15.733 -0.2526 -0.0629  0.0640
  435MPD2    C3 6484   1.728   2.950  15.694  0.3059  1.3470 -0.1458
  435MPD2    C4 6485   1.782   3.015  15.579  0.1815  0.5932 -0.6597
  435MPD2    C5 6486   1.700   3.099  15.511  0.2680 -0.0700  0.5914
  435MPD2     H 6487   1.549   2.922  15.815  0.4149 -1.5845 -0.5932
  435MPD2    H1 6488   1.877   2.996  15.532  0.3327 -1.4632  0.4353
  435MPD2    H2 6489   1.521   3.194  15.486  0.7997  1.4726  0.3672
  435MPD2    H3 6490   1.735   3.138  15.416  0.2485 -1.9793 -0.2008
  435MPD2     N 6491   1.798   2.856  15.774  0.2540 -0.2215  0.1695
  435MPD2    H5 6492   1.745   2.802  15.842 -0.0870 -0.3579 -0.1994
  435MPD2    N1 6493   1.379   3.098  15.707  0.1883 -0.8229  0.7831
  435MPD2    H7 6494   1.352   3.045  15.790 -1.0481  0.2705  1.0837
  436TMC3    C1 6495   1.007   3.124  15.866 -0.4852 -0.7184 -0.3793
  436TMC3    C2 6496   1.140   3.148  15.824  0.3553  0.0542 -0.2814
  436TMC3    C3 6497   1.157   3.173  15.694 -0.6389 -0.2300 -0.5206
  436TMC3    C4 6498   0.901   3.106  15.787 -0.6060  0.5146 -0.0353
  436TMC3    C5 6499   0.934   3.122  15.654 -0.1230 -0.4195 -0.3964
  436TMC3    C6 6500   1.053   3.163  15.611  0.4726  0.1123 -0.3077
  436TMC3     C 6501   0.990   3.099  16.011 -0.2500  0.3817 -1.2001
  436TMC3     O 6502   1.092   3.076  16.071  0.6615  0.3598 -0.0250
  436TMC3     H 6503   1.223   3.144  15.894  0.0069  0.3967  0.1490
  436TMC3    H1 6504   0.812   3.056  15.822 -1.1451 -0.3744 -2.7004
  436TMC3    H2 6505   1.062   3.161  15.503  0.1250  0.4562 -0.3415
  436TMC3    C7 6506   0.836   3.102  15.552 -0.1025 -1.1000  0.4281
  436TMC3    C8 6507   1.289   3.176  15.639  0.0309 -0.3427  0.2200
  436TMC3    O1 6508   0.871   3.072  15.437 -0.0604  0.2953 -0.0980
  436TMC3    O2 6509   1.306   3.238  15.533 -0.1402  0.2417 -0.4099
  437TMC3    C1 6510   0.241   4.555  12.421  0.9579 -0.3519 -0.4634
  437TMC3    C2 6511   0.188   4.625  12.530 -0.0684  0.3605 -0.6864
  437TMC3    C3 6512   0.177   0.036  12.512 -0.5291 -0.4534  0.7471
  437TMC3    C4 6513   0.269   4.615  12.302  0.4581 -0.5100 -0.3893
  437TMC3    C5 6514   0.258   0.028  12.294 -0.2409 -0.1179 -0.1024
  437TMC3    C6 6515   0.216   0.105  12.399 -0.2469  0.0531  0.7732
  437TMC3     C 6516   0.310   4.436  12.450 -0.7031  0.3345 -0.1378
  437TMC3     O 6517   0.315   4.352  12.359  0.3856 -0.5370  0.2319
  437TMC3     H 6518   0.159   4.568  12.617 -0.7111  1.5723 -0.1065
  437TMC3    H1 6519   0.303   4.552  12.222 -0.1521  0.1646 -1.1796
  437TMC3    H2 6520   0.195   0.209  12.375  0.8587  1.0386  4.0493
  437TMC3    C7 6521   0.344   0.083  12.190  0.4342 -0.5451  0.0772
  437TMC3    C8 6522   0.101   0.101  12.619 -0.3151  0.2769  0.6551
  437TMC3    O1 6523   0.352   0.028  12.079 -0.5459  0.6518  0.1843
  437TMC3    O2 6524   0.019   0.028  12.666  0.7513  0.2975  0.6544
  438MPD2     C 6525   3.111   1.339  16.763  0.2479 -0.3417 -0.8011
  438MPD2    C1 6526   3.092   1.214  16.819 -0.9196  0.4258  0.1520
  438MPD2    C2 6527   3.021   1.200  16.936 -0.6429  0.0985 -0.1509
  438MPD2    C3 6528   2.965   1.306  17.000  0.0140 -0.0852  0.4835
  438MPD2    C4 6529   3.002   1.429  16.947  0.8749  0.4407 -0.6955
  438MPD2    C5 6530   3.060   1.451  16.830  0.4484 -0.4402 -0.3351
  438MPD2     H 6531   3.015   1.099  16.975  1.0694  0.6996  1.6811
  438MPD2    H1 6532   2.966   1.517  17.000  2.1532  2.3760 -3.0769
  438MPD2    H2 6533   3.156   1.364  16.668  0.8400 -0.7682 -0.6303
  438MPD2    H3 6534   3.060   1.549  16.783  2.0569 -1.6611 -2.8493
  438MPD2     N 6535   2.893   1.301  17.123 -0.5258  0.7353  0.0755
  438MPD2    H5 6536   2.848   1.386  17.157  1.2557  2.6371 -2.3139
  438MPD2    N1 6537   3.153   1.098  16.763  0.3735  0.2673 -0.3050
  438MPD2    H7 6538   3.134   1.004  16.798 -1.1342  0.5609 -0.3341
  439TMC3    C1 6539   3.262   0.961  16.610 -0.1085 -0.1042  0.3780
  439TMC3    C2 6540   3.302   0.951  16.479  1.0952  0.1282  0.0047
  439TMC3    C3 6541   3.371   0.836  16.446 -0.2825 -0.2506 -0.3720
  439TMC3    C4 6542   3.293   0.866  16.703  0.3504  0.5518  0.5520
  439TMC3    C5 6543   3.369   0.753  16.668 -0.1522  0.1730 -0.6800
  439TMC3    C6 6544   3.402   0.735  16.533 -0.2500  0.1783  0.3754
  439TMC3     C 6545   3.213   1.098  16.642 -0.3894  0.7817 -0.7257
  439TMC3     O 6546   3.228   1.195  16.566 -0.1806  0.6367  0.0260
  439TMC3     H 6547   3.294   1.034  16.410 -1.2069 -0.0116  0.1095
  439TMC3    H1 6548   3.285   0.884  16.809 -0.6833 -1.2990  0.7776
  439TMC3    H2 6549   3.443   0.642  16.495 -0.0319 -0.3158  1.8394
  439TMC3    C7 6550   3.426   0.660  16.767  0.4263  0.1323 -0.3437
  439TMC3    C8 6551   3.357   0.798  16.309  0.0784  0.4274  1.2629
  439TMC3    O1 6552   3.372   0.648  16.875  0.1487  0.4447 -0.2118
  439TMC3    O2 6553   3.452   0.738  16.262  0.0084 -0.1482 -0.3363
  440MPD2     C 6554   1.139   1.507  15.121 -0.3338  0.7922  0.0213
  440MPD2    C1 6555   1.222   1.592  15.192  0.1007  0.1481  0.1143
  440MPD2    C2 6556   1.353   1.557  15.201 -0.0683 -0.1322 -0.0508
  440MPD2    C3 6557   1.407   1.445  15.133  0.0087 -0.3803  0.1763
  440MPD2    C4 6558   1.324   1.365  15.057 -0.3666  0.4982 -0.0502
  440MPD2    C5 6559   1.190   1.395  15.054 -0.3043  0.8671 -0.3438
  440MPD2     H 6560   1.418   1.628  15.250  1.1109 -0.7199 -0.7666
  440MPD2    H1 6561   1.355   1.271  15.013 -0.2489  1.6270 -2.3857
  440MPD2    H2 6562   1.033   1.522  15.104 -0.3508 -0.4617 -0.9219
  440MPD2    H3 6563   1.120   1.327  15.007 -0.5413  2.6866 -2.5617
  440MPD2     N 6564   1.548   1.419  15.128 -0.3848 -0.4166 -0.0203
  440MPD2    H5 6565   1.576   1.345  15.064  3.1338  1.1816 -0.3423
  440MPD2    N1 6566   1.177   1.718  15.249 -0.0086 -0.1783  0.2695
  440MPD2    H7 6567   1.245   1.766  15.307 -1.5372  0.4297  1.5669
  441TMC3    C1 6568   1.776   1.426  15.184 -0.1058  1.0654  0.1574
  441TMC3    C2 6569   1.881   1.513  15.210 -0.0274  0.3239  0.1870
  441TMC3    C3 6570   1.981   1.468  15.292  0.3642  0.4804  0.6161
  441TMC3    C4 6571   1.766   1.301  15.238 -0.0932  0.3599 -0.4698
  441TMC3    C5 6572   1.863   1.261  15.326  0.8680  0.2555 -0.2265
  441TMC3    C6 6573   1.971   1.341  15.356  0.9801 -0.0855  0.0500
  441TMC3     C 6574   1.645   1.492  15.196  0.5304 -0.8528 -0.5305
  441TMC3     O 6575   1.644   1.587  15.272 -0.4173  0.0341  0.2311
  441TMC3     H 6576   1.879   1.614  15.173 -0.6630 -0.4042 -1.7548
  441TMC3    H1 6577   1.670   1.249  15.238  0.3571 -0.4819  0.7007
  441TMC3    H2 6578   2.044   1.325  15.434  1.1016 -1.5976 -0.3750
  441TMC3    C7 6579   1.811   1.186  15.438 -0.4908  0.0698  0.0900
  441TMC3    C8 6580   2.025   1.570  15.382 -0.1269 -0.7891 -0.3353
  441TMC3    O1 6581   1.686   1.185  15.449 -0.9888  0.7627  0.4249
  441TMC3    O2 6582   2.144   1.583  15.392 -0.1468 -0.1398  0.3089
  442MPD2     C 6583   4.553   2.298  16.469  0.5078 -0.1378  0.4597
  442MPD2    C1 6584   4.427   2.258  16.423  0.8384  0.0332  0.0082
  442MPD2    C2 6585   4.423   2.162  16.323  0.5870 -0.5390  0.0061
  442MPD2    C3 6586   4.535   2.103  16.278 -0.4664 -0.5867 -0.3484
  442MPD2    C4 6587   4.659   2.144  16.330  0.6709 -0.4430 -0.1567
  442MPD2    C5 6588   4.666   2.245  16.417 -0.0226 -0.6037 -0.4000
  442MPD2     H 6589   4.322   2.144  16.285  0.8970 -0.4209 -0.8871
  442MPD2    H1 6590   0.033   2.099  16.309  1.2570  0.8958 -0.2982
  442MPD2    H2 6591   4.566   2.370  16.549 -1.3212  1.4233 -0.6730
  442MPD2    H3 6592   0.041   2.277  16.453  0.0750 -0.1449 -1.0618
  442MPD2     N 6593   4.527   1.998  16.185  0.3705 -0.2667 -0.2698
  442MPD2    H5 6594   4.610   1.976  16.132  0.7328 -0.0714  0.2111
  442MPD2    N1 6595   4.301   2.303  16.472 -0.1453 -0.4088  0.3316
  442MPD2    H7 6596   4.219   2.270  16.421  0.3278  2.3912 -2.2708
  443TMC3    C1 6597   4.148   2.402  16.609  0.5374 -0.1585  0.2514
  443TMC3    C2 6598   4.068   2.378  16.500 -0.5178 -0.5710 -0.1658
  443TMC3    C3 6599   3.930   2.379  16.534 -0.2685 -0.4959  0.0200
  443TMC3    C4 6600   4.108   2.410  16.738  0.2669 -0.0678  0.1330
  443TMC3    C5 6601   3.977   2.393  16.763  0.4258 -0.0494  0.2140
  443TMC3    C6 6602   3.886   2.370  16.659  0.4489 -0.3122  0.6102
  443TMC3     C 6603   4.287   2.366  16.590 -0.5119  0.5896 -0.3272
  443TMC3     O 6604   4.362   2.375  16.685  0.1903  0.3954 -0.4894
  443TMC3     H 6605   4.094   2.383  16.394 -0.1674 -1.4570 -0.1197
  443TMC3    H1 6606   4.183   2.405  16.816 -2.4043 -0.5898  2.6747
  443TMC3    H2 6607   3.782   2.349  16.682 -0.5348 -1.4402 -4.9353
  443TMC3    C7 6608   3.945   2.312  16.883 -0.0423  0.4162  0.0956
  443TMC3    C8 6609   3.845   2.323  16.431 -0.8252 -0.4719 -0.2522
  443TMC3    O1 6610   4.028   2.227  16.923 -0.4909 -0.2000 -0.4552
  443TMC3    O2 6611   3.793   2.216  16.460  0.0306 -0.3843 -0.2804
  444MPD2     C 6612   4.669   1.363  17.239  0.2474 -0.4623  0.5856
  444MPD2    C1 6613   4.564   1.309  17.161  0.0968  0.2783  0.4105
  444MPD2    C2 6614   4.592   1.217  17.061  0.3848 -0.0901 -0.6057
  444MPD2    C3 6615   0.005   1.183  17.042  0.5065  0.6266 -0.5827
  444MPD2    C4 6616   0.108   1.237  17.112  0.0470  0.4751 -0.1549
  444MPD2    C5 6617   0.078   1.327  17.213 -0.6684  0.0550  0.0335
  444MPD2     H 6618   4.514   1.175  16.998  0.3213 -0.0357 -0.5619
  444MPD2    H1 6619   0.210   1.223  17.080 -0.6376  1.5045 -2.8351
  444MPD2    H2 6620   4.646   1.441  17.311  0.9774  1.0887 -0.8424
  444MPD2    H3 6621   0.150   1.382  17.271  0.1117 -0.6660 -0.2572
  444MPD2     N 6622   0.031   1.089  16.934  0.7960  0.1298 -0.4170
  444MPD2    H5 6623   4.674   1.052  16.884  1.0636  0.4337 -1.0722
  444MPD2    N1 6624   4.427   1.325  17.193 -0.1812 -0.4012  0.9206
  444MPD2    H7 6625   4.373   1.259  17.138  0.7054  0.1687 -0.6408
  445TMC3    C1 6626   0.150   0.970  16.772  0.4149 -1.3296  0.6664
  445TMC3    C2 6627   0.040   0.977  16.691 -0.7017 -0.0271 -0.6986
  445TMC3    C3 6628   0.042   0.917  16.571  0.0723  0.7735  0.2319
  445TMC3    C4 6629   0.261   0.902  16.741 -1.0470  0.1284  0.8274
  445TMC3    C5 6630   0.264   0.842  16.620 -0.2144  0.2206  0.4423
  445TMC3    C6 6631   0.152   0.847  16.534  0.0875 -0.5843 -0.0714
  445TMC3     C 6632   0.157   1.061  16.885  1.3177  0.0484 -0.0036
  445TMC3     O 6633   0.272   1.105  16.906  1.0056 -0.5902  0.3175
  445TMC3     H 6634   4.677   1.037  16.719 -0.1195  0.2015  0.5794
  445TMC3    H1 6635   0.350   0.918  16.801 -1.7896  1.4551  1.6014
  445TMC3    H2 6636   0.169   0.800  16.439  1.1597 -2.1715  0.9143
  445TMC3    C7 6637   0.394   0.795  16.565  0.7652 -0.8408 -0.0491
  445TMC3    C8 6638   4.657   0.930  16.469  0.1527 -0.3454  0.1770
  445TMC3    O1 6639   0.405   0.795  16.445 -0.1242  0.6160 -0.1082
  445TMC3    O2 6640   4.566   1.006  16.496 -0.4703  0.4067  0.3584
  446MPD2     C 6641   3.938   2.868  11.501 -0.2972 -0.1958 -0.3159
  446MPD2    C1 6642   4.011   2.852  11.384 -0.1862 -0.2517  0.0524
  446MPD2    C2 6643   4.117   2.934  11.361  0.9937  0.2198  0.2008
  446MPD2    C3 6644   4.147   3.039  11.445  0.0827  0.6078  0.3907
  446MPD2    C4 6645   4.062   3.066  11.553 -0.0784 -0.1152  0.3787
  446MPD2    C5 6646   3.962   2.977  11.577  0.0737  0.3296  0.0693
  446MPD2     H 6647   4.173   2.913  11.270 -0.6979  0.1912 -0.8401
  446MPD2    H1 6648   4.079   3.148  11.622  0.9030  0.3075 -0.3579
  446MPD2    H2 6649   3.858   2.802  11.531  0.2600 -0.6684  0.1371
  446MPD2    H3 6650   3.888   2.989  11.655 -0.3150 -0.3570 -0.1990
  446MPD2     N 6651   4.255   3.127  11.408  0.1595 -0.0292  0.0640
  446MPD2    H5 6652   4.292   3.100  11.317 -1.7313 -0.6993 -0.5106
  446MPD2    N1 6653   3.985   2.749  11.295 -0.3166  0.0281  0.5741
  446MPD2    H7 6654   4.038   2.745  11.209 -2.3410  2.5190 -0.8001
  447TMC3    C1 6655   4.427   3.284  11.420 -0.2937 -0.6946 -0.2528
  447TMC3    C2 6656   4.427   3.319  11.284  0.0328 -0.7448 -0.0461
  447TMC3    C3 6657   4.535   3.371  11.228  1.0528  0.2680 -0.2612
  447TMC3    C4 6658   4.534   3.303  11.500 -0.5561  0.2652 -0.6626
  447TMC3    C5 6659   4.643   3.352  11.432 -0.3781 -0.1887  0.2883
  447TMC3    C6 6660   4.649   3.397  11.303  0.1901 -0.5165  0.5404
  447TMC3     C 6661   4.306   3.229  11.486 -0.2944  0.1495 -0.4113
  447TMC3     O 6662   4.312   3.244  11.608 -0.4921  0.0614 -0.2044
  447TMC3     H 6663   4.337   3.298  11.228  0.2119 -1.4515 -0.0605
  447TMC3    H1 6664   4.542   3.265  11.601 -0.4878 -0.4234 -0.9276
  447TMC3    H2 6665   0.010   3.460  11.272  2.3121 -1.8951  3.4340
  447TMC3    C7 6666   0.054   3.320  11.483  0.0091  0.0199 -0.3863
  447TMC3    C8 6667   4.538   3.399  11.088  0.2701 -1.1719  0.6000
  447TMC3    O1 6668   0.138   3.315  11.389  0.3853  0.1782  0.2786
  447TMC3    O2 6669   4.432   3.381  11.029  0.1795 -0.0130  0.3490
  448TMC3    C1 6670   3.325   2.458  16.855  0.0923 -0.4303 -1.2618
  448TMC3    C2 6671   3.338   2.324  16.831 -0.3601  0.3791 -1.0929
  448TMC3    C3 6672   3.296   2.240  16.928  0.4689  0.1383  0.1697
  448TMC3    C4 6673   3.267   2.513  16.966 -0.0237  0.7766 -0.5879
  448TMC3    C5 6674   3.228   2.422  17.059 -0.0303 -0.5571 -0.4891
  448TMC3    C6 6675   3.252   2.292  17.047  0.7695 -1.0014 -0.6090
  448TMC3     C 6676   3.371   2.553  16.761  0.3627  0.2739 -0.4275
  448TMC3     O 6677   3.387   2.671  16.791  0.0235  0.8930 -0.4451
  448TMC3     H 6678   3.391   2.290  16.743  2.8765  2.8134 -0.0615
  448TMC3    H1 6679   3.266   2.619  16.989  0.8845  0.4766  0.7858
  448TMC3    H2 6680   3.241   2.224  17.131 -1.1288  0.1415  0.0604
  448TMC3    C7 6681   3.232   2.474  17.194  0.7178 -0.3179  0.1564
  448TMC3    C8 6682   3.290   2.093  16.914 -0.3803  0.2323  0.4632
  448TMC3    O1 6683   3.306   2.570  17.213 -0.2860  0.2360 -0.5349
  448TMC3    O2 6684   3.298   2.027  17.018  0.3280  0.3927 -0.2751
  449MPD2     C 6685   3.293   1.472  13.094 -0.0533  0.6628  0.0410
  449MPD2    C1 6686   3.267   1.404  13.213  0.5327 -0.0791  0.1407
  449MPD2    C2 6687   3.158   1.432  13.287 -0.3064  0.4000 -0.1762
  449MPD2    C3 6688   3.071   1.538  13.254  0.1477  0.3219 -0.5704
  449MPD2    C4 6689   3.106   1.611  13.147 -0.5910 -0.1902  0.3908
  449MPD2    C5 6690   3.214   1.578  13.078  0.8154  0.1138 -0.0005
  449MPD2     H 6691   3.117   1.366  13.363  0.0943 -0.1091 -0.4082
  449MPD2    H1 6692   3.049   1.701  13.129 -1.0561 -0.6538 -0.4558
  449MPD2    H2 6693   3.380   1.458  13.030 -0.6619 -0.9682 -0.4320
  449MPD2    H3 6694   3.249   1.646  13.002  0.8020 -0.6772 -0.7106
  449MPD2     N 6695   2.970   1.569  13.349  0.2606  0.3797  0.4618
  449MPD2    H5 6696   2.963   1.507  13.429 -0.5634  1.5218  1.2659
  449MPD2    N1 6697   3.337   1.298  13.259  0.2467  0.0891 -0.1123
  449MPD2    H7 6698   3.284   1.237  13.320 -1.3088  0.3143 -1.2455
  450TMC3    C1 6699   3.489   1.125  13.292  0.2611  0.2154  0.0615
  450TMC3    C2 6700   3.598   1.128  13.363  0.2527 -0.3096 -0.1760
  450TMC3    C3 6701   3.603   1.057  13.483 -0.1002 -0.3348 -0.2382
  450TMC3    C4 6702   3.385   1.043  13.331 -0.6575 -0.1739 -0.0314
  450TMC3    C5 6703   3.381   0.979  13.445 -0.2051  0.3977  0.3798
  450TMC3    C6 6704   3.492   0.991  13.529 -0.0398  0.4568  0.3770
  450TMC3     C 6705   3.461   1.253  13.219  0.3886 -0.7320  0.2541
  450TMC3     O 6706   3.545   1.307  13.144  0.5869  0.6022  0.3868
  450TMC3     H 6707   3.684   1.186  13.331  0.6760 -1.4489 -1.1247
  450TMC3    H1 6708   3.290   1.041  13.279 -0.2415  0.8031 -0.7992
  450TMC3    H2 6709   3.489   0.928  13.617  0.7676 -0.0585  0.0323
  450TMC3    C7 6710   3.252   1.031  13.505  0.3747 -0.2778  0.0196
  450TMC3    C8 6711   3.720   1.055  13.579 -0.3711  0.6539 -0.8190
  450TMC3    O1 6712   3.229   1.146  13.467 -0.2131  0.2946  0.8256
  450TMC3    O2 6713   3.686   1.055  13.694  0.1068 -0.3971  0.1952
  451MPD2     C 6714   0.898   4.407   1.220  0.6506  0.0737  0.3548
  451MPD2    C1 6715   0.825   4.445   1.334  0.4398  0.0115  0.0608
  451MPD2    C2 6716   0.899   4.470   1.449  0.1023 -0.3072 -0.2052
  451MPD2    C3 6717   1.036   4.452   1.448  0.2628  0.2303  0.5519
  451MPD2    C4 6718   1.104   4.404   1.339 -0.3556  0.7818  0.0839
  451MPD2    C5 6719   1.036   4.387   1.222 -0.3800 -0.0209 -0.1393
  451MPD2     H 6720   0.847   4.512   1.535 -0.1970  0.0864 -0.5788
  451MPD2    H1 6721   1.211   4.387   1.338 -0.6351 -0.9578  0.8900
  451MPD2    H2 6722   0.842   4.373   1.133 -0.7683 -1.2755  1.7828
  451MPD2    H3 6723   1.083   4.357   1.130  0.0019 -0.0515  0.0652
  451MPD2     N 6724   1.118   4.474   1.567  0.1672 -0.6308 -0.4450
  451MPD2    H5 6725   1.219   4.473   1.557  0.1108 -0.7238 -1.0341
  451MPD2    N1 6726   0.686   4.470   1.328 -0.0341 -0.4270  1.0829
  451MPD2    H7 6727   0.642   4.446   1.240  2.2438  0.2083 -0.2203
  452TMC3    C1 6728   1.179   4.518   1.789  0.3641 -0.6776  0.3623
  452TMC3    C2 6729   1.151   4.516   1.927 -0.4373  0.2486  0.2938
  452TMC3    C3 6730   1.232   4.592   2.006 -0.2188  0.0378 -0.2591
  452TMC3    C4 6731   1.286   4.602   1.745 -1.0180  0.4092 -0.3819
  452TMC3    C5 6732   1.375   4.658   1.835 -0.3867  0.0505 -0.4678
  452TMC3    C6 6733   1.347   4.658   1.966 -0.5201  0.6197  0.5180
  452TMC3     C 6734   1.064   4.494   1.699 -0.5466  0.2236 -0.0507
  452TMC3     O 6735   0.953   4.506   1.747 -0.6527  0.0055 -0.5864
  452TMC3     H 6736   1.069   4.451   1.958 -4.2718  3.7802 -2.4420
  452TMC3    H1 6737   1.295   4.624   1.639 -0.4068  0.5863 -0.2896
  452TMC3    H2 6738   1.415   4.693   2.043 -0.8470 -0.9086  1.5072
  452TMC3    C7 6739   1.499   4.712   1.778 -0.8980  0.4538  0.1502
  452TMC3    C8 6740   1.194   4.596   2.146 -0.0770 -0.6654 -0.1308
  452TMC3    O1 6741   1.534   4.673   1.667  0.2892  0.0760  0.1479
  452TMC3    O2 6742   1.107   4.513   2.184  0.6108 -0.2689 -0.0078
  453TMC3    C1 6743   1.621   1.548  11.592 -0.3159 -0.6698  0.3522
  453TMC3    C2 6744   1.559   1.436  11.655  0.3707  0.2086 -0.7187
  453TMC3    C3 6745   1.451   1.391  11.588  0.3635  0.5515  0.4783
  453TMC3    C4 6746   1.585   1.600  11.470 -0.8661 -0.3584 -0.5939
  453TMC3    C5 6747   1.473   1.551  11.409  0.2017 -0.0426 -0.2034
  453TMC3    C6 6748   1.401   1.449  11.470 -0.5236 -0.0344  0.1686
  453TMC3     C 6749   1.727   1.616  11.659  0.0278  0.2529  0.3399
  453TMC3     O 6750   1.794   1.700  11.598 -0.1618 -0.2199 -0.2221
  453TMC3     H 6751   1.595   1.394  11.748 -0.4736  2.5062  0.6225
  453TMC3    H1 6752   1.632   1.694  11.442 -0.7929 -0.2343 -0.0682
  453TMC3    H2 6753   1.317   1.405  11.417 -1.3618 -0.4926  1.8918
  453TMC3    C7 6754   1.413   1.623  11.297  0.2888 -0.2272  0.0631
  453TMC3    C8 6755   1.392   1.263  11.625  0.8011  0.2974  0.5991
  453TMC3    O1 6756   1.292   1.645  11.297 -0.8556  0.3714  0.4836
  453TMC3    O2 6757   1.283   1.230  11.592  0.0030 -0.4372 -0.4783
  454MPD2     C 6758   0.357   1.322  16.649  0.0639 -0.6001 -0.5923
  454MPD2    C1 6759   0.416   1.399  16.543  0.2781  0.5613 -0.4134
  454MPD2    C2 6760   0.345   1.504  16.494 -0.5415 -0.1210 -0.1163
  454MPD2    C3 6761   0.219   1.542  16.539  0.4637  0.1500  0.1628
  454MPD2    C4 6762   0.168   1.457  16.635  0.0209 -0.0718  0.6836
  454MPD2    C5 6763   0.234   1.351  16.691 -0.1219 -0.1807  0.2264
  454MPD2     H 6764   0.380   1.565  16.411  1.1059 -0.7041  0.1487
  454MPD2    H1 6765   0.065   1.455  16.669 -0.5414  0.8145 -0.9726
  454MPD2    H2 6766   0.402   1.237  16.700  0.6816  0.1145  0.0380
  454MPD2    H3 6767   0.177   1.296  16.765  0.8512 -1.0951  0.3001
  454MPD2     N 6768   0.129   1.639  16.484 -0.3470 -0.3215  1.2604
  454MPD2    H5 6769   0.039   1.662  16.523 -0.6936  2.9763 -1.4592
  454MPD2    N1 6770   0.534   1.361  16.483  0.0981 -0.2023  0.0226
  454MPD2    H7 6771   0.573   1.267  16.490 -1.9241 -1.1597 -1.5445
  455TMC3    C1 6772   0.031   1.712  16.288  0.0803 -0.2638 -0.0594
  455TMC3    C2 6773   4.639   1.748  16.364  0.0628 -0.3091  1.1915
  455TMC3    C3 6774   4.531   1.668  16.372  0.3470  0.3169 -0.0155
  455TMC3    C4 6775   0.020   1.603  16.209  0.3558  0.4456  0.5085
  455TMC3    C5 6776   4.633   1.525  16.229  0.1702 -0.7455 -0.3600
  455TMC3    C6 6777   4.530   1.554  16.312 -0.0402 -0.0361  0.5194
  455TMC3     C 6778   0.153   1.704  16.365 -0.6871  0.9335  0.0361
  455TMC3     O 6779   0.251   1.704  16.297 -0.3715  0.9170  0.0870
  455TMC3     H 6780   4.645   1.847  16.408 -1.5246  0.3462 -0.0887
  455TMC3    H1 6781   0.107   1.572  16.153  0.3294  1.1912  0.0514
  455TMC3    H2 6782   4.463   1.471  16.329  0.4527 -0.4437  0.4888
  455TMC3    C7 6783   4.647   1.384  16.189  0.0701  0.5959 -0.4246
  455TMC3    C8 6784   4.503   1.662  16.512  0.3062 -0.3934  0.1640
  455TMC3    O1 6785   4.558   1.338  16.117  0.2627 -0.0174  0.1462
  455TMC3    O2 6786   4.591   1.718  16.576  0.1076 -0.2687  0.3897
  456MPD2     C 6787   3.748   0.870  16.631  0.6507  0.3204  0.1590
  456MPD2    C1 6788   3.680   0.967  16.573 -0.0080 -0.6930 -0.6351
  456MPD2    C2 6789   3.611   1.050  16.654  0.0608 -0.5065  0.5288
  456MPD2    C3 6790   3.595   1.026  16.790 -0.3868  0.4965 -0.4413
  456MPD2    C4 6791   3.670   0.930  16.851  0.4318  0.8521  0.0766
  456MPD2    C5 6792   3.751   0.851  16.767  0.0273  0.0489  0.0234
  456MPD2     H 6793   3.575   1.147  16.622  1.7327  0.0677  0.4034
  456MPD2    H1 6794   3.679   0.915  16.958  0.0434 -0.3672 -0.0596
  456MPD2    H2 6795   3.803   0.799  16.571 -1.7658 -1.5838  0.1800
  456MPD2    H3 6796   3.810   0.768  16.803 -1.0104  0.3123  2.3047
  456MPD2     N 6797   3.515   1.116  16.869  0.1690 -0.0275 -0.4584
  456MPD2    H5 6798   3.484   1.193  16.809  2.0971 -0.5305 -2.0836
  456MPD2    N1 6799   3.684   0.990  16.430  0.6597  0.3290  0.6567
  456MPD2    H7 6800   3.744   0.926  16.380  1.5771  2.2440 -0.6866
  457TMC3    C1 6801   3.410   1.220  17.053 -0.5392  0.7716  0.1719
  457TMC3    C2 6802   3.415   1.343  16.994  0.9173  0.6182  0.0543
  457TMC3    C3 6803   3.336   1.442  17.049 -0.2662 -0.0623 -0.5105
  457TMC3    C4 6804   3.328   1.194  17.163  0.6305  0.3323  0.2630
  457TMC3    C5 6805   3.245   1.296  17.205  0.0349  0.5952 -0.0309
  457TMC3    C6 6806   3.255   1.421  17.151  0.2938 -0.1062  0.0105
  457TMC3     C 6807   3.486   1.103  17.000 -0.2796 -0.8362  0.3909
  457TMC3     O 6808   3.512   1.017  17.080 -0.1822 -0.5976 -0.3164
  457TMC3     H 6809   3.485   1.362  16.914  2.8889 -1.5142  1.2635
  457TMC3    H1 6810   3.319   1.094  17.203 -2.0385 -0.0018 -1.1633
  457TMC3    H2 6811   3.175   1.494  17.156  0.5185  0.1882 -0.5981
  457TMC3    C7 6812   3.187   1.276  17.341 -0.8157 -0.2988  0.2075
  457TMC3    C8 6813   3.326   1.573  16.992 -0.1349  0.0559  0.5171
  457TMC3    O1 6814   3.208   1.169  17.398 -0.2223  0.0228  0.2662
  457TMC3    O2 6815   3.272   1.663  17.058  0.3845 -0.0737 -0.0525
  458MPD2     C 6816   0.673   0.471  12.079 -0.9021 -0.3569  0.3110
  458MPD2    C1 6817   0.688   0.448  12.217  0.7567  0.2982 -0.1594
  458MPD2    C2 6818   0.618   0.333  12.261 -0.3751  0.4277 -0.0855
  458MPD2    C3 6819   0.519   0.268  12.182  0.1942  0.5942 -0.2413
  458MPD2    C4 6820   0.509   0.297  12.049 -0.1382 -0.1921  0.0323
  458MPD2    C5 6821   0.590   0.399  12.005 -0.7772  0.1035  0.0214
  458MPD2     H 6822   0.628   0.302  12.365 -1.0159 -0.9386 -0.4324
  458MPD2    H1 6823   0.438   0.250  11.982  1.1854 -1.2000 -0.6386
  458MPD2    H2 6824   0.723   0.553  12.030 -0.1172 -0.8050  0.3665
  458MPD2    H3 6825   0.581   0.435  11.903 -1.2455  1.0215  0.3845
  458MPD2     N 6826   0.426   0.181  12.245  0.3681 -0.4072  0.1825
  458MPD2    H5 6827   0.417   0.196  12.345  1.1747  1.2711  0.0006
  458MPD2    N1 6828   0.773   0.539  12.296  0.0998 -0.0175  0.8680
  458MPD2    H7 6829   0.829   0.604  12.241 -1.5006  1.0533  0.5167
  459TMC3    C1 6830   0.913   0.589  12.475 -0.7139 -0.4811  0.4807
  459TMC3    C2 6831   0.971   0.694  12.408  0.4243  0.1233  0.0886
  459TMC3    C3 6832   1.063   0.762  12.485 -0.0759  0.2704 -1.2283
  459TMC3    C4 6833   0.959   0.546  12.598 -0.1049 -0.0262  0.3153
  459TMC3    C5 6834   1.063   0.607  12.660 -0.0233 -0.1882 -0.4749
  459TMC3    C6 6835   1.111   0.713  12.600  0.5410  0.1629  0.2574
  459TMC3     C 6836   0.791   0.527  12.427  0.5895 -0.1595 -1.8999
  459TMC3     O 6837   0.724   0.468  12.507  0.2479 -0.4009 -0.5909
  459TMC3     H 6838   0.930   0.736  12.316  1.3994  0.8852  0.0091
  459TMC3    H1 6839   0.902   0.465  12.642 -0.0146 -0.5532 -0.5413
  459TMC3    H2 6840   1.194   0.765  12.645 -0.9100  0.8517  2.1118
  459TMC3    C7 6841   1.099   0.558  12.799  0.3987 -0.0289  0.4477
  459TMC3    C8 6842   1.148   0.846  12.410  0.1339  0.5094 -0.5991
  459TMC3    O1 6843   1.061   0.448  12.831 -0.4365  0.2499 -0.3915
  459TMC3    O2 6844   1.269   0.834  12.434 -0.1478 -0.3076 -0.3025
  460MPD2     C 6845   0.105   3.311  10.878  0.5417  0.3859 -0.7000
  460MPD2    C1 6846   4.701   3.352  10.902 -0.2800 -0.4913 -0.3498
  460MPD2    C2 6847   4.607   3.375  10.798 -0.7832  0.1274  0.0438
  460MPD2    C3 6848   4.647   3.358  10.668 -0.0888 -0.4993 -0.0427
  460MPD2    C4 6849   0.050   3.306  10.644 -0.1655 -0.4505  0.0781
  460MPD2    C5 6850   0.140   3.287  10.746 -0.0084  0.1022 -0.1093
  460MPD2     H 6851   4.502   3.400  10.810 -0.8597  0.5260 -1.3418
  460MPD2    H1 6852   0.088   3.273  10.548  2.2503  1.0942  0.4992
  460MPD2    H2 6853   0.172   3.291  10.961  0.0836 -0.5813 -0.5582
  460MPD2    H3 6854   0.237   3.252  10.713 -0.9691 -1.2571 -1.4723
  460MPD2     N 6855   4.549   3.366  10.567  0.4421  0.1764  1.0525
  460MPD2    H5 6856   4.460   3.405  10.596  0.1875  0.3818 -0.0206
  460MPD2    N1 6857   4.667   3.376  11.040  0.1289  0.1981  0.5407
  460MPD2    H7 6858   0.014   3.342  11.106 -0.3513 -1.1214  0.3692
  461TMC3    C1 6859   4.442   3.342  10.351 -1.1473 -0.4511  0.0763
  461TMC3    C2 6860   4.409   3.235  10.265 -0.0286 -0.1241 -0.1219
  461TMC3    C3 6861   4.305   3.259  10.175  0.2290  0.0535  0.0186
  461TMC3    C4 6862   4.374   3.459  10.357 -0.1954  0.2344 -0.9516
  461TMC3    C5 6863   4.278   3.477  10.259  0.5236  0.4027  0.5325
  461TMC3    C6 6864   4.245   3.383  10.167 -0.1791 -0.0170  0.0058
  461TMC3     C 6865   4.556   3.322  10.439  0.2498 -0.0844 -0.1054
  461TMC3     O 6866   4.646   3.262  10.383 -0.2632 -0.0868  0.1668
  461TMC3     H 6867   4.444   3.133  10.275  1.1193  0.3501  0.7434
  461TMC3    H1 6868   4.410   3.546  10.411 -1.3588 -1.0541  1.8745
  461TMC3    H2 6869   4.173   3.414  10.092 -0.1025 -1.5754 -0.7003
  461TMC3    C7 6870   4.225   3.615  10.244  0.0885  0.6383 -0.1198
  461TMC3    C8 6871   4.298   3.167  10.057  0.4025  0.7285  0.9919
  461TMC3    O1 6872   4.203   3.661  10.134 -0.2427 -0.6215 -0.3689
  461TMC3    O2 6873   4.400   3.120  10.013 -0.4127 -0.2486  0.4344
  462TMC3    C1 6874   4.101   4.653   0.413  0.0661  0.6349  0.5245
  462TMC3    C2 6875   4.163   4.673   0.538  0.4871  0.4954 -0.0426
  462TMC3    C3 6876   4.199   4.556   0.604  0.1293 -0.2189 -0.0741
  462TMC3    C4 6877   4.057   4.537   0.359 -0.6747 -0.0533 -0.1583
  462TMC3    C5 6878   4.089   4.428   0.439 -0.3396  0.0575  0.2637
  462TMC3    C6 6879   4.158   4.436   0.556  0.2533 -0.2459  0.2139
  462TMC3     C 6880   4.080   0.050   0.335  0.2421 -0.0344 -0.2011
  462TMC3     O 6881   4.064   0.151   0.395 -0.7500 -0.2038  0.9999
  462TMC3     H 6882   4.191   0.050   0.572  0.3966  0.2521  0.7416
  462TMC3    H1 6883   3.983   4.545   0.280 -1.9674  0.7564  1.1492
  462TMC3    H2 6884   4.144   4.350   0.621  1.9152  1.1570  2.4581
  462TMC3    C7 6885   4.061   4.291   0.391 -0.4950  0.2105  0.3129
  462TMC3    C8 6886   4.333   4.557   0.663 -0.9566  0.2491 -0.8024
  462TMC3    O1 6887   4.070   4.204   0.475  0.0382  0.2979  0.1771
  462TMC3    O2 6888   4.381   4.666   0.693 -0.2395  0.0930 -0.0145
  463MPD2     C 6889   0.549   3.479   2.307 -1.0808 -0.2240 -0.1104
  463MPD2    C1 6890   0.631   3.392   2.237 -0.2834  0.3386 -0.3374
  463MPD2    C2 6891   0.764   3.380   2.277  0.0294  0.3465 -0.0290
  463MPD2    C3 6892   0.818   3.459   2.380 -0.2053  0.5779 -0.2053
  463MPD2    C4 6893   0.728   3.530   2.456 -0.7771  0.2666  0.0945
  463MPD2    C5 6894   0.596   3.541   2.420  0.0795 -0.5262  0.6039
  463MPD2     H 6895   0.825   3.315   2.215 -0.4462  0.4053 -0.5586
  463MPD2    H1 6896   0.757   3.587   2.543  0.0568  0.8531 -0.5645
  463MPD2    H2 6897   0.443   3.485   2.286 -1.2168 -1.3124  0.2437
  463MPD2    H3 6898   0.524   3.598   2.477 -0.7843 -0.5943 -0.4246
  463MPD2     N 6899   0.956   3.460   2.424 -0.7201 -0.0469  0.5196
  463MPD2    H5 6900   0.978   3.513   2.508 -0.0275 -0.2373  0.4542
  463MPD2    N1 6901   0.574   3.308   2.134  0.4012  0.1051  0.3911
  463MPD2    H7 6902   0.634   3.245   2.081  1.4594  1.4757 -0.0613
  464TMC3    C1 6903   0.417   3.226   1.977  0.0591 -0.4200  0.0492
  464TMC3    C2 6904   0.358   3.275   1.861  0.1675  0.5677  0.7072
  464TMC3    C3 6905   0.346   3.181   1.763  0.0479  0.2845  1.1325
  464TMC3    C4 6906   0.456   3.096   1.998 -0.6250 -0.1136 -0.0168
  464TMC3    C5 6907   0.449   3.015   1.889 -0.4777  0.0057 -0.7709
  464TMC3    C6 6908   0.407   3.056   1.768 -0.5021 -0.0995 -0.1619
  464TMC3     C 6909   0.452   3.326   2.081  0.2323 -0.3228 -0.4156
  464TMC3     O 6910   0.360   3.404   2.101 -0.1032  0.2680 -0.8677
  464TMC3     H 6911   0.319   3.376   1.856 -0.0835  0.3964 -0.6866
  464TMC3    H1 6912   0.516   3.068   2.084 -2.5530  0.0429  1.4068
  464TMC3    H2 6913   0.396   2.991   1.681 -1.2964 -1.1293  0.7054
  464TMC3    C7 6914   0.467   2.871   1.908  0.0461 -0.7142  0.2113
  464TMC3    C8 6915   0.276   3.221   1.646  0.2052 -0.8328  0.1618
  464TMC3    O1 6916   0.508   2.839   2.021  0.1536 -0.5617  0.1868
  464TMC3    O2 6917   0.309   3.162   1.540  0.1300  0.4252 -0.3019
  465MPD2     C 6918   2.282   1.111  16.493  0.0945  0.9436  0.2558
  465MPD2    C1 6919   2.163   1.108  16.559 -0.3817  0.2002 -0.2672
  465MPD2    C2 6920   2.049   1.168  16.494 -0.1670 -0.9221  0.0289
  465MPD2    C3 6921   2.061   1.233  16.377 -0.0509 -0.3587  0.0555
  465MPD2    C4 6922   2.182   1.239  16.312 -0.1740  0.0801  0.5845
  465MPD2    C5 6923   2.289   1.180  16.374 -0.2858  0.1706 -0.1376
  465MPD2     H 6924   1.952   1.159  16.540  0.3285  1.8109  1.6285
  465MPD2    H1 6925   2.196   1.288  16.216  2.5319  0.4556  1.1833
  465MPD2    H2 6926   2.377   1.072  16.525  0.3398  2.9734  2.0408
  465MPD2    H3 6927   2.383   1.174  16.321 -0.4023  0.8898 -0.4260
  465MPD2     N 6928   1.941   1.293  16.330 -0.0722  0.3503  0.1194
  465MPD2    H5 6929   1.857   1.249  16.365 -0.0255 -1.9856 -2.6593
  465MPD2    N1 6930   2.153   1.060  16.689 -0.6903 -0.4167  0.4599
  465MPD2    H7 6931   2.059   1.068  16.726 -1.0604  2.6677 -1.0974
  466TMC3    C1 6932   1.565   1.421  16.191  0.3907 -0.3719 -0.8106
  466TMC3    C2 6933   1.559   1.554  16.143  0.5857 -0.2336  1.1355
  466TMC3    C3 6934   1.672   1.616  16.105  0.6595 -0.2948 -0.7999
  466TMC3    C4 6935   1.683   1.365  16.225  0.0271  0.2418  0.0564
  466TMC3    C5 6936   1.796   1.427  16.185 -0.6848  0.4434 -0.2644
  466TMC3    C6 6937   1.791   1.546  16.115 -0.4383 -0.0373 -0.0152
  466TMC3     C 6938   1.456   1.381  16.278  0.4399  0.2896 -0.1350
  466TMC3     O 6939   1.464   1.267  16.322  0.4264 -0.2375  0.4427
  466TMC3     H 6940   1.468   1.604  16.113  0.9396 -0.0243  0.4014
  466TMC3    H1 6941   1.687   1.272  16.281 -1.6344  1.4169  2.1148
  466TMC3    H2 6942   1.880   1.601  16.088  1.2109 -2.3449  0.6393
  466TMC3    C7 6943   1.929   1.398  16.238 -0.0283  0.5457  0.2147
  466TMC3    C8 6944   1.670   1.758  16.110  0.2619  0.1073 -0.4113
  466TMC3    O1 6945   2.024   1.461  16.199 -0.5426  0.0790  0.4874
  466TMC3    O2 6946   1.755   1.808  16.034  0.0498 -0.5578  0.7228
  467TMC3    C1 6947   2.587   0.015  13.671  0.4051  0.4210  0.2401
  467TMC3    C2 6948   2.505   0.079  13.583 -0.5342  0.1061 -0.5305
  467TMC3    C3 6949   2.400   0.150  13.633  0.7625 -0.4530 -0.3568
  467TMC3    C4 6950   2.560   0.007  13.805  0.0355 -0.1636  0.3635
  467TMC3    C5 6951   2.466   0.091  13.853 -0.3912 -0.9764  0.6758
  467TMC3    C6 6952   2.382   0.156  13.768 -0.7099 -0.7858  0.0039
  467TMC3     C 6953   2.722   0.068  13.666  0.3558  0.2229 -0.6283
  467TMC3     O 6954   2.815   4.721  13.701 -0.4533  0.3239 -0.4119
  467TMC3     H 6955   2.532   0.091  13.478  2.5038 -1.5005  0.0966
  467TMC3    H1 6956   2.632   4.684  13.872  1.1335  1.1184  0.0514
  467TMC3    H2 6957   2.295   0.214  13.800  1.0252  0.7805  1.8651
  467TMC3    C7 6958   2.444   0.088  13.994  0.5794 -0.0619 -0.0972
  467TMC3    C8 6959   2.404   0.282  13.575 -0.0985 -0.0584 -0.1508
  467TMC3    O1 6960   2.545   0.064  14.055 -0.0376  0.8818  0.2782
  467TMC3    O2 6961   2.512   0.319  13.548  0.2690 -0.5995  0.6124
  468MPD2     C 6962   1.549   2.978  10.685 -0.7384  0.4341  0.6750
  468MPD2    C1 6963   1.661   2.936  10.752  0.1536 -0.2393 -0.0750
  468MPD2    C2 6964   1.684   2.799  10.757  0.1505  0.2032  0.2143
  468MPD2    C3 6965   1.604   2.710  10.703  0.6016  0.1428 -0.6402
  468MPD2    C4 6966   1.488   2.750  10.639  0.4660 -0.1535 -0.1962
  468MPD2    C5 6967   1.461   2.882  10.622  0.9245  0.3343  0.0827
  468MPD2     H 6968   1.768   2.762  10.815 -0.9486 -0.2534  1.5015
  468MPD2    H1 6969   1.410   2.681  10.607  0.6997 -1.0797  1.2717
  468MPD2    H2 6970   1.540   3.085  10.675 -1.3891  0.1233 -1.9516
  468MPD2    H3 6971   1.372   2.915  10.569  0.1215  0.0234  1.2366
  468MPD2     N 6972   1.615   2.572  10.727  0.5538 -0.2128 -0.3473
  468MPD2    H5 6973   1.535   2.516  10.702 -0.3660 -1.0666  4.3778
  468MPD2    N1 6974   1.748   3.025  10.821  0.7402  0.3149  0.5828
  468MPD2    H7 6975   1.804   2.975  10.889  0.9863 -0.7887 -0.4315
  469TMC3    C1 6976   1.852   3.229  10.898 -0.1916  0.3105  0.4432
  469TMC3    C2 6977   1.917   3.164  10.997 -0.3120  0.1540  1.0603
  469TMC3    C3 6978   1.973   3.234  11.101 -0.4742  0.5244  0.0704
  469TMC3    C4 6979   1.843   3.362  10.896 -0.5265 -0.6381 -0.2582
  469TMC3    C5 6980   1.907   3.433  10.992  0.1247 -0.3207 -0.6703
  469TMC3    C6 6981   1.969   3.372  11.100 -0.5751  0.6527 -0.3361
  469TMC3     C 6982   1.752   3.164  10.810 -0.5971 -0.3597 -0.1137
  469TMC3     O 6983   1.697   3.238  10.730  0.3090 -0.3981  0.0245
  469TMC3     H 6984   1.919   3.057  11.015 -1.4612  0.0482  0.5498
  469TMC3    H1 6985   1.779   3.413  10.825 -0.3510 -0.9965 -0.6687
  469TMC3    H2 6986   2.014   3.427  11.182  0.8687 -1.3384  0.2200
  469TMC3    C7 6987   1.914   3.574  10.954 -0.7755 -0.3105  0.1720
  469TMC3    C8 6988   2.087   3.169  11.174 -0.2345  0.1782  0.2089
  469TMC3    O1 6989   1.870   3.614  10.848 -0.3130 -0.4549  0.1406
  469TMC3    O2 6990   2.148   3.078  11.121 -0.1024 -0.3235 -0.3346
  470TMC3    C1 6991   3.141   3.811   0.681  0.2392 -0.4513  0.5876
  470TMC3    C2 6992   3.237   3.878   0.749 -0.8400 -0.3963  0.4986
  470TMC3    C3 6993   3.232   3.880   0.889  0.2511 -0.5073 -0.4603
  470TMC3    C4 6994   3.034   3.759   0.742 -0.0538 -0.2327  0.0666
  470TMC3    C5 6995   3.024   3.761   0.877  0.0939 -0.2550 -0.4898
  470TMC3    C6 6996   3.122   3.822   0.951 -0.0350  0.6648 -0.4677
  470TMC3     C 6997   3.140   3.821   0.534 -0.3589  0.0537 -0.2640
  470TMC3     O 6998   3.220   3.899   0.483 -0.3140  0.3668 -0.1931
  470TMC3     H 6999   3.322   3.903   0.686 -0.7682  1.6277  1.3771
  470TMC3    H1 7000   2.960   3.701   0.687 -0.3849 -1.9828  2.3689
  470TMC3    H2 7001   3.122   3.819   1.060  1.9707 -0.0049 -0.4901
  470TMC3    C7 7002   2.938   3.665   0.945 -0.3261 -0.2251  0.6368
  470TMC3    C8 7003   3.347   3.937   0.969  0.0269 -0.7348  0.5857
  470TMC3    O1 7004   2.857   3.602   0.875 -0.2151 -0.2290  0.0677
  470TMC3    O2 7005   3.334   3.948   1.090 -0.5247  0.5961 -0.1446
  471MPD2     C 7006   4.555   0.243  16.289 -0.1974  1.1897  0.1881
  471MPD2    C1 7007   4.495   0.122  16.322  1.5549 -0.0364  0.3329
  471MPD2    C2 7008   4.498   0.089  16.455 -1.1769 -0.0456 -0.6120
  471MPD2    C3 7009   4.541   0.176  16.559 -0.2707 -0.1853 -0.1911
  471MPD2    C4 7010   4.580   0.296  16.522 -0.1166 -0.5804 -0.5781
  471MPD2    C5 7011   4.584   0.328  16.389  0.0604  0.3307 -0.2627
  471MPD2     H 7012   4.471   4.712  16.488 -1.3010  0.3789  0.5763
  471MPD2    H1 7013   4.601   0.372  16.596 -2.9055  1.2315 -1.6228
  471MPD2    H2 7014   4.559   0.287  16.190 -0.0555 -0.8906 -0.7193
  471MPD2    H3 7015   4.616   0.428  16.362 -0.3781  0.4571 -0.3060
  471MPD2     N 7016   4.539   0.124  16.691 -0.7291 -0.2158 -0.1444
  471MPD2    H5 7017   4.499   0.032  16.705 -2.6251  0.9754  2.2794
  471MPD2    N1 7018   4.441   0.031  16.227  0.1854 -0.3639  0.1508
  471MPD2    H7 7019   4.395   4.677  16.276 -0.6389 -0.2097 -0.3890
  472TMC3    C1 7020   4.328   4.678  16.035  0.0097  0.5706 -0.4397
  472TMC3    C2 7021   4.231   0.003  15.949 -0.0392 -0.1200  0.4573
  472TMC3    C3 7022   4.155   4.624  15.893 -0.9090 -0.0365  1.1827
  472TMC3    C4 7023   4.350   4.542  16.059  0.3155 -0.5824 -0.4208
  472TMC3    C5 7024   4.273   4.447  16.000 -0.7849 -0.0257  0.4616
  472TMC3    C6 7025   4.168   4.489  15.918  0.0598  1.1308  0.0182
  472TMC3     C 7026   4.419   0.061  16.092  0.1659  0.0833 -0.3566
  472TMC3     O 7027   4.461   0.157  16.024 -0.3605  0.1810  0.7136
  472TMC3     H 7028   4.218   0.108  15.925 -1.1717 -0.8171 -2.0169
  472TMC3    H1 7029   4.433   4.510  16.121  0.3114 -0.2748 -0.2529
  472TMC3    H2 7030   4.105   4.413  15.873 -0.6607  1.5365  0.3377
  472TMC3    C7 7031   4.262   4.331  16.076  0.6728 -0.4298  0.8128
  472TMC3    C8 7032   4.038   4.658  15.831 -0.5240 -0.2839 -0.1035
  472TMC3    O1 7033   4.307   4.339  16.190 -0.0121 -0.2010  0.0981
  472TMC3    O2 7034   4.031   0.038  15.764 -0.7843  0.0719 -0.3844
  473MPD2     C 7035   4.273   2.175  13.728 -0.0481 -0.5466  0.3711
  473MPD2    C1 7036   4.276   2.299  13.669 -0.0233 -0.1930 -0.3714
  473MPD2    C2 7037   4.294   2.411  13.746 -0.2689 -0.2702 -0.1796
  473MPD2    C3 7038   4.325   2.400  13.883 -0.7296  0.4857 -0.0264
  473MPD2    C4 7039   4.332   2.277  13.938 -0.4437 -0.6261 -0.7657
  473MPD2    C5 7040   4.303   2.168  13.863 -0.8189  0.2569 -0.1720
  473MPD2     H 7041   4.287   2.505  13.694  2.7975 -0.1853 -0.4299
  473MPD2    H1 7042   4.338   2.263  14.046 -0.0859  1.1876 -0.5492
  473MPD2    H2 7043   4.256   2.089  13.665  0.6017 -1.3025  1.2344
  473MPD2    H3 7044   4.297   2.071  13.911  1.6453  0.6307  0.8449
  473MPD2     N 7045   4.344   2.509  13.973  0.0037  0.2023  0.0180
  473MPD2    H5 7046   4.367   2.491  14.070  2.0041 -0.8024 -0.6511
  473MPD2    N1 7047   4.225   2.317  13.536  0.1671  0.0613 -0.3025
  473MPD2    H7 7048   4.205   2.415  13.519 -0.1295 -0.0412 -0.5629
  474TMC3    C1 7049   4.362   2.736  14.032 -0.2112  0.2997 -0.0778
  474TMC3    C2 7050   4.272   2.835  14.055 -0.4583 -0.1984  0.7597
  474TMC3    C3 7051   4.286   2.921  14.156  0.1808  0.0163 -0.0961
  474TMC3    C4 7052   4.462   2.709  14.129 -0.5202  0.1913 -0.0708
  474TMC3    C5 7053   4.469   2.795  14.240 -0.5317  0.4998 -0.5676
  474TMC3    C6 7054   4.384   2.895  14.256  0.9124 -0.1451 -0.2752
  474TMC3     C 7055   4.323   2.639  13.934 -0.4389  0.2101  0.6510
  474TMC3     O 7056   4.253   2.667  13.837  0.0183  0.1811  0.4329
  474TMC3     H 7057   4.197   2.856  13.979  0.5148  0.7570  0.0578
  474TMC3    H1 7058   4.539   2.636  14.105  2.1009  2.7123  0.7465
  474TMC3    H2 7059   4.381   2.975  14.329  0.4991 -0.8660  0.4904
  474TMC3    C7 7060   4.603   2.806  14.296 -0.2772 -0.1408  0.3716
  474TMC3    C8 7061   4.162   2.990  14.183 -0.0127  0.1484 -0.5294
  474TMC3    O1 7062   4.692   2.754  14.230 -0.3413  0.1158 -0.0985
  474TMC3    O2 7063   4.066   2.928  14.151  0.5504 -0.2353  0.0645
  475MPD2     C 7064   2.731   0.805  10.966 -0.1712  0.2332  0.1856
  475MPD2    C1 7065   2.710   0.737  10.846  0.3153  0.0146  0.2703
  475MPD2    C2 7066   2.606   0.639  10.838 -0.4603 -0.0662  0.5359
  475MPD2    C3 7067   2.539   0.606  10.949 -0.2198  1.0165  0.8262
  475MPD2    C4 7068   2.561   0.665  11.069 -0.4235 -0.2976  0.4837
  475MPD2    C5 7069   2.657   0.765  11.075  0.6080 -0.0324 -0.8721
  475MPD2     H 7070   2.572   0.580  10.753 -0.4184 -3.4755  2.8830
  475MPD2    H1 7071   2.498   0.643  11.155  0.8098  0.1938  1.5119
  475MPD2    H2 7072   2.802   0.887  10.967 -0.7216  0.7035  0.2764
  475MPD2    H3 7073   2.671   0.827  11.162  2.2082 -2.0254  0.2928
  475MPD2     N 7074   2.439   0.503  10.928  0.2009 -0.4632  0.2919
  475MPD2    H5 7075   2.430   0.476  10.831 -0.9951  2.6155 -0.4814
  475MPD2    N1 7076   2.792   0.769  10.730 -0.5424  0.3444  0.5441
  475MPD2    H7 7077   2.872   0.827  10.752  0.6020 -0.3889 -1.6687
  476TMC3    C1 7078   2.868   0.751  10.505  0.5445  0.3494  0.1146
  476TMC3    C2 7079   2.829   0.736  10.374 -0.8711  0.2580  0.3943
  476TMC3    C3 7080   2.914   0.766  10.271  0.2932 -1.3385  0.3401
  476TMC3    C4 7081   2.990   0.806  10.535  0.6237 -0.1204 -0.4269
  476TMC3    C5 7082   3.073   0.826  10.423  0.3627  0.0222 -0.3402
  476TMC3    C6 7083   3.045   0.800  10.293 -0.0958  0.0017  0.0454
  476TMC3     C 7084   2.779   0.704  10.609  0.1411  0.1110 -0.5612
  476TMC3     O 7085   2.692   0.624  10.572  0.0061 -0.2245  0.4492
  476TMC3     H 7086   2.730   0.701  10.347 -0.3166 -0.2371 -1.0079
  476TMC3    H1 7087   3.027   0.815  10.637  0.1514  0.5683 -0.3180
  476TMC3    H2 7088   3.107   0.833  10.211 -1.2639 -0.2226 -0.9255
  476TMC3    C7 7089   3.201   0.891  10.445  0.2460  0.3018 -0.5306
  476TMC3    C8 7090   2.857   0.778  10.137  0.6291 -0.0581 -0.3258
  476TMC3    O1 7091   3.284   0.913  10.359 -0.1512  0.4675  0.1799
  476TMC3    O2 7092   2.734   0.783  10.129  0.5282 -0.2712  0.0123
  477MPD2     C 7093   0.484   2.494  11.894 -0.7085 -0.6585  0.1925
  477MPD2    C1 7094   0.378   2.525  11.975  0.6401  0.5493  0.2700
  477MPD2    C2 7095   0.381   2.493  12.108 -0.0967  0.2277  1.4659
  477MPD2    C3 7096   0.492   2.424  12.165  0.1104  0.8620  0.1424
  477MPD2    C4 7097   0.599   2.393  12.078 -0.5289  0.1401  0.7402
  477MPD2    C5 7098   0.585   2.414  11.945  0.3250  0.2048 -0.2119
  477MPD2     H 7099   0.296   2.509  12.173 -0.1914  0.4446  1.2881
  477MPD2    H1 7100   0.689   2.344  12.114 -0.8498  0.2959  1.7690
  477MPD2    H2 7101   0.491   2.521  11.789  1.0500  0.1051  0.4974
  477MPD2    H3 7102   0.670   2.406  11.878 -0.2708  0.5352 -1.0202
  477MPD2     N 7103   0.483   2.367  12.298  0.4093  0.0629 -0.2177
  477MPD2    H5 7104   0.395   2.378  12.347  0.5858 -1.4441  0.4438
  477MPD2    N1 7105   0.274   2.605  11.910  0.3458 -0.1428  0.1560
  477MPD2    H7 7106   0.282   2.624  11.811  0.3684 -0.6187  0.0666
  478TMC3    C1 7107   0.089   2.754  11.899 -0.4686 -0.3005 -1.1187
  478TMC3    C2 7108   0.007   2.827  11.981  0.0470  0.4010  0.3885
  478TMC3    C3 7109   4.639   2.915  11.923 -0.1451 -0.0153  0.5605
  478TMC3    C4 7110   0.099   2.771  11.762  0.3019 -0.1976  0.5026
  478TMC3    C5 7111   0.008   2.866  11.704  0.3298  0.5531 -0.4846
  478TMC3    C6 7112   4.640   2.936  11.787  0.3717 -0.0677  0.1756
  478TMC3     C 7113   0.177   2.671  11.976  0.4641  0.5716 -0.2534
  478TMC3     O 7114   0.172   2.692  12.098  0.6563 -0.3634 -0.4079
  478TMC3     H 7115   4.717   2.815  12.088 -0.9374  0.2338  0.2572
  478TMC3    H1 7116   0.153   2.705  11.696  0.1087 -0.0288  0.1733
  478TMC3    H2 7117   4.570   3.002  11.737 -0.7081 -0.5924  0.9753
  478TMC3    C7 7118   0.065   2.934  11.584 -0.7248  0.1598 -0.4654
  478TMC3    C8 7119   4.588   3.015  12.014 -0.3317  0.5229 -0.4542
  478TMC3    O1 7120   0.186   2.918  11.568 -0.1464  0.4537 -0.9449
  478TMC3    O2 7121   4.659   3.046  12.107 -0.0578 -0.2543 -0.6568
  479MPD2     C 7122   3.790   4.212  15.030  0.2590 -0.1865 -0.1435
  479MPD2    C1 7123   3.789   4.180  15.159 -0.1558 -0.5908  0.4032
  479MPD2    C2 7124   3.901   4.189  15.240  0.1297 -0.7644  0.4314
  479MPD2    C3 7125   4.017   4.258  15.195 -0.2838  0.1507 -0.2602
  479MPD2    C4 7126   4.012   4.292  15.061 -0.2800  0.5851 -0.9980
  479MPD2    C5 7127   3.902   4.266  14.983  0.6290  0.4614 -0.6211
  479MPD2     H 7128   3.905   4.162  15.345  0.4379  1.7545  1.0752
  479MPD2    H1 7129   4.101   4.337  15.017  0.7214 -1.2966 -0.8987
  479MPD2    H2 7130   3.702   4.225  14.969  0.3602  0.4693 -0.1535
  479MPD2    H3 7131   3.895   4.310  14.884 -1.5772 -0.6942 -0.9689
  479MPD2     N 7132   4.133   4.292  15.270  0.2910 -0.1361 -0.0951
  479MPD2    H5 7133   4.215   4.295  15.209  0.0834  0.0379 -0.3641
  479MPD2    N1 7134   3.659   4.131  15.210  0.3492  0.0621 -1.3003
  479MPD2    H7 7135   3.579   4.124  15.147 -1.1460  0.9320  0.4877
  480TMC3    C1 7136   3.875   4.277  15.637  0.6086 -0.2122 -0.6456
  480TMC3    C2 7137   3.785   4.368  15.583 -0.3465  0.5079  0.4341
  480TMC3    C3 7138   3.818   4.450  15.477 -0.1194 -0.2230 -0.3373
  480TMC3    C4 7139   4.000   4.269  15.586 -0.2415  0.6024  0.3391
  480TMC3    C5 7140   4.031   4.345  15.478  0.1758  0.6309 -0.1444
  480TMC3    C6 7141   3.943   4.437  15.426  0.6408  0.3446  0.1338
  480TMC3     C 7142   3.834   4.150  15.694 -0.4626  0.2340  0.1489
  480TMC3     O 7143   3.921   4.066  15.702 -0.2739 -0.1938  0.9320
  480TMC3     H 7144   3.689   4.386  15.631 -0.5738 -2.0004  0.9226
  480TMC3    H1 7145   4.080   4.205  15.620 -1.8410 -1.8184 -0.4449
  480TMC3    H2 7146   3.978   4.504  15.348  0.8907  1.6498  1.3710
  480TMC3    C7 7147   4.145   4.318  15.403  0.0460  0.1234  0.2737
  480TMC3    C8 7148   3.713   4.500  15.391  0.6158 -0.4724  0.4614
  480TMC3    O1 7149   4.253   4.344  15.464  0.4941  0.1241  0.6180
  480TMC3    O2 7150   3.600   4.481  15.436 -0.1094  0.0254 -0.3637
  481MPD2     C 7151   0.809   4.099  13.882 -0.0009 -0.2004 -0.4908
  481MPD2    C1 7152   0.697   4.043  13.933  0.1856 -0.2483  0.4548
  481MPD2    C2 7153   0.706   3.976  14.057  0.0750 -0.0648 -0.2138
  481MPD2    C3 7154   0.826   3.991  14.133 -1.1304  0.2339  0.0861
  481MPD2    C4 7155   0.937   4.047  14.075  0.0059  0.1040  1.0190
  481MPD2    C5 7156   0.928   4.093  13.947  0.5798  0.3405 -0.0620
  481MPD2     H 7157   0.617   3.931  14.099 -0.1966  0.4017 -0.2963
  481MPD2    H1 7158   1.029   4.062  14.132  0.0830  0.2054  0.8677
  481MPD2    H2 7159   0.810   4.158  13.791  1.8985 -1.4423 -1.2753
  481MPD2    H3 7160   1.014   4.143  13.905  0.3387  0.9574  0.1840
  481MPD2     N 7161   0.841   3.947  14.267  0.3712 -0.2406  0.3150
  481MPD2    H5 7162   0.930   3.956  14.316  0.4132 -0.7805  0.3366
  481MPD2    N1 7163   0.572   4.058  13.868  0.6160  0.0431 -0.5370
  481MPD2    H7 7164   0.585   4.101  13.777  0.8705 -1.3481 -1.1603
  482TMC3    C1 7165   0.340   4.078  13.827 -0.4938 -0.5566  0.5077
  482TMC3    C2 7166   0.239   3.994  13.838  0.5725  0.1221  0.3052
  482TMC3    C3 7167   0.138   3.997  13.742  0.0819  0.7390  0.7561
  482TMC3    C4 7168   0.366   4.146  13.714  0.7756 -0.3299  0.3065
  482TMC3    C5 7169   0.274   4.146  13.614 -0.5014 -0.3062 -0.3642
  482TMC3    C6 7170   0.161   4.067  13.624  0.5138  0.0599 -0.6102
  482TMC3     C 7171   0.444   4.024  13.907 -0.2246  0.0231  0.5481
  482TMC3     O 7172   0.410   3.965  14.010 -0.0199 -0.0703 -0.1602
  482TMC3     H 7173   0.225   3.924  13.919 -1.3592  1.7896  1.3968
  482TMC3    H1 7174   0.459   4.201  13.706  0.8134 -0.4615 -0.1699
  482TMC3    H2 7175   0.092   4.062  13.541  0.7648 -0.9871 -0.7512
  482TMC3    C7 7176   0.288   4.242  13.507 -0.2077  0.0767 -0.6862
  482TMC3    C8 7177   0.055   3.880  13.745  0.0785 -0.4458  0.7816
  482TMC3    O1 7178   0.349   4.346  13.531  0.1130 -0.2010  0.0294
  482TMC3    O2 7179   0.107   3.777  13.794  0.2264  0.4927  0.0556
  483TMC3    C1 7180   4.534   2.553   0.682  0.0689 -0.9586 -0.5790
  483TMC3    C2 7181   4.475   2.669   0.653 -0.5489  0.5407  0.1735
  483TMC3    C3 7182   4.499   2.771   0.736 -0.2156 -0.1836 -0.7970
  483TMC3    C4 7183   4.631   2.537   0.774  1.5575  0.0123 -0.0492
  483TMC3    C5 7184   4.659   2.644   0.856 -0.8073  0.3175 -0.0357
  483TMC3    C6 7185   4.593   2.763   0.842 -0.7660  0.2711  0.0374
  483TMC3     C 7186   4.513   2.448   0.590  0.5125  0.4647 -0.4780
  483TMC3     O 7187   4.597   2.359   0.583  0.5782  0.3111  0.2009
  483TMC3     H 7188   4.404   2.681   0.572 -0.0899 -0.4316 -0.3813
  483TMC3    H1 7189   4.681   2.441   0.781  1.0277 -0.0692  2.7630
  483TMC3    H2 7190   4.613   2.849   0.906  2.0095  1.5513 -2.5801
  483TMC3    C7 7191   0.059   2.643   0.944 -0.3199 -0.2802  0.1019
  483TMC3    C8 7192   4.425   2.894   0.710  0.1778 -0.3926 -0.5583
  483TMC3    O1 7193   0.129   2.541   0.952 -0.0031 -0.0040 -0.5638
  483TMC3    O2 7194   4.375   2.911   0.597 -0.5175 -0.0451  0.1122
  484MPD2     C 7195   1.062   1.081  12.138  0.2072 -0.2971  0.0181
  484MPD2    C1 7196   1.143   1.013  12.220 -0.4427  0.0830 -0.1654
  484MPD2    C2 7197   1.282   1.022  12.205  0.0851 -0.0113  0.2397
  484MPD2    C3 7198   1.331   1.105  12.104 -0.1306  0.2489  0.3887
  484MPD2    C4 7199   1.249   1.179  12.029 -0.5489  0.4397  0.4074
  484MPD2    C5 7200   1.117   1.163  12.050  0.2752  0.7126 -0.4286
  484MPD2     H 7201   1.351   0.973  12.272 -0.1067 -0.0838  0.3862
  484MPD2    H1 7202   1.280   1.236  11.941  1.9195  1.3460  1.8590
  484MPD2    H2 7203   0.955   1.070  12.149  0.1023 -1.4458 -2.1711
  484MPD2    H3 7204   1.047   1.218  11.988 -1.1653 -0.7285 -0.0884
  484MPD2     N 7205   1.470   1.131  12.079  0.1980  0.2761 -0.2613
  484MPD2    H5 7206   1.489   1.219  12.031 -2.4060  0.2144 -1.4567
  484MPD2    N1 7207   1.083   0.923  12.315  0.1996  0.4375 -0.5667
  484MPD2    H7 7208   0.982   0.920  12.323  0.2770 -1.9415 -0.6820
  485TMC3    C1 7209   1.703   1.090  12.087  0.1555  0.3867 -0.2247
  485TMC3    C2 7210   1.809   1.016  12.139 -0.0685 -0.7387  0.1445
  485TMC3    C3 7211   1.933   1.062  12.103  0.5798 -0.4690  0.5733
  485TMC3    C4 7212   1.727   1.186  11.983 -0.5555 -0.2179 -0.8506
  485TMC3    C5 7213   1.863   1.223  11.960 -0.4141  0.2596 -0.7119
  485TMC3    C6 7214   1.967   1.172  12.026 -0.2312 -1.4880 -0.1784
  485TMC3     C 7215   1.570   1.050  12.125 -0.2257  0.0814  0.6482
  485TMC3     O 7216   1.555   0.944  12.181 -0.4940  0.0300 -0.0262
  485TMC3     H 7217   1.792   0.930  12.203 -0.5174 -0.0098  1.0011
  485TMC3    H1 7218   1.652   1.234  11.921  0.2152  2.2808  0.1695
  485TMC3    H2 7219   2.067   1.207  12.002 -0.8545  0.0378 -0.5464
  485TMC3    C7 7220   1.884   1.236  11.816  0.0396  0.1097 -0.3895
  485TMC3    C8 7221   2.047   0.969  12.101  0.2657 -0.5838  0.3069
  485TMC3    O1 7222   1.789   1.277  11.746  0.6460 -0.0225 -0.0052
  485TMC3    O2 7223   2.119   1.002  12.011 -0.6554  0.7469  0.5645
  486MPD2     C 7224   3.537   0.023  12.112  0.0971  0.6892  0.9414
  486MPD2    C1 7225   3.554   0.070  12.238  0.8933  0.6767  0.4917
  486MPD2    C2 7226   3.487   0.184  12.267  0.2635 -0.4018 -0.5086
  486MPD2    C3 7227   3.394   0.241  12.184  0.1045 -0.2871 -0.1193
  486MPD2    C4 7228   3.391   0.196  12.054 -0.5404  0.1119 -0.2583
  486MPD2    C5 7229   3.460   0.092  12.022  0.1936  0.4378  0.0169
  486MPD2     H 7230   3.490   0.220  12.369  0.0663  0.9793 -0.9962
  486MPD2    H1 7231   3.330   0.242  11.977  0.8649  1.3057 -0.6448
  486MPD2    H2 7232   3.585   4.653  12.081  2.3500  2.3272 -0.3913
  486MPD2    H3 7233   3.448   0.053  11.922  0.8052  0.7817 -0.1937
  486MPD2     N 7234   3.303   0.335  12.240 -0.9166 -0.3588  0.2888
  486MPD2    H5 7235   3.318   0.373  12.334 -3.1476  1.1586  0.0171
  486MPD2    N1 7236   3.636   4.719  12.326  0.0397 -0.0859 -0.1071
  486MPD2    H7 7237   3.681   4.640  12.281 -0.9195 -0.0360 -1.1498
  487TMC3    C1 7238   3.739   4.659  12.524  0.7827 -0.5915 -0.3406
  487TMC3    C2 7239   3.702   4.532  12.498 -0.2041  0.2699 -0.1877
  487TMC3    C3 7240   3.745   4.433  12.583 -0.2205  0.3479 -0.6454
  487TMC3    C4 7241   3.818   4.693  12.634 -0.4824  0.3420  0.9829
  487TMC3    C5 7242   3.842   4.590  12.725 -0.0008 -0.7091  0.2299
  487TMC3    C6 7243   3.830   4.460  12.685  0.5799  0.3857 -0.0642
  487TMC3     C 7244   3.655   0.035  12.460  0.5075  0.7571 -0.1591
  487TMC3     O 7245   3.616   0.140  12.518  0.1892  0.2803  0.1052
  487TMC3     H 7246   3.632   4.506  12.420 -1.2492 -0.3604  0.9621
  487TMC3    H1 7247   3.853   0.071  12.655  0.6967  0.4059 -1.1827
  487TMC3    H2 7248   3.858   4.389  12.762  0.8412  0.2968 -0.2409
  487TMC3    C7 7249   3.775   4.622  12.847  0.3407 -0.6253 -0.7563
  487TMC3    C8 7250   3.640   4.336  12.600  0.0762  0.2442  0.2072
  487TMC3    O1 7251   3.735   0.017  12.848  0.4682 -0.3363  1.1331
  487TMC3    O2 7252   3.529   4.344  12.552  0.0813 -0.2017  0.1661
  488MPD2     C 7253   3.883   1.277  16.399 -0.0588 -0.8415 -0.6660
  488MPD2    C1 7254   3.873   1.412  16.408  0.1431  0.2489  0.4190
  488MPD2    C2 7255   3.865   1.485  16.534  0.1116  0.5955 -0.3962
  488MPD2    C3 7256   3.862   1.406  16.650  0.3037 -0.4256  0.7032
  488MPD2    C4 7257   3.894   1.269  16.641 -0.3187  0.4865 -0.4657
  488MPD2    C5 7258   3.905   1.212  16.517  0.7633  0.6759 -0.4396
  488MPD2     H 7259   3.859   1.593  16.540 -0.4730  0.5936 -0.9293
  488MPD2    H1 7260   3.911   1.200  16.723 -0.8892  1.7248  0.6948
  488MPD2    H2 7261   3.901   1.228  16.305 -2.1162  2.7156 -2.9508
  488MPD2    H3 7262   3.947   1.112  16.511 -0.6522  0.0224  0.3928
  488MPD2     N 7263   3.835   1.470  16.771 -0.0514 -0.9068  0.4757
  488MPD2    H5 7264   3.809   1.568  16.762 -0.9282 -1.1101  0.8574
  488MPD2    N1 7265   3.863   1.493  16.289  0.8419  0.1082 -0.1835
  488MPD2    H7 7266   3.878   1.593  16.297 -0.3702  0.1173  1.8611
  489TMC3    C1 7267   3.776   1.499  16.992  0.3232 -0.2130  0.0764
  489TMC3    C2 7268   3.794   1.635  16.982 -0.1734  0.0895 -0.6323
  489TMC3    C3 7269   3.739   1.708  17.081  0.7166  1.4269 -0.1070
  489TMC3    C4 7270   3.720   1.440  17.098  0.3139 -0.4017 -0.2682
  489TMC3    C5 7271   3.652   1.519  17.189 -0.7513  0.3277  0.1101
  489TMC3    C6 7272   3.657   1.657  17.182  0.1234  0.1249  0.3090
  489TMC3     C 7273   3.826   1.409  16.893 -0.3300  0.4007 -0.2282
  489TMC3     O 7274   3.852   1.293  16.922  0.1228  0.0215  0.1477
  489TMC3     H 7275   3.854   1.671  16.900 -1.5892  1.6670 -0.9800
  489TMC3    H1 7276   3.715   1.332  17.099  0.0167 -0.3896 -0.2444
  489TMC3    H2 7277   3.639   1.723  17.266  1.2175  0.3334  0.3888
  489TMC3    C7 7278   3.573   1.470  17.299 -0.4463 -0.6021 -0.3630
  489TMC3    C8 7279   3.776   1.845  17.092 -0.2648  0.5721  0.0642
  489TMC3    O1 7280   3.492   1.548  17.352 -0.0568  0.3422  0.5976
  489TMC3    O2 7281   3.880   1.870  17.029 -0.5215  0.6123 -0.4045
  490MPD2     C 7282   4.378   1.269  17.623 -0.2088  0.0540 -0.4292
  490MPD2    C1 7283   4.474   1.177  17.584  0.0598  0.4023 -0.9915
  490MPD2    C2 7284   4.606   1.229  17.566 -0.3324 -0.3635  0.1151
  490MPD2    C3 7285   4.636   1.362  17.579  1.0988  0.0163 -0.5476
  490MPD2    C4 7286   4.538   1.452  17.615  0.3800 -0.2130 -0.5003
  490MPD2    C5 7287   4.413   1.401  17.640  0.7187  0.1929 -0.5854
  490MPD2     H 7288   4.683   1.163  17.528  0.2736  1.0324 -1.0619
  490MPD2    H1 7289   4.550   1.560  17.613 -0.2218 -0.1612 -1.2554
  490MPD2    H2 7290   4.275   1.238  17.635  0.0817  0.5144  3.1239
  490MPD2    H3 7291   4.336   1.474  17.663  0.1379 -0.0633 -1.7518
  490MPD2     N 7292   0.051   1.388  17.563 -0.1332 -0.1188 -0.0525
  490MPD2    H5 7293   0.119   1.314  17.546  1.2641  1.5593 -1.6852
  490MPD2    N1 7294   4.443   1.037  17.569 -0.1562 -0.4025 -0.9083
  490MPD2    H7 7295   4.355   1.011  17.614 -0.4335  2.2488  0.1196
  491TMC3    C1 7296   4.471   0.806  17.509 -0.1396 -0.4194  0.1051
  491TMC3    C2 7297   4.404   0.763  17.625  0.2387  0.1788 -0.1168
  491TMC3    C3 7298   4.359   0.635  17.623  0.2166 -0.3668 -0.1794
  491TMC3    C4 7299   4.485   0.726  17.399  0.2335 -0.2574 -0.5456
  491TMC3    C5 7300   4.428   0.601  17.404 -0.5508  0.4702  0.0900
  491TMC3    C6 7301   4.361   0.557  17.514  0.2162  0.1492  0.0331
  491TMC3     C 7302   4.519   0.939  17.505  0.0256  0.4397  0.5707
  491TMC3     O 7303   4.618   0.961  17.433 -0.2645  0.8852  0.7492
  491TMC3     H 7304   4.419   0.825   0.021  0.4768  0.8138 -0.6013
  491TMC3    H1 7305   4.530   0.772  17.312 -2.8207  1.6489 -1.1187
  491TMC3    H2 7306   4.325   0.455  17.520 -3.0267  1.2962  0.1108
  491TMC3    C7 7307   4.398   0.533  17.278  0.3256  0.7119  0.2039
  491TMC3    C8 7308   4.323   0.579   0.062  0.0552  0.3732 -0.1556
  491TMC3    O1 7309   4.313   0.446  17.281 -0.7158 -0.0991 -0.2716
  491TMC3    O2 7310   4.283   0.665   0.142 -0.2626  0.5562 -0.0496
  492MPD2     C 7311   0.312   1.171  11.395  0.5243  0.4524 -0.1499
  492MPD2    C1 7312   0.201   1.168  11.314 -0.6419  0.4733  0.3169
  492MPD2    C2 7313   0.092   1.104  11.363 -0.3801 -0.7712 -0.0690
  492MPD2    C3 7314   0.090   1.034  11.481 -0.3730 -0.0816 -1.1680
  492MPD2    C4 7315   0.204   1.033  11.559  0.0945 -0.2296 -0.2408
  492MPD2    C5 7316   0.314   1.105  11.515  0.1029  0.4744  0.5232
  492MPD2     H 7317   0.012   1.105  11.291 -0.7557 -0.6791  0.3530
  492MPD2    H1 7318   0.219   0.976  11.650 -0.3331  0.2483  0.1328
  492MPD2    H2 7319   0.397   1.231  11.363  1.0622 -0.6246 -0.7229
  492MPD2    H3 7320   0.407   1.100  11.572  1.2611 -0.9634 -1.4794
  492MPD2     N 7321   4.700   0.965  11.528  0.2203 -0.3045  0.5858
  492MPD2    H5 7322   4.707   0.920  11.619 -2.9221 -1.6071  0.1846
  492MPD2    N1 7323   0.210   1.241  11.193  0.0728  0.2122 -0.1671
  492MPD2    H7 7324   0.298   1.286  11.168 -1.2196  2.3249 -0.8776
  493TMC3    C1 7325   0.140   1.353  10.990 -0.7745 -0.0451 -0.2946
  493TMC3    C2 7326   0.246   1.438  10.997 -0.1769 -0.2010  0.6367
  493TMC3    C3 7327   0.290   1.497  10.876  0.0875  0.0697  0.2300
  493TMC3    C4 7328   0.067   1.349  10.874 -0.0767 -0.3549  0.6743
  493TMC3    C5 7329   0.097   1.423  10.768 -0.0906 -0.1598  0.1106
  493TMC3    C6 7330   0.214   1.491  10.763 -0.1812  0.3287 -0.4753
  493TMC3     C 7331   0.105   1.259  11.101  0.2775 -0.4090  0.2023
  493TMC3     O 7332   0.003   1.195  11.091  0.0732 -0.3606 -0.2127
  493TMC3     H 7333   0.309   1.448  11.085  1.5138  0.9884 -0.7078
  493TMC3    H1 7334   4.703   1.284  10.868 -0.0798 -0.3929  1.1209
  493TMC3    H2 7335   0.233   1.549  10.673 -1.8760  0.8424 -0.5068
  493TMC3    C7 7336   0.012   1.417  10.653 -0.1916  0.1123  1.2236
  493TMC3    C8 7337   0.412   1.571  10.873  0.0739  0.8476 -0.7487
  493TMC3    O1 7338   4.659   1.316  10.643  0.1689  0.9117  0.4676
  493TMC3    O2 7339   0.469   1.564  10.978 -0.2951  0.2532 -0.2156
  494TMC3    C1 7340   0.555   2.617   0.670 -0.3633 -0.2310  0.3089
  494TMC3    C2 7341   0.629   2.638   0.782 -0.4409  0.2910 -0.2288
  494TMC3    C3 7342   0.757   2.589   0.780 -0.5694 -0.2798 -0.1375
  494TMC3    C4 7343   0.598   2.544   0.560 -0.1280  0.1365 -0.8501
  494TMC3    C5 7344   0.721   2.482   0.570 -1.1101 -1.0078  0.2556
  494TMC3    C6 7345   0.798   2.507   0.682  1.0480  0.9304 -0.5341
  494TMC3     C 7346   0.438   2.706   0.662  0.1318  0.5831  0.2577
  494TMC3     O 7347   0.465   2.819   0.705  0.3950  0.4132 -0.0559
  494TMC3     H 7348   0.587   2.691   0.867 -0.8205  1.4128 -1.1100
  494TMC3    H1 7349   0.539   2.538   0.469  2.0054  0.1324 -2.2449
  494TMC3    H2 7350   0.892   2.454   0.685 -0.3642 -1.6925 -2.8601
  494TMC3    C7 7351   0.755   2.376   0.475 -0.7883 -0.5345  0.3701
  494TMC3    C8 7352   0.830   2.569   0.905 -0.4117 -0.0295  0.3174
  494TMC3    O1 7353   0.819   2.284   0.519 -0.2521 -0.0662 -0.5141
  494TMC3    O2 7354   0.914   2.484   0.911  0.0163  0.1798  0.0512
  495TMC3    C1 7355   3.876   4.539  14.397  0.4140  0.3133  0.8539
  495TMC3    C2 7356   3.788   4.628  14.338 -0.2490  0.0124 -0.1328
  495TMC3    C3 7357   3.726   0.004  14.421  0.0170  0.2727  0.1892
  495TMC3    C4 7358   3.906   4.545  14.534 -0.6747  0.0920 -0.3045
  495TMC3    C5 7359   3.844   4.635  14.610  0.0032  0.0314 -0.2393
  495TMC3    C6 7360   3.762   0.012  14.556 -0.0301  0.5499 -0.4254
  495TMC3     C 7361   3.888   4.410  14.331  0.0467 -0.5782  0.1533
  495TMC3     O 7362   3.810   4.385  14.237 -0.5161 -0.0311  0.0308
  495TMC3     H 7363   3.772   4.629  14.231  0.7189 -4.1653 -0.2924
  495TMC3    H1 7364   3.970   4.470  14.578 -2.6016 -1.2905  0.1109
  495TMC3    H2 7365   3.711   0.088  14.615 -1.1628 -0.3893 -0.2001
  495TMC3    C7 7366   3.840   4.601  14.752  0.7643 -0.4376  0.2720
  495TMC3    C8 7367   3.590   0.030  14.377 -0.0328 -0.2215 -0.3543
  495TMC3    O1 7368   3.942   4.568  14.805 -0.4280 -0.3270 -0.1627
  495TMC3    O2 7369   3.510   0.013  14.464 -0.5620  0.2273  0.7612
  496MPD2     C 7370   0.967   0.117  15.514  0.7023  0.9987 -0.7443
  496MPD2    C1 7371   0.950   4.706  15.539 -0.0456 -0.4589 -0.7072
  496MPD2    C2 7372   0.928   4.663  15.671 -0.5629 -0.5751  1.2628
  496MPD2    C3 7373   0.907   0.030  15.773 -0.3861 -0.4687  0.2501
  496MPD2    C4 7374   0.908   0.161  15.748  0.2774 -0.1461 -0.0028
  496MPD2    C5 7375   0.949   0.202  15.620  0.8306  0.4222 -0.3221
  496MPD2     H 7376   0.924   4.558  15.697 -0.2664 -0.5954  1.2293
  496MPD2    H1 7377   0.887   0.240  15.820  1.0606  0.5082 -0.4858
  496MPD2    H2 7378   0.990   0.153  15.414  1.3387 -1.3688 -1.4485
  496MPD2    H3 7379   0.967   0.309  15.613 -2.7214  1.1530  1.7054
  496MPD2     N 7380   0.888   4.706  15.903  0.5189 -0.2099 -0.5382
  496MPD2    H5 7381   0.863   4.609  15.917  0.8104 -0.0032  1.4246
  496MPD2    N1 7382   0.977   4.611  15.436 -0.8271  0.6718  0.3097
  496MPD2    H7 7383   1.029   4.638  15.353 -1.8114  0.9715 -0.2012
  497TMC3    C1 7384   0.834   0.002  16.132 -0.5378  0.1107 -0.2022
  497TMC3    C2 7385   0.731   4.638  16.110 -0.5050  0.5695  0.1187
  497TMC3    C3 7386   0.703   4.544  16.207  0.3544  0.2345  0.1844
  497TMC3    C4 7387   0.918   4.716  16.236  0.7269  0.5209  0.2617
  497TMC3    C5 7388   0.887   4.614  16.320  1.0921 -0.2945  0.0730
  497TMC3    C6 7389   0.775   4.532  16.318 -0.2815  0.5009 -0.6145
  497TMC3     C 7390   0.893   0.064  16.014 -0.2987  0.0247  0.0559
  497TMC3     O 7391   0.977   0.151  16.031 -0.3303  0.1730  0.3222
  497TMC3     H 7392   0.666   4.648  16.024 -0.6404  1.6478  0.3515
  497TMC3    H1 7393   0.994   0.069  16.252  1.8431 -0.4383 -0.5954
  497TMC3    H2 7394   0.773   4.443  16.380 -1.0633  1.4828  0.7571
  497TMC3    C7 7395   0.954   4.608  16.454 -0.2588 -0.2379 -0.2075
  497TMC3    C8 7396   0.622   4.430  16.167  0.0638  0.4958  0.2380
  497TMC3    O1 7397   0.896   4.546  16.540  0.1804  0.1872  0.6427
  497TMC3    O2 7398   0.618   4.343  16.251 -0.4334 -0.4124 -0.6026
  498MPD2     C 7399   1.554   0.925   9.438 -0.6025  0.0887 -0.0722
  498MPD2    C1 7400   1.634   0.811   9.461  0.1538 -0.1249  0.0170
  498MPD2    C2 7401   1.579   0.704   9.522 -0.3514  0.4591  0.2181
  498MPD2    C3 7402   1.453   0.697   9.571  0.5436  0.0554  0.3247
  498MPD2    C4 7403   1.367   0.806   9.548 -0.9983  0.0259  0.2675
  498MPD2    C5 7404   1.415   0.919   9.485 -0.5288 -0.3958  0.9760
  498MPD2     H 7405   1.638   0.614   9.538 -0.4195  0.2961 -0.4494
  498MPD2    H1 7406   1.267   0.817   9.589 -0.6563  1.4533  0.7047
  498MPD2    H2 7407   1.594   1.016   9.396 -1.0829  0.8035  1.0448
  498MPD2    H3 7408   1.351   1.003   9.461 -0.7848 -1.2185 -1.2783
  498MPD2     N 7409   1.410   0.580   9.640  0.1289  0.2021  0.0962
  498MPD2    H5 7410   1.475   0.505   9.660 -1.6311 -0.9339  1.5281
  498MPD2    N1 7411   1.771   0.815   9.432 -0.1427 -0.1835  0.3921
  498MPD2    H7 7412   1.814   0.904   9.406 -1.5928  0.0075 -1.3082
  499TMC3    C1 7413   2.001   0.735   9.455 -0.0787  0.3022 -0.2103
  499TMC3    C2 7414   2.053   0.640   9.546  0.0387  1.1751  0.3882
  499TMC3    C3 7415   2.148   0.684   9.635  0.3573 -0.3241  0.1413
  499TMC3    C4 7416   2.051   0.859   9.454 -0.2291  0.2427  0.1782
  499TMC3    C5 7417   2.153   0.892   9.538 -0.0134 -0.1178 -0.1209
  499TMC3    C6 7418   2.201   0.808   9.627 -0.1665  0.5193 -0.3401
  499TMC3     C 7419   1.854   0.708   9.435  0.9582  0.3162  0.0497
  499TMC3     O 7420   1.824   0.589   9.425 -0.2514 -0.3905  0.1266
  499TMC3     H 7421   2.013   0.540   9.555 -0.1682  1.2595  0.4094
  499TMC3    H1 7422   2.024   0.934   9.380  2.3894  0.8709 -0.1707
  499TMC3    H2 7423   2.268   0.846   9.704  2.0516  0.7697 -2.3788
  499TMC3    C7 7424   2.235   1.003   9.511 -1.3726  0.1894  0.9280
  499TMC3    C8 7425   2.165   0.598   9.748  0.3591 -0.2670 -0.3970
  499TMC3    O1 7426   2.186   1.097   9.447 -0.2014 -0.2985  0.2227
  499TMC3    O2 7427   2.083   0.510   9.763  0.2128  0.5508  0.0492
  500MPD2     C 7428   4.076   2.048  10.568  0.3662 -0.2278 -0.1939
  500MPD2    C1 7429   4.056   2.166  10.490 -0.1740 -0.0271 -0.5114
  500MPD2    C2 7430   3.937   2.178  10.420 -0.5729 -0.0853 -0.0237
  500MPD2    C3 7431   3.848   2.064  10.401  0.0143  0.0679 -0.5909
  500MPD2    C4 7432   3.878   1.952  10.474 -0.6461  0.1843 -0.4190
  500MPD2    C5 7433   3.982   1.948  10.557  0.3851 -0.5221  0.1043
  500MPD2     H 7434   3.917   2.271  10.369 -0.5367  0.2932  0.6489
  500MPD2    H1 7435   3.820   1.860  10.477 -0.0039 -0.2013  0.3029
  500MPD2    H2 7436   4.149   2.027  10.645  0.3789  1.3503  0.2096
  500MPD2    H3 7437   3.989   1.857  10.617 -0.9560 -0.6358  0.0950
  500MPD2     N 7438   3.727   2.053  10.330  0.2601  0.0153 -0.6704
  500MPD2    H5 7439   3.676   1.966  10.343 -1.4030  0.8571 -1.5619
  500MPD2    N1 7440   4.152   2.274  10.477 -0.2180  0.1310 -0.5781
  500MPD2    H7 7441   4.114   2.362  10.444  2.6678  2.1090  1.3561
  501TMC3    C1 7442   4.369   2.360  10.534 -0.0413 -0.1391 -0.0011
  501TMC3    C2 7443   4.370   2.456  10.441  0.2597 -0.3487 -0.3275
  501TMC3    C3 7444   4.492   2.516  10.416  0.0263  0.4319  0.0263
  501TMC3    C4 7445   4.480   2.334  10.619 -0.3733  0.5540 -0.4556
  501TMC3    C5 7446   4.597   2.396  10.597  0.6322  0.5765 -0.3240
  501TMC3    C6 7447   4.606   2.481  10.485 -0.6194  0.7204 -0.0039
  501TMC3     C 7448   4.282   2.252  10.515  0.0250 -0.5274  0.4891
  501TMC3     O 7449   4.328   2.139  10.529  0.5647  0.0867  0.1505
  501TMC3     H 7450   4.279   2.479  10.388  1.2539 -1.5571 -2.5252
  501TMC3    H1 7451   4.473   2.246  10.681  0.8331  0.6568 -0.1891
  501TMC3    H2 7452   4.696   2.534  10.457  0.2736 -0.7129  0.1607
  501TMC3    C7 7453   4.712   2.361  10.680 -0.1889 -0.0304  0.1332
  501TMC3    C8 7454   4.486   2.658  10.404  0.4871  0.4054  0.7808
  501TMC3    O1 7455   4.686   2.311  10.785  0.2762  0.0064 -0.6774
  501TMC3    O2 7456   4.571   2.727  10.466  0.0080  0.2725  0.1218
  502TMC3    C1 7457   3.440   0.706  14.854 -0.0972  0.0469 -0.2778
  502TMC3    C2 7458   3.420   0.812  14.765  0.4014 -0.3232  0.1396
  502TMC3    C3 7459   3.289   0.833  14.721  0.1802 -0.0476 -0.7863
  502TMC3    C4 7460   3.337   0.622  14.897  0.2175  0.3968 -0.2071
  502TMC3    C5 7461   3.210   0.641  14.844 -0.8913  0.8374  0.6663
  502TMC3    C6 7462   3.186   0.748  14.761 -0.4248  0.2731  0.0448
  502TMC3     C 7463   3.571   0.699  14.915 -0.5075 -0.8618 -0.5882
  502TMC3     O 7464   3.667   0.748  14.855 -0.0442 -0.3318 -0.2105
  502TMC3     H 7465   3.499   0.872  14.722 -1.1788  1.7752  0.1761
  502TMC3    H1 7466   3.358   0.539  14.963  0.3019 -0.3109 -1.1341
  502TMC3    H2 7467   3.083   0.758  14.730 -0.0719 -1.6018 -1.6900
  502TMC3    C7 7468   3.100   0.626  14.934 -0.1142 -0.4414 -1.1453
  502TMC3    C8 7469   3.262   0.955  14.652  0.2458  0.2148  0.1656
  502TMC3    O1 7470   3.031   0.727  14.951 -0.0969  0.2361 -0.5067
  502TMC3    O2 7471   3.358   1.030  14.638  0.1143 -0.2151 -0.0023
  503MPD2     C 7472   0.849   1.396  16.630 -0.3492 -0.0264 -0.1945
  503MPD2    C1 7473   0.850   1.369  16.765 -0.3242  0.3564  0.0381
  503MPD2    C2 7474   0.869   1.240  16.807  0.3988 -0.3942  0.5153
  503MPD2    C3 7475   0.926   1.146  16.720  0.3468 -0.3317  0.2387
  503MPD2    C4 7476   0.931   1.171  16.586  0.7221  0.8487  0.2650
  503MPD2    C5 7477   0.902   1.296  16.541  0.0732 -0.5676  0.4362
  503MPD2     H 7478   0.858   1.226  16.914  5.0819  0.6687  1.1578
  503MPD2    H1 7479   0.976   1.104  16.513 -4.2682 -2.5439  0.3033
  503MPD2    H2 7480   0.828   1.489  16.578  1.2622 -0.3995 -1.5368
  503MPD2    H3 7481   0.922   1.318  16.437  0.2880 -0.6108  0.4677
  503MPD2     N 7482   0.967   1.025  16.782 -0.1295 -0.0555  0.2110
  503MPD2    H5 7483   0.972   1.013  16.882  1.0368  3.1322  0.5404
  503MPD2    N1 7484   0.815   1.472  16.859  0.1159  0.6738 -0.0252
  503MPD2    H7 7485   0.787   1.444  16.953 -0.6917 -1.2097 -0.8232
  504TMC3    C1 7486   1.087   0.829  16.806  0.4005  0.5056  0.2488
  504TMC3    C2 7487   1.023   0.799  16.920  0.2929 -0.3086  0.1811
  504TMC3    C3 7488   1.078   0.717  17.011  0.0598  0.0614  0.8209
  504TMC3    C4 7489   1.211   0.767  16.779  0.1090 -0.0486  0.6833
  504TMC3    C5 7490   1.263   0.689  16.876  0.5936  0.6102  0.0291
  504TMC3    C6 7491   1.205   0.662  16.997 -1.1239 -0.0554  0.1604
  504TMC3     C 7492   1.040   0.931  16.713 -0.0158  0.7631  0.7990
  504TMC3     O 7493   1.093   0.937  16.602 -0.0577  0.1709 -0.6234
  504TMC3     H 7494   0.927   0.839  16.953  0.3552  0.5450 -0.6634
  504TMC3    H1 7495   1.256   0.800  16.686 -1.6555 -1.6291 -0.7256
  504TMC3    H2 7496   1.242   0.589  17.068  1.9177  0.6642 -0.7300
  504TMC3    C7 7497   1.410   0.666  16.856 -0.2470 -0.2568 -0.1910
  504TMC3    C8 7498   0.993   0.699  17.127  0.3004  0.6299 -0.3135
  504TMC3    O1 7499   1.466   0.732  16.770 -0.1197 -0.8260  0.2554
  504TMC3    O2 7500   0.875   0.680  17.105  0.6643  0.3671  0.7579
  505MPD2     C 7501   0.599   4.646   9.996  0.0768  0.8394  0.6862
  505MPD2    C1 7502   0.631   4.543  10.083 -0.6431 -0.4567  0.0166
  505MPD2    C2 7503   0.645   4.575  10.216  0.3733  0.1193 -0.9178
  505MPD2    C3 7504   0.623   4.699  10.271  0.4572 -0.1232 -0.3036
  505MPD2    C4 7505   0.598   0.073  10.179 -0.3307  0.1714  0.0411
  505MPD2    C5 7506   0.584   0.045  10.044 -0.5574 -0.0286  0.4212
  505MPD2     H 7507   0.665   4.499  10.291  0.7037  0.4831 -0.6447
  505MPD2    H1 7508   0.574   0.176  10.205 -0.2480  0.8949 -2.7487
  505MPD2    H2 7509   0.589   4.630   9.889  0.0808  2.2330  0.4814
  505MPD2    H3 7510   0.561   0.132   9.982 -1.7658 -0.5678  0.1107
  505MPD2     N 7511   0.643   4.722  10.406 -0.1994  0.4339 -0.2992
  505MPD2    H5 7512   0.665   4.637  10.458 -0.7369  1.0378  0.9259
  505MPD2    N1 7513   0.653   4.419  10.032 -0.7197 -0.3281  0.3169
  505MPD2    H7 7514   0.639   4.408   9.932  0.1695  1.0314  0.0412
  506TMC3    C1 7515   0.727   4.191  10.028 -0.2578 -0.0930 -0.3838
  506TMC3    C2 7516   0.821   4.219   9.929 -0.2753 -0.0996  0.0461
  506TMC3    C3 7517   0.933   4.132   9.916 -0.3179 -0.5316 -0.3936
  506TMC3    C4 7518   0.752   4.087  10.115 -0.2042  0.3452 -0.4995
  506TMC3    C5 7519   0.859   4.006  10.097  0.5642 -0.1071 -0.7492
  506TMC3    C6 7520   0.954   4.021   9.992  0.0756  0.0560  0.3927
  506TMC3     C 7521   0.666   4.302  10.109  0.0391  0.0687 -0.1972
  506TMC3     O 7522   0.699   4.283  10.224  0.0958  0.3305 -0.1348
  506TMC3     H 7523   0.820   4.317   9.882  1.2993 -0.2002 -0.1874
  506TMC3    H1 7524   0.686   4.065  10.197 -0.0944  0.1604 -0.4600
  506TMC3    H2 7525   1.046   3.963   9.983 -0.2688 -0.1069 -2.3264
  506TMC3    C7 7526   0.930   3.989  10.221  0.3788 -0.0020  0.3423
  506TMC3    C8 7527   1.039   4.168   9.826 -0.5706  0.4704  0.4227
  506TMC3    O1 7528   1.009   3.898  10.239 -0.0708 -0.2976  0.0118
  506TMC3    O2 7529   1.090   4.078   9.759 -0.0549  0.0881 -0.0645
  507TMC3    C1 7530   2.031   0.843  14.953 -0.4963  0.3590 -0.3263
  507TMC3    C2 7531   1.983   0.733  14.892  0.8869  0.1197  0.5432
  507TMC3    C3 7532   2.001   0.715  14.754 -0.3407  0.8501  0.6590
  507TMC3    C4 7533   2.101   0.935  14.894 -0.1559  0.0881  0.0731
  507TMC3    C5 7534   2.135   0.910  14.759  0.1138 -0.1407 -0.3634
  507TMC3    C6 7535   2.086   0.798  14.696 -0.2536 -0.3563  0.3592
  507TMC3     C 7536   1.939   0.901  15.040  0.4308  0.3497  0.1080
  507TMC3     O 7537   1.990   0.976  15.126  0.0110 -0.3027 -0.2540
  507TMC3     H 7538   1.918   0.655  14.930  3.2178 -1.6684  0.8326
  507TMC3    H1 7539   2.122   1.033  14.934 -0.2499 -0.1196  0.6297
  507TMC3    H2 7540   2.097   0.782  14.589  0.0615 -0.4999  0.4144
  507TMC3    C7 7541   2.124   1.026  14.670  0.2783 -0.1876 -0.3422
  507TMC3    C8 7542   1.870   0.720  14.696  0.1332 -0.0152 -0.6723
  507TMC3    O1 7543   2.069   1.002  14.561  0.2855 -0.8220  0.4770
  507TMC3    O2 7544   1.780   0.661  14.756  0.1624  0.3506  0.8656
  508MPD2     C 7545   2.792   2.863  15.967  0.8382 -0.1360 -0.0225
  508MPD2    C1 7546   2.760   2.984  16.026  0.8035  0.0914 -0.5806
  508MPD2    C2 7547   2.709   3.085  15.945 -0.1088 -0.4685  0.2002
  508MPD2    C3 7548   2.693   3.056  15.810 -0.2905  0.2497  0.7270
  508MPD2    C4 7549   2.738   2.941  15.751 -0.6272  0.4152  0.2646
  508MPD2    C5 7550   2.776   2.838  15.839  0.2482  0.1118 -0.1933
  508MPD2     H 7551   2.670   3.178  15.986  1.4887 -0.4654  1.7010
  508MPD2    H1 7552   2.731   2.912  15.647  4.3050  1.8265 -0.4670
  508MPD2    H2 7553   2.822   2.780  16.029 -2.8457 -0.8002  0.9008
  508MPD2    H3 7554   2.820   2.744  15.808 -0.4455 -0.2929  0.0559
  508MPD2     N 7555   2.628   3.153  15.734 -0.0846  0.0256 -0.1178
  508MPD2    H5 7556   2.593   3.240  15.774 -2.6037 -0.8870 -0.3310
  508MPD2    N1 7557   2.792   3.002  16.161  0.0409 -0.4213 -0.3065
  508MPD2    H7 7558   2.840   2.929  16.211  0.4485  0.0904  0.0493
  509TMC3    C1 7559   2.319   3.381  15.577 -0.5335  1.0353 -0.5609
  509TMC3    C2 7560   2.344   3.441  15.455  0.5576  0.2224  0.3151
  509TMC3    C3 7561   2.447   3.400  15.382 -0.0119 -0.5108 -0.1961
  509TMC3    C4 7562   2.401   3.277  15.623 -0.4641 -0.2720 -0.4532
  509TMC3    C5 7563   2.513   3.243  15.551  0.5293 -0.6093 -0.4549
  509TMC3    C6 7564   2.536   3.302  15.429 -0.1815  0.2817  0.3133
  509TMC3     C 7565   2.261   3.466  15.687 -0.3434 -0.7247  0.0230
  509TMC3     O 7566   2.277   3.419  15.800  0.0727  0.9067  0.3492
  509TMC3     H 7567   2.282   3.523  15.420  0.4792  0.9249  2.0595
  509TMC3    H1 7568   2.377   3.227  15.716  0.8714  0.7099  0.4135
  509TMC3    H2 7569   2.630   3.294  15.376 -0.0655  1.9890  0.2512
  509TMC3    C7 7570   2.603   3.143  15.597 -0.4674 -0.1531 -0.9252
  509TMC3    C8 7571   2.500   3.506  15.302 -0.4108  0.1775 -0.1053
  509TMC3    O1 7572   2.643   3.069  15.507 -0.0139 -0.0052 -0.0550
  509TMC3    O2 7573   2.546   3.476  15.195 -0.1167  0.4119  0.3271
  510MPD2     C 7574   0.502   0.315  14.268 -0.5879  0.1346 -0.4955
  510MPD2    C1 7575   0.540   0.272  14.397  0.8619  0.1585 -0.1141
  510MPD2    C2 7576   0.676   0.251  14.418 -0.0599  0.1696 -0.4609
  510MPD2    C3 7577   0.772   0.275  14.321  0.9010 -0.0240  0.2678
  510MPD2    C4 7578   0.728   0.320  14.195  0.0443 -0.4698  0.1951
  510MPD2    C5 7579   0.597   0.345  14.174 -0.3188 -1.0324  0.2867
  510MPD2     H 7580   0.702   0.226  14.521 -0.9478 -2.7034 -0.9318
  510MPD2    H1 7581   0.804   0.361  14.130 -0.0234 -0.1071  0.3464
  510MPD2    H2 7582   0.402   0.347  14.239 -0.4540  1.9959  1.0900
  510MPD2    H3 7583   0.558   0.384  14.081 -1.1545  1.2329  1.5737
  510MPD2     N 7584   0.908   0.244  14.354  0.1536  0.5023 -0.3660
  510MPD2    H5 7585   0.928   0.223  14.451 -0.1032 -2.6433 -1.0255
  510MPD2    N1 7586   0.438   0.259  14.495  0.4998 -0.3009  0.0223
  510MPD2    H7 7587   0.341   0.257  14.465  1.0134  0.7917 -1.7059
  511TMC3    C1 7588   0.340   0.212  14.707  0.3827  0.4393 -0.5252
  511TMC3    C2 7589   0.353   0.239  14.840 -0.1108  0.0728 -0.0855
  511TMC3    C3 7590   0.282   0.157  14.922 -0.1959 -0.4251 -0.2308
  511TMC3    C4 7591   0.277   0.101  14.662  0.1087  0.2768 -0.2007
  511TMC3    C5 7592   0.237   0.007  14.746  0.3614  0.0407  0.0015
  511TMC3    C6 7593   0.231   0.034  14.881 -0.3883 -0.0002  0.0399
  511TMC3     C 7594   0.458   0.240  14.628 -0.1818 -0.7498 -0.0425
  511TMC3     O 7595   0.554   0.255  14.706  0.6253  0.2610 -0.1272
  511TMC3     H 7596   0.389   0.333  14.880  3.5234 -1.6574  0.6566
  511TMC3    H1 7597   0.257   0.080  14.557 -0.2592 -0.7584  0.0695
  511TMC3    H2 7598   0.180   4.686  14.946 -1.7380  0.8650 -0.0853
  511TMC3    C7 7599   0.222   4.592  14.687  0.8561  0.6668 -0.1520
  511TMC3    C8 7600   0.252   0.208  15.055 -0.1195  0.0162  0.6093
  511TMC3    O1 7601   0.202   4.582  14.564 -0.0249 -0.0757 -0.0681
  511TMC3    O2 7602   0.278   0.327  15.072 -0.3117  0.0910 -0.2658
  512TMC3    C1 7603   3.988   4.435  13.148  0.0222  0.7160  0.3949
  512TMC3    C2 7604   3.993   4.378  13.273 -0.5597  0.3266 -0.2375
  512TMC3    C3 7605   4.031   4.244  13.284  0.1936 -0.3198  0.4395
  512TMC3    C4 7606   4.011   4.361  13.041  0.1479 -0.0112  0.2278
  512TMC3    C5 7607   4.030   4.226  13.052  0.1685 -0.5300 -0.1188
  512TMC3    C6 7608   4.040   4.162  13.170 -0.5999  0.2341 -0.1735
  512TMC3     C 7609   3.994   4.579  13.132  0.7409  0.8552  0.7679
  512TMC3     O 7610   4.032   4.622  13.023 -0.6771 -0.4481  0.2728
  512TMC3     H 7611   3.996   4.439  13.363  2.3392  0.0451 -0.1418
  512TMC3    H1 7612   4.016   4.412  12.945 -2.8081  0.0975  0.1268
  512TMC3    H2 7613   4.073   4.059  13.173 -1.9304 -0.2329 -1.9238
  512TMC3    C7 7614   4.021   4.160  12.925 -0.1929  0.7087  0.1579
  512TMC3    C8 7615   4.096   4.191  13.402 -0.2232 -0.8829  0.3995
  512TMC3    O1 7616   4.014   4.223  12.825 -0.1783 -0.1907 -0.5761
  512TMC3    O2 7617   4.132   4.078  13.395  0.5614 -0.1896  0.0351
  513MPD2     C 7618   1.081   4.047  13.170  0.3965 -0.2719 -0.4688
  513MPD2    C1 7619   1.151   4.161  13.160 -0.2787  0.0964 -0.6207
  513MPD2    C2 7620   1.181   4.222  13.277  0.7270 -0.2258 -0.5329
  513MPD2    C3 7621   1.143   4.173  13.402 -0.2719  0.3991  0.0616
  513MPD2    C4 7622   1.071   4.058  13.407 -0.2607  0.4880 -0.3935
  513MPD2    C5 7623   1.047   3.996  13.289 -0.1177  0.2341 -0.1428
  513MPD2     H 7624   1.223   4.322  13.273  0.6076 -0.1814 -0.7105
  513MPD2    H1 7625   1.046   4.004  13.498  1.0076 -2.3458 -1.7000
  513MPD2    H2 7626   1.089   3.986  13.081  0.8107 -1.0683  0.1112
  513MPD2    H3 7627   1.009   3.895  13.283  0.7878 -0.0954 -0.2993
  513MPD2     N 7628   1.178   4.251  13.519 -0.1174 -0.1893  0.1896
  513MPD2    H5 7629   1.228   4.339  13.513  1.2205 -0.8040  2.3413
  513MPD2    N1 7630   1.208   4.200  13.031 -0.2735  0.2237 -0.7169
  513MPD2    H7 7631   1.166   4.162  12.946 -1.9446  0.4724 -0.0124
  514TMC3    C1 7632   1.343   4.338  12.874  0.4153  0.0606 -0.1359
  514TMC3    C2 7633   1.236   4.381  12.797  0.9686 -0.5258  0.0390
  514TMC3    C3 7634   1.242   4.502  12.722 -0.1068 -0.5644 -0.3738
  514TMC3    C4 7635   1.454   4.413  12.869 -0.0316 -0.5575 -0.3944
  514TMC3    C5 7636   1.450   4.537  12.814  0.2543  0.4860 -0.2702
  514TMC3    C6 7637   1.352   4.575  12.721 -0.5718  0.2127 -0.0484
  514TMC3     C 7638   1.311   4.291  13.008  0.1442  0.5901  0.9039
  514TMC3     O 7639   1.384   4.333  13.094 -0.0776  0.7872 -0.0580
  514TMC3     H 7640   1.154   4.313  12.779 -0.6239  1.3188  0.2325
  514TMC3    H1 7641   1.549   4.387  12.914  0.7692  0.3186 -1.5425
  514TMC3    H2 7642   1.341   4.677  12.686 -1.3239 -0.7669 -2.7115
  514TMC3    C7 7643   1.485   4.646  12.907  0.2975 -0.5332 -0.2820
  514TMC3    C8 7644   1.173   4.508  12.599 -0.3247  0.5918 -0.4010
  514TMC3    O1 7645   1.491   0.034  12.851 -0.2557  0.0282 -0.4324
  514TMC3    O2 7646   1.057   4.465  12.598  0.0814 -0.1117  0.5787
  515MPD2     C 7647   4.173   1.200  15.010  0.6761  0.2270 -0.3298
  515MPD2    C1 7648   4.217   1.199  14.885 -0.0010 -0.0669 -0.2677
  515MPD2    C2 7649   4.310   1.292  14.843  0.3619  0.4823  0.4899
  515MPD2    C3 7650   4.346   1.398  14.929 -0.4796  0.1519 -0.5344
  515MPD2    C4 7651   4.307   1.392  15.060  0.1581  0.5438  0.5479
  515MPD2    C5 7652   4.219   1.297  15.099  0.4990  0.1412 -0.2399
  515MPD2     H 7653   4.342   1.292  14.740 -0.0711 -0.1757  0.3562
  515MPD2    H1 7654   4.326   1.474  15.129  1.5938  0.6923 -0.0120
  515MPD2    H2 7655   4.108   1.122  15.048  2.2984 -1.0029 -0.0741
  515MPD2    H3 7656   4.172   1.289  15.196 -2.2379 -1.0313 -1.6667
  515MPD2     N 7657   4.413   1.516  14.895 -0.2895  0.8091 -0.4938
  515MPD2    H5 7658   4.449   1.576  14.968  1.9152 -0.1227 -0.8165
  515MPD2    N1 7659   4.177   1.108  14.780 -0.1544  0.1179 -0.1669
  515MPD2    H7 7660   4.225   1.113  14.690 -2.6347 -0.3423 -1.4962
  516TMC3    C1 7661   4.047   0.934  14.683 -0.1426  0.4374 -0.1332
  516TMC3    C2 7662   4.060   0.986  14.557 -0.0301  0.1298 -0.5494
  516TMC3    C3 7663   3.981   0.934  14.456 -0.7878  0.4259  0.2142
  516TMC3    C4 7664   3.962   0.832  14.700  0.2024 -0.3971 -1.1615
  516TMC3    C5 7665   3.896   0.769  14.592  0.6881  0.6514  0.3209
  516TMC3    C6 7666   3.906   0.822  14.465  0.2564  0.2242  0.0648
  516TMC3     C 7667   4.095   0.999  14.801  0.1637  0.5183 -0.1811
  516TMC3     O 7668   4.066   0.946  14.907  0.1391  0.1205  0.0964
  516TMC3     H 7669   4.121   1.076  14.547  0.8786 -0.1470  2.6314
  516TMC3    H1 7670   3.939   0.788  14.796  3.0124 -2.6962 -1.5365
  516TMC3    H2 7671   3.848   0.783  14.383  1.7180  0.4207 -1.0553
  516TMC3    C7 7672   3.853   0.632  14.611 -0.1923 -0.0774  0.1386
  516TMC3    C8 7673   3.988   1.003  14.326 -0.5939  0.0088  0.4411
  516TMC3    O1 7674   3.901   0.578  14.713 -0.0405 -0.1449  0.2297
  516TMC3    O2 7675   3.903   0.968  14.245  0.1442 -0.3305  0.1349
  517MPD2     C 7676   3.612   2.919  17.586  0.1782  0.6150 -0.8377
  517MPD2    C1 7677   3.733   2.899  17.639 -0.2563  0.4117  0.0846
  517MPD2    C2 7678   3.778   3.000   0.030  0.4343  0.2685 -0.1133
  517MPD2    C3 7679   3.717   3.123   0.055 -0.5138  0.5509 -0.0307
  517MPD2    C4 7680   3.590   3.143  17.689  0.5741 -0.3629 -0.3761
  517MPD2    C5 7681   3.542   3.035  17.614  0.6106 -0.7017 -0.4274
  517MPD2     H 7682   3.865   2.981   0.092  0.9573  1.0651 -0.5970
  517MPD2    H1 7683   3.534   3.233   0.018  0.8040  0.1982 -2.1601
  517MPD2    H2 7684   3.564   2.849  17.519  1.5795 -1.1728  0.0430
  517MPD2    H3 7685   3.441   3.036  17.574  0.4708  0.1406 -0.0459
  517MPD2     N 7686   3.759   3.227   0.136 -0.0599 -0.7708 -0.4665
  517MPD2    H5 7687   3.717   3.316   0.112  0.9989 -1.1018 -3.5641
  517MPD2    N1 7688   3.801   2.778  17.616 -0.2074 -0.2368 -0.1772
  517MPD2    H7 7689   3.886   2.767  17.670  0.3895  2.3342 -0.5937
  518TMC3    C1 7690   3.845   2.556  17.525 -0.1644 -0.4682  0.5502
  518TMC3    C2 7691   3.791   2.454  17.461  0.6500  0.1751 -0.6640
  518TMC3    C3 7692   3.864   2.344  17.455 -0.0167  0.6862  0.3453
  518TMC3    C4 7693   3.968   2.561  17.572 -0.5190 -0.6238  0.4990
  518TMC3    C5 7694   4.047   2.455  17.541  0.2677 -0.1196 -0.4749
  518TMC3    C6 7695   3.993   2.339  17.506 -0.1623  1.3653  0.4545
  518TMC3     C 7696   3.766   2.675  17.531 -0.4144  0.0938  0.9423
  518TMC3     O 7697   3.673   2.673  17.455  0.2917 -0.2125  0.0616
  518TMC3     H 7698   3.686   2.442  17.435  0.7215  0.3032 -1.0043
  518TMC3    H1 7699   4.016   2.647  17.618 -0.7317  0.7852 -1.8813
  518TMC3    H2 7700   4.041   2.242  17.510 -0.9450  0.8291 -2.5329
  518TMC3    C7 7701   4.190   2.467  17.571 -0.1860  0.4859 -0.7407
  518TMC3    C8 7702   3.786   2.217  17.455  0.2662 -0.5811  0.2267
  518TMC3    O1 7703   4.228   2.566  17.630 -0.0475  0.6418  0.3311
  518TMC3    O2 7704   3.667   2.223  17.489 -0.4570  0.1135 -0.1552
  519MPD2     C 7705   0.603   1.289  14.334  0.7110 -0.5563  0.1895
  519MPD2    C1 7706   0.520   1.189  14.279 -0.5804  0.0558 -0.2884
  519MPD2    C2 7707   0.569   1.069  14.256  0.8384  0.6824  0.1763
  519MPD2    C3 7708   0.706   1.042  14.277 -0.3381  0.5017  0.1121
  519MPD2    C4 7709   0.772   1.119  14.371  0.1569  0.1133 -0.3006
  519MPD2    C5 7710   0.719   1.245  14.394  0.0087 -0.4788 -0.0269
  519MPD2     H 7711   0.513   0.990  14.207 -0.0869  1.6917 -0.3733
  519MPD2    H1 7712   0.875   1.096  14.395  0.3049 -0.2881 -1.3255
  519MPD2    H2 7713   0.563   1.388  14.354 -0.7634 -1.0746 -0.1792
  519MPD2    H3 7714   0.776   1.312  14.457 -0.1919 -0.0233 -0.3283
  519MPD2     N 7715   0.767   0.929  14.228 -0.0779 -0.0172  0.6971
  519MPD2    H5 7716   0.859   0.906  14.263 -0.3450 -1.3777  0.4832
  519MPD2    N1 7717   0.396   1.229  14.222  0.3770  0.2690 -0.2997
  519MPD2    H7 7718   0.379   1.329  14.227  0.9305  0.2239  2.3303
  520TMC3    C1 7719   0.796   0.764  14.072  0.2381 -0.4247  0.2483
  520TMC3    C2 7720   0.796   0.741  13.937 -0.0665 -0.4751  0.6309
  520TMC3    C3 7721   0.886   0.651  13.890 -0.0278  0.7729 -0.2337
  520TMC3    C4 7722   0.884   0.703  14.158 -0.2017  0.3777  0.0161
  520TMC3    C5 7723   0.980   0.626  14.103  0.1879 -0.3878  0.7094
  520TMC3    C6 7724   0.985   0.602  13.970  0.3457  0.6201 -0.2662
  520TMC3     C 7725   0.716   0.866  14.116 -0.7677  0.3336  0.1287
  520TMC3     O 7726   0.623   0.904  14.047 -0.2503 -0.2490  0.5727
  520TMC3     H 7727   0.724   0.789  13.872 -0.8381 -0.0590  1.7869
  520TMC3    H1 7728   0.901   0.744  14.257  0.1585  0.2091  0.0249
  520TMC3    H2 7729   1.061   0.542  13.921  0.8658  2.0708 -1.2412
  520TMC3    C7 7730   1.087   0.598  14.192  0.4323  0.3747 -0.7511
  520TMC3    C8 7731   0.896   0.629  13.748  0.1961  0.0762 -1.4137
  520TMC3    O1 7732   1.058   0.588  14.306  0.0250 -0.3775  0.3041
  520TMC3    O2 7733   1.000   0.573  13.708  0.1311  0.6274 -0.1695
  521MPD2     C 7734   1.613   3.407   0.081  0.5558 -0.8927 -0.8325
  521MPD2    C1 7735   1.570   3.431  17.644  0.2415 -0.1595 -0.2058
  521MPD2    C2 7736   1.665   3.433  17.550 -0.1834 -0.5435 -0.5448
  521MPD2    C3 7737   1.802   3.410  17.581  0.3465  0.3875  0.0497
  521MPD2    C4 7738   1.840   3.375   0.021 -0.1024  0.8172  0.5808
  521MPD2    C5 7739   1.744   3.387   0.119  0.0728 -0.0723  0.9309
  521MPD2     H 7740   1.645   3.451  17.445  2.6239 -0.2844 -1.0309
  521MPD2    H1 7741   1.939   3.343   0.052 -0.2299 -0.7735 -0.6498
  521MPD2    H2 7742   1.535   3.418   0.156  1.5728 -0.4785  0.1759
  521MPD2    H3 7743   1.766   3.355   0.220  2.2639  1.1426  0.8423
  521MPD2     N 7744   1.896   3.404  17.470  0.1116  0.0588  0.7187
  521MPD2    H5 7745   1.860   3.427  17.378 -2.0894 -1.3653  1.1989
  521MPD2    N1 7746   1.426   3.447  17.622  0.5530 -1.1079  0.3311
  521MPD2    H7 7747   1.367   3.432   0.013  1.1598 -0.8970  0.8005
  522TMC3    C1 7748   2.080   3.320  17.345  0.0326  0.2198  0.3587
  522TMC3    C2 7749   2.219   3.327  17.334 -0.2235  0.1018  0.3760
  522TMC3    C3 7750   2.278   3.324  17.218 -0.3863  0.2928 -0.4357
  522TMC3    C4 7751   2.004   3.328  17.237 -0.0288  0.3391  0.2791
  522TMC3    C5 7752   2.072   3.319  17.122  0.0858  0.9217  0.1169
  522TMC3    C6 7753   2.205   3.316  17.105 -0.3484  0.1127  0.2945
  522TMC3     C 7754   2.021   3.344  17.476  0.2019 -0.1563 -0.5076
  522TMC3     O 7755   2.081   3.309  17.575  0.8884  0.1486 -0.0667
  522TMC3     H 7756   2.277   3.346  17.424  2.2741  0.0373 -1.2146
  522TMC3    H1 7757   1.896   3.326  17.237 -0.0262  0.2525 -0.0820
  522TMC3    H2 7758   2.250   3.293  17.008 -0.7784 -0.4497  0.2315
  522TMC3    C7 7759   1.992   3.302  17.001  0.5478  1.2085 -0.3373
  522TMC3    C8 7760   2.403   3.248  17.221  0.0726  0.0212 -0.0909
  522TMC3    O1 7761   2.040   3.226  16.921  0.5581 -0.0125  0.5757
  522TMC3    O2 7762   2.422   3.190  17.326 -0.5860 -0.1755  0.3414
  523MPD2     C 7763   4.122   3.831  10.505 -0.3559 -0.1008  0.5032
  523MPD2    C1 7764   4.156   3.796  10.373 -0.3093 -0.1535  0.1768
  523MPD2    C2 7765   4.155   3.900  10.280 -0.6231  0.6162  0.3129
  523MPD2    C3 7766   4.125   4.031  10.320  0.1532 -0.2481 -0.4420
  523MPD2    C4 7767   4.099   4.047  10.455  0.1669 -0.1946 -0.4263
  523MPD2    C5 7768   4.099   3.956  10.552  0.7713  0.5431  0.4245
  523MPD2     H 7769   4.185   3.878  10.178 -0.5641  2.1952 -0.0070
  523MPD2    H1 7770   4.069   4.146  10.486 -0.7303 -0.3164 -0.9377
  523MPD2    H2 7771   4.101   3.751  10.575  0.1189 -3.1762 -2.8422
  523MPD2    H3 7772   4.081   3.979  10.656  0.3932 -1.1376  0.7288
  523MPD2     N 7773   4.123   4.144  10.231 -0.2606  0.0634  1.0833
  523MPD2    H5 7774   4.110   4.233  10.280  1.4126  0.8911  0.0337
  523MPD2    N1 7775   4.185   3.665  10.361 -0.3626 -0.3114  0.2782
  523MPD2    H7 7776   4.169   3.608  10.444  0.9801 -1.5900 -0.3279
  524TMC3    C1 7777   4.130   4.277  10.046 -0.8089  0.5061  0.7615
  524TMC3    C2 7778   4.200   4.311   9.932  0.1380  0.0106 -0.7119
  524TMC3    C3 7779   4.179   4.437   9.882  0.5296  0.2279  0.5290
  524TMC3    C4 7780   4.044   4.366  10.111 -0.0870  0.4508  0.6426
  524TMC3    C5 7781   4.033   4.492  10.060  0.1413 -0.5472 -0.0957
  524TMC3    C6 7782   4.099   4.531   9.943 -0.6839 -0.7419  0.8802
  524TMC3     C 7783   4.144   4.146  10.092 -0.2608 -0.2160 -0.5590
  524TMC3     O 7784   4.194   4.072  10.009 -0.0023  0.5471  0.0100
  524TMC3     H 7785   4.280   4.252   9.887  0.6155 -0.0929  0.2665
  524TMC3    H1 7786   3.980   4.322  10.187  0.0539  2.6648  2.0383
  524TMC3    H2 7787   4.091   4.633   9.910  0.0627 -0.5731  1.2190
  524TMC3    C7 7788   3.917   4.574  10.095  0.6345 -0.2411  1.0833
  524TMC3    C8 7789   4.239   4.473   9.760  0.5008  0.3426 -0.7088
  524TMC3    O1 7790   3.837   4.533  10.180  0.1463  0.2725 -0.0967
  524TMC3    O2 7791   4.200   4.578   9.714  0.0112  0.3762 -0.5029
  525MPD2     C 7792   2.006   0.402  14.658 -0.1668 -0.0160 -0.0823
  525MPD2    C1 7793   2.141   0.383  14.692 -0.1970  0.1878  0.1973
  525MPD2    C2 7794   2.239   0.431  14.607 -0.2537  0.3668  0.2495
  525MPD2    C3 7795   2.194   0.499  14.494  0.1208 -0.2149  0.1767
  525MPD2    C4 7796   2.060   0.515  14.469 -0.8525 -0.2069  0.0508
  525MPD2    C5 7797   1.967   0.461  14.545 -0.0474 -0.4955 -0.2123
  525MPD2     H 7798   2.344   0.429  14.635 -0.1356  0.1047 -0.2213
  525MPD2    H1 7799   2.023   0.573  14.385  2.3701 -0.9273 -1.8856
  525MPD2    H2 7800   1.927   0.361  14.720 -0.3944 -0.7806 -0.8825
  525MPD2    H3 7801   1.863   0.466  14.513 -0.4697  0.5135  1.2828
  525MPD2     N 7802   2.287   0.582  14.432  0.7844 -0.6797 -0.6570
  525MPD2    H5 7803   2.243   0.664  14.392  0.2930 -0.3726  0.5032
  525MPD2    N1 7804   2.182   0.323  14.816 -0.2598 -0.1960  1.1002
  525MPD2    H7 7805   2.278   0.292  14.827  0.2178  0.7406 -0.3223
  526TMC3    C1 7806   2.165   0.247  15.048  0.1997 -0.5595  0.9039
  526TMC3    C2 7807   2.114   0.267  15.178  0.3486 -0.0838  0.4857
  526TMC3    C3 7808   2.185   0.235  15.287  0.0154 -0.1583  0.7918
  526TMC3    C4 7809   2.285   0.192  15.034  0.3009  0.1942  0.4437
  526TMC3    C5 7810   2.351   0.165  15.153  1.0621  0.3163 -0.6067
  526TMC3    C6 7811   2.311   0.186  15.281 -0.5230  0.2594  0.3534
  526TMC3     C 7812   2.102   0.309  14.932 -0.6859  0.0651 -0.1033
  526TMC3     O 7813   1.989   0.347  14.949  0.2255  0.1136 -0.0246
  526TMC3     H 7814   2.020   0.321  15.183  1.4616  1.8829  0.2697
  526TMC3    H1 7815   2.321   0.182  14.933 -3.3393  0.8898 -0.9045
  526TMC3    H2 7816   2.365   0.154  15.370 -0.8290 -3.5643 -0.8565
  526TMC3    C7 7817   2.465   0.073  15.147 -0.1543 -0.0725 -0.0907
  526TMC3    C8 7818   2.126   0.262  15.417 -0.1207 -0.8721 -0.2245
  526TMC3    O1 7819   2.493   0.013  15.250  0.1308 -0.0949  0.2043
  526TMC3    O2 7820   2.207   0.259  15.510 -0.6613 -0.3597  0.9486
  527MPD2     C 7821   1.298   3.165   1.878 -0.5349 -0.8599  0.4294
  527MPD2    C1 7822   1.220   3.231   1.783  0.6131 -0.6249  0.2160
  527MPD2    C2 7823   1.197   3.175   1.659 -0.0966  0.3368 -0.9854
  527MPD2    C3 7824   1.248   3.052   1.633 -0.2083  0.1713 -0.1886
  527MPD2    C4 7825   1.310   2.978   1.727  0.3447  0.8456 -0.0910
  527MPD2    C5 7826   1.345   3.044   1.845 -0.1700 -0.0155  0.5587
  527MPD2     H 7827   1.134   3.219   1.583  1.4041  0.9093 -1.9143
  527MPD2    H1 7828   1.338   2.875   1.707 -1.1931  0.5222 -0.5566
  527MPD2    H2 7829   1.313   3.197   1.981 -2.8177 -0.1136  0.5518
  527MPD2    H3 7830   1.404   2.986   1.915 -1.3578 -0.6588  1.0322
  527MPD2     N 7831   1.237   2.985   1.506  0.4517 -0.6190  0.0034
  527MPD2    H5 7832   1.260   2.886   1.510 -1.5437 -1.0924 -0.3509
  527MPD2    N1 7833   1.140   3.341   1.825  0.2391  0.4385  0.3795
  527MPD2    H7 7834   1.059   3.368   1.769 -0.8045 -0.0287  1.6607
  528TMC3    C1 7835   1.031   3.490   1.982  0.1491 -0.9213 -0.4750
  528TMC3    C2 7836   1.054   3.572   2.088 -0.0025 -0.2706 -1.0843
  528TMC3    C3 7837   0.960   3.661   2.126  0.1570 -0.7581  0.2249
  528TMC3    C4 7838   0.910   3.488   1.919 -0.6038 -0.1344  0.0656
  528TMC3    C5 7839   0.816   3.581   1.959  0.6603 -0.7890 -0.2018
  528TMC3    C6 7840   0.840   3.673   2.055 -0.3507 -0.0562  0.2340
  528TMC3     C 7841   1.143   3.394   1.955 -0.2127  0.0442 -0.0244
  528TMC3     O 7842   1.237   3.402   2.028 -0.3121 -0.2760  0.2417
  528TMC3     H 7843   1.139   3.557   2.154  0.9661  0.7625 -2.1051
  528TMC3    H1 7844   0.879   3.410   1.849  1.3433 -1.7571  0.9906
  528TMC3    H2 7845   0.768   3.747   2.089  0.3505  1.1605 -0.9379
  528TMC3    C7 7846   0.692   3.610   1.875  0.4050 -0.0055 -0.4557
  528TMC3    C8 7847   0.975   3.735   2.252  0.5333 -0.2914 -0.1513
  528TMC3    O1 7848   0.606   3.682   1.921  1.1070  0.5500 -0.8324
  528TMC3    O2 7849   0.875   3.784   2.310  0.6282 -0.3962 -0.1860
  529MPD2     C 7850   2.751   2.193   0.921  0.3534  0.2305  0.4799
  529MPD2    C1 7851   2.656   2.111   0.859 -0.6823 -0.0181  0.0097
  529MPD2    C2 7852   2.612   2.146   0.728 -0.2090  0.3689  0.0180
  529MPD2    C3 7853   2.647   2.265   0.672  0.5097 -0.0567  0.1218
  529MPD2    C4 7854   2.727   2.350   0.744 -1.0722 -0.1302 -0.9333
  529MPD2    C5 7855   2.768   2.315   0.868 -0.2911 -0.2669  0.1808
  529MPD2     H 7856   2.542   2.083   0.675  0.1463  0.6278 -0.7582
  529MPD2    H1 7857   2.764   2.446   0.709 -1.1068  0.4795  0.6856
  529MPD2    H2 7858   2.801   2.178   1.017 -1.1044 -1.2239  1.0067
  529MPD2    H3 7859   2.838   2.379   0.921  1.1339  0.7551 -2.9719
  529MPD2     N 7860   2.631   2.294   0.539  0.2854  0.4872 -0.0585
  529MPD2    H5 7861   2.678   2.373   0.496  1.0523 -0.1872 -0.4603
  529MPD2    N1 7862   2.630   1.980   0.910  0.2813  0.4529 -0.1069
  529MPD2    H7 7863   2.583   1.917   0.846 -1.0777  2.4794 -1.1415
  530TMC3    C1 7864   2.633   1.793   1.063  0.1235 -0.5430 -0.1938
  530TMC3    C2 7865   2.708   1.727   1.157  0.0870 -0.0211 -0.3043
  530TMC3    C3 7866   2.676   1.593   1.185 -0.4852 -0.9326  0.3060
  530TMC3    C4 7867   2.530   1.734   0.996  0.4442  0.2783  0.1184
  530TMC3    C5 7868   2.499   1.607   1.028 -0.3467  0.4383  0.9138
  530TMC3    C6 7869   2.573   1.531   1.114 -0.0341 -0.1263  0.1784
  530TMC3     C 7870   2.678   1.931   1.030  0.2922 -0.1809  1.2389
  530TMC3     O 7871   2.718   1.997   1.126  0.3971 -0.2425  0.2204
  530TMC3     H 7872   2.798   1.774   1.196  1.0592 -2.0437 -0.1159
  530TMC3    H1 7873   2.461   1.797   0.942  0.3714 -1.5622 -1.9264
  530TMC3    H2 7874   2.546   1.432   1.147 -1.7584  1.2535  2.9142
  530TMC3    C7 7875   2.412   1.534   0.930  0.1823 -0.5163 -0.1128
  530TMC3    C8 7876   2.729   1.518   1.300 -0.0407 -0.1910 -0.4455
  530TMC3    O1 7877   2.340   1.600   0.857  1.0943 -0.0003 -0.4544
  530TMC3    O2 7878   2.657   1.435   1.351  0.5813 -0.7215  0.3586
  531MPD2     C 7879   1.519   0.119  13.368  0.0168  0.4456 -0.3017
  531MPD2    C1 7880   1.458   4.720  13.376 -0.3600  0.6283  0.3524
  531MPD2    C2 7881   1.444   4.637  13.266 -0.9328  0.3133  0.0043
  531MPD2    C3 7882   1.492   4.685  13.147  0.4152 -0.4735  0.1295
  531MPD2    C4 7883   1.545   0.093  13.135 -0.8225  0.4407  0.3197
  531MPD2    C5 7884   1.560   0.173  13.248  0.5173 -0.1060 -0.4336
  531MPD2     H 7885   1.404   4.536  13.263  1.9600 -0.8868  3.0677
  531MPD2    H1 7886   1.586   0.129  13.041 -0.3941 -1.5826 -0.2643
  531MPD2    H2 7887   1.527   0.179  13.458 -0.5888  1.3132 -0.8309
  531MPD2    H3 7888   1.610   0.270  13.241 -1.6854  1.1475  1.1764
  531MPD2     N 7889   1.485   4.602  13.037  0.0367 -0.0849 -0.1961
  531MPD2    H5 7890   1.463   4.505  13.059  1.4281 -0.1074  1.0755
  531MPD2    N1 7891   1.413   4.681  13.501 -0.3794  0.1660  0.4986
  531MPD2    H7 7892   1.416   0.027  13.576 -0.5355 -0.0277  0.6826
  532TMC3    C1 7893   1.314   4.534  13.656 -0.4671  0.6967 -0.8804
  532TMC3    C2 7894   1.221   4.434  13.654 -0.0402  0.2659  0.0048
  532TMC3    C3 7895   1.227   4.323  13.727  0.3447  0.0370 -0.1585
  532TMC3    C4 7896   1.412   4.515  13.752 -1.2113 -0.3216  0.5366
  532TMC3    C5 7897   1.428   4.386  13.807 -0.1432 -0.3397 -1.1257
  532TMC3    C6 7898   1.338   4.288  13.792 -0.0057  0.3599 -0.2188
  532TMC3     C 7899   1.354   4.558  13.525 -0.2454 -0.7199 -0.4659
  532TMC3     O 7900   1.304   4.482  13.443  0.1469 -0.0305  0.5052
  532TMC3     H 7901   1.127   4.455  13.604 -1.4539 -2.5581  1.5132
  532TMC3    H1 7902   1.496   4.584  13.756  0.5992 -2.5669  1.1508
  532TMC3    H2 7903   1.360   4.187  13.826  0.9307  0.6867  0.1324
  532TMC3    C7 7904   1.568   4.354  13.845 -0.2047 -0.4330 -0.4202
  532TMC3    C8 7905   1.160   4.218  13.650 -0.5076  1.5390  0.4926
  532TMC3    O1 7906   1.635   4.438  13.904 -0.1719  0.7507 -0.2384
  532TMC3    O2 7907   1.124   4.113  13.704  0.7658 -0.6338  0.3639
  533TMC3    C1 7908   2.487   0.663  14.350 -0.6384 -0.3184  0.2306
  533TMC3    C2 7909   2.620   0.642  14.324  0.8392  0.2107  0.1939
  533TMC3    C3 7910   2.707   0.750  14.308 -0.6384  0.3999 -0.8010
  533TMC3    C4 7911   2.440   0.789  14.377  0.4939  0.2616 -0.4262
  533TMC3    C5 7912   2.530   0.895  14.362  0.4684  0.4655 -0.6353
  533TMC3    C6 7913   2.659   0.872  14.324  0.5581  0.3826 -0.1376
  533TMC3     C 7914   2.419   0.552  14.409  0.2088  0.1353  0.9908
  533TMC3     O 7915   2.484   0.451  14.439 -0.0933  0.3510  0.1135
  533TMC3     H 7916   2.661   0.543  14.307 -2.5823 -0.7066 -2.7323
  533TMC3    H1 7917   2.336   0.808  14.397  1.0126  0.2031  2.3180
  533TMC3    H2 7918   2.731   0.953  14.327  0.8900  0.0850 -0.0691
  533TMC3    C7 7919   2.522   1.001  14.454  0.5987 -0.0949 -0.1252
  533TMC3    C8 7920   2.845   0.734  14.273 -0.0673  0.3345 -0.1820
  533TMC3    O1 7921   2.558   1.110  14.415 -0.2495 -0.5577 -0.0595
  533TMC3    O2 7922   2.887   0.810  14.190  0.1251  0.4093 -0.2287
  534MPD2     C 7923   0.487   2.575   1.897  0.2555 -0.0090  0.1945
  534MPD2    C1 7924   0.428   2.648   1.799  0.2774  0.4615 -0.7835
  534MPD2    C2 7925   0.394   2.580   1.684  0.3471 -0.1473  0.3704
  534MPD2    C3 7926   0.413   2.435   1.674 -0.1703  0.0965 -0.2687
  534MPD2    C4 7927   0.470   2.370   1.781  0.3911 -0.4749  0.8853
  534MPD2    C5 7928   0.506   2.441   1.886 -0.6607 -0.4396 -0.9155
  534MPD2     H 7929   0.350   2.637   1.602 -0.7345  1.0501  1.7793
  534MPD2    H1 7930   0.485   2.263   1.785  0.1896 -0.5395 -0.2048
  534MPD2    H2 7931   0.525   2.620   1.988 -0.0390  0.6831 -0.0275
  534MPD2    H3 7932   0.561   2.389   1.963 -0.4650  1.3457  0.1501
  534MPD2     N 7933   0.386   2.359   1.559 -0.6209 -0.2951  0.2845
  534MPD2    H5 7934   0.415   2.263   1.552 -1.0668 -0.5443  1.8939
  534MPD2    N1 7935   0.417   2.793   1.806  0.4303 -0.2087 -0.0526
  534MPD2    H7 7936   0.375   2.834   1.723 -0.7657  2.5270  1.8970
  535TMC3    C1 7937   0.322   2.322   1.327  0.8442 -0.2971  0.3661
  535TMC3    C2 7938   0.214   2.339   1.246 -0.1495 -0.4542 -0.3774
  535TMC3    C3 7939   0.171   2.233   1.170 -0.3641  0.1590 -0.4447
  535TMC3    C4 7940   0.389   2.204   1.337  0.0046 -0.6169  0.0551
  535TMC3    C5 7941   0.348   2.096   1.256  0.5901  0.1629  0.8865
  535TMC3    C6 7942   0.244   2.113   1.163  0.2908  0.1969  0.3093
  535TMC3     C 7943   0.332   2.409   1.444  0.1506  0.1558  0.4378
  535TMC3     O 7944   0.266   2.509   1.432 -0.2485 -0.6294  0.1833
  535TMC3     H 7945   0.155   2.429   1.253  0.9652  0.5126 -3.5455
  535TMC3    H1 7946   0.467   2.187   1.410 -0.0572  2.0960  0.7525
  535TMC3    H2 7947   0.184   2.028   1.134  1.4327 -0.6551  0.4663
  535TMC3    C7 7948   0.429   1.978   1.241 -0.0555 -0.4896  0.4801
  535TMC3    C8 7949   0.041   2.236   1.119 -0.3421  0.1359 -0.3620
  535TMC3    O1 7950   0.423   1.931   1.129  0.1646  0.0657  0.2465
  535TMC3    O2 7951   0.011   2.137   1.058 -0.4288  0.6898  0.8236
  536MPD2     C 7952   4.213   0.342  16.168  0.0482  0.0413 -0.1364
  536MPD2    C1 7953   4.097   0.289  16.228 -0.5888 -0.3463 -0.4127
  536MPD2    C2 7954   3.981   0.280  16.147  0.3029  0.0997  0.6452
  536MPD2    C3 7955   3.980   0.316  16.012  0.2139 -0.4779  0.2237
  536MPD2    C4 7956   4.089   0.375  15.961  0.0953 -0.4155  0.4801
  536MPD2    C5 7957   4.206   0.385  16.037  0.3866  0.1301 -0.2717
  536MPD2     H 7958   3.889   0.231  16.176  0.3195  1.0044  2.2235
  536MPD2    H1 7959   4.095   0.414  15.860  2.4352  0.8143  1.0989
  536MPD2    H2 7960   4.303   0.360  16.226 -0.9617  1.1916  1.0609
  536MPD2    H3 7961   4.293   0.440  16.003 -0.7312  1.6964 -0.6653
  536MPD2     N 7962   3.876   0.306  15.920 -0.1767 -0.2389 -0.1830
  536MPD2    H5 7963   3.891   0.352  15.831  1.4056 -0.1553  0.1334
  536MPD2    N1 7964   4.098   0.247  16.362 -0.4388  0.2381 -0.7161
  536MPD2    H7 7965   4.189   0.253  16.406  0.2708  3.0595 -2.5684
  537TMC3    C1 7966   4.024   0.143  16.555  0.3890  0.3326 -0.0135
  537TMC3    C2 7967   4.133   0.193  16.622 -0.0947 -0.5796  0.5150
  537TMC3    C3 7968   4.131   0.164  16.759  0.2555  0.1850 -0.1491
  537TMC3    C4 7969   3.928   0.054  16.599  0.1694  0.0526  0.0096
  537TMC3    C5 7970   3.925   0.035  16.733 -0.3489  0.4465  0.6193
  537TMC3    C6 7971   4.028   0.087  16.813 -0.3822  0.1034  0.4270
  537TMC3     C 7972   3.988   0.205  16.428 -0.2784  0.8813 -0.3836
  537TMC3     O 7973   3.874   0.190  16.388  0.1667  0.6051  0.2500
  537TMC3     H 7974   4.209   0.256  16.578  1.4998 -1.0841  2.5551
  537TMC3    H1 7975   3.848   0.019  16.535  2.0807  1.2238 -3.0807
  537TMC3    H2 7976   4.022   0.085  16.921 -0.9132  0.9637  0.4110
  537TMC3    C7 7977   3.821   4.684  16.798  1.2219 -0.3043 -0.5419
  537TMC3    C8 7978   4.222   0.221  16.854  0.0314 -0.6543  0.2239
  537TMC3    O1 7979   3.858   4.636  16.904 -0.0470  0.3979 -0.0350
  537TMC3    O2 7980   4.216   0.190  16.973 -0.5893 -0.1157  0.8689
  538TMC3    C1 7981   0.162   3.668  10.654  0.7803 -0.4558  0.3320
  538TMC3    C2 7982   0.182   3.710  10.524 -0.2274 -0.1573  0.1281
  538TMC3    C3 7983   0.090   3.794  10.462 -0.5009  0.1912  0.5445
  538TMC3    C4 7984   0.043   3.694  10.719 -0.5760  0.3958  0.2976
  538TMC3    C5 7985   4.667   3.761  10.645  0.1889 -0.3633  0.4162
  538TMC3    C6 7986   4.687   3.800  10.513  0.0390  0.4144 -0.2350
  538TMC3     C 7987   0.266   3.595  10.720 -0.8838  0.2717 -0.3352
  538TMC3     O 7988   0.355   3.558  10.652  0.0739  0.0649  0.0833
  538TMC3     H 7989   0.274   3.684  10.474  0.0222 -1.0187  1.0489
  538TMC3    H1 7990   0.016   3.638  10.808 -0.9302 -1.4883 -0.9855
  538TMC3    H2 7991   4.610   3.856  10.461 -1.2989 -0.9593  0.2611
  538TMC3    C7 7992   4.538   3.793  10.698  0.1079 -0.0182  0.6265
  538TMC3    C8 7993   0.122   3.871  10.345  0.1472  0.6774  0.3644
  538TMC3    O1 7994   4.438   3.788  10.629  0.0475  0.5842 -0.1760
  538TMC3    O2 7995   0.052   3.969  10.315  0.4579 -0.2518  0.0365
  539MPD2     C 7996   4.392   3.135  12.213 -0.2593 -0.3324  0.9635
  539MPD2    C1 7997   4.361   3.103  12.079 -0.5915 -0.1820  0.4733
  539MPD2    C2 7998   4.247   3.160  12.018 -0.0523  0.0942  0.3446
  539MPD2    C3 7999   4.154   3.225  12.099  0.8250 -0.8923 -0.0349
  539MPD2    C4 8000   4.190   3.262  12.229 -0.4753 -0.3580 -0.5419
  539MPD2    C5 8001   4.306   3.220  12.281 -0.7898  0.3891  0.1660
  539MPD2     H 8002   4.223   3.151  11.912  0.9946  1.3786  0.0030
  539MPD2    H1 8003   4.117   3.325  12.278  0.5138  0.6098 -0.2816
  539MPD2    H2 8004   4.485   3.114  12.265  0.4143  1.1865  0.3829
  539MPD2    H3 8005   4.328   3.250  12.383 -0.0148  1.9320 -0.4539
  539MPD2     N 8006   4.038   3.274  12.055  0.0384  0.5456 -0.4519
  539MPD2    H5 8007   4.001   3.353  12.107  1.0506  1.4213 -1.0484
  539MPD2    N1 8008   4.454   3.044  11.990 -0.6793  0.4203  0.1686
  539MPD2    H7 8009   4.420   3.013  11.899  1.5366 -1.8260  0.1212
  540TMC3    C1 8010   3.857   3.332  11.916 -0.9428  0.2249 -0.6041
  540TMC3    C2 8011   3.852   3.366  11.786  0.3765 -0.1536  0.0611
  540TMC3    C3 8012   3.824   3.495  11.760 -0.0939 -0.2649 -0.4289
  540TMC3    C4 8013   3.804   3.406  12.013  0.4034  0.1179 -0.3506
  540TMC3    C5 8014   3.754   3.530  11.981  0.3225 -0.3587  0.2077
  540TMC3    C6 8015   3.764   3.579  11.855 -0.7644 -0.4424 -0.1182
  540TMC3     C 8016   3.969   3.234  11.942 -0.2848 -0.9586  0.7387
  540TMC3     O 8017   3.997   3.149  11.858  0.2955 -0.2552  0.2591
  540TMC3     H 8018   3.892   3.295  11.715 -2.8799 -0.3460 -1.5778
  540TMC3    H1 8019   3.801   3.367  12.114  1.5957  2.1485  0.4818
  540TMC3    H2 8020   3.735   3.680  11.830 -0.0069 -0.5272 -1.3680
  540TMC3    C7 8021   3.658   3.581  12.070  0.1157 -0.0749 -0.2165
  540TMC3    C8 8022   3.889   3.555  11.636 -0.3497 -0.6817  0.6183
  540TMC3    O1 8023   3.605   3.511  12.157 -0.1280  0.3747 -0.1009
  540TMC3    O2 8024   3.902   3.672  11.642 -0.5196 -0.2762  0.7454
  541MPD2     C 8025   2.753   0.013  12.984  0.1688 -0.3846 -0.9707
  541MPD2    C1 8026   2.787   4.638  12.897 -0.1276  0.3555 -0.1298
  541MPD2    C2 8027   2.757   4.663  12.764  0.0591  0.8600 -0.2187
  541MPD2    C3 8028   2.698   0.051  12.712 -0.0499 -0.1709 -0.1931
  541MPD2    C4 8029   2.675   0.157  12.805 -0.3596 -0.1009  0.2648
  541MPD2    C5 8030   2.694   0.130  12.938 -0.3919 -0.3440 -0.2275
  541MPD2     H 8031   2.786   4.581  12.700  0.9114 -0.3790  1.7567
  541MPD2    H1 8032   2.624   0.249  12.779  1.3132 -0.1974 -3.3515
  541MPD2    H2 8033   2.771   0.011  13.091  1.3125 -2.1614 -1.1964
  541MPD2    H3 8034   2.671   0.210  13.007  0.2682 -1.6939  1.5319
  541MPD2     N 8035   2.678   0.081  12.575  0.2030  0.3200  0.1930
  541MPD2    H5 8036   2.643   0.175  12.559  1.8622  0.9817  0.4403
  541MPD2    N1 8037   2.850   4.516  12.941  0.2984  0.0873 -0.2429
  541MPD2    H7 8038   2.873   4.512  13.039  0.0672  1.5500 -0.1344
  542TMC3    C1 8039   2.721   0.055  12.342  0.4318  0.0371 -0.6670
  542TMC3    C2 8040   2.826   0.017  12.264 -0.0677  0.3688  0.6851
  542TMC3    C3 8041   2.828   0.074  12.138 -0.1776  0.5408 -0.1844
  542TMC3    C4 8042   2.621   0.139  12.304 -0.7281 -0.7372 -0.7314
  542TMC3    C5 8043   2.629   0.193  12.176  0.1849 -0.1503  0.1293
  542TMC3    C6 8044   2.735   0.162  12.097  0.3853  0.2854 -0.0758
  542TMC3     C 8045   2.718   4.716  12.470 -0.0321  0.0735  0.1843
  542TMC3     O 8046   2.748   4.602  12.476 -0.0475  0.0457  0.2142
  542TMC3     H 8047   2.908   4.681  12.303  0.1397  0.7882  0.8744
  542TMC3    H1 8048   2.544   0.185  12.366 -0.9060 -0.0528 -1.4500
  542TMC3    H2 8049   2.719   0.188  11.993  2.0054  0.6523 -0.2459
  542TMC3    C7 8050   2.505   0.228  12.115  0.2225 -0.8831 -0.0711
  542TMC3    C8 8051   2.895   4.721  12.031 -0.1508 -0.8246 -0.2753
  542TMC3    O1 8052   2.502   0.307  12.020 -0.2800 -0.0102 -0.0167
  542TMC3    O2 8053   2.854   0.006  11.915  0.1621 -0.0704  0.1233
  543TMC3    C1 8054   2.778   1.196  17.307 -0.2965 -0.7825  0.1647
  543TMC3    C2 8055   2.701   1.088  17.336  0.6082  0.4247 -0.3454
  543TMC3    C3 8056   2.570   1.093  17.381  0.2855 -0.2555  0.3871
  543TMC3    C4 8057   2.731   1.317  17.353 -0.5193  0.3956 -0.0999
  543TMC3    C5 8058   2.598   1.328  17.393 -0.3787 -0.7192  0.0941
  543TMC3    C6 8059   2.520   1.218  17.416  0.0995 -0.1419 -0.1382
  543TMC3     C 8060   2.876   1.181  17.199 -0.0995 -0.1385 -0.4621
  543TMC3     O 8061   2.931   1.076  17.186 -0.1420 -0.0566  0.2873
  543TMC3     H 8062   2.738   0.999  17.285  0.4270  0.1975 -0.0776
  543TMC3    H1 8063   2.792   1.405  17.337 -1.5406  1.0216 -0.5021
  543TMC3    H2 8064   2.418   1.225  17.452 -0.1439 -0.7514 -0.7022
  543TMC3    C7 8065   2.555   1.455  17.441  0.4337 -0.5822 -0.1101
  543TMC3    C8 8066   2.473   1.014  17.302 -1.1470  0.2900  0.1395
  543TMC3    O1 8067   2.463   1.451  17.519 -0.2034  0.0904  0.3817
  543TMC3    O2 8068   2.503   0.991  17.189  0.1052 -0.0895  0.4285
  544MPD2     C 8069   2.102   0.657  17.298  0.1308  0.2602 -0.1672
  544MPD2    C1 8070   2.194   0.684  17.204  0.0782 -0.4807  0.6985
  544MPD2    C2 8071   2.284   0.796  17.228  0.4110  0.2803  0.3109
  544MPD2    C3 8072   2.274   0.872  17.342 -0.1372  0.0965 -0.5793
  544MPD2    C4 8073   2.171   0.845  17.429  0.1752 -0.1635 -0.7969
  544MPD2    C5 8074   2.082   0.739  17.409 -0.4087  0.4643 -0.3635
  544MPD2     H 8075   2.353   0.820  17.149  0.0870  0.7054  0.1510
  544MPD2    H1 8076   2.160   0.900  17.522  1.2497 -1.5395  0.1511
  544MPD2    H2 8077   2.030   0.577  17.291  3.3491 -2.6794  0.3831
  544MPD2    H3 8078   2.003   0.725  17.482 -0.7821 -0.7904 -1.0163
  544MPD2     N 8079   2.370   0.967  17.384  0.2594  0.1579  0.1915
  544MPD2    H5 8080   2.357   1.006  17.477  2.3060  0.4205  0.3803
  544MPD2    N1 8081   2.209   0.595  17.100  0.2688  0.0921  0.1116
  544MPD2    H7 8082   2.155   0.509  17.103 -1.3169  1.0670 -0.4447
  545TMC3    C1 8083   2.362   0.480  16.956  0.0003 -0.2806  0.0529
  545TMC3    C2 8084   2.468   0.491  16.864  0.1531  0.0405 -0.3265
  545TMC3    C3 8085   2.538   0.376  16.843 -0.4301  0.2622  0.4345
  545TMC3    C4 8086   2.312   0.361  17.006  0.0922  0.3914 -0.4901
  545TMC3    C5 8087   2.382   0.255  16.969 -0.4141  0.3564 -0.3282
  545TMC3    C6 8088   2.491   0.259  16.888  0.2835  0.0088  0.2729
  545TMC3     C 8089   2.312   0.605  17.010  0.6305 -0.4318 -0.1446
  545TMC3     O 8090   2.377   0.705  16.977 -0.4297 -0.0384 -0.4296
  545TMC3     H 8091   2.509   0.590  16.852  1.7030 -0.6625 -0.7668
  545TMC3    H1 8092   2.225   0.340  17.068  0.0472  0.7779 -0.4176
  545TMC3    H2 8093   2.521   0.159  16.859  1.7462  0.0602  1.6181
  545TMC3    C7 8094   2.357   0.135  17.036  1.0137 -0.2558  0.0331
  545TMC3    C8 8095   2.674   0.390  16.793 -0.0636 -0.5111 -0.6143
  545TMC3    O1 8096   2.243   0.089  17.031 -0.1703 -0.0890  0.0906
  545TMC3    O2 8097   2.708   0.504  16.758 -0.2505  0.1843 -0.2355
  546MPD2     C 8098   3.798   0.860   0.076 -0.2753  0.2890 -0.6464
  546MPD2    C1 8099   3.846   0.808  17.647  0.0471  0.4088  0.2613
  546MPD2    C2 8100   3.926   0.882  17.557 -0.3561 -0.2238  0.2272
  546MPD2    C3 8101   3.945   1.014  17.593  0.4303 -0.5846 -0.6964
  546MPD2    C4 8102   3.897   1.060   0.018 -0.3808  0.2190 -0.3912
  546MPD2    C5 8103   3.829   0.989   0.107 -0.8321 -0.5092 -0.1968
  546MPD2     H 8104   3.946   0.843  17.458 -1.4121  0.8627 -0.4128
  546MPD2    H1 8105   3.920   1.163   0.046 -1.3022  0.4123 -0.3629
  546MPD2    H2 8106   3.745   0.804   0.153 -1.6189  0.5408 -1.3854
  546MPD2    H3 8107   3.807   1.039   0.201 -1.2646 -2.1941  0.5909
  546MPD2     N 8108   4.002   1.111  17.498 -0.3290  0.2635  0.0772
  546MPD2    H5 8109   3.996   1.210  17.518  0.3317  0.7669 -2.2041
  546MPD2    N1 8110   3.796   0.678  17.618 -0.1850  0.5704  0.7115
  546MPD2    H7 8111   3.723   0.642  17.679  0.8782 -0.8948  1.1416
  547TMC3    C1 8112   3.750   0.483  17.498 -0.4868  0.5371 -0.2770
  547TMC3    C2 8113   3.728   0.448  17.370  0.3323  0.4013 -0.0015
  547TMC3    C3 8114   3.614   0.383  17.337 -0.3596  0.5504  0.5725
  547TMC3    C4 8115   3.669   0.450  17.593 -0.0036 -0.1837  0.2410
  547TMC3    C5 8116   3.556   0.374  17.564 -0.0901  0.9418  0.0578
  547TMC3    C6 8117   3.516   0.354  17.431  0.0831  0.5212  0.0070
  547TMC3     C 8118   3.835   0.594  17.517 -0.1370 -0.3347 -0.0826
  547TMC3     O 8119   3.929   0.612  17.439  0.1385  0.4229 -0.4586
  547TMC3     H 8120   3.791   0.483  17.289  2.2340  1.0544  1.7638
  547TMC3    H1 8121   3.692   0.470   0.006  0.3487  1.8029 -0.2276
  547TMC3    H2 8122   3.430   0.294  17.404 -0.1797  1.1945 -0.6535
  547TMC3    C7 8123   3.476   0.328  17.678  0.3987 -0.2475  0.2257
  547TMC3    C8 8124   3.578   0.390  17.199 -0.0267 -0.0752  0.1639
  547TMC3    O1 8125   3.527   0.320   0.097  0.6458 -0.1411  0.2814
  547TMC3    O2 8126   3.457   0.396  17.184  0.2109  0.2100  0.4085
  548MPD2     C 8127   3.636   1.759  12.211  0.3977 -0.4106  0.4050
  548MPD2    C1 8128   3.582   1.659  12.288 -0.1618 -1.0636  0.3523
  548MPD2    C2 8129   3.654   1.544  12.305 -0.4393  0.3090 -0.0590
  548MPD2    C3 8130   3.774   1.521  12.238 -0.6426  0.6721 -0.4613
  548MPD2    C4 8131   3.834   1.628  12.170 -0.3820 -0.3717 -0.0368
  548MPD2    C5 8132   3.762   1.739  12.159  0.4264  0.6609  0.3781
  548MPD2     H 8133   3.608   1.461  12.358 -0.9955  1.4706  1.3051
  548MPD2    H1 8134   3.937   1.621  12.134  0.2356  0.5606  1.5636
  548MPD2    H2 8135   3.579   1.847  12.182 -2.0535 -2.5914 -1.4251
  548MPD2    H3 8136   3.809   1.824  12.111  1.4625 -0.7667 -1.1418
  548MPD2     N 8137   3.847   1.396  12.257 -0.7788  0.4035 -0.0918
  548MPD2    H5 8138   3.811   1.340  12.334  0.0986  2.1596  1.5915
  548MPD2    N1 8139   3.449   1.673  12.339 -0.4568 -0.0346 -0.7920
  548MPD2    H7 8140   3.416   1.768  12.342  0.6797  0.3798 -1.3226
  549TMC3    C1 8141   3.248   1.599  12.442 -0.6127  0.1760  0.4104
  549TMC3    C2 8142   3.204   1.727  12.409  0.0261  0.1739  0.0244
  549TMC3    C3 8143   3.069   1.746  12.403 -0.0381 -0.3448 -0.9584
  549TMC3    C4 8144   3.171   1.495  12.468  0.0848 -0.6292  0.2742
  549TMC3    C5 8145   3.037   1.518  12.454 -0.0230  0.2740  0.2926
  549TMC3    C6 8146   2.982   1.640  12.428  0.0107 -0.5089 -0.1330
  549TMC3     C 8147   3.369   1.566  12.385 -0.3204  0.5433 -0.2697
  549TMC3     O 8148   3.397   1.448  12.389  0.0978  0.4333 -0.3178
  549TMC3     H 8149   3.267   1.813  12.388  0.4208 -0.2157 -0.3658
  549TMC3    H1 8150   3.211   1.403  12.510 -0.6213 -0.8714  0.4242
  549TMC3    H2 8151   2.875   1.654  12.411  0.1617  0.6915 -0.0945
  549TMC3    C7 8152   2.941   1.407  12.463 -0.3326  0.0184 -0.5685
  549TMC3    C8 8153   3.016   1.842  12.307 -0.6519 -0.0324 -0.0790
  549TMC3    O1 8154   2.822   1.450  12.464 -0.1689  0.3591 -0.0957
  549TMC3    O2 8155   2.969   1.798  12.201 -0.6105  1.0175 -0.2032
  550TMC3    C1 8156   2.643   4.335  12.078 -0.4895 -0.1881  0.4142
  550TMC3    C2 8157   2.597   4.370  12.202 -0.4853  0.2136  0.7596
  550TMC3    C3 8158   2.539   4.495  12.204 -0.3893 -0.2010 -0.1436
  550TMC3    C4 8159   2.639   4.406  11.966  0.6442 -0.6537  0.3121
  550TMC3    C5 8160   2.575   4.521  11.972  0.1518  1.1094 -0.0352
  550TMC3    C6 8161   2.525   4.567  12.091 -0.0297  0.9264  0.1539
  550TMC3     C 8162   2.712   4.207  12.070  0.1219  0.2435 -0.5535
  550TMC3     O 8163   2.771   4.167  12.171 -0.0264  0.1019 -0.3614
  550TMC3     H 8164   2.587   4.306  12.289  1.7071  1.5695  2.0287
  550TMC3    H1 8165   2.687   4.380  11.873 -0.0796 -0.7341 -0.0454
  550TMC3    H2 8166   2.458   4.652  12.086 -1.1437  0.0676  0.3906
  550TMC3    C7 8167   2.532   4.586  11.852  0.6103 -0.6713  0.1373
  550TMC3    C8 8168   2.433   4.514  12.306 -0.0451 -0.7174 -0.1470
  550TMC3    O1 8169   2.546   4.709  11.861 -1.0707  0.7160 -0.0299
  550TMC3    O2 8170   2.410   4.623  12.354 -0.1226 -0.0249 -0.0477
  551TMC3    C1 8171   4.497   1.795  13.476 -0.1259 -0.6333 -0.1953
  551TMC3    C2 8172   4.595   1.803  13.382  0.3119  0.6807  0.1509
  551TMC3    C3 8173   4.668   1.917  13.380 -0.8000  0.9480 -0.5842
  551TMC3    C4 8174   4.490   1.882  13.579 -0.2476  0.4517  0.0501
  551TMC3    C5 8175   4.574   1.995  13.572  0.2294 -0.3855  0.0105
  551TMC3    C6 8176   4.670   2.009  13.476  0.1489 -0.0175  0.3743
  551TMC3     C 8177   4.380   1.745  13.411 -0.3723  0.1074 -1.1320
  551TMC3     O 8178   4.365   1.779  13.299  0.5219  0.3449 -0.0993
  551TMC3     H 8179   4.589   1.731  13.300  1.7837 -0.3520  0.9316
  551TMC3    H1 8180   4.426   1.873  13.666 -1.9269 -3.9250 -1.6138
  551TMC3    H2 8181   0.001   2.102  13.470  1.7375 -0.9877 -0.4562
  551TMC3    C7 8182   4.592   2.066  13.698 -0.4127 -0.0715  0.0525
  551TMC3    C8 8183   0.014   1.948  13.258  0.3739  0.0808  0.3011
  551TMC3    O1 8184   4.568   2.004  13.801 -0.2192 -0.0287  0.2189
  551TMC3    O2 8185   0.033   1.857  13.174  0.8540  0.0083  0.4334
  552MPD2     C 8186   1.300   3.978  14.016 -0.4380 -0.3622  0.1867
  552MPD2    C1 8187   1.366   3.848  14.021 -0.1313 -0.5301  0.0252
  552MPD2    C2 8188   1.486   3.842  14.089  0.4404 -0.0214  0.6021
  552MPD2    C3 8189   1.546   3.944  14.164 -0.0967  0.1635 -0.4233
  552MPD2    C4 8190   1.478   4.063  14.151  0.1014 -0.4156 -0.5886
  552MPD2    C5 8191   1.357   4.081  14.095 -0.0394  0.3450  0.1975
  552MPD2     H 8192   1.539   3.748  14.100  4.4275  1.7387 -3.4517
  552MPD2    H1 8193   1.512   4.152  14.203 -1.0498 -0.3530  0.0585
  552MPD2    H2 8194   1.207   4.000  13.965 -1.1768 -1.3572  1.0747
  552MPD2    H3 8195   1.292   4.165  14.117  0.0474  0.0809  1.4907
  552MPD2     N 8196   1.661   3.935  14.244 -0.1764  0.2018  0.0854
  552MPD2    H5 8197   1.686   4.023  14.288 -0.8902  1.5346 -2.1733
  552MPD2    N1 8198   1.313   3.750  13.937 -0.3410 -0.4938  1.3450
  552MPD2    H7 8199   1.227   3.774  13.887  0.2320 -1.0022  0.1149
  553TMC3    C1 8200   1.316   3.558  13.799  0.7802  0.7946  0.6654
  553TMC3    C2 8201   1.295   3.634  13.687  0.7587 -0.1599 -0.8830
  553TMC3    C3 8202   1.393   3.625  13.585 -0.0570  0.3825 -0.0773
  553TMC3    C4 8203   1.388   3.447  13.783  0.2366 -0.3460 -1.1759
  553TMC3    C5 8204   1.469   3.424  13.676 -0.4060 -0.2195  1.0219
  553TMC3    C6 8205   1.489   3.523  13.585 -0.0992 -0.5680  0.0361
  553TMC3     C 8206   1.357   3.624  13.921  0.5877 -1.3795 -0.2847
  553TMC3     O 8207   1.435   3.565  13.992 -0.1220 -0.6700 -0.2130
  553TMC3     H 8208   1.225   3.716  13.693  1.9576  0.8477 -0.7307
  553TMC3    H1 8209   1.395   3.380  13.868  0.0216  0.8690 -0.2044
  553TMC3    H2 8210   1.552   3.506  13.499  2.2091  1.2151  1.3885
  553TMC3    C7 8211   1.576   3.342  13.720  0.1383 -0.1044  0.4016
  553TMC3    C8 8212   1.389   3.732  13.483  0.1236 -0.2873 -0.5764
  553TMC3    O1 8213   1.545   3.224  13.732 -0.6649 -0.3115 -0.3492
  553TMC3    O2 8214   1.308   3.822  13.495 -0.2419 -0.8846 -0.0959
  554TMC3    C1 8215   3.117   2.735  11.500 -0.1360  0.2393  0.5924
  554TMC3    C2 8216   3.080   2.743  11.365 -0.0350 -0.0793 -0.3487
  554TMC3    C3 8217   3.098   2.861  11.298 -0.4156  0.1966 -0.4502
  554TMC3    C4 8218   3.165   2.847  11.567 -0.0855 -0.2135 -0.0392
  554TMC3    C5 8219   3.178   2.966  11.499  0.3353 -0.6531 -0.4983
  554TMC3    C6 8220   3.147   2.971  11.363 -0.7431 -0.2347 -0.0581
  554TMC3     C 8221   3.121   2.599  11.555  0.2048  0.5574 -0.1904
  554TMC3     O 8222   3.071   2.507  11.490 -0.2386  0.2214  0.1366
  554TMC3     H 8223   3.058   2.649  11.317 -0.4395  0.1277 -0.5596
  554TMC3    H1 8224   3.180   2.847  11.674  0.8127  1.2811 -0.1597
  554TMC3    H2 8225   3.141   3.065  11.310  0.5946 -0.9814 -1.5542
  554TMC3    C7 8226   3.249   3.085  11.554  0.5045 -0.4014 -0.1891
  554TMC3    C8 8227   3.057   2.869  11.155 -0.0879 -0.1775  0.3178
  554TMC3    O1 8228   3.235   3.117  11.671 -0.3931  0.2039 -0.2310
  554TMC3    O2 8229   3.095   2.965  11.089  0.0882  0.4629 -0.0155
  555TMC3    C1 8230   2.695   2.231  14.803  0.1793 -0.6287  0.0758
  555TMC3    C2 8231   2.763   2.328  14.882  0.2406 -0.6015 -0.3313
  555TMC3    C3 8232   2.809   2.285  15.002  0.2978 -0.0288 -0.5593
  555TMC3    C4 8233   2.674   2.100  14.832 -0.0119 -0.0810 -0.2430
  555TMC3    C5 8234   2.732   2.062  14.954 -0.0122 -0.2685 -0.0752
  555TMC3    C6 8235   2.798   2.153  15.040  0.3780  0.5045  0.5331
  555TMC3     C 8236   2.654   2.271  14.673 -0.2620  0.0224 -0.2562
  555TMC3     O 8237   2.652   2.180  14.590  0.7669 -0.2384  0.3409
  555TMC3     H 8238   2.803   2.423  14.847 -1.7506  0.8819  1.4024
  555TMC3    H1 8239   2.618   2.036  14.765  1.1808 -0.2549 -1.0858
  555TMC3    H2 8240   2.822   2.124  15.141 -0.0934  0.9629  0.7763
  555TMC3    C7 8241   2.693   1.934  14.998 -0.2309  0.7253  0.0289
  555TMC3    C8 8242   2.913   2.351  15.072  0.4041  0.2729  0.1441
  555TMC3    O1 8243   2.701   1.918  15.119 -0.0645 -0.1990  0.3915
  555TMC3    O2 8244   2.900   2.473  15.081  0.1582  0.7999  0.2551
  556MPD2     C 8245   0.245   0.341  10.512 -0.3787 -0.6976  0.0673
  556MPD2    C1 8246   0.253   0.210  10.553  0.4550  0.1866  0.3351
  556MPD2    C2 8247   0.217   0.111  10.462 -0.2991  0.7526  0.3751
  556MPD2    C3 8248   0.198   0.149  10.323  0.9269  0.6204 -0.7368
  556MPD2    C4 8249   0.195   0.278  10.289  0.0108  0.8989 -0.5160
  556MPD2    C5 8250   0.221   0.373  10.382  0.5726 -0.0486  0.1545
  556MPD2     H 8251   0.218   0.009  10.500 -0.3829 -0.4875 -2.9419
  556MPD2    H1 8252   0.171   0.318  10.191 -0.2421  0.7222 -0.5253
  556MPD2    H2 8253   0.262   0.423  10.580  0.1903  0.3209 -1.3060
  556MPD2    H3 8254   0.224   0.476  10.350 -0.6177 -0.0962 -0.1008
  556MPD2     N 8255   0.181   0.044  10.228  0.3218  0.4279  0.2563
  556MPD2    H5 8256   0.188   4.670  10.259 -4.8009  0.1527  0.6559
  556MPD2    N1 8257   0.294   0.168  10.678  0.0289 -0.0187 -0.6557
  556MPD2    H7 8258   0.278   0.070  10.699 -2.1088  0.8210  1.6811
  557TMC3    C1 8259   0.213   4.657  10.029  0.1089 -0.7988 -0.5085
  557TMC3    C2 8260   0.181   4.653   9.894 -0.1106 -0.3046 -0.0602
  557TMC3    C3 8261   0.193   4.533   9.827 -0.3938  0.4390  0.5980
  557TMC3    C4 8262   0.255   4.546  10.104  0.1155 -0.1598  0.2273
  557TMC3    C5 8263   0.264   4.428  10.029 -0.2097 -0.7541  0.7755
  557TMC3    C6 8264   0.238   4.427   9.897  1.1837 -0.0786 -0.2074
  557TMC3     C 8265   0.169   0.054  10.095  0.1145 -0.4464  0.2199
  557TMC3     O 8266   0.143   0.149  10.025  0.1218 -0.0274 -0.0564
  557TMC3     H 8267   0.167   0.021   9.837 -1.5215  0.1790  1.0477
  557TMC3    H1 8268   0.293   4.554  10.205  0.8506  1.5186 -0.1756
  557TMC3    H2 8269   0.243   4.331   9.847  2.0836 -1.1664  1.9565
  557TMC3    C7 8270   0.287   4.305  10.103 -0.0564 -0.5158  0.0057
  557TMC3    C8 8271   0.160   4.529   9.684  0.9924 -0.3899  0.6070
  557TMC3    O1 8272   0.248   4.301  10.217 -0.0521 -0.2998  0.0041
  557TMC3    O2 8273   0.171   4.635   9.626 -0.3050  0.1397 -0.0169
  558TMC3    C1 8274   3.566   2.114  10.189 -0.5405  0.3100  0.3904
  558TMC3    C2 8275   3.490   2.026  10.258 -0.7687 -0.1370  0.3628
  558TMC3    C3 8276   3.400   1.953  10.184 -0.1480 -0.5052  0.1719
  558TMC3    C4 8277   3.568   2.127  10.053 -0.6326 -0.5752  0.7751
  558TMC3    C5 8278   3.482   2.039   9.985  0.0820 -0.0517 -0.4907
  558TMC3    C6 8279   3.395   1.955  10.046 -0.2730 -0.4071  0.2687
  558TMC3     C 8280   3.681   2.158  10.253 -0.1416 -0.3371  0.1479
  558TMC3     O 8281   3.734   2.258  10.210 -0.0360  0.3946  0.0186
  558TMC3     H 8282   3.473   2.043  10.364  3.0989  0.7854  0.8103
  558TMC3    H1 8283   3.644   2.192  10.012 -0.7692 -1.0955 -0.2957
  558TMC3    H2 8284   3.324   1.887   9.999  0.0609  0.8474 -2.0548
  558TMC3    C7 8285   3.463   2.080   9.841  0.6123 -0.6765 -0.2971
  558TMC3    C8 8286   3.280   1.894  10.247 -0.1196 -1.0904  0.0579
  558TMC3    O1 8287   3.529   2.175   9.796 -0.2382 -0.1502  0.0532
  558TMC3    O2 8288   3.203   1.832  10.171  0.1383 -0.0988 -0.3855
  559MPD2     C 8289   3.306   2.712  10.581 -0.2417  0.8610  0.3634
  559MPD2    C1 8290   3.264   2.616  10.673  0.5891 -0.5421 -1.2580
  559MPD2    C2 8291   3.359   2.573  10.766  0.5490  0.4109  0.3396
  559MPD2    C3 8292   3.488   2.626  10.769  0.3413 -0.2139  0.0764
  559MPD2    C4 8293   3.523   2.717  10.673 -0.8057  0.0526 -0.1989
  559MPD2    C5 8294   3.430   2.766  10.584  0.0494 -0.1949 -0.6898
  559MPD2     H 8295   3.344   2.492  10.836 -0.4930  0.3667  0.0614
  559MPD2    H1 8296   3.620   2.766  10.678 -0.7983 -0.3083  3.2550
  559MPD2    H2 8297   3.234   2.748  10.507 -0.3989  0.6407  0.4092
  559MPD2    H3 8298   3.458   2.843  10.512 -0.9220 -0.7138 -1.6301
  559MPD2     N 8299   3.574   2.575  10.864  0.0828 -0.0362  0.0203
  559MPD2    H5 8300   3.544   2.495  10.919 -0.0390  0.9075  1.3343
  559MPD2    N1 8301   3.135   2.561  10.668  0.4127  0.0360 -0.4605
  559MPD2    H7 8302   3.083   2.590  10.585  2.3457 -0.7637 -1.9606
  560TMC3    C1 8303   3.757   2.545  10.996 -0.2218  0.2304 -0.3557
  560TMC3    C2 8304   3.716   2.420  11.024  0.5190 -0.1439  0.0387
  560TMC3    C3 8305   3.766   2.360  11.143 -0.2714  0.1283 -0.2989
  560TMC3    C4 8306   3.843   2.612  11.084  0.1090  0.5124 -0.1710
  560TMC3    C5 8307   3.869   2.560  11.203 -0.1903 -0.2361  0.4265
  560TMC3    C6 8308   3.837   2.433  11.231 -0.0244 -0.1836  0.4303
  560TMC3     C 8309   3.694   2.629  10.898  0.6233 -0.0011  0.8782
  560TMC3     O 8310   3.757   2.725  10.860 -0.1491  0.1287 -0.2238
  560TMC3     H 8311   3.663   2.358  10.953  1.3960 -1.3089  0.3930
  560TMC3    H1 8312   3.842   2.718  11.063  0.6147  0.8971  1.7735
  560TMC3    H2 8313   3.871   2.380  11.320  2.5591  2.3956  0.9511
  560TMC3    C7 8314   3.894   2.650  11.318  0.5796 -0.2863 -0.2692
  560TMC3    C8 8315   3.719   2.223  11.165 -0.4498  0.2063 -0.7164
  560TMC3    O1 8316   3.838   2.609  11.416  0.0019 -0.1939  0.1463
  560TMC3    O2 8317   3.616   2.192  11.110 -0.4359 -0.1067 -0.8418
  561TMC3    C1 8318   1.039   1.558  11.501 -0.3691  0.4496  0.2338
  561TMC3    C2 8319   1.011   1.508  11.621  0.6174  0.5186 -0.3319
  561TMC3    C3 8320   1.020   1.589  11.735  0.8927 -0.5999 -0.6116
  561TMC3    C4 8321   1.078   1.690  11.490  0.1774  0.1844 -0.0912
  561TMC3    C5 8322   1.093   1.765  11.601  0.0916 -0.4331 -0.1195
  561TMC3    C6 8323   1.059   1.719  11.724 -0.2612 -0.5488  0.1405
  561TMC3     C 8324   0.969   1.493  11.389 -0.2535 -0.2006  0.1978
  561TMC3     O 8325   0.890   1.410  11.426 -0.1947 -0.3597  0.2794
  561TMC3     H 8326   0.966   1.410  11.626  1.3649  0.2640  1.3504
  561TMC3    H1 8327   1.085   1.744  11.396  0.3680 -0.7156 -0.5917
  561TMC3    H2 8328   1.074   1.776  11.815 -0.5632 -3.2772  1.9257
  561TMC3    C7 8329   1.144   1.901  11.582 -0.1509 -0.3470 -0.2609
  561TMC3    C8 8330   0.957   1.546  11.854 -0.6315 -0.7812 -0.4521
  561TMC3    O1 8331   1.096   1.979  11.665 -0.0729 -0.6368  0.5225
  561TMC3    O2 8332   0.948   1.421  11.862  0.2676 -0.3998  0.2598
  562TMC3    C1 8333   2.402   2.911  16.088  0.4781  1.8246  0.1504
  562TMC3    C2 8334   2.302   3.004  16.105 -0.0248  0.1693  0.1723
  562TMC3    C3 8335   2.242   3.053  15.985 -0.7145 -0.3320  0.0473
  562TMC3    C4 8336   2.432   2.860  15.962 -0.4785  0.4561 -0.0578
  562TMC3    C5 8337   2.372   2.904  15.849 -1.0027 -0.2197 -0.9029
  562TMC3    C6 8338   2.272   3.005  15.857 -0.4178 -0.1425 -0.2283
  562TMC3     C 8339   2.471   2.839  16.202 -0.0094 -0.9036 -0.3086
  562TMC3     O 8340   2.517   2.719  16.184 -0.5827  0.3111 -0.5955
  562TMC3     H 8341   2.289   3.054  16.200  0.5930  0.8867 -0.1230
  562TMC3    H1 8342   2.516   2.791  15.965 -0.9778 -0.1468  0.3314
  562TMC3    H2 8343   2.206   3.037  15.777 -1.1977  0.7375  0.7779
  562TMC3    C7 8344   2.391   2.841  15.722  0.3943  0.0815 -0.0349
  562TMC3    C8 8345   2.108   3.110  16.011  0.5919 -0.3139  0.2148
  562TMC3    O1 8346   2.319   2.884  15.632  0.4556  0.1760 -0.8643
  562TMC3    O2 8347   2.063   3.107  16.125 -0.3325 -0.2861 -0.0810
  563MPD2     C 8348   4.678   3.539  15.648 -0.1825 -0.1909 -0.3610
  563MPD2    C1 8349   4.660   3.676  15.662 -0.2745 -0.1732  0.4230
  563MPD2    C2 8350   0.022   3.751  15.746 -0.4311  0.3567 -0.3952
  563MPD2    C3 8351   0.120   3.690  15.821  0.4373  0.7128 -0.1323
  563MPD2    C4 8352   0.122   3.547  15.821 -0.7492  0.4318 -0.0565
  563MPD2    C5 8353   0.047   3.477  15.725 -0.3627 -0.0776 -0.2103
  563MPD2     H 8354   0.010   3.858  15.757  1.5487  0.7089 -1.6937
  563MPD2    H1 8355   0.189   3.484  15.879  0.1925  2.3123  0.8923
  563MPD2    H2 8356   4.612   3.479  15.587 -0.1348 -0.1271 -0.4760
  563MPD2    H3 8357   0.050   3.368  15.730  3.4465  0.1102  1.3464
  563MPD2     N 8358   0.181   3.775  15.911 -0.0559 -0.2113  0.5564
  563MPD2    H5 8359   0.165   3.876  15.911 -2.5988 -0.6326 -1.6463
  563MPD2    N1 8360   4.539   3.740  15.617 -0.5665 -0.3840 -0.0722
  563MPD2    H7 8361   4.484   3.684  15.552 -0.0783 -0.6888 -0.2268
  564TMC3    C1 8362   4.398   3.865  15.739  0.2119  0.1505  0.2518
  564TMC3    C2 8363   4.328   3.746  15.744  0.0143 -0.1761  0.3328
  564TMC3    C3 8364   4.281   3.703  15.863  0.2589  0.1096 -0.2264
  564TMC3    C4 8365   4.421   3.935  15.855 -0.2923  0.2680  0.6324
  564TMC3    C5 8366   4.375   3.883  15.978 -0.3428 -0.5648  0.0953
  564TMC3    C6 8367   4.312   3.768  15.982  0.1629 -0.7638  0.9050
  564TMC3     C 8368   4.498   3.877  15.633  0.6112  0.1945 -0.7920
  564TMC3     O 8369   4.570   3.973  15.638  0.0421  0.0803 -0.4280
  564TMC3     H 8370   4.277   3.715  15.653 -0.0924 -2.6089  1.2253
  564TMC3    H1 8371   4.472   4.030  15.857  0.2215 -0.0288  1.7434
  564TMC3    H2 8372   4.273   3.734  16.078 -0.0026 -2.1243  0.3424
  564TMC3    C7 8373   4.477   3.901  16.081 -0.7510 -0.6065 -0.2858
  564TMC3    C8 8374   4.284   3.560  15.886 -0.6273  0.3390  0.9769
  564TMC3    O1 8375   4.592   3.914  16.041  0.3749  0.2024 -0.7799
  564TMC3    O2 8376   4.259   3.522  15.999 -0.3983 -0.2260  0.4854
  565TMC3    C1 8377   0.533   0.935  10.523 -0.3612  0.8270  0.2965
  565TMC3    C2 8378   0.467   0.873  10.624 -1.2410  0.0731 -0.4658
  565TMC3    C3 8379   0.344   0.821  10.603  0.7627  0.1813  0.0322
  565TMC3    C4 8380   0.480   0.931  10.397  0.1381  0.3286 -0.3179
  565TMC3    C5 8381   0.361   0.869  10.376  0.2399 -0.1298 -1.1177
  565TMC3    C6 8382   0.292   0.810  10.478  0.1834 -0.5399  0.1100
  565TMC3     C 8383   0.674   0.956  10.533  0.6666 -0.1691  0.5208
  565TMC3     O 8384   0.724   0.982  10.426  0.6067  0.0798  0.1031
  565TMC3     H 8385   0.501   0.888  10.725 -1.1198  0.3630 -0.5505
  565TMC3    H1 8386   0.533   0.984  10.319  0.9505 -1.6317 -1.1081
  565TMC3    H2 8387   0.211   0.742  10.455  0.4513 -1.2402  1.2727
  565TMC3    C7 8388   0.290   0.888  10.253 -0.3391 -0.1895  0.6315
  565TMC3    C8 8389   0.302   0.733  10.711  0.6355  0.4089  0.0120
  565TMC3    O1 8390   0.174   0.861  10.260  0.0599  0.0976 -0.7882
  565TMC3    O2 8391   0.392   0.703  10.792 -0.0954 -0.0689 -0.2505
  566MPD2     C 8392   1.733   2.629  14.290 -0.3815 -0.6132  0.0332
  566MPD2    C1 8393   1.809   2.570  14.193 -0.0732  0.7009 -0.1032
  566MPD2    C2 8394   1.746   2.502  14.090  0.2865  0.0494  0.9278
  566MPD2    C3 8395   1.609   2.478  14.094 -0.2116  0.6160 -0.8867
  566MPD2    C4 8396   1.532   2.542  14.188 -0.0511  0.2474  0.2765
  566MPD2    C5 8397   1.595   2.611  14.292 -0.0458  0.5239 -0.5691
  566MPD2     H 8398   1.801   2.462  14.005 -2.7781 -2.8805  0.3214
  566MPD2    H1 8399   1.424   2.538  14.192 -0.0857  1.6206  0.5337
  566MPD2    H2 8400   1.779   2.691  14.365 -0.0759  0.1084 -0.7562
  566MPD2    H3 8401   1.533   2.671  14.358 -1.2576 -2.4889  1.0306
  566MPD2     N 8402   1.537   2.406  13.992 -0.4877  0.3350  0.2533
  566MPD2    H5 8403   1.436   2.401  13.983 -0.2386 -4.0473 -0.0670
  566MPD2    N1 8404   1.950   2.581  14.184  0.2104 -0.6217 -0.1037
  566MPD2    H7 8405   1.990   2.535  14.103 -1.8496 -0.6131 -1.1299
  567TMC3    C1 8406   2.161   2.594  14.249 -0.0551  0.3502  0.5187
  567TMC3    C2 8407   2.185   2.626  14.115  0.2722  0.1888 -1.0677
  567TMC3    C3 8408   2.278   2.568  14.048 -0.4079  0.2600  0.7084
  567TMC3    C4 8409   2.193   2.470  14.297 -0.1276  0.1655 -0.6487
  567TMC3    C5 8410   2.275   2.398  14.213  0.1387 -0.3649 -0.0634
  567TMC3    C6 8411   2.319   2.445  14.094 -0.3267 -0.3159 -0.2621
  567TMC3     C 8412   2.027   2.629  14.282  0.0860  0.3239 -0.1836
  567TMC3     O 8413   2.003   2.634  14.402 -0.3289 -0.1273 -0.0234
  567TMC3     H 8414   2.147   2.721  14.082  0.4011  1.3654  2.1982
  567TMC3    H1 8415   2.146   2.431  14.387 -0.0270  0.9911 -0.2328
  567TMC3    H2 8416   2.381   2.373  14.041 -2.2265 -1.7882 -0.4789
  567TMC3    C7 8417   2.299   2.258  14.239  0.2940  0.9262 -0.8375
  567TMC3    C8 8418   2.276   2.589  13.901 -0.2943 -1.0311  0.0458
  567TMC3    O1 8419   2.299   2.179  14.147 -0.4520  0.0775  0.1518
  567TMC3    O2 8420   2.182   2.647  13.853  0.2656  0.6593 -0.1680
  568MPD2     C 8421   0.287   2.615  16.847  0.2154  0.2328  0.1761
  568MPD2    C1 8422   0.153   2.641  16.878  0.5040 -0.2119  0.1548
  568MPD2    C2 8423   0.072   2.684  16.775  0.0232 -0.7241  0.2274
  568MPD2    C3 8424   0.124   2.708  16.650 -0.0954 -0.4890  0.1698
  568MPD2    C4 8425   0.261   2.686  16.626  0.2721 -0.4146  0.0082
  568MPD2    C5 8426   0.342   2.636  16.720 -0.0065  0.1801 -0.5440
  568MPD2     H 8427   4.692   2.712  16.799  0.8794  1.9897  0.6960
  568MPD2    H1 8428   0.294   2.701  16.523 -0.5598 -2.0106 -0.4788
  568MPD2    H2 8429   0.363   2.580  16.917 -0.5336 -0.9178  0.4084
  568MPD2    H3 8430   0.446   2.626  16.691  0.0630  1.2037 -0.6354
  568MPD2     N 8431   0.035   2.768  16.557  0.1573  0.7130 -0.2576
  568MPD2    H5 8432   4.667   2.787  16.602  1.2528  1.0892  1.7944
  568MPD2    N1 8433   0.100   2.605  17.007  0.7873 -0.1172 -0.0577
  568MPD2    H7 8434   0.161   2.557  17.071  0.6836 -0.1618  0.0075
  569TMC3    C1 8435   4.683   2.895  16.377  0.1691  0.1248 -0.3990
  569TMC3    C2 8436   4.597   2.953  16.461  0.9762 -0.6632  0.0465
  569TMC3    C3 8437   4.480   3.004  16.420  0.4166  0.7094  0.3608
  569TMC3    C4 8438   4.658   2.905  16.242  0.1690 -0.4120  0.4701
  569TMC3    C5 8439   4.537   2.958  16.202 -0.0879 -0.0637  0.1491
  569TMC3    C6 8440   4.440   2.995  16.290  0.1407 -0.3808  0.0741
  569TMC3     C 8441   0.062   2.810  16.429 -0.3795  0.3653  0.0658
  569TMC3     O 8442   0.158   2.788  16.356  0.0354  0.7399 -0.0301
  569TMC3     H 8443   4.630   2.960  16.564 -1.2423 -1.8931  0.8442
  569TMC3    H1 8444   0.007   2.867  16.169  1.0252  0.2582  0.9581
  569TMC3    H2 8445   4.345   3.027  16.250 -0.5664 -0.7519  1.4443
  569TMC3    C7 8446   4.512   2.974  16.056  0.0471 -0.1369  0.0760
  569TMC3    C8 8447   4.400   3.077  16.513 -0.0741  0.6597 -0.1676
  569TMC3    O1 8448   4.564   2.898  15.973 -0.2808  0.1300 -0.1007
  569TMC3    O2 8449   4.280   3.073  16.490  0.3858 -0.4826 -0.3574
  570TMC3    C1 8450   3.843   1.565  16.060 -0.0904 -0.1675  0.0874
  570TMC3    C2 8451   3.915   1.566  15.945 -0.6864 -0.3899  0.0038
  570TMC3    C3 8452   3.919   1.683  15.879  0.2029  0.9093  0.1593
  570TMC3    C4 8453   3.780   1.674  16.113  0.4087  0.2269 -0.7374
  570TMC3    C5 8454   3.778   1.785  16.035  0.7499  0.6186  0.4258
  570TMC3    C6 8455   3.852   1.794  15.919 -0.3588 -0.0472 -0.4245
  570TMC3     C 8456   3.859   1.453  16.155 -0.1837 -0.4407 -0.8991
  570TMC3     O 8457   3.853   1.341  16.103 -0.6382 -0.1815 -0.1928
  570TMC3     H 8458   3.985   1.485  15.927  1.9528  1.7071  0.9031
  570TMC3    H1 8459   3.709   1.655  16.193  0.7318  0.4283 -0.3954
  570TMC3    H2 8460   3.867   1.887  15.866 -0.0159 -0.2796 -0.7390
  570TMC3    C7 8461   3.760   1.908  16.108 -0.3017 -0.1766 -0.0783
  570TMC3    C8 8462   4.018   1.705  15.780  0.4365  0.6264 -0.5653
  570TMC3    O1 8463   3.783   1.915  16.230  0.4122  0.3457  0.1615
  570TMC3    O2 8464   4.072   1.812  15.793 -0.5098  0.1804  0.4339
  571MPD2     C 8465   1.506   2.953  17.377  0.7724  0.0224  0.5079
  571MPD2    C1 8466   1.518   2.856  17.472 -0.0218  0.6151 -0.7201
  571MPD2    C2 8467   1.447   2.868  17.589 -0.1600 -0.1823 -0.0891
  571MPD2    C3 8468   1.376   2.982  17.622  0.1596  0.1525  0.0478
  571MPD2    C4 8469   1.366   3.078  17.521  0.6368  0.6362  0.2342
  571MPD2    C5 8470   1.433   3.065  17.405 -0.0164 -0.1494 -0.2208
  571MPD2     H 8471   1.442   2.799  17.672  0.4547  1.3683  1.2509
  571MPD2    H1 8472   1.310   3.169  17.541  1.3266  1.3554 -1.0981
  571MPD2    H2 8473   1.555   2.934  17.282  1.6011 -0.3612  1.0186
  571MPD2    H3 8474   1.429   3.143  17.329 -0.1938 -0.3620 -0.4292
  571MPD2     N 8475   1.298   3.007   0.047 -0.4907  0.0661  0.7404
  571MPD2    H5 8476   1.264   3.101   0.063 -0.0495 -0.0448  2.3063
  571MPD2    N1 8477   1.611   2.754  17.435 -0.3479  0.2260  0.3768
  571MPD2    H7 8478   1.664   2.765  17.349 -0.7709  0.5307  0.1572
  572TMC3    C1 8479   1.214   2.995   0.259  0.2942 -0.4941 -0.0753
  572TMC3    C2 8480   1.241   2.932   0.379  0.2568 -0.2426 -0.5832
  572TMC3    C3 8481   1.313   3.006   0.470 -0.1957  0.1877 -0.2516
  572TMC3    C4 8482   1.217   3.132   0.257 -0.4633 -0.1763  0.0064
  572TMC3    C5 8483   1.296   3.202   0.344 -0.2714  0.4160  0.2771
  572TMC3    C6 8484   1.346   3.138   0.455  0.2148  0.7603 -0.0970
  572TMC3     C 8485   1.281   2.924   0.148 -0.8675 -1.0662  0.3607
  572TMC3     O 8486   1.324   2.811   0.164 -0.3716  0.2559  0.9295
  572TMC3     H 8487   1.242   2.824   0.382  1.8891 -0.2561 -1.7582
  572TMC3    H1 8488   1.156   3.181   0.182 -1.1116 -1.3287 -0.2245
  572TMC3    H2 8489   1.414   3.187   0.525 -1.2802  0.0648  1.8538
  572TMC3    C7 8490   1.333   3.340   0.315  0.2628  0.5671  0.2418
  572TMC3    C8 8491   1.385   2.933   0.568  0.4127 -0.2333 -0.0231
  572TMC3    O1 8492   1.297   3.379   0.203  0.4881  0.0920 -0.4218
  572TMC3    O2 8493   1.418   2.817   0.537 -0.6220 -0.3998 -0.3610
  573MPD2     C 8494   2.686   4.372   0.753 -0.0515 -0.0697 -0.6092
  573MPD2    C1 8495   2.804   4.435   0.748  0.7573 -0.6351 -0.1718
  573MPD2    C2 8496   2.851   4.479   0.623  0.1441 -0.3929 -0.0493
  573MPD2    C3 8497   2.764   4.475   0.517 -0.7447  0.3988 -0.0342
  573MPD2    C4 8498   2.641   4.411   0.527 -0.1360  0.7773  0.3217
  573MPD2    C5 8499   2.606   4.352   0.646  0.3580 -0.5683  0.8684
  573MPD2     H 8500   2.941   4.539   0.621 -1.4147  1.8854 -1.5455
  573MPD2    H1 8501   2.589   4.387   0.435 -1.4944  0.5330  1.1551
  573MPD2    H2 8502   2.649   4.328   0.845  1.2538  0.2049  0.0436
  573MPD2    H3 8503   2.516   4.292   0.660 -0.4347  0.0890 -1.4071
  573MPD2     N 8504   2.806   4.519   0.389 -0.4957 -0.0336 -0.1401
  573MPD2    H5 8505   2.728   4.521   0.325 -1.1181 -0.3081  0.6160
  573MPD2    N1 8506   2.879   4.439   0.868  0.6869 -0.2880  0.0573
  573MPD2    H7 8507   2.837   4.392   0.949  0.9296 -0.2051  0.2308
  574TMC3    C1 8508   2.935   4.598   0.199  0.2965 -0.0411 -0.9599
  574TMC3    C2 8509   2.815   4.600   0.135 -0.2368 -0.2741  0.1734
  574TMC3    C3 8510   2.827   4.617  17.687  0.1676  0.0691  0.3871
  574TMC3    C4 8511   3.056   4.594   0.138  0.1310 -0.1049  0.3752
  574TMC3    C5 8512   3.058   4.621   0.003 -0.4816  0.3713  0.6854
  574TMC3    C6 8513   2.942   4.634  17.618 -0.1925  0.6610 -0.3221
  574TMC3     C 8514   2.933   4.549   0.343  0.0042  0.1960  0.5892
  574TMC3     O 8515   3.042   4.547   0.406 -1.0628  0.2885  0.0531
  574TMC3     H 8516   2.720   4.595   0.186 -0.7189  0.9859 -0.6009
  574TMC3    H1 8517   3.146   4.582   0.198  0.9646  0.0255 -0.8371
  574TMC3    H2 8518   2.945   4.640  17.509  2.3209  0.6935 -0.2324
  574TMC3    C7 8519   3.178   4.613  17.614  0.6222 -0.2512 -0.5809
  574TMC3    C8 8520   2.700   4.601  17.618  0.3086  0.6584 -0.2017
  574TMC3    O1 8521   3.152   4.597  17.497  0.0519  0.3224  0.1537
  574TMC3    O2 8522   2.620   4.530  17.672  0.2986 -0.3156  0.2279
  575TMC3    C1 8523   0.331   0.227  11.437 -0.1611 -0.4536 -0.1875
  575TMC3    C2 8524   0.222   0.160  11.481  0.4186  0.5922 -0.4181
  575TMC3    C3 8525   0.106   0.173  11.401  0.3757 -0.3799 -0.1732
  575TMC3    C4 8526   0.333   0.303  11.321  0.1760 -0.3395 -0.7231
  575TMC3    C5 8527   0.216   0.303  11.247  0.0744 -0.5039 -0.1455
  575TMC3    C6 8528   0.101   0.246  11.286  0.2603  0.4646 -0.6201
  575TMC3     C 8529   0.447   0.220  11.518  1.1682  0.9036  0.0826
  575TMC3     O 8530   0.456   0.116  11.584 -0.1787  0.1361  0.1735
  575TMC3     H 8531   0.216   0.124  11.583  1.5937  0.0930 -0.5282
  575TMC3    H1 8532   0.427   0.343  11.285  0.4460 -1.6251 -1.4732
  575TMC3    H2 8533   0.003   0.264  11.243  0.2287  1.5633 -0.1029
  575TMC3    C7 8534   0.197   0.397  11.137  0.0778 -0.1645 -0.1157
  575TMC3    C8 8535   4.715   0.133  11.473  0.0744 -0.1069  0.4745
  575TMC3    O1 8536   0.277   0.489  11.132 -0.9264 -0.1275  0.0770
  575TMC3    O2 8537   4.705   0.157  11.597  0.1919  0.1367 -0.3232
  576MPD2     C 8538   4.701   2.164  12.767  0.1839  0.1005 -0.1115
  576MPD2    C1 8539   0.028   2.239  12.661 -0.6680 -0.0178  0.9190
  576MPD2    C2 8540   4.685   2.354  12.623 -0.2269  0.2782  0.3704
  576MPD2    C3 8541   4.555   2.388  12.667  0.2360  0.2372  0.6401
  576MPD2    C4 8542   4.507   2.317  12.773 -0.0610  0.4287  0.1794
  576MPD2    C5 8543   4.584   2.208  12.827  0.1088 -0.0136 -0.4025
  576MPD2     H 8544   0.005   2.400  12.535  1.6614 -0.8965  0.6698
  576MPD2    H1 8545   4.410   2.336  12.816 -0.8500  0.5439 -1.6722
  576MPD2    H2 8546   0.030   2.076  12.806 -0.1851  1.4701  3.4319
  576MPD2    H3 8547   4.542   2.161  12.915 -1.0775  0.0372 -0.9527
  576MPD2     N 8548   4.496   2.497  12.605 -0.1293 -0.3107 -0.2218
  576MPD2    H5 8549   4.541   2.534  12.522  1.9951 -0.7290  0.7624
  576MPD2    N1 8550   0.149   2.209  12.599  0.3700 -0.8008  0.0488
  576MPD2    H7 8551   0.183   2.273  12.528 -1.1524  1.0978  1.0449
  577TMC3    C1 8552   0.342   2.089  12.530  0.2829 -0.3916 -0.4645
  577TMC3    C2 8553   0.405   1.965  12.521 -0.1933  0.1031  0.9967
  577TMC3    C3 8554   0.522   1.960  12.454  0.3515 -0.1373 -0.5605
  577TMC3    C4 8555   0.407   2.206  12.497 -0.0002  0.4751  0.5912
  577TMC3    C5 8556   0.533   2.199  12.447 -0.3641  0.2925 -0.1533
  577TMC3    C6 8557   0.586   2.076  12.413 -0.2154 -0.0204 -0.2260
  577TMC3     C 8558   0.223   2.097  12.617  0.2662  0.0031 -0.1817
  577TMC3     O 8559   0.207   1.991  12.675  0.1327  0.1376  0.3037
  577TMC3     H 8560   0.349   1.873  12.534 -0.8864  0.3495 -0.2280
  577TMC3    H1 8561   0.371   2.305  12.520 -1.0494  0.3335 -0.4784
  577TMC3    H2 8562   0.673   2.080  12.349 -0.2902 -0.5753 -0.3592
  577TMC3    C7 8563   0.584   2.296  12.360  0.1029 -0.0809 -0.6488
  577TMC3    C8 8564   0.551   1.828  12.397 -0.0636 -0.0340 -0.2834
  577TMC3    O1 8565   0.701   2.295  12.334  0.4874  0.1538  0.0234
  577TMC3    O2 8566   0.481   1.738  12.435  0.2095 -0.3692 -0.0531
  578MPD2     C 8567   3.326   2.360   0.589  0.0574  0.7686 -0.1140
  578MPD2    C1 8568   3.459   2.369   0.538  0.3069  0.2694  0.5253
  578MPD2    C2 8569   3.561   2.327   0.622 -0.6193 -0.0968 -0.4903
  578MPD2    C3 8570   3.531   2.252   0.732 -1.7545  0.2804  0.2928
  578MPD2    C4 8571   3.405   2.236   0.775 -0.0016  0.4438  0.3252
  578MPD2    C5 8572   3.301   2.292   0.706  0.8116  0.0037 -0.5607
  578MPD2     H 8573   3.668   2.341   0.606 -0.5910 -0.2206 -0.4064
  578MPD2    H1 8574   3.373   2.176   0.859 -1.7803  1.3482  0.2867
  578MPD2    H2 8575   3.237   2.394   0.537 -0.2110 -0.2512 -0.3169
  578MPD2    H3 8576   3.197   2.273   0.729  0.9536  0.4545  0.4847
  578MPD2     N 8577   3.639   2.205   0.811  0.1951 -0.3576 -0.3638
  578MPD2    H5 8578   3.732   2.229   0.780  0.7780 -0.1539  1.5615
  578MPD2    N1 8579   3.479   2.444   0.423  0.0924 -0.4707  0.5769
  578MPD2    H7 8580   3.400   2.481   0.372  0.2350 -0.6397  0.2359
  579TMC3    C1 8581   3.788   2.093   0.953 -0.5179  0.6631  0.2066
  579TMC3    C2 8582   3.881   2.192   0.927 -0.6405 -0.1837  0.2382
  579TMC3    C3 8583   4.009   2.167   0.976  0.0788 -0.4677 -0.1060
  579TMC3    C4 8584   3.813   1.969   1.004  0.1414 -0.3040  0.2766
  579TMC3    C5 8585   3.947   1.943   1.034  0.2540 -0.4922 -0.2106
  579TMC3    C6 8586   4.044   2.036   1.023 -0.0262  0.2563  0.0516
  579TMC3     C 8587   3.647   2.122   0.916 -0.4125 -0.4960  0.3346
  579TMC3     O 8588   3.561   2.052   0.969 -0.3000 -0.0017  0.4150
  579TMC3     H 8589   3.867   2.282   0.869 -0.7514 -0.2278  0.1954
  579TMC3    H1 8590   3.724   1.914   1.034  1.4014 -1.8412  1.1261
  579TMC3    H2 8591   4.146   2.001   1.034  0.0470  0.5562  0.3379
  579TMC3    C7 8592   3.980   1.802   1.057 -0.2139  0.2756  0.0369
  579TMC3    C8 8593   4.101   2.278   0.997 -0.1325 -0.2749 -0.6725
  579TMC3    O1 8594   4.101   1.776   1.066 -0.1044 -0.5450  0.5648
  579TMC3    O2 8595   4.042   2.385   0.984 -0.2980  0.4831 -0.1179
  580TMC3    C1 8596   2.505   1.317  12.110  0.8598  0.0826  0.6760
  580TMC3    C2 8597   2.625   1.379  12.136 -0.4322  0.6256  0.6409
  580TMC3    C3 8598   2.742   1.307  12.141 -0.0075 -0.3476 -0.2199
  580TMC3    C4 8599   2.499   1.179  12.110  0.5927 -0.4123 -0.5601
  580TMC3    C5 8600   2.615   1.112  12.124  0.2073  0.3706 -0.1413
  580TMC3    C6 8601   2.738   1.168  12.132 -0.1175 -0.4051 -1.3697
  580TMC3     C 8602   2.437   1.384  12.001 -0.3661 -0.0288  0.0827
  580TMC3     O 8603   2.315   1.395  11.999  0.5035  0.8304  0.1467
  580TMC3     H 8604   2.620   1.487  12.144  0.2406  0.6272  1.0530
  580TMC3    H1 8605   2.408   1.123  12.090 -0.4092  1.0980 -0.2118
  580TMC3    H2 8606   2.828   1.110  12.146  1.0846  1.3788 -1.7187
  580TMC3    C7 8607   2.609   0.971  12.136 -0.0656  0.1907 -0.6913
  580TMC3    C8 8608   2.864   1.387  12.128  0.8723 -0.0628  0.0057
  580TMC3    O1 8609   2.710   0.908  12.096  0.2321  0.4088 -0.0218
  580TMC3    O2 8610   2.850   1.509  12.121  0.1014 -0.3173 -0.1624
  581MPD2     C 8611   0.732   0.601  14.609 -0.2196  0.1811  0.6315
  581MPD2    C1 8612   0.651   0.651  14.710 -0.1647 -0.3381 -0.0376
  581MPD2    C2 8613   0.550   0.745  14.693 -0.6412  0.4964  0.0446
  581MPD2    C3 8614   0.523   0.790  14.566  0.1302  0.5115 -0.9581
  581MPD2    C4 8615   0.598   0.739  14.460 -0.5658  0.2774  0.5801
  581MPD2    C5 8616   0.703   0.643  14.480  0.3093 -0.4174 -0.2126
  581MPD2     H 8617   0.487   0.783  14.772 -0.5440  3.0236 -1.1041
  581MPD2    H1 8618   0.583   0.777  14.359 -3.4643 -0.5309  0.7111
  581MPD2    H2 8619   0.820   0.540  14.621  0.5182  0.9617 -0.8059
  581MPD2    H3 8620   0.752   0.603  14.392  2.4039  1.3995  0.1279
  581MPD2     N 8621   0.407   0.870  14.548 -0.3363 -0.1013 -0.1657
  581MPD2    H5 8622   0.371   0.922  14.627  0.0558  0.3417 -0.2757
  581MPD2    N1 8623   0.685   0.608  14.838  0.2006 -0.1025 -0.4258
  581MPD2    H7 8624   0.771   0.554  14.847  0.5560  0.6011  0.4288
  582TMC3    C1 8625   0.648   0.544  15.055  0.8385 -0.0302  0.5291
  582TMC3    C2 8626   0.781   0.553  15.080 -0.2879 -0.3770  0.2088
  582TMC3    C3 8627   0.827   0.458  15.174 -0.0784  0.8585 -0.3562
  582TMC3    C4 8628   0.569   0.461  15.130  0.2011  0.0696  0.0328
  582TMC3    C5 8629   0.614   0.365  15.215  0.1344  0.0806 -0.1423
  582TMC3    C6 8630   0.746   0.360  15.240  0.1428 -0.2576 -0.7165
  582TMC3     C 8631   0.595   0.615  14.945 -0.8537 -0.2096 -0.4117
  582TMC3     O 8632   0.475   0.640  14.944 -0.0650  0.1607  0.6074
  582TMC3     H 8633   0.841   0.628  15.030  0.6566 -0.7016  0.8723
  582TMC3    H1 8634   0.464   0.454  15.103  0.2871 -1.4601  0.0976
  582TMC3    H2 8635   0.776   0.297  15.323 -0.5242  2.0853  1.3145
  582TMC3    C7 8636   0.528   0.346  15.321  0.0549  0.5032  0.0759
  582TMC3    C8 8637   0.929   0.512  15.256  0.4683  0.3571  0.7631
  582TMC3    O1 8638   0.549   0.248  15.387  0.2248  0.0352  0.0641
  582TMC3    O2 8639   0.909   0.628  15.286  1.1053 -0.0854 -0.0764
  583MPD2     C 8640   1.053   1.960  16.742 -0.2872 -0.4397  0.7322
  583MPD2    C1 8641   1.028   2.087  16.701  0.6232  0.5386 -0.1884
  583MPD2    C2 8642   0.977   2.173  16.786 -0.3741 -0.0545 -0.0815
  583MPD2    C3 8643   0.922   2.134  16.913  0.4959  0.2502 -0.8390
  583MPD2    C4 8644   0.951   2.006  16.948  0.4617 -0.4373  0.1109
  583MPD2    C5 8645   1.017   1.917  16.866  0.4029 -0.5372  0.1025
  583MPD2     H 8646   0.957   2.270  16.741 -1.6242 -0.3736 -0.2256
  583MPD2    H1 8647   0.919   1.957  17.039  1.6788 -0.6158  0.4432
  583MPD2    H2 8648   1.083   1.888  16.666 -0.1175 -1.0123  1.3464
  583MPD2    H3 8649   1.045   1.817  16.896  3.4064 -0.3734 -2.1110
  583MPD2     N 8650   0.856   2.226  16.994  1.0906 -0.0159  0.3538
  583MPD2    H5 8651   0.852   2.324  16.969 -2.4409  0.3033  2.1773
  583MPD2    N1 8652   1.059   2.142  16.574  0.3536  0.3396 -0.4609
  583MPD2    H7 8653   1.035   2.240  16.559  2.0357  0.8152 -0.0749
  584TMC3    C1 8654   0.764   2.320  17.189 -0.3897  0.4635 -0.2003
  584TMC3    C2 8655   0.709   2.416  17.112  0.5340  0.0141 -0.3128
  584TMC3    C3 8656   0.634   2.515  17.174  1.1841 -0.6160 -0.0797
  584TMC3    C4 8657   0.747   2.316  17.320 -0.5091 -0.6864  0.3485
  584TMC3    C5 8658   0.673   2.421  17.377  0.5393  0.4801 -0.4374
  584TMC3    C6 8659   0.622   2.527  17.314  0.2874 -0.0842 -0.4274
  584TMC3     C 8660   0.818   2.199  17.127  0.1445 -0.3025  0.0029
  584TMC3     O 8661   0.834   2.107  17.208 -0.6058 -0.0008  0.3973
  584TMC3     H 8662   0.730   2.427  17.006  0.3426  1.0393 -0.2439
  584TMC3    H1 8663   0.798   2.243  17.381 -0.0052 -0.4198  0.2435
  584TMC3    H2 8664   0.565   2.603  17.367 -0.0452 -1.1219  0.6868
  584TMC3    C7 8665   0.653   2.421  17.519 -0.3855 -0.0975  0.5153
  584TMC3    C8 8666   0.637   2.634  17.100 -0.5003 -0.0489  0.5272
  584TMC3    O1 8667   0.663   2.531  17.577  0.9302  0.4970 -0.2633
  584TMC3    O2 8668   0.606   2.631  16.984  0.0693 -0.1785  0.2684
  585MPD2     C 8669   0.301   1.445   0.737  0.7755 -0.5458  0.3514
  585MPD2    C1 8670   0.425   1.415   0.681 -0.2166  0.1718 -0.3929
  585MPD2    C2 8671   0.434   1.407   0.540 -0.3022 -0.9070 -0.1757
  585MPD2    C3 8672   0.324   1.421   0.454 -0.0728 -0.8240 -0.5865
  585MPD2    C4 8673   0.200   1.441   0.518 -0.3206  0.7079 -0.0077
  585MPD2    C5 8674   0.193   1.461   0.654  0.0592 -0.3112  0.1491
  585MPD2     H 8675   0.530   1.397   0.490 -0.1809 -0.6413  0.0053
  585MPD2    H1 8676   0.105   1.437   0.465  0.5383 -0.0227 -1.5079
  585MPD2    H2 8677   0.292   1.446   0.845  1.1080  0.3507  0.3673
  585MPD2    H3 8678   0.094   1.463   0.697 -0.7767 -1.3996 -1.7145
  585MPD2     N 8679   0.329   1.412   0.309 -0.7942  0.5133  0.5583
  585MPD2    H5 8680   0.237   1.403   0.267  1.1015 -0.6325 -3.3236
  585MPD2    N1 8681   0.538   1.402   0.766  0.1714 -0.2955 -0.0808
  585MPD2    H7 8682   0.512   1.416   0.863 -0.2010  0.9368 -0.3610
  586TMC3    C1 8683   0.406   1.417   0.083  0.0024 -0.8930 -0.4108
  586TMC3    C2 8684   0.494   1.386  17.680 -0.1386  0.0124  0.2742
  586TMC3    C3 8685   0.456   1.387  17.547 -0.2106  0.4462  0.4655
  586TMC3    C4 8686   0.284   1.479   0.054  0.4998 -0.0968  0.0843
  586TMC3    C5 8687   0.251   1.492  17.613  0.8772 -0.1731 -0.3599
  586TMC3    C6 8688   0.328   1.438  17.513  0.2466  0.1864 -0.5862
  586TMC3     C 8689   0.445   1.415   0.228 -0.7405 -0.0926 -0.2978
  586TMC3     O 8690   0.559   1.426   0.273 -0.0613 -0.0332 -0.0367
  586TMC3     H 8691   0.593   1.348   0.011 -0.0066  1.1249  1.5275
  586TMC3    H1 8692   0.217   1.529   0.123 -1.6581 -1.7304 -0.8237
  586TMC3    H2 8693   0.298   1.443  17.409  0.1028  0.2001 -0.5442
  586TMC3    C7 8694   0.112   1.515  17.585  1.1293  1.0020  0.0030
  586TMC3    C8 8695   0.525   1.304  17.450  0.6267  0.2122  1.5486
  586TMC3    O1 8696   0.071   1.625  17.619  0.0279 -0.6713 -0.1526
  586TMC3    O2 8697   0.649   1.312  17.440  0.1413  0.8914 -0.0016
  587TMC3    C1 8698   2.854   4.694  16.485 -0.6599 -0.9602 -0.3334
  587TMC3    C2 8699   2.849   0.110  16.456 -0.3028 -0.1423 -0.1130
  587TMC3    C3 8700   2.956   0.163  16.388 -0.4485 -0.6819 -0.3232
  587TMC3    C4 8701   2.973   4.621  16.452  0.3061  0.1596 -0.4262
  587TMC3    C5 8702   3.082   4.684  16.406  0.3120 -0.0961  0.6193
  587TMC3    C6 8703   3.072   0.096  16.371 -0.3413 -0.6419 -0.7321
  587TMC3     C 8704   2.757   4.624  16.565  0.2732 -0.1542 -0.4162
  587TMC3     O 8705   2.803   4.517  16.606 -0.3040  0.0128 -0.2779
  587TMC3     H 8706   2.762   0.172  16.476  1.4584  1.8954  1.2159
  587TMC3    H1 8707   2.982   4.517  16.478  1.2512  0.6398  1.1747
  587TMC3    H2 8708   3.159   0.149  16.334 -1.1387  0.9940 -0.2586
  587TMC3    C7 8709   3.208   4.619  16.429  0.9054  0.0777 -0.2527
  587TMC3    C8 8710   2.948   0.292  16.326 -0.1813  0.1249 -0.8396
  587TMC3    O1 8711   3.204   4.532  16.516  0.1968  0.1186  0.0058
  587TMC3    O2 8712   3.027   0.316  16.232  0.2721  0.2810  0.1519
  588TMC3    C1 8713   4.630   2.952   9.750 -0.1384  0.2281  0.0334
  588TMC3    C2 8714   4.617   2.812   9.750  0.4844  0.2200 -0.4402
  588TMC3    C3 8715   0.009   2.740   9.757  0.3586  0.4674  0.2052
  588TMC3    C4 8716   0.027   3.016   9.768  0.3157 -0.2601 -0.1308
  588TMC3    C5 8717   0.142   2.940   9.779 -0.2498 -0.0333 -0.2141
  588TMC3    C6 8718   0.134   2.801   9.774  0.5259 -0.3693 -0.0252
  588TMC3     C 8719   4.514   3.029   9.706 -0.4699  0.1100  0.5565
  588TMC3     O 8720   4.436   2.978   9.628 -0.4159 -0.1661 -0.8807
  588TMC3     H 8721   4.521   2.763   9.743 -0.5136  2.1599 -0.5487
  588TMC3    H1 8722   0.044   3.123   9.759  0.6405 -0.2468  0.6498
  588TMC3    H2 8723   0.230   2.753   9.777 -0.0025 -1.3614  0.8177
  588TMC3    C7 8724   0.268   3.017   9.786  0.5758 -0.5965 -0.1151
  588TMC3    C8 8725   4.717   2.596   9.761 -0.5310 -0.2043 -0.1594
  588TMC3    O1 8726   0.376   2.962   9.752  0.1884  0.4360 -0.1897
  588TMC3    O2 8727   4.604   2.547   9.738  0.2742 -0.0688  0.4557
  589TMC3    C1 8728   3.894   4.524   1.357 -0.3409  0.1089  0.1705
  589TMC3    C2 8729   4.015   4.535   1.425  0.0665  0.1576 -0.5690
  589TMC3    C3 8730   4.079   4.416   1.453  0.6843  0.0988  0.2464
  589TMC3    C4 8731   3.828   4.407   1.334  0.3173  0.4800 -0.6683
  589TMC3    C5 8732   3.902   4.291   1.359 -0.2527 -0.0328 -0.6599
  589TMC3    C6 8733   4.028   4.299   1.416 -0.3015  0.0663  0.7334
  589TMC3     C 8734   3.808   4.645   1.354 -0.0485  0.3426 -0.2461
  589TMC3     O 8735   3.703   4.645   1.286  0.2734  0.0744 -0.2777
  589TMC3     H 8736   4.070   4.627   1.439  1.4342 -0.7085 -0.1877
  589TMC3    H1 8737   3.726   4.409   1.298  1.0488 -1.5374 -2.8433
  589TMC3    H2 8738   4.092   4.211   1.422 -0.3548  0.1329  2.2947
  589TMC3    C7 8739   3.897   4.199   1.245 -0.2813 -0.3369 -0.0553
  589TMC3    C8 8740   4.220   4.435   1.479 -0.1996 -0.0127  0.1312
  589TMC3    O1 8741   4.001   4.149   1.214  0.0978 -0.3444  0.2850
  589TMC3    O2 8742   4.276   4.527   1.418 -0.2924 -0.1961 -0.0090
  590MPD2     C 8743   3.469   3.116  16.660 -0.3446 -0.2526  0.3865
  590MPD2    C1 8744   3.396   3.156  16.549 -0.4463 -0.1641 -0.0537
  590MPD2    C2 8745   3.462   3.218  16.446 -0.1220  0.4660 -0.0512
  590MPD2    C3 8746   3.605   3.214  16.446 -0.1242  0.3135 -0.2025
  590MPD2    C4 8747   3.673   3.169  16.549  0.0662 -0.1836  0.3331
  590MPD2    C5 8748   3.599   3.128  16.659 -0.5595 -0.2580  0.1403
  590MPD2     H 8749   3.419   3.241  16.349 -0.9642  2.1324  0.7187
  590MPD2    H1 8750   3.780   3.162  16.565  0.0433  0.5603  0.8237
  590MPD2    H2 8751   3.419   3.086  16.752 -1.6729  1.3653  0.1950
  590MPD2    H3 8752   3.651   3.103  16.750 -0.8397 -1.3278  0.0050
  590MPD2     N 8753   3.667   3.270  16.335 -0.2789 -0.5563 -0.1866
  590MPD2    H5 8754   3.609   3.291  16.254  1.3130 -2.1088 -1.7285
  590MPD2    N1 8755   3.259   3.144  16.547  0.5209  0.3770  1.0593
  590MPD2    H7 8756   3.217   3.131  16.639 -0.9697 -1.5147  0.1301
  591TMC3    C1 8757   3.825   3.357  16.198 -0.1871  1.0979  0.1777
  591TMC3    C2 8758   3.922   3.316  16.107 -0.1684 -0.0613 -0.2608
  591TMC3    C3 8759   3.913   3.374  15.981 -0.3344  0.1007  0.5245
  591TMC3    C4 8760   3.729   3.452  16.169  0.2929 -0.8516  0.0242
  591TMC3    C5 8761   3.736   3.509  16.046  0.2059 -0.2075  0.1902
  591TMC3    C6 8762   3.822   3.466  15.947 -0.1078  0.0797 -0.2076
  591TMC3     C 8763   3.799   3.262  16.300 -1.1549  0.1721 -0.1979
  591TMC3     O 8764   3.894   3.225  16.373 -0.5613  0.1786 -0.1651
  591TMC3     H 8765   4.001   3.244  16.124 -0.9846 -1.0044 -0.4444
  591TMC3    H1 8766   3.673   3.505  16.245  2.1673  2.0732 -0.6391
  591TMC3    H2 8767   3.794   3.495  15.846 -1.9972 -0.9588  0.0112
  591TMC3    C7 8768   3.652   3.628  16.035  0.3901  0.6809 -0.8162
  591TMC3    C8 8769   4.007   3.321  15.882  0.0850  0.3568  0.2230
  591TMC3    O1 8770   3.555   3.630  16.104 -0.8124  0.5060 -0.0876
  591TMC3    O2 8771   4.083   3.233  15.904 -0.3313 -0.0966  0.1819
  592MPD2     C 8772   4.056   0.935  11.169  0.2814 -0.2198  0.4465
  592MPD2    C1 8773   4.081   0.921  11.303  0.4984  0.3663  0.1706
  592MPD2    C2 8774   4.016   0.820  11.366 -0.9068  0.2896  0.3742
  592MPD2    C3 8775   3.938   0.726  11.301 -0.3455  0.0987  0.4388
  592MPD2    C4 8776   3.932   0.735  11.160 -0.1334 -0.2519 -0.2500
  592MPD2    C5 8777   3.984   0.841  11.094 -0.4324 -0.2301 -0.0613
  592MPD2     H 8778   4.015   0.820  11.475 -1.0654  3.7535  0.3893
  592MPD2    H1 8779   3.862   0.672  11.106 -0.7514  0.3814 -0.1941
  592MPD2    H2 8780   4.092   1.018  11.110  2.0744 -2.0441 -1.0139
  592MPD2    H3 8781   3.947   0.851  10.992 -1.1903 -1.2217  0.1227
  592MPD2     N 8782   3.871   0.622  11.372  0.7962  0.2616  0.1981
  592MPD2    H5 8783   3.885   0.605  11.471 -1.7757  0.6876  0.6391
  592MPD2    N1 8784   4.154   1.022  11.368 -0.6679 -0.0120  1.0832
  592MPD2    H7 8785   4.192   1.092  11.306  1.1731  0.6529  2.9676
  593TMC3    C1 8786   4.241   1.162  11.541  0.3401 -0.2366 -0.5532
  593TMC3    C2 8787   4.232   1.179  11.674 -0.2927 -0.8247  0.3814
  593TMC3    C3 8788   4.332   1.255  11.721  0.4502  0.5239 -0.5154
  593TMC3    C4 8789   4.329   1.218  11.450 -0.4390  0.1020 -0.0260
  593TMC3    C5 8790   4.418   1.304  11.508  0.2876 -0.1670  0.7311
  593TMC3    C6 8791   4.416   1.325  11.645  0.0731  0.0505 -0.0554
  593TMC3     C 8792   4.180   1.037  11.503 -0.7137  0.4088 -0.4955
  593TMC3     O 8793   4.149   0.957  11.594  0.2415  0.0023  0.1011
  593TMC3     H 8794   4.156   1.136  11.737 -2.4354  1.5030 -0.5781
  593TMC3    H1 8795   4.329   1.183  11.348 -2.1818  0.4880 -0.1520
  593TMC3    H2 8796   4.477   1.408  11.681 -0.9850  0.5396  0.5916
  593TMC3    C7 8797   4.513   1.385  11.422  0.3148  0.5952 -0.6903
  593TMC3    C8 8798   4.314   1.295  11.853  0.2685  0.1910 -0.0839
  593TMC3    O1 8799   4.599   1.448  11.483 -0.3065  0.0605  0.4969
  593TMC3    O2 8800   4.222   1.249  11.920 -0.4107 -0.2310 -0.4706
  594MPD2     C 8801   2.364   4.069  13.997  0.5801  0.0875  0.2481
  594MPD2    C1 8802   2.326   4.112  14.116  0.0209  0.3748  0.5831
  594MPD2    C2 8803   2.385   4.221  14.167 -0.1301 -0.4207 -0.1263
  594MPD2    C3 8804   2.482   4.290  14.095  0.4952 -0.4203  0.2736
  594MPD2    C4 8805   2.513   4.246  13.971  0.7408  0.1231  0.0348
  594MPD2    C5 8806   2.452   4.137  13.920  0.0381  0.1046 -0.0687
  594MPD2     H 8807   2.357   4.254  14.267  0.5733  0.3131 -0.1666
  594MPD2    H1 8808   2.585   4.294  13.905  0.5764  1.3903  0.7679
  594MPD2    H2 8809   2.317   3.987  13.944  0.3352 -0.6425  1.6139
  594MPD2    H3 8810   2.473   4.100  13.820 -1.8305  2.7716 -1.4572
  594MPD2     N 8811   2.542   4.403  14.157  0.0419  0.3806 -0.3678
  594MPD2    H5 8812   2.515   4.436  14.249 -1.1941  0.5643 -0.7936
  594MPD2    N1 8813   2.227   4.034  14.180 -0.5067 -0.7161  0.5042
  594MPD2    H7 8814   2.196   3.951  14.131 -1.5195 -0.2687  0.3943
  595TMC3    C1 8815   2.914   4.615  14.300 -0.0201 -0.3151  0.5365
  595TMC3    C2 8816   2.853   4.575  14.190 -0.5076 -0.7200 -0.6279
  595TMC3    C3 8817   2.714   4.558  14.199  0.0488  0.3947 -0.2076
  595TMC3    C4 8818   2.860   4.626  14.424 -0.1364  0.0434 -0.2991
  595TMC3    C5 8819   2.725   4.607  14.432 -0.0866 -0.4932  0.8595
  595TMC3    C6 8820   2.646   4.577  14.318  0.0509  0.0826  0.0035
  595TMC3     C 8821   3.061   4.635  14.287  0.2522 -1.3538  0.1630
  595TMC3     O 8822   3.131   4.649  14.391  0.2845  0.3520 -0.1591
  595TMC3     H 8823   2.905   4.563  14.096  1.4572 -0.8134  0.4909
  595TMC3    H1 8824   2.923   4.653  14.508  3.1268 -0.0078 -2.7240
  595TMC3    H2 8825   2.540   4.570  14.338  0.3959  0.1863  1.8195
  595TMC3    C7 8826   2.657   4.614  14.562 -0.1979 -0.2033 -0.9650
  595TMC3    C8 8827   2.650   4.467  14.107 -0.0889 -0.1534  0.1739
  595TMC3    O1 8828   2.536   4.616  14.568  0.3098  0.3683  0.1958
  595TMC3    O2 8829   2.713   4.445  14.005 -0.0795 -0.2475  0.2870
  596MPD2     C 8830   1.819   2.006  16.742 -0.5457 -0.5133 -0.2187
  596MPD2    C1 8831   1.863   2.127  16.695  0.4981  0.1221  0.8856
  596MPD2    C2 8832   1.912   2.140  16.574 -0.3779 -0.1560 -0.2846
  596MPD2    C3 8833   1.918   2.037  16.488  1.0312  0.5551  0.0808
  596MPD2    C4 8834   1.874   1.910  16.524  0.4562 -0.0993 -0.4560
  596MPD2    C5 8835   1.826   1.897  16.657  0.2756 -0.3824  0.2078
  596MPD2     H 8836   1.949   2.240  16.550  1.4504  0.0934  3.5920
  596MPD2    H1 8837   1.884   1.827  16.456  0.0526  0.2954 -0.9937
  596MPD2    H2 8838   1.772   1.995  16.839  1.1349  0.1130  0.6877
  596MPD2    H3 8839   1.804   1.799  16.698 -0.0552 -0.1899  0.4887
  596MPD2     N 8840   1.954   2.052  16.350  1.1478  0.3680 -0.2290
  596MPD2    H5 8841   1.946   1.972  16.288  0.7196 -0.1161  0.4369
  596MPD2    N1 8842   1.848   2.244  16.768  0.3613  0.2096 -0.4411
  596MPD2    H7 8843   1.887   2.321  16.715  2.0422  1.3658  2.4898
  597TMC3    C1 8844   1.760   2.390  16.924 -0.5069  0.1516 -0.6808
  597TMC3    C2 8845   1.816   2.492  16.857 -0.2920 -0.3500  0.0314
  597TMC3    C3 8846   1.772   2.620  16.876  0.5266 -0.2061 -0.3045
  597TMC3    C4 8847   1.658   2.408  17.017 -0.1071  0.4205 -0.5336
  597TMC3    C5 8848   1.613   2.535  17.028 -0.4772  0.5619  0.3665
  597TMC3    C6 8849   1.662   2.642  16.952 -0.2417 -0.0746  0.0019
  597TMC3     C 8850   1.792   2.255  16.891 -0.0563 -0.6881 -0.4227
  597TMC3     O 8851   1.731   2.174  16.960 -0.0575  0.1288 -0.0318
  597TMC3     H 8852   1.901   2.474  16.793 -0.2695  1.0466 -0.3198
  597TMC3    H1 8853   1.613   2.327  17.073  1.7752  1.2357  2.1885
  597TMC3    H2 8854   1.635   2.736  16.997 -0.0474  0.0665 -0.1743
  597TMC3    C7 8855   1.513   2.558  17.128 -0.3107 -0.1146 -0.2899
  597TMC3    C8 8856   1.832   2.737  16.815 -0.1471  0.8204 -0.7335
  597TMC3    O1 8857   1.514   2.473  17.216  0.2109 -0.0217 -0.6627
  597TMC3    O2 8858   1.804   2.852  16.853 -0.2654  0.7159 -0.2346
  598TMC3    C1 8859   0.086   3.822  15.265  0.4620 -0.0811 -0.8524
  598TMC3    C2 8860   0.006   3.710  15.275  0.5863 -0.4524  0.2386
  598TMC3    C3 8861   4.636   3.695  15.173  0.1038 -0.2832  0.4723
  598TMC3    C4 8862   0.074   3.918  15.171  0.1172  0.2947  0.3269
  598TMC3    C5 8863   4.714   3.888  15.064 -0.3695 -0.1280  0.0556
  598TMC3    C6 8864   4.630   3.786  15.066 -0.0781  0.1445  0.1482
  598TMC3     C 8865   0.197   3.847  15.354  0.2409 -0.6555 -0.1676
  598TMC3     O 8866   0.220   3.960  15.385  0.0634 -0.3266  0.1095
  598TMC3     H 8867   0.009   3.640  15.358 -2.1542  2.0403  2.4475
  598TMC3    H1 8868   0.146   3.998  15.166 -2.2557  2.4483  0.7531
  598TMC3    H2 8869   4.548   3.787  14.994 -0.2048  0.6138  0.3015
  598TMC3    C7 8870   0.025   3.941  14.935  0.5628 -0.2688  0.0121
  598TMC3    C8 8871   4.555   3.577  15.155  0.0396  0.0788  0.5308
  598TMC3    O1 8872   4.705   3.874  14.840  0.1427 -0.0502  1.0827
  598TMC3    O2 8873   4.487   3.540  15.247  0.4558  0.6764 -0.4350
  599MPD2     C 8874   0.469   1.802  15.858  0.0075  0.1105  1.1269
  599MPD2    C1 8875   0.420   1.682  15.908  0.2235  0.8983 -0.5623
  599MPD2    C2 8876   0.278   1.665  15.889 -0.6141  0.3955  0.5019
  599MPD2    C3 8877   0.202   1.768  15.833 -0.3168 -0.2697  0.1758
  599MPD2    C4 8878   0.266   1.877  15.791  0.7858 -0.6499 -1.2799
  599MPD2    C5 8879   0.394   1.896  15.799  0.3884 -0.1565  0.2284
  599MPD2     H 8880   0.226   1.580  15.932 -2.0564  0.7037 -0.5880
  599MPD2    H1 8881   0.198   1.947  15.744  2.6810  2.3025  0.3893
  599MPD2    H2 8882   0.577   1.812  15.854  0.2985 -3.0543  1.3313
  599MPD2    H3 8883   0.441   1.989  15.772 -0.2567 -0.0784 -0.6362
  599MPD2     N 8884   0.066   1.774  15.828 -0.3175 -0.2612 -0.4365
  599MPD2    H5 8885   0.024   1.863  15.804  0.7925  0.8066  1.5055
  599MPD2    N1 8886   0.497   1.588  15.985 -0.1432  0.2905 -0.0932
  599MPD2    H7 8887   0.591   1.609  16.015 -0.6121 -0.8206  2.1619
  600TMC3    C1 8888   4.569   1.717  15.883 -0.5953 -0.9220  0.0496
  600TMC3    C2 8889   4.485   1.616  15.878 -0.2625  0.7432  0.0702
  600TMC3    C3 8890   4.380   1.610  15.963  0.2361  0.2488 -0.1279
  600TMC3    C4 8891   4.552   1.816  15.979  0.6024 -0.2885 -0.4208
  600TMC3    C5 8892   4.443   1.814  16.059  0.2432  0.0894 -0.1546
  600TMC3    C6 8893   4.350   1.714  16.049  0.0972  0.2436 -0.0895
  600TMC3     C 8894   4.703   1.677  15.875 -0.0820  0.1863  0.0835
  600TMC3     O 8895   0.007   1.564  15.913  0.2481 -0.5950 -0.2886
  600TMC3     H 8896   4.513   1.521  15.833 -0.0139  0.5742  0.5870
  600TMC3    H1 8897   4.629   1.890  15.996  1.0377 -0.6401 -0.8318
  600TMC3    H2 8898   4.263   1.708  16.113 -0.2612  1.0124 -0.5027
  600TMC3    C7 8899   4.420   1.912  16.172  0.0833 -0.2597 -0.1655
  600TMC3    C8 8900   4.295   1.484  15.969 -0.0365 -0.0630  0.3396
  600TMC3    O1 8901   4.316   1.911  16.233 -0.1458  0.0605 -0.2648
  600TMC3    O2 8902   4.217   1.478  16.065  0.5491  0.2894 -0.4322
  601MPD2     C 8903   1.594   3.776   0.419  0.3204  0.5901 -0.0992
  601MPD2    C1 8904   1.509   3.745   0.317  0.5940 -0.0079  0.0310
  601MPD2    C2 8905   1.443   3.625   0.318  0.5587  0.4981  0.6207
  601MPD2    C3 8906   1.469   3.529   0.414  0.5438 -0.1457 -0.3887
  601MPD2    C4 8907   1.552   3.566   0.516 -0.0195 -0.0158  0.0001
  601MPD2    C5 8908   1.611   3.697   0.528  0.3550 -0.0100  0.2038
  601MPD2     H 8909   1.360   3.607   0.250  0.6310  1.0773  0.3804
  601MPD2    H1 8910   1.579   3.494   0.592  0.6470  1.7486  1.4316
  601MPD2    H2 8911   1.654   3.865   0.434 -1.2694  1.7186 -0.3779
  601MPD2    H3 8912   1.677   3.733   0.606 -2.2069  1.3361  1.7281
  601MPD2     N 8913   1.413   3.397   0.406 -0.4724 -0.1092  0.1703
  601MPD2    H5 8914   1.445   3.349   0.490 -1.0711  1.9023  1.5406
  601MPD2    N1 8915   1.482   3.838   0.221  0.1181  0.4542 -0.0472
  601MPD2    H7 8916   1.410   3.822   0.152  1.9063  1.3279 -2.0930
  602TMC3    C1 8917   1.511   4.017   0.074 -0.4414 -0.3678  0.2315
  602TMC3    C2 8918   1.602   4.101   0.017 -0.1215  0.9587 -0.0091
  602TMC3    C3 8919   1.555   4.191  17.617  0.3241 -0.4651  0.2316
  602TMC3    C4 8920   1.379   4.028   0.057 -0.0219 -0.4913  0.2129
  602TMC3    C5 8921   1.340   4.119  17.658 -0.6153  0.6384 -0.2123
  602TMC3    C6 8922   1.422   4.207  17.593 -0.4486  0.5647  0.3965
  602TMC3     C 8923   1.556   3.953   0.198  0.0960 -0.3112  0.6961
  602TMC3     O 8924   1.659   3.998   0.247  0.2727  0.2547  0.3975
  602TMC3     H 8925   1.708   4.102   0.038 -0.0900  1.5040 -0.1803
  602TMC3    H1 8926   1.300   3.976   0.111 -1.9500  1.8695 -0.3637
  602TMC3    H2 8927   1.390   4.276  17.515 -2.4396 -1.8664 -0.9070
  602TMC3    C7 8928   1.202   4.155  17.651  0.1099  0.2233  0.7812
  602TMC3    C8 8929   1.645   4.295  17.583  0.6186 -0.4032 -0.2172
  602TMC3    O1 8930   1.120   4.071  17.625  0.1499  0.4088  0.1109
  602TMC3    O2 8931   1.763   4.268  17.563 -0.4058  0.2029 -0.5184
  603TMC3    C1 8932   4.578   0.745  11.067  0.1699 -0.2152  0.3472
  603TMC3    C2 8933   4.601   0.682  11.185  0.3520 -1.0656 -0.2029
  603TMC3    C3 8934   0.002   0.696  11.244 -0.0342  1.0914 -0.3694
  603TMC3    C4 8935   4.666   0.841  11.019  0.3798 -0.8929 -0.0038
  603TMC3    C5 8936   0.072   0.843  11.082  0.3158  0.2112  0.4147
  603TMC3    C6 8937   0.106   0.771  11.195  0.1989  0.2128  0.2026
  603TMC3     C 8938   4.459   0.730  10.983 -0.1710 -0.0229 -0.2083
  603TMC3     O 8939   4.453   0.802  10.882  0.0949  0.2880  0.3411
  603TMC3     H 8940   4.524   0.619  11.229 -0.2134 -0.5463 -0.4389
  603TMC3    H1 8941   4.653   0.892  10.924  0.9550  0.5806  0.7089
  603TMC3    H2 8942   0.203   0.779  11.243 -0.6293 -0.8482  2.0342
  603TMC3    C7 8943   0.191   0.901  11.012  0.1438  1.2521  0.0336
  603TMC3    C8 8944   0.031   0.608  11.360 -0.3194 -0.3897  0.4386
  603TMC3    O1 8945   0.299   0.892  11.066 -0.3844 -0.1072  0.2971
  603TMC3    O2 8946   4.673   0.513  11.378  1.2173  0.1143 -0.0461
  604MPD2     C 8947   0.731   3.102  16.448 -0.0627  0.1742  0.5289
  604MPD2    C1 8948   0.673   3.198  16.373 -0.0267 -0.2681 -0.0014
  604MPD2    C2 8949   0.706   3.198  16.238  0.3768 -0.1897  0.1900
  604MPD2    C3 8950   0.820   3.119  16.196 -0.5264  0.5081  0.3709
  604MPD2    C4 8951   0.882   3.035  16.281  0.2595 -0.1639  0.1690
  604MPD2    C5 8952   0.833   3.021  16.409  0.4559 -0.7047 -0.1059
  604MPD2     H 8953   0.658   3.265  16.168  0.9536  1.5976  1.5061
  604MPD2    H1 8954   0.971   2.977  16.260 -0.1175 -0.2107 -1.2990
  604MPD2    H2 8955   0.710   3.107  16.555 -0.7388  1.3491  0.3396
  604MPD2    H3 8956   0.874   2.958  16.487  2.2708  1.5338  0.7372
  604MPD2     N 8957   0.868   3.145  16.065 -0.7548 -0.1768 -0.0859
  604MPD2    H5 8958   0.798   3.187  16.005 -1.4618 -0.7912  0.3127
  604MPD2    N1 8959   0.569   3.277  16.426  0.3017 -0.0238 -0.0511
  604MPD2    H7 8960   0.537   3.254  16.520 -0.5516  0.6856 -0.1761
  605TMC3    C1 8961   0.408   3.450  16.439  0.2548  0.1373 -0.5270
  605TMC3    C2 8962   0.450   3.482  16.570 -0.2235  0.7011  0.6124
  605TMC3    C3 8963   0.416   3.610  16.610 -0.1725  0.0114  0.2756
  605TMC3    C4 8964   0.327   3.529  16.367 -0.2997  0.0469 -0.2005
  605TMC3    C5 8965   0.269   3.640  16.440 -0.3750  0.4518 -0.0803
  605TMC3    C6 8966   0.319   3.686  16.556 -0.0644 -0.3728 -0.1604
  605TMC3     C 8967   0.487   3.358  16.357 -0.0411  0.2759 -0.1516
  605TMC3     O 8968   0.490   3.382  16.235  0.4680 -0.3638  0.4320
  605TMC3     H 8969   0.533   3.434  16.620 -1.7668 -1.0627  1.5022
  605TMC3    H1 8970   0.295   3.512  16.265 -0.5509 -1.5748  0.1490
  605TMC3    H2 8971   0.304   3.784  16.600 -0.6155  0.3518 -1.9264
  605TMC3    C7 8972   0.163   3.716  16.385  1.1781  0.9513 -0.7147
  605TMC3    C8 8973   0.483   3.661  16.729  0.2360  0.1302  0.2681
  605TMC3    O1 8974   0.111   3.675  16.283  0.0040 -0.2169  0.0261
  605TMC3    O2 8975   0.505   3.781  16.745  0.0432 -0.0534 -0.1377
  606TMC3    C1 8976   2.190   2.134  16.870  0.1615  0.1718  0.5198
  606TMC3    C2 8977   2.193   2.156  17.006  0.8402  0.2919 -0.5533
  606TMC3    C3 8978   2.155   2.059  17.091  0.6072 -0.4457 -0.1920
  606TMC3    C4 8979   2.144   2.015  16.826 -0.0046 -0.4663  0.3513
  606TMC3    C5 8980   2.097   1.928  16.920  0.2077 -0.0719  0.1553
  606TMC3    C6 8981   2.098   1.946  17.058  0.3645  0.0314  0.8332
  606TMC3     C 8982   2.204   2.246  16.786 -0.5828 -0.1638 -0.0349
  606TMC3     O 8983   2.154   2.348  16.831  0.4509  0.1106  0.1371
  606TMC3     H 8984   2.219   2.253  17.046  1.0975 -0.3724  0.9140
  606TMC3    H1 8985   2.125   1.988  16.723 -1.1664  0.9783  0.1997
  606TMC3    H2 8986   2.079   1.864  17.126  1.1663  0.2421  1.3112
  606TMC3    C7 8987   2.076   1.795  16.870 -0.5858 -0.4165  0.2244
  606TMC3    C8 8988   2.161   2.103  17.228 -0.2904 -0.0272  0.3417
  606TMC3    O1 8989   2.139   1.770  16.767 -0.2974  0.2305 -0.0438
  606TMC3    O2 8990   2.243   2.189  17.248  0.3305  0.0095 -0.0034
  607MPD2     C 8991   4.084   0.358  11.506 -0.0848 -0.2207 -0.1876
  607MPD2    C1 8992   4.079   0.458  11.603 -0.0604 -0.4281 -0.7506
  607MPD2    C2 8993   4.006   0.438  11.716  0.0150  0.2666  0.1640
  607MPD2    C3 8994   3.930   0.327  11.731  0.8271  0.0640  0.3006
  607MPD2    C4 8995   3.928   0.233  11.633 -0.5038 -1.2574 -0.1251
  607MPD2    C5 8996   4.007   0.242  11.522  0.0103  0.3253 -0.6632
  607MPD2     H 8997   4.014   0.510  11.797 -0.6183 -2.0409  2.2630
  607MPD2    H1 8998   3.851   0.157  11.643 -2.4822  0.3904 -2.6689
  607MPD2    H2 8999   4.152   0.358  11.422 -0.5161 -1.5783 -0.5517
  607MPD2    H3 9000   4.004   0.172  11.439  1.9612 -0.3008 -0.1935
  607MPD2     N 9001   3.883   0.297  11.862 -0.0826  0.1562 -0.5524
  607MPD2    H5 9002   3.884   0.373  11.929 -2.8460  1.4660 -1.9981
  607MPD2    N1 9003   4.160   0.578  11.595  0.1193 -0.3966 -0.4626
  607MPD2    H7 9004   4.141   0.643  11.671 -2.3120 -1.9151  0.2544
  608TMC3    C1 9005   4.364   0.696  11.570  0.3684 -0.4103 -0.3741
  608TMC3    C2 9006   4.355   0.698  11.706  0.3731 -0.5779 -0.3971
  608TMC3    C3 9007   4.434   0.796  11.760  0.8767  0.7104  0.2200
  608TMC3    C4 9008   4.430   0.776  11.485 -0.0833  0.7753  0.3714
  608TMC3    C5 9009   4.489   0.880  11.546  0.2337  0.2239  0.7251
  608TMC3    C6 9010   4.500   0.888  11.678  0.6991 -0.3100  0.5743
  608TMC3     C 9011   4.257   0.614  11.504  0.8631 -0.7531  1.9827
  608TMC3     O 9012   4.283   0.568  11.394 -0.1833  0.1553  0.6104
  608TMC3     H 9013   4.325   0.610  11.762 -2.1627 -0.1143 -1.0704
  608TMC3    H1 9014   4.405   0.762  11.381  0.8944 -0.2258  0.2621
  608TMC3    H2 9015   4.550   0.976  11.716  1.4777  0.3347 -1.9209
  608TMC3    C7 9016   4.582   0.950  11.464 -0.5745  0.1561  0.1059
  608TMC3    C8 9017   4.393   0.848  11.884  0.0891  0.3967  0.0885
  608TMC3    O1 9018   4.557   0.969  11.346  0.2769 -0.3645 -0.5200
  608TMC3    O2 9019   4.434   0.954  11.929  0.5837  0.5187  0.3007
  609TMC3    C1 9020   3.839   3.834   9.071  0.1241 -0.1156 -0.2096
  609TMC3    C2 9021   3.778   3.771   8.973  0.5379 -0.2855 -0.1440
  609TMC3    C3 9022   3.800   3.633   8.948 -0.2049 -0.1005 -0.1417
  609TMC3    C4 9023   3.921   3.760   9.157  0.1829 -0.6420  0.0747
  609TMC3    C5 9024   3.921   3.630   9.152 -0.3346  0.0979 -0.2473
  609TMC3    C6 9025   3.864   3.559   9.048 -0.1980  0.1575 -0.8401
  609TMC3     C 9026   3.774   3.950   9.124  0.1279 -0.6426  0.2369
  609TMC3     O 9027   3.702   4.013   9.047 -0.5611  0.0846 -0.1748
  609TMC3     H 9028   3.731   3.836   8.899  0.1469 -2.3127 -1.6944
  609TMC3    H1 9029   3.975   3.799   9.242  3.0314  1.4869 -2.6912
  609TMC3    H2 9030   3.871   3.451   9.038 -1.2338  0.0652 -0.6170
  609TMC3    C7 9031   3.924   3.564   9.275  0.6020 -0.4422  0.7187
  609TMC3    C8 9032   3.724   3.554   8.856 -0.3835 -0.3942  0.0890
  609TMC3    O1 9033   3.902   3.641   9.370 -0.1294  0.2002 -0.3764
  609TMC3    O2 9034   3.734   3.432   8.870  0.0649 -0.0163 -0.0177
  610TMC3    C1 9035   4.404   0.527  12.500 -0.0915 -0.4281  0.1769
  610TMC3    C2 9036   4.439   0.518  12.369  0.1350 -0.7354  0.0675
  610TMC3    C3 9037   4.439   0.398  12.310  0.4174  0.2018  0.4539
  610TMC3    C4 9038   4.381   0.419  12.578  0.1229 -0.2009  0.0407
  610TMC3    C5 9039   4.390   0.298  12.518 -0.7390  0.3808 -0.2526
  610TMC3    C6 9040   4.416   0.291  12.379 -0.4967  0.3808 -0.2053
  610TMC3     C 9041   4.430   0.650  12.569 -0.3901  0.1648  0.1471
  610TMC3     O 9042   4.376   0.661  12.677 -0.7981 -0.0219 -0.2926
  610TMC3     H 9043   4.435   0.601  12.300 -1.8302  0.1037  1.2045
  610TMC3    H1 9044   4.379   0.431  12.686  1.4507  0.5355 -0.0101
  610TMC3    H2 9045   4.404   0.192  12.336  3.4041 -0.4014  0.4772
  610TMC3    C7 9046   4.361   0.182  12.595  0.4617 -0.2359  1.0943
  610TMC3    C8 9047   4.457   0.387  12.166  0.9644 -0.6088  0.4331
  610TMC3    O1 9048   4.307   0.202  12.702  0.1275 -0.1081  0.3971
  610TMC3    O2 9049   4.512   0.479  12.100 -0.3106 -0.0225  0.1745
  611MPD2     C 9050   4.200   0.947   9.800  0.6268 -0.1853  0.4721
  611MPD2    C1 9051   4.243   0.903   9.919 -0.0470 -0.3836  0.4888
  611MPD2    C2 9052   4.362   0.950   9.972  0.1228  0.1046 -0.9960
  611MPD2    C3 9053   4.437   1.047   9.914  0.0380 -0.1158 -0.5601
  611MPD2    C4 9054   4.398   1.082   9.788  0.2540 -0.0974  0.1503
  611MPD2    C5 9055   4.281   1.029   9.732  0.1802 -0.3133 -0.6114
  611MPD2     H 9056   4.399   0.917  10.069  1.2270 -1.1159 -1.8335
  611MPD2    H1 9057   4.445   1.166   9.738  2.2320  0.2455  2.5665
  611MPD2    H2 9058   4.110   0.917   9.748  0.6432 -1.8214  1.3692
  611MPD2    H3 9059   4.255   1.067   9.634  1.6827 -0.3414 -1.0227
  611MPD2     N 9060   4.546   1.110   9.969 -0.0896  0.1992  0.1338
  611MPD2    H5 9061   4.581   1.179   9.902  1.6323  0.9560  1.8265
  611MPD2    N1 9062   4.165   0.809  10.004 -0.3506 -0.0684  0.3987
  611MPD2    H7 9063   4.214   0.775  10.087  0.4778 -1.2153 -0.5661
  612TMC3    C1 9064   4.692   1.197  10.122 -0.1926  1.0202 -0.3063
  612TMC3    C2 9065   0.055   1.170  10.222  0.1723 -0.0423  0.3261
  612TMC3    C3 9066   0.140   1.276  10.256 -0.0278  0.2335 -0.5114
  612TMC3    C4 9067   4.684   1.317  10.063 -0.7831  0.1642 -0.3942
  612TMC3    C5 9068   0.057   1.411  10.085  0.5464  0.4844 -0.2428
  612TMC3    C6 9069   0.156   1.382  10.172  0.1601  0.0612  0.3170
  612TMC3     C 9070   4.595   1.092  10.095 -0.5898 -0.1281 -0.9730
  612TMC3     O 9071   4.569   1.009  10.183 -0.5056 -0.3464  0.1636
  612TMC3     H 9072   0.062   1.069  10.263  1.1215  0.0287  0.3336
  612TMC3    H1 9073   4.615   1.330   9.981 -0.0096 -2.9438 -1.5385
  612TMC3    H2 9074   0.216   1.463  10.211  0.5927  1.0662 -2.4380
  612TMC3    C7 9075   0.064   1.518   9.985  0.2931 -0.5809  0.5028
  612TMC3    C8 9076   0.236   1.264  10.368  0.3276 -0.3324  0.8330
  612TMC3    O1 9077   4.694   1.523   9.904 -0.2486  0.0057 -0.2321
  612TMC3    O2 9078   0.334   1.334  10.362  0.1976 -0.2871 -0.3476
  613MPD2     C 9079   3.392   1.891  15.901 -0.1066 -0.1043 -0.2133
  613MPD2    C1 9080   3.362   1.840  15.773 -0.5608 -0.3807 -0.0314
  613MPD2    C2 9081   3.231   1.818  15.731 -0.2244 -1.0027  0.0925
  613MPD2    C3 9082   3.125   1.865  15.805 -0.0079  0.3698  0.8229
  613MPD2    C4 9083   3.157   1.903  15.937  0.5395 -0.0230  0.1665
  613MPD2    C5 9084   3.282   1.905  15.989 -0.6934  0.5247  0.8996
  613MPD2     H 9085   3.222   1.774  15.632  0.8385 -0.4376 -0.2562
  613MPD2    H1 9086   3.070   1.922  15.999  1.1833 -2.5442  1.8547
  613MPD2    H2 9087   3.491   1.908  15.940 -1.6538  1.3560  3.0552
  613MPD2    H3 9088   3.295   1.928  16.094  1.4750  0.3793  0.6710
  613MPD2     N 9089   2.993   1.866  15.770  0.2368  0.0316 -0.3198
  613MPD2    H5 9090   2.977   1.836  15.674 -0.8787  0.2454 -0.2033
  613MPD2    N1 9091   3.463   1.818  15.684  0.0190 -0.2078  0.3263
  613MPD2    H7 9092   3.447   1.775  15.593  3.9653 -1.3355  0.1678
  614TMC3    C1 9093   3.643   1.860  15.563 -0.4382  0.1018  0.1072
  614TMC3    C2 9094   3.591   1.761  15.490  0.3285 -0.5584  0.1063
  614TMC3    C3 9095   3.557   1.779  15.364  0.5521  0.9654 -0.8356
  614TMC3    C4 9096   3.672   1.982  15.509  0.0280  0.6347 -0.2236
  614TMC3    C5 9097   3.620   2.012  15.381 -0.6607 -0.1127  0.6703
  614TMC3    C6 9098   3.578   1.905  15.307  0.1405  0.2023 -0.2222
  614TMC3     C 9099   3.591   1.871  15.702  0.4425  0.2590 -0.0077
  614TMC3     O 9100   3.629   1.969  15.764 -0.0369  0.3440 -0.7171
  614TMC3     H 9101   3.575   1.665  15.537 -0.7763  0.2519  1.3865
  614TMC3    H1 9102   3.699   2.065  15.572 -1.7060  1.0876 -0.0816
  614TMC3    H2 9103   3.539   1.929  15.209  0.2762 -0.6208 -0.4768
  614TMC3    C7 9104   3.556   2.144  15.354 -0.2501  0.0406 -0.2204
  614TMC3    C8 9105   3.430   1.726  15.328 -0.1072  0.9543  0.0784
  614TMC3    O1 9106   3.625   2.245  15.375  0.3152 -0.0222  0.2021
  614TMC3    O2 9107   3.360   1.710  15.427 -0.5096  0.0484  0.2356
  615MPD2     C 9108   2.246   3.883  16.360 -0.2429  0.1864 -0.2354
  615MPD2    C1 9109   2.142   3.970  16.318  0.3222  0.9206  0.4099
  615MPD2    C2 9110   2.034   3.922  16.239 -0.0794 -1.0674  0.1368
  615MPD2    C3 9111   2.042   3.793  16.189 -0.5844 -0.5378 -0.1534
  615MPD2    C4 9112   2.145   3.715  16.223  0.3358  0.0753 -0.1754
  615MPD2    C5 9113   2.241   3.752  16.312 -0.1163  0.1719 -0.2200
  615MPD2     H 9114   1.965   3.990  16.192 -2.2006 -1.5513  2.5236
  615MPD2    H1 9115   2.173   3.621  16.176 -0.3925 -0.9241  1.3978
  615MPD2    H2 9116   2.322   3.896  16.436 -1.2074  1.6721  0.4798
  615MPD2    H3 9117   2.319   3.682  16.341 -0.5273  0.2624  1.1067
  615MPD2     N 9118   1.949   3.752  16.089  0.3231  0.2100  1.0830
  615MPD2    H5 9119   1.973   3.667  16.039 -1.8012 -0.2432  0.8223
  615MPD2    N1 9120   2.149   4.112  16.341 -0.8971  0.0634  0.8616
  615MPD2    H7 9121   2.062   4.161  16.320  0.2351  1.7618  0.1152
  616TMC3    C1 9122   2.257   4.320  16.393 -0.0988  0.4613  0.1221
  616TMC3    C2 9123   2.367   4.395  16.360  0.1714  0.3345 -0.2510
  616TMC3    C3 9124   2.353   4.534  16.348  0.4069 -0.1191  0.3731
  616TMC3    C4 9125   2.132   4.380  16.407 -0.7323  0.3646  0.5696
  616TMC3    C5 9126   2.131   4.515  16.399 -0.0566 -1.0741  0.9475
  616TMC3    C6 9127   2.227   4.594  16.354 -0.1580  0.3503  0.3256
  616TMC3     C 9128   2.268   4.176  16.364 -0.1614 -0.5422 -0.5934
  616TMC3     O 9129   2.380   4.133  16.335 -0.1136 -0.4854  0.1599
  616TMC3     H 9130   2.463   4.346  16.363  0.2658  0.4398 -1.4785
  616TMC3    H1 9131   2.056   4.325  16.461 -0.1175  0.6413  1.7160
  616TMC3    H2 9132   2.219   4.702  16.344 -0.0105  0.3712  0.4200
  616TMC3    C7 9133   2.006   4.580  16.409  0.0726 -0.2515  0.3833
  616TMC3    C8 9134   2.460   4.614  16.292 -0.0264  0.4645  0.1254
  616TMC3    O1 9135   2.010   4.700  16.424  0.2082  0.3183  0.3421
  616TMC3    O2 9136   2.431   0.009  16.282 -0.2912 -0.3688 -0.0591
  617MPD2     C 9137   0.516   2.508  14.045  0.2723  0.9726  0.0880
  617MPD2    C1 9138   0.543   2.388  14.105 -0.5832  0.4399 -0.1459
  617MPD2    C2 9139   0.475   2.274  14.062 -0.0774  0.4520 -0.3579
  617MPD2    C3 9140   0.391   2.286  13.956  0.7367 -0.3840  0.6663
  617MPD2    C4 9141   0.363   2.408  13.896  0.1089  0.4901  0.3617
  617MPD2    C5 9142   0.431   2.524  13.936 -0.2970  0.0010 -0.4146
  617MPD2     H 9143   0.486   2.174  14.102 -3.4439  0.3143  0.2785
  617MPD2    H1 9144   0.286   2.411  13.820  2.4127  0.6081 -1.9602
  617MPD2    H2 9145   0.565   2.600  14.078  0.1211  0.1651  2.5851
  617MPD2    H3 9146   0.413   2.617  13.884 -0.2075 -0.3141 -1.0121
  617MPD2     N 9147   0.325   2.164  13.926  0.2338  0.5336 -0.0108
  617MPD2    H5 9148   0.346   2.078  13.977 -0.9788  1.0991  1.4206
  617MPD2    N1 9149   0.643   2.382  14.213 -0.2581 -0.7903  0.1148
  617MPD2    H7 9150   0.705   2.462  14.218  0.8292 -1.7319  1.7779
  618TMC3    C1 9151   0.813   2.231  14.305 -0.2679 -0.9896  0.2048
  618TMC3    C2 9152   0.832   2.097  14.300  0.0072  0.5392 -0.8884
  618TMC3    C3 9153   0.960   2.046  14.311  0.1834  0.6046 -0.1428
  618TMC3    C4 9154   0.913   2.322  14.295 -1.1467  0.0963  0.6609
  618TMC3    C5 9155   1.040   2.270  14.316  0.1291  0.3546 -0.0510
  618TMC3    C6 9156   1.063   2.128  14.328 -0.4317 -0.3925  0.0765
  618TMC3     C 9157   0.672   2.267  14.282  0.4493  0.1813  0.9618
  618TMC3     O 9158   0.595   2.175  14.303 -0.0154 -0.1769 -0.0439
  618TMC3     H 9159   0.750   2.028  14.312  0.7681 -0.4961 -1.6084
  618TMC3    H1 9160   0.898   2.428  14.282  4.1742  0.6867 -0.7406
  618TMC3    H2 9161   1.153   2.085  14.369 -0.1935  0.9902  1.0209
  618TMC3    C7 9162   1.137   2.371  14.354 -0.3199 -0.0392 -0.6585
  618TMC3    C8 9163   0.984   1.907  14.293  0.0312 -0.1839 -0.3525
  618TMC3    O1 9164   1.092   2.476  14.403  0.0149  0.1741 -0.9769
  618TMC3    O2 9165   0.893   1.832  14.327  0.2514 -0.0635 -0.6876
  619MPD2     C 9166   2.067   3.319  13.435  0.0840 -0.6194  0.2292
  619MPD2    C1 9167   1.997   3.409  13.365  0.0702  0.0453 -0.5110
  619MPD2    C2 9168   1.864   3.381  13.338  0.2835 -0.3518  0.6593
  619MPD2    C3 9169   1.797   3.268  13.388 -0.0804  1.3738  0.1291
  619MPD2    C4 9170   1.879   3.172  13.446  0.3894 -0.2661 -0.0792
  619MPD2    C5 9171   2.010   3.202  13.462  0.4143 -0.3527 -0.8559
  619MPD2     H 9172   1.810   3.462  13.290 -0.6399 -1.4873 -0.2114
  619MPD2    H1 9173   1.848   3.070  13.461 -1.0680  0.1533 -0.2567
  619MPD2    H2 9174   2.173   3.320  13.456 -0.0931  0.2086  1.0377
  619MPD2    H3 9175   2.066   3.119  13.502 -1.5766 -0.0067  2.6338
  619MPD2     N 9176   1.664   3.239  13.380 -0.2020  0.2847 -0.4681
  619MPD2    H5 9177   1.639   3.155  13.431 -0.2018  0.4816 -0.1412
  619MPD2    N1 9178   2.057   3.532  13.331  0.0813 -0.8830  0.7158
  619MPD2    H7 9179   1.998   3.587  13.270  0.1253  2.3730  3.6236
  620TMC3    C1 9180   2.180   3.735  13.355  0.4313 -0.0744 -0.1224
  620TMC3    C2 9181   2.146   3.763  13.224 -0.1226  0.2645  0.2368
  620TMC3    C3 9182   2.075   3.877  13.196  0.0368 -0.0095 -0.1269
  620TMC3    C4 9183   2.154   3.835  13.451 -0.6061  0.1649 -0.1477
  620TMC3    C5 9184   2.096   3.952  13.425  0.3137 -0.0230  0.1324
  620TMC3    C6 9185   2.060   3.978  13.295 -0.1468  0.1853  0.1559
  620TMC3     C 9186   2.154   3.600  13.403  0.1506  0.3454 -0.4689
  620TMC3     O 9187   2.210   3.565  13.507 -0.3382 -0.0376 -0.0822
  620TMC3     H 9188   2.146   3.685  13.149  1.8216 -1.5448  2.1108
  620TMC3    H1 9189   2.151   3.802  13.554  0.0759  0.9801  0.1363
  620TMC3    H2 9190   2.008   4.073  13.293  1.3475  0.9969 -0.1228
  620TMC3    C7 9191   1.986   3.995  13.520  0.3444  1.3347 -0.7204
  620TMC3    C8 9192   1.943   3.823  13.146  0.3317 -0.1562  0.2548
  620TMC3    O1 9193   1.870   3.991  13.486 -0.5887  0.2495  0.2388
  620TMC3    O2 9194   1.910   3.706  13.174  0.1105  0.6287  0.3013
  621MPD2     C 9195   2.370   4.146   9.382  0.5563 -0.2156 -0.3474
  621MPD2    C1 9196   2.406   4.017   9.393 -0.5051 -0.1961 -0.7940
  621MPD2    C2 9197   2.461   3.949   9.284 -0.5041  0.1242  0.3857
  621MPD2    C3 9198   2.513   4.020   9.169 -0.0039  0.6305 -0.1607
  621MPD2    C4 9199   2.483   4.156   9.164 -0.2300 -0.0975  0.2935
  621MPD2    C5 9200   2.412   4.207   9.267 -0.5536  1.1497  0.3531
  621MPD2     H 9201   2.484   3.843   9.284 -0.9196  0.0357  0.0171
  621MPD2    H1 9202   2.522   4.210   9.079  0.4531  0.6738  1.1035
  621MPD2    H2 9203   2.332   4.209   9.462 -1.5432 -3.1464  0.9469
  621MPD2    H3 9204   2.385   4.312   9.261 -0.6764  1.2584  2.7231
  621MPD2     N 9205   2.606   3.963   9.075  0.4564 -0.1209  0.2717
  621MPD2    H5 9206   2.654   4.027   9.013  1.1163 -0.7217  0.1583
  621MPD2    N1 9207   2.374   3.941   9.507 -0.3050 -0.4288 -0.2293
  621MPD2    H7 9208   2.409   3.846   9.502  1.7614  0.3913 -1.2390
  622TMC3    C1 9209   2.356   3.886   9.734  0.3091 -0.1328  0.0288
  622TMC3    C2 9210   2.415   3.935   9.847 -0.8923 -0.4104  0.1973
  622TMC3    C3 9211   2.478   3.845   9.933 -0.0684  0.2296  0.5068
  622TMC3    C4 9212   2.372   3.754   9.695 -0.5145 -0.6589 -0.0383
  622TMC3    C5 9213   2.447   3.674   9.778  0.1703 -0.5181  0.1259
  622TMC3    C6 9214   2.498   3.715   9.897 -0.4826 -0.0597  0.3541
  622TMC3     C 9215   2.338   3.985   9.630  0.3894 -0.4360  0.8057
  622TMC3     O 9216   2.303   4.096   9.669  0.3964  0.4847  0.6359
  622TMC3     H 9217   2.401   4.040   9.868  0.0936 -0.0874 -0.8051
  622TMC3    H1 9218   2.311   3.723   9.612  1.2193  2.6157 -2.5467
  622TMC3    H2 9219   2.560   3.646   9.952 -0.9483 -0.9948 -0.2876
  622TMC3    C7 9220   2.495   3.541   9.729 -0.1110 -0.1098 -0.1179
  622TMC3    C8 9221   2.539   3.899  10.054  0.0050  0.0988 -0.2807
  622TMC3    O1 9222   2.589   3.479   9.783 -0.3359  0.1036 -0.2010
  622TMC3    O2 9223   2.528   3.838  10.161  0.2418  0.2033 -0.0018
  623MPD2     C 9224   0.770   3.566  16.353 -0.0964  1.7223 -0.6835
  623MPD2    C1 9225   0.747   3.699  16.383 -0.5118  0.3669  0.3821
  623MPD2    C2 9226   0.833   3.768  16.462 -0.8855  0.0344 -0.0806
  623MPD2    C3 9227   0.947   3.710  16.509 -0.5368  0.1388 -0.1817
  623MPD2    C4 9228   0.970   3.576  16.478 -0.1119 -0.5252 -0.7734
  623MPD2    C5 9229   0.883   3.503  16.404  0.2436 -0.1457 -0.1220
  623MPD2     H 9230   0.821   3.874  16.482 -0.4738  0.1934 -0.6927
  623MPD2    H1 9231   1.054   3.521  16.519 -0.3252  2.0486  3.0190
  623MPD2    H2 9232   0.696   3.509  16.299  0.2455  0.4323  0.2255
  623MPD2    H3 9233   0.905   3.397  16.399  1.2715  0.0321  0.5801
  623MPD2     N 9234   1.030   3.791  16.589 -0.1008  0.2465  0.6760
  623MPD2    H5 9235   1.001   3.883  16.622 -0.9060 -0.3946  1.7066
  623MPD2    N1 9236   0.641   3.752  16.312  0.2057 -0.3142 -0.1518
  623MPD2    H7 9237   0.592   3.686  16.253 -2.6447  1.5927  0.0769
  624TMC3    C1 9238   1.360   3.769  16.915 -0.1486  0.4726 -0.7282
  624TMC3    C2 9239   1.274   3.787  17.018 -0.0176 -0.7808 -0.4669
  624TMC3    C3 9240   1.142   3.827  16.981  0.5062 -0.8062 -0.0580
  624TMC3    C4 9241   1.320   3.777  16.783  0.2388  0.1552 -0.5901
  624TMC3    C5 9242   1.202   3.826  16.752 -0.2849  0.0789 -0.0999
  624TMC3    C6 9243   1.113   3.852  16.851 -0.5764  0.0254  0.7505
  624TMC3     C 9244   1.461   3.671  16.944  0.7319 -0.3764 -0.2538
  624TMC3     O 9245   1.506   3.667  17.059 -0.0802 -0.0102 -0.0498
  624TMC3     H 9246   1.318   3.767  17.115  0.1886 -0.9569 -0.5979
  624TMC3    H1 9247   1.396   3.773  16.706 -0.2288 -1.1068 -0.9852
  624TMC3    H2 9248   1.026   3.910  16.824  0.4346  0.0972 -2.3140
  624TMC3    C7 9249   1.155   3.751  16.638  0.8660  0.3745 -0.6274
  624TMC3    C8 9250   1.053   3.738  17.049 -0.0882  0.2390 -0.1026
  624TMC3    O1 9251   1.217   3.652  16.612  0.1278 -0.5204 -0.0151
  624TMC3    O2 9252   1.104   3.654  17.122 -0.4991 -0.4058 -0.4936
  625MPD2     C 9253   1.755   0.591   0.618  0.1378  0.0106 -0.0464
  625MPD2    C1 9254   1.753   0.682   0.516 -0.3458  0.4642  0.3869
  625MPD2    C2 9255   1.865   0.738   0.468  1.0286  0.4392  0.1893
  625MPD2    C3 9256   1.982   0.702   0.538 -0.0899  0.0479 -0.3341
  625MPD2    C4 9257   1.981   0.600   0.627 -0.9724  0.0137  0.7003
  625MPD2    C5 9258   1.862   0.559   0.681  0.0722  0.4244  0.2565
  625MPD2     H 9259   1.871   0.820   0.398  0.9755 -1.2206 -1.7668
  625MPD2    H1 9260   2.071   0.573   0.681  1.1788  0.4415 -2.6815
  625MPD2    H2 9261   1.670   0.536   0.655  0.6462 -0.4021  0.4996
  625MPD2    H3 9262   1.862   0.484   0.760  0.0109 -0.2349 -0.3678
  625MPD2     N 9263   2.112   0.749   0.485  0.1160 -0.5963 -0.3733
  625MPD2    H5 9264   2.108   0.800   0.398 -1.1904 -1.4563 -0.8203
  625MPD2    N1 9265   1.626   0.717   0.467 -0.2679 -0.2995 -0.3068
  625MPD2    H7 9266   1.556   0.685   0.533 -0.7557  2.2493  0.3863
  626TMC3    C1 9267   1.463   0.802   0.328  0.4927 -0.2701  0.2536
  626TMC3    C2 9268   1.412   0.794   0.200 -0.4026 -0.4946  0.1916
  626TMC3    C3 9269   1.273   0.783   0.185 -0.1010 -0.3618  0.0939
  626TMC3    C4 9270   1.383   0.797   0.437  0.4997  0.1674  0.2358
  626TMC3    C5 9271   1.244   0.806   0.415  0.0321 -0.5944  0.0869
  626TMC3    C6 9272   1.187   0.792   0.290  0.2970 -0.3490  0.0067
  626TMC3     C 9273   1.600   0.799   0.357 -0.5714 -0.1668 -0.1330
  626TMC3     O 9274   1.675   0.827   0.266  0.4161 -0.4558  0.0763
  626TMC3     H 9275   1.482   0.789   0.117  1.4579 -0.7280  1.7529
  626TMC3    H1 9276   1.424   0.819   0.535 -3.0926  0.7423  1.6036
  626TMC3    H2 9277   1.080   0.792   0.277  0.1986  2.2734  0.7802
  626TMC3    C7 9278   1.159   0.845   0.527 -0.8259 -0.0422  0.0967
  626TMC3    C8 9279   1.231   0.783   0.050 -0.0424 -0.1301 -0.1309
  626TMC3    O1 9280   1.217   0.853   0.634 -0.3966 -0.1202  0.5273
  626TMC3    O2 9281   1.297   0.840  17.655 -0.3805  0.1037 -0.0889
  627MPD2     C 9282   4.376   0.871  14.142 -0.1963  0.2084  0.1493
  627MPD2    C1 9283   4.448   0.799  14.229  0.0100  0.2890  0.1948
  627MPD2    C2 9284   4.388   0.689  14.290 -0.2758 -0.5381  0.3073
  627MPD2    C3 9285   4.257   0.649  14.261 -0.4708 -0.1887 -0.3844
  627MPD2    C4 9286   4.191   0.726  14.170 -0.4651 -0.5412 -0.0995
  627MPD2    C5 9287   4.250   0.834  14.106  0.0749 -1.0087  0.0486
  627MPD2     H 9288   4.439   0.640  14.372  0.7303 -0.6566 -0.3809
  627MPD2    H1 9289   4.088   0.702  14.149 -0.5972  0.3648 -0.4964
  627MPD2    H2 9290   4.405   0.965  14.095 -1.7909  0.5915 -0.0528
  627MPD2    H3 9291   4.201   0.909  14.045  1.2601 -0.2580  0.0180
  627MPD2     N 9292   4.204   0.541  14.335 -0.1576  0.3425  0.3366
  627MPD2    H5 9293   4.262   0.488  14.399 -1.7269 -0.5355  1.0455
  627MPD2    N1 9294   4.570   0.850  14.278 -0.5323  0.3194  0.1368
  627MPD2    H7 9295   4.620   0.789  14.341 -0.8167 -1.1516 -1.0556
  628TMC3    C1 9296   0.009   1.008  14.333 -0.2150  0.3929 -0.1065
  628TMC3    C2 9297   0.103   0.912  14.355  0.4214 -0.4429  0.5392
  628TMC3    C3 9298   0.216   0.936  14.427 -0.7911 -0.0217 -0.1510
  628TMC3    C4 9299   0.015   1.122  14.402  0.3507 -0.2332 -0.1114
  628TMC3    C5 9300   0.131   1.147  14.474  0.5894  0.1750 -0.1203
  628TMC3    C6 9301   0.230   1.055  14.492 -0.0865 -0.3482  0.6383
  628TMC3     C 9302   4.612   0.981  14.262  0.2187  0.1846  0.2561
  628TMC3     O 9303   4.551   1.077  14.209  0.4099  0.3071  0.1675
  628TMC3     H 9304   0.119   0.831  14.285  2.5483  1.0234 -0.6774
  628TMC3    H1 9305   4.656   1.193  14.390  0.7369  0.7013  2.6811
  628TMC3    H2 9306   0.321   1.084  14.542  0.0377 -0.9006  0.7242
  628TMC3    C7 9307   0.181   1.292  14.476  0.1285 -0.2720 -0.2000
  628TMC3    C8 9308   0.332   0.851  14.433  0.4310 -0.4862 -0.3913
  628TMC3    O1 9309   0.283   1.301  14.545  0.3512 -0.2692  0.0114
  628TMC3    O2 9310   0.339   0.770  14.344  0.0485  0.3542  0.1546
  629MPD2     C 9311   2.932   4.668  16.093 -0.2955  0.3175  0.2947
  629MPD2    C1 9312   2.921   4.542  16.147 -0.1823 -0.4465 -0.5978
  629MPD2    C2 9313   2.801   4.502  16.197  0.0762 -0.7738  0.0160
  629MPD2    C3 9314   2.690   4.588  16.212 -0.3232  0.5202 -0.3481
  629MPD2    C4 9315   2.700   4.714  16.157 -0.1073 -0.5856  0.1543
  629MPD2    C5 9316   2.822   0.024  16.101  0.5241  0.2062  0.3781
  629MPD2     H 9317   2.798   4.396  16.222 -0.7981 -0.5799  0.7142
  629MPD2    H1 9318   2.615   0.059  16.152  0.3814  0.1228  1.4176
  629MPD2    H2 9319   3.019   4.712  16.047  0.0459  0.0209  0.6556
  629MPD2    H3 9320   2.828   0.124  16.059 -0.9922  0.4980  0.8611
  629MPD2     N 9321   2.568   4.546  16.259  0.1845  0.1415  0.0044
  629MPD2    H5 9322   2.568   4.447  16.284  1.5005 -1.0158 -4.5718
  629MPD2    N1 9323   3.035   4.459  16.143 -0.3062  0.2502 -0.3260
  629MPD2    H7 9324   3.120   4.502  16.109 -0.5108  0.4403 -0.6069
  630TMC3    C1 9325   3.174   4.271  16.200  0.4560 -0.0027  0.1580
  630TMC3    C2 9326   3.273   4.321  16.118 -0.6795 -0.2008  0.2406
  630TMC3    C3 9327   3.404   4.277  16.138 -0.4747 -0.2978  0.3144
  630TMC3    C4 9328   3.217   4.196  16.308 -0.8357 -0.2653  0.1955
  630TMC3    C5 9329   3.342   4.152  16.317  0.2909 -0.1218 -0.1973
  630TMC3    C6 9330   3.442   4.193  16.239 -0.3041  0.6647  0.2074
  630TMC3     C 9331   3.046   4.341  16.224 -0.2929 -0.1887  0.5867
  630TMC3     O 9332   2.982   4.296  16.317 -0.3907  0.3818 -0.1927
  630TMC3     H 9333   3.249   4.371  16.025 -0.8967  0.3197  0.5808
  630TMC3    H1 9334   3.135   4.137  16.348  0.0034 -0.5687  1.4627
  630TMC3    H2 9335   3.545   4.162  16.250 -0.0815  0.7995 -1.5507
  630TMC3    C7 9336   3.382   4.133  16.461  1.3844 -0.2820 -0.3391
  630TMC3    C8 9337   3.516   4.352  16.086 -0.2591 -0.3937 -0.3957
  630TMC3    O1 9338   3.294   4.126  16.542 -0.1103  0.4562  0.4146
  630TMC3    O2 9339   3.630   4.310  16.106 -0.3767  0.2795  0.0926
  631MPD2     C 9340   0.970   3.893  15.668 -0.7452 -0.0473  0.5963
  631MPD2    C1 9341   1.070   3.954  15.591 -0.1115 -0.6067 -1.2397
  631MPD2    C2 9342   1.207   3.921  15.613 -0.7080  0.0079  0.3608
  631MPD2    C3 9343   1.240   3.836  15.720 -0.2603 -0.2455 -0.5009
  631MPD2    C4 9344   1.132   3.794  15.795  0.3984 -0.5496  0.1090
  631MPD2    C5 9345   1.003   3.811  15.765  0.4051  0.3477 -0.2280
  631MPD2     H 9346   1.288   3.961  15.552  0.6608  0.7980  2.7067
  631MPD2    H1 9347   1.148   3.734  15.884 -0.4976 -1.2399 -0.1967
  631MPD2    H2 9348   0.863   3.908  15.658 -0.8206  0.2686  1.8605
  631MPD2    H3 9349   0.929   3.779  15.838 -1.2698  2.9235 -0.8074
  631MPD2     N 9350   1.378   3.806  15.742  0.1943  0.2274  0.3193
  631MPD2    H5 9351   1.442   3.846  15.674  0.1985 -2.0470 -1.0295
  631MPD2    N1 9352   1.026   4.033  15.479  0.1144  0.5893  0.1714
  631MPD2    H7 9353   0.926   4.047  15.464  0.3796  0.5884 -1.5857
  632TMC3    C1 9354   1.040   4.189  15.304 -0.1058 -0.8427 -0.4196
  632TMC3    C2 9355   0.958   4.271  15.366  0.4328 -0.4427  0.9886
  632TMC3    C3 9356   0.952   4.397  15.327  0.1283 -0.2147  0.5514
  632TMC3    C4 9357   1.107   4.241  15.196  0.5328  0.1311  0.5165
  632TMC3    C5 9358   1.091   4.376  15.153 -0.0575 -0.0340 -0.6091
  632TMC3    C6 9359   1.006   4.459  15.219  0.0396  0.4264 -0.2152
  632TMC3     C 9360   1.107   4.082  15.379  0.5476  0.2354 -0.1269
  632TMC3     O 9361   1.214   4.038  15.339 -1.1700  0.6039 -0.1917
  632TMC3     H 9362   0.895   4.248  15.451 -1.4173 -1.3205 -0.6057
  632TMC3    H1 9363   1.175   4.177  15.141  0.4799 -0.7155  1.4247
  632TMC3    H2 9364   0.976   4.557  15.184  0.0542  0.5447  0.0987
  632TMC3    C7 9365   1.187   4.418  15.056 -0.1452 -0.6457 -0.1722
  632TMC3    C8 9366   0.908   4.486  15.432 -0.0160 -0.1339  0.3618
  632TMC3    O1 9367   1.152   4.464  14.945  0.1945 -0.0379  0.3355
  632TMC3    O2 9368   0.813   4.449  15.499  0.0196  0.2478 -0.8712
  633MPD2     C 9369   1.264   1.921  17.297 -0.6610  0.2843 -0.2333
  633MPD2    C1 9370   1.259   1.880  17.162 -0.1198 -0.4022 -0.3599
  633MPD2    C2 9371   1.258   1.744  17.129 -0.1694 -0.4823  0.9943
  633MPD2    C3 9372   1.271   1.647  17.232 -0.7902 -0.4839  0.3269
  633MPD2    C4 9373   1.287   1.696  17.363  0.8885  0.3920 -0.0265
  633MPD2    C5 9374   1.278   1.828  17.394 -0.0172 -0.7140  0.1470
  633MPD2     H 9375   1.254   1.718  17.024  0.0613 -0.6431  1.0251
  633MPD2    H1 9376   1.294   1.631  17.450 -0.4085 -1.7289 -1.4936
  633MPD2    H2 9377   1.259   2.027  17.320  1.2623  0.6052 -1.2455
  633MPD2    H3 9378   1.291   1.856  17.498  0.0316  2.2628 -0.6585
  633MPD2     N 9379   1.278   1.503  17.205  0.3202 -0.0288  0.1999
  633MPD2    H5 9380   1.298   1.444  17.285 -2.0593  1.3762  1.8334
  633MPD2    N1 9381   1.266   1.972  17.057  0.2341 -0.4754 -0.0215
  633MPD2    H7 9382   1.271   1.930  16.964 -4.0171 -0.9245 -0.0431
  634TMC3    C1 9383   1.303   2.162  16.931  0.3775 -0.0217 -0.1231
  634TMC3    C2 9384   1.407   2.107  16.862 -0.6202  0.0444  1.0343
  634TMC3    C3 9385   1.463   2.180  16.756  0.9928 -0.2014  0.0255
  634TMC3    C4 9386   1.271   2.297  16.916  0.0769  0.2399 -0.3784
  634TMC3    C5 9387   1.330   2.365  16.812  0.7125  0.7491 -1.3978
  634TMC3    C6 9388   1.429   2.312  16.726 -0.2432 -0.0661  0.9024
  634TMC3     C 9389   1.276   2.107  17.056  0.3693  0.1665 -0.1019
  634TMC3     O 9390   1.248   2.189  17.143 -0.4156 -0.7435 -0.1721
  634TMC3     H 9391   1.444   2.006  16.875  1.0552  0.7062  1.5266
  634TMC3    H1 9392   1.178   2.331  16.960 -0.4696  2.5309 -3.3152
  634TMC3    H2 9393   1.467   2.365  16.640  0.7151 -2.0306  0.1208
  634TMC3    C7 9394   1.256   2.475  16.755 -0.1628  0.3351 -0.4174
  634TMC3    C8 9395   1.506   2.093  16.652  0.4980  0.5820  0.0143
  634TMC3    O1 9396   1.247   2.462  16.636  0.6066  0.0825 -0.1652
  634TMC3    O2 9397   1.466   1.975  16.649  0.1268 -0.5739  0.1971
  635TMC3    C1 9398   1.740   2.553  17.462 -0.3437 -0.2156  0.1881
  635TMC3    C2 9399   1.821   2.591  17.349  0.6608 -0.1235  0.3912
  635TMC3    C3 9400   1.890   2.492  17.291  0.0559  0.1918  0.0266
  635TMC3    C4 9401   1.705   2.421  17.485 -0.3733  0.4322  0.5577
  635TMC3    C5 9402   1.772   2.328  17.409  0.1058 -0.3321 -0.1999
  635TMC3    C6 9403   1.871   2.358  17.322  0.1612 -0.1986 -0.1965
  635TMC3     C 9404   1.639   2.645  17.511  0.3935  0.4223 -0.0454
  635TMC3     O 9405   1.580   2.618  17.611 -0.1614  0.7821  0.2586
  635TMC3     H 9406   1.846   2.697  17.347  0.8423 -0.1863 -0.7006
  635TMC3    H1 9407   1.623   2.402  17.554  0.5231 -0.8618  1.2724
  635TMC3    H2 9408   1.925   2.278  17.272  2.4191  0.9448  0.3922
  635TMC3    C7 9409   1.733   2.192  17.430 -0.0754 -0.0581  0.3007
  635TMC3    C8 9410   1.998   2.527  17.194 -0.3546 -0.2886 -0.4821
  635TMC3    O1 9411   1.766   2.115  17.341  0.3986 -0.2873 -0.1050
  635TMC3    O2 9412   2.068   2.435  17.158  0.6228 -0.6508  0.0479
  636MPD2     C 9413   2.475   2.680  15.489 -0.5196  0.1135 -0.6665
  636MPD2    C1 9414   2.495   2.639  15.622  0.1567 -0.2949 -0.3511
  636MPD2    C2 9415   2.567   2.519  15.636  0.1375  0.4307 -0.2352
  636MPD2    C3 9416   2.618   2.444  15.532  0.6200 -0.7509  0.2184
  636MPD2    C4 9417   2.583   2.477  15.404 -0.0806  0.2105  0.8852
  636MPD2    C5 9418   2.524   2.599  15.383  0.3394 -0.5728  0.2841
  636MPD2     H 9419   2.593   2.490  15.737  2.3649  1.9318 -0.3758
  636MPD2    H1 9420   2.598   2.419  15.314  0.5368  0.2175  0.9886
  636MPD2    H2 9421   2.429   2.773  15.459 -2.1190 -0.1592  0.9767
  636MPD2    H3 9422   2.501   2.635  15.284 -0.3068  2.3273  1.4657
  636MPD2     N 9423   2.675   2.322  15.570 -0.1399 -0.0437  0.3133
  636MPD2    H5 9424   2.675   2.304  15.670 -1.0738 -0.2416  0.2739
  636MPD2    N1 9425   2.466   2.727  15.731 -0.2535  0.2478 -0.1332
  636MPD2    H7 9426   2.504   2.712  15.824 -1.3929 -1.0727  0.1242
  637TMC3    C1 9427   2.748   2.099  15.540  0.2600 -0.0702 -0.1882
  637TMC3    C2 9428   2.738   2.071  15.674  0.8824 -0.2547  0.1290
  637TMC3    C3 9429   2.779   1.945  15.712  0.6065 -0.3310 -0.0598
  637TMC3    C4 9430   2.772   2.002  15.442 -0.8362 -0.4367 -0.4018
  637TMC3    C5 9431   2.803   1.874  15.489  0.5528  0.0137 -0.0571
  637TMC3    C6 9432   2.801   1.851  15.620 -0.6084  0.4224  0.1883
  637TMC3     C 9433   2.730   2.239  15.479  0.4049 -0.6264  0.6323
  637TMC3     O 9434   2.732   2.237  15.362  0.2761 -0.3928  0.9929
  637TMC3     H 9435   2.714   2.145  15.750 -0.9761  1.3279 -2.0185
  637TMC3    H1 9436   2.798   2.039  15.343 -0.5857 -1.5577 -0.7571
  637TMC3    H2 9437   2.812   1.751  15.659  1.8984  0.5276 -0.2490
  637TMC3    C7 9438   2.928   1.817  15.427  0.5037 -1.0771  0.8987
  637TMC3    C8 9439   2.894   1.954  15.803  0.4380 -0.1027  0.1754
  637TMC3    O1 9440   3.009   1.774  15.507  0.3131 -0.6809  0.2594
  637TMC3    O2 9441   2.895   2.046  15.884 -0.9776  0.2836 -0.2769
  638MPD2     C 9442   2.488   1.157  14.694  0.5287 -0.2940  0.7698
  638MPD2    C1 9443   2.478   1.024  14.698 -0.1931 -0.0820 -0.4830
  638MPD2    C2 9444   2.479   0.959  14.818  0.4146  0.1829 -0.0237
  638MPD2    C3 9445   2.480   1.020  14.937  0.5846 -0.0812 -0.6819
  638MPD2    C4 9446   2.484   1.161  14.935  0.0180 -0.1137  0.0633
  638MPD2    C5 9447   2.489   1.222  14.816 -0.0407 -0.0506 -0.1913
  638MPD2     H 9448   2.458   0.853  14.818 -0.9044  0.4409 -1.3381
  638MPD2    H1 9449   2.472   1.220  15.026  1.1264 -0.7246  0.6030
  638MPD2    H2 9450   2.501   1.223  14.609  2.6524  1.8716  2.7781
  638MPD2    H3 9451   2.495   1.330  14.809  2.0710 -0.2260 -1.0907
  638MPD2     N 9452   2.467   0.941  15.057  0.6587  0.4841 -0.1960
  638MPD2    H5 9453   2.480   0.841  15.041 -2.1276  0.5878 -3.1293
  638MPD2    N1 9454   2.479   0.952  14.582  0.4008 -0.2254  0.3473
  638MPD2    H7 9455   2.464   0.852  14.593  1.0652 -0.2395  1.1829
  639TMC3    C1 9456   2.424   0.869  15.287  0.6966 -0.1671 -0.2856
  639TMC3    C2 9457   2.296   0.835  15.313  0.5221 -0.9763 -0.1931
  639TMC3    C3 9458   2.271   0.715  15.368 -1.2235  0.4285 -0.0061
  639TMC3    C4 9459   2.527   0.786  15.306  0.3085 -0.2043  0.2539
  639TMC3    C5 9460   2.503   0.666  15.359  0.6238  1.4239  0.7211
  639TMC3    C6 9461   2.374   0.629  15.395 -0.1885 -0.6712 -0.2861
  639TMC3     C 9462   2.431   0.980  15.185  0.0007  0.1370  0.1134
  639TMC3     O 9463   2.397   1.091  15.224  0.6517  0.0538  0.2861
  639TMC3     H 9464   2.221   0.898  15.267 -0.6727  0.2634  3.4318
  639TMC3    H1 9465   2.621   0.832  15.276 -0.5789  0.4243 -1.6067
  639TMC3    H2 9466   2.361   0.524  15.419 -0.2579 -1.0375 -1.9514
  639TMC3    C7 9467   2.595   0.551  15.353 -0.1817 -0.3008  0.1120
  639TMC3    C8 9468   2.154   0.640  15.317  0.8704  0.2095 -0.1602
  639TMC3    O1 9469   2.560   0.441  15.395  0.4001  0.0699 -0.1812
  639TMC3    O2 9470   2.178   0.543  15.249  0.5175  0.3131 -0.5129
  640MPD2     C 9471   3.567   0.069   9.806 -0.1895 -0.9653 -0.2028
  640MPD2    C1 9472   3.641   0.092   9.693 -0.3985  0.4159 -0.0377
  640MPD2    C2 9473   3.620   0.208   9.609  0.0341  0.1148  0.0330
  640MPD2    C3 9474   3.515   0.290   9.648 -0.2003  0.7344  0.0828
  640MPD2    C4 9475   3.432   0.255   9.748  0.2967  0.0938 -0.5081
  640MPD2    C5 9476   3.462   0.152   9.832  0.9254 -0.3502  0.3253
  640MPD2     H 9477   3.678   0.236   9.522 -1.7026  0.2740 -1.0618
  640MPD2    H1 9478   3.349   0.321   9.768 -0.4454 -0.4089 -1.9147
  640MPD2    H2 9479   3.582   4.706   9.871  0.3243  0.1575  1.1401
  640MPD2    H3 9480   3.405   0.133   9.922  0.0171 -2.1464 -0.6271
  640MPD2     N 9481   3.481   0.416   9.593  0.2225 -0.2879  0.3216
  640MPD2    H5 9482   3.416   0.477   9.641  1.6183  2.7671 -1.6611
  640MPD2    N1 9483   3.726   4.707   9.652  0.0308  0.4713  0.1657
  640MPD2    H7 9484   3.719   4.624   9.710  1.0571  0.7513  0.6767
  641TMC3    C1 9485   3.869   4.575   9.518 -0.3834 -0.3101 -0.2526
  641TMC3    C2 9486   3.872   4.488   9.624  0.5737 -0.0699  0.2966
  641TMC3    C3 9487   3.911   4.362   9.600  0.6289 -0.0122  0.1425
  641TMC3    C4 9488   3.883   4.534   9.387 -0.1948 -0.1770 -0.2312
  641TMC3    C5 9489   3.934   4.403   9.367  0.5903 -0.8903 -0.3513
  641TMC3    C6 9490   3.937   4.316   9.471  0.1031  0.2227  0.8090
  641TMC3     C 9491   3.803   4.702   9.543 -0.1601 -0.2757 -0.2441
  641TMC3     O 9492   3.815   0.067   9.452  0.1575 -0.1718 -0.6724
  641TMC3     H 9493   3.860   4.519   9.727  0.6874 -0.4423  0.4229
  641TMC3    H1 9494   3.872   4.611   9.312 -0.3518  0.2875  0.2729
  641TMC3    H2 9495   3.975   4.214   9.466  1.1168  0.6344 -0.0522
  641TMC3    C7 9496   3.926   4.337   9.238  0.1296  0.7877  0.2432
  641TMC3    C8 9497   3.918   4.258   9.695  0.1273 -0.3362 -0.7951
  641TMC3    O1 9498   3.869   4.392   9.144 -0.0322 -0.0465  0.1348
  641TMC3    O2 9499   3.988   4.164   9.675 -0.1640  0.1777 -0.4649
  642TMC3    C1 9500   3.996   1.215  12.228  0.0039  0.1707  0.6916
  642TMC3    C2 9501   3.988   1.201  12.365  0.3680  0.2756  0.3206
  642TMC3    C3 9502   3.963   1.076  12.411  0.0206 -1.2104 -0.4548
  642TMC3    C4 9503   3.992   1.107  12.143  0.0337  0.2450  0.3833
  642TMC3    C5 9504   3.966   0.988  12.195 -0.1343 -0.2971  1.4326
  642TMC3    C6 9505   3.957   0.962  12.329  0.6475  0.3885 -0.5738
  642TMC3     C 9506   3.942   1.342  12.179 -0.7638  0.9048 -0.4946
  642TMC3     O 9507   3.965   1.377  12.066  0.1897  0.9139 -0.5409
  642TMC3     H 9508   3.998   1.285  12.434 -2.4128  1.4696 -0.7546
  642TMC3    H1 9509   3.998   1.121  12.036  1.2599  2.0943  0.6813
  642TMC3    H2 9510   3.943   0.858  12.357 -1.2292  1.0173  0.7816
  642TMC3    C7 9511   3.918   0.892  12.100 -0.1604 -0.3529  0.2524
  642TMC3    C8 9512   3.986   1.053  12.547 -0.8496  0.9970  0.6371
  642TMC3    O1 9513   3.943   0.902  11.981  0.3135 -0.2034  0.4212
  642TMC3    O2 9514   3.908   0.967  12.596  0.0976 -0.2754  0.6278
  643TMC3    C1 9515   3.229   0.273   0.773 -0.1916  0.4865 -0.0221
  643TMC3    C2 9516   3.093   0.236   0.782 -0.2500  0.3451 -0.4797
  643TMC3    C3 9517   3.042   0.130   0.712 -0.2008 -0.3520 -0.7508
  643TMC3    C4 9518   3.307   0.215   0.672  0.3263  0.5657 -0.8433
  643TMC3    C5 9519   3.253   0.110   0.606  0.1694 -0.0517  0.2014
  643TMC3    C6 9520   3.127   0.056   0.637 -0.0708 -0.4050  0.4113
  643TMC3     C 9521   3.259   0.404   0.813 -0.1206 -0.0266 -0.2732
  643TMC3     O 9522   3.159   0.472   0.804  0.1665 -0.3133  0.2062
  643TMC3     H 9523   3.046   0.277   0.871 -1.5137  0.1090 -1.0473
  643TMC3    H1 9524   3.383   0.275   0.622  0.0386 -0.1956 -2.1878
  643TMC3    H2 9525   3.095   4.702   0.567  3.6274 -1.8151  0.2947
  643TMC3    C7 9526   3.281   0.131   0.467 -0.5266 -0.1500  0.2081
  643TMC3    C8 9527   2.942   0.179   0.618 -0.9211  0.3144  0.0099
  643TMC3    O1 9528   3.401   0.146   0.432  0.4189  0.1101 -0.0347
  643TMC3    O2 9529   2.893   0.103   0.536 -0.6535  0.3261 -0.2716
  644MPD2     C 9530   3.588   1.216   9.509  0.7175 -0.4855 -0.7090
  644MPD2    C1 9531   3.512   1.116   9.554 -0.5155 -0.1506 -0.0723
  644MPD2    C2 9532   3.375   1.116   9.519  0.3145  0.2798 -0.0928
  644MPD2    C3 9533   3.321   1.224   9.454 -0.5525 -0.4640  0.8562
  644MPD2    C4 9534   3.404   1.332   9.422 -0.1482  0.5115 -0.2331
  644MPD2    C5 9535   3.538   1.331   9.455  0.2015 -0.0289 -0.3874
  644MPD2     H 9536   3.312   1.031   9.546  0.3269  0.2194 -0.2578
  644MPD2    H1 9537   3.357   1.424   9.387 -0.4154  1.0961  1.6801
  644MPD2    H2 9538   3.695   1.205   9.524  0.6808 -0.5560 -0.4986
  644MPD2    H3 9539   3.608   1.412   9.441 -1.3868  1.0969 -1.8616
  644MPD2     N 9540   3.188   1.213   9.405  0.0182 -0.4881 -0.0783
  644MPD2    H5 9541   3.149   1.120   9.415  2.6219 -1.9199 -3.3800
  644MPD2    N1 9542   3.577   1.014   9.627  0.5451  0.0519 -0.0206
  644MPD2    H7 9543   3.678   1.019   9.635  0.6983 -1.4455 -1.0656
  645TMC3    C1 9544   3.003   1.241   9.268  0.1534 -0.4769 -0.8938
  645TMC3    C2 9545   2.998   1.105   9.250 -0.2886 -0.0030 -0.5465
  645TMC3    C3 9546   2.886   1.058   9.192 -0.1389  0.9727  0.3365
  645TMC3    C4 9547   2.900   1.327   9.230 -0.0370 -0.6068 -0.1045
  645TMC3    C5 9548   2.782   1.271   9.178 -0.2576  0.3900  0.3716
  645TMC3    C6 9549   2.774   1.129   9.177 -0.4272  0.3583  0.0806
  645TMC3     C 9550   3.120   1.306   9.324 -0.3560  0.9336 -0.8289
  645TMC3     O 9551   3.137   1.426   9.314  0.2460 -0.4073 -0.3304
  645TMC3     H 9552   3.079   1.036   9.270 -0.8269  0.0946  1.9037
  645TMC3    H1 9553   2.919   1.433   9.242  0.3479 -0.4242 -2.3013
  645TMC3    H2 9554   2.688   1.080   9.133  0.3285 -0.7025 -0.2275
  645TMC3    C7 9555   2.678   1.360   9.140 -0.1501  0.1685  0.9173
  645TMC3    C8 9556   2.865   0.909   9.201 -0.4462  0.9990 -0.1377
  645TMC3    O1 9557   2.569   1.311   9.111  0.5563  0.1186 -0.1151
  645TMC3    O2 9558   2.765   0.868   9.249  0.2438 -0.1960 -0.2261
  646MPD2     C 9559   2.260   4.563  14.948 -0.4245  0.4589  0.9173
  646MPD2    C1 9560   2.167   4.563  15.046  0.2883 -0.3914  0.3245
  646MPD2    C2 9561   2.046   4.625  15.028 -0.6599 -0.1168 -0.4732
  646MPD2    C3 9562   2.024   4.681  14.903 -0.4136  0.1087  0.2390
  646MPD2    C4 9563   2.119   4.690  14.804  0.8541  0.4093  0.4591
  646MPD2    C5 9564   2.241   4.629  14.828  0.5586  1.1554 -0.4988
  646MPD2     H 9565   1.974   4.633  15.108  0.9414  0.9640  0.8582
  646MPD2    H1 9566   2.107   0.016  14.708  1.3333 -0.6220 -0.1221
  646MPD2    H2 9567   2.358   4.519  14.960 -0.1194  0.4045 -1.8767
  646MPD2    H3 9568   2.316   4.612  14.752 -0.2811  0.0389 -1.0867
  646MPD2     N 9569   1.899   0.021  14.876  0.0898 -0.1331  0.2652
  646MPD2    H5 9570   1.832   0.027  14.951 -0.8156 -0.6164 -0.5053
  646MPD2    N1 9571   2.209   4.490  15.163  0.4587  0.0084  0.2982
  646MPD2    H7 9572   2.302   4.450  15.163  1.2177  1.7990 -2.2674
  647TMC3    C1 9573   2.206   4.413  15.388 -0.2696 -0.2383  0.0323
  647TMC3    C2 9574   2.152   4.324  15.469 -0.3749  0.2047  1.4053
  647TMC3    C3 9575   2.236   4.250  15.542  0.3073 -0.3273 -0.3513
  647TMC3    C4 9576   2.343   4.447  15.395  0.0159 -0.4862 -0.5417
  647TMC3    C5 9577   2.424   4.387  15.484 -0.5656  0.2857 -0.2334
  647TMC3    C6 9578   2.371   4.270  15.549  0.0024 -0.0492  0.5035
  647TMC3     C 9579   2.134   4.463  15.276  0.0315 -0.3991 -1.1940
  647TMC3     O 9580   2.021   4.503  15.301 -0.3405 -0.0695  0.0579
  647TMC3     H 9581   2.047   4.301  15.459  0.1390 -1.1067 -1.0961
  647TMC3    H1 9582   2.380   4.534  15.341 -1.0729 -0.8357 -1.8583
  647TMC3    H2 9583   2.435   4.193  15.589  0.0864 -0.1548  0.1683
  647TMC3    C7 9584   2.567   4.379  15.454 -0.2996 -0.4440 -0.3387
  647TMC3    C8 9585   2.207   4.113  15.581  0.0397 -0.4408  0.0915
  647TMC3    O1 9586   2.610   4.273  15.486 -0.3040 -0.0451  0.1585
  647TMC3    O2 9587   2.110   4.055  15.524 -0.2573  0.0872 -0.3063
  648TMC3    C1 9588   2.014   2.145  16.146  0.8538  0.3279  0.1917
  648TMC3    C2 9589   2.046   2.020  16.098 -0.1381  0.2043  0.2943
  648TMC3    C3 9590   2.021   1.987  15.971  0.8477  0.0685 -0.4896
  648TMC3    C4 9591   1.982   2.246  16.061 -0.1518  0.2827 -0.0937
  648TMC3    C5 9592   1.950   2.206  15.932 -0.3808  0.1668  0.4948
  648TMC3    C6 9593   1.966   2.080  15.878 -0.6113 -0.0728  0.3242
  648TMC3     C 9594   2.002   2.168  16.293 -0.2347 -0.3525  0.1115
  648TMC3     O 9595   1.976   2.284  16.327 -0.1394 -0.1774  0.3436
  648TMC3     H 9596   2.084   1.943  16.164 -1.8547 -0.8472  0.0623
  648TMC3    H1 9597   1.967   2.343  16.106 -1.5811  0.2368 -0.4624
  648TMC3    H2 9598   1.957   2.056  15.773 -2.1481 -0.5105  0.5596
  648TMC3    C7 9599   1.880   2.295  15.836  0.1888 -0.0317 -0.5921
  648TMC3    C8 9600   2.058   1.852  15.939 -0.5744  0.0314 -0.1028
  648TMC3    O1 9601   1.880   2.256  15.720  0.5289 -0.4222  0.5558
  648TMC3    O2 9602   2.165   1.808  15.979  0.1256 -0.3300 -0.3750
  649TMC3    C1 9603   0.410   3.235  12.913 -0.2046 -0.3005 -0.0700
  649TMC3    C2 9604   0.547   3.231  12.917  0.6301 -0.1985  1.1052
  649TMC3    C3 9605   0.610   3.167  13.020 -0.3957  0.4829  0.8887
  649TMC3    C4 9606   0.340   3.155  12.997 -0.1319 -0.3379  0.7008
  649TMC3    C5 9607   0.404   3.083  13.096  0.3088 -0.2006 -0.4948
  649TMC3    C6 9608   0.542   3.081  13.112  0.6283  0.7325 -0.0327
  649TMC3     C 9609   0.337   3.325  12.827 -0.1162  0.1354 -0.8180
  649TMC3     O 9610   0.220   3.344  12.861  0.2945 -0.1373 -0.1418
  649TMC3     H 9611   0.604   3.312  12.872 -1.1360  0.6902  0.4579
  649TMC3    H1 9612   0.232   3.149  12.993 -0.1296 -0.4323  0.7801
  649TMC3    H2 9613   0.595   3.019  13.183 -1.3302  0.7818  1.4730
  649TMC3    C7 9614   0.315   3.048  13.203  0.4163  0.2368  0.1556
  649TMC3    C8 9615   0.755   3.179  13.031 -0.1924 -0.3591 -0.9143
  649TMC3    O1 9616   0.211   3.116  13.211 -0.5825  0.5010  0.0174
  649TMC3    O2 9617   0.814   3.240  12.943 -0.1837  0.5432  0.1877
  650TMC3    C1 9618   3.096   0.443  12.262 -0.1081 -0.3602 -0.4218
  650TMC3    C2 9619   3.154   0.550  12.328 -0.5225  0.1342 -0.9204
  650TMC3    C3 9620   3.081   0.603  12.435  0.7504 -0.3314  0.2963
  650TMC3    C4 9621   2.973   0.389  12.305 -0.2698  1.1536 -1.1995
  650TMC3    C5 9622   2.909   0.439  12.415 -0.0012 -0.5563 -0.1813
  650TMC3    C6 9623   2.962   0.544  12.482  0.5941  0.4591  0.5756
  650TMC3     C 9624   3.175   0.350  12.183  0.6233 -0.4531  0.1291
  650TMC3     O 9625   3.122   0.289  12.091 -0.7513 -0.0162 -0.2466
  650TMC3     H 9626   3.240   0.602  12.287  0.2258 -0.8848 -0.6308
  650TMC3    H1 9627   2.925   0.301  12.262  0.4714 -0.2507  0.8735
  650TMC3    H2 9628   2.920   0.579  12.575  1.9106 -1.4360  1.8915
  650TMC3    C7 9629   2.767   0.428  12.412 -0.1023 -0.5121 -0.3690
  650TMC3    C8 9630   3.062   0.746  12.432  0.1849  0.1730  0.1879
  650TMC3    O1 9631   2.706   0.373  12.505  0.1683  0.2899  0.7478
  650TMC3    O2 9632   3.155   0.819  12.395  0.2014  0.4455  0.2363
  651MPD2     C 9633   2.210   2.051  11.029 -0.4363  0.0057 -0.4649
  651MPD2    C1 9634   2.178   2.150  10.935  0.2977  0.0134  0.4290
  651MPD2    C2 9635   2.272   2.234  10.875 -0.3240  0.5858 -0.1819
  651MPD2    C3 9636   2.403   2.235  10.919 -0.3705  0.2646  0.1251
  651MPD2    C4 9637   2.437   2.139  11.015  0.1533  0.1412 -0.2321
  651MPD2    C5 9638   2.345   2.053  11.070  0.2995 -0.1830 -0.4475
  651MPD2     H 9639   2.256   2.293  10.785  1.1812  0.8675 -0.2594
  651MPD2    H1 9640   2.536   2.139  11.060 -0.0360 -0.6856  0.1804
  651MPD2    H2 9641   2.136   1.985  11.072  0.9940 -2.5380 -1.8777
  651MPD2    H3 9642   2.377   1.992  11.153  1.3781 -0.9428 -1.4158
  651MPD2     N 9643   2.508   2.311  10.855 -0.2924 -0.3487 -0.6873
  651MPD2    H5 9644   2.489   2.369  10.774  1.2073  2.6840  1.1291
  651MPD2    N1 9645   2.046   2.170  10.885  0.8091  0.4879  0.4620
  651MPD2    H7 9646   2.039   2.245  10.817 -0.0483 -0.8401 -0.9061
  652TMC3    C1 9647   2.933   2.455  10.725  1.4263  0.3450 -0.0756
  652TMC3    C2 9648   2.859   2.388  10.818  0.1193  0.6474  0.3984
  652TMC3    C3 9649   2.732   2.345  10.780  1.0022 -0.0727  0.4540
  652TMC3    C4 9650   2.892   2.475  10.594  0.2316 -0.5403  0.3288
  652TMC3    C5 9651   2.768   2.425  10.562 -0.7568  0.6042  0.1295
  652TMC3    C6 9652   2.683   2.359  10.653 -0.4052 -0.2509  0.2711
  652TMC3     C 9653   3.071   2.488  10.765  0.1359 -0.3570 -0.6418
  652TMC3     O 9654   3.118   2.458  10.875  0.3558 -0.4399 -0.7985
  652TMC3     H 9655   2.895   2.367  10.918 -2.3880  1.1795  1.4130
  652TMC3    H1 9656   2.955   2.517  10.517  0.2583  1.4736  1.4570
  652TMC3    H2 9657   2.591   2.308  10.628 -0.5228  0.7031 -1.2349
  652TMC3    C7 9658   2.742   2.402  10.418  0.4695  0.2843  0.3188
  652TMC3    C8 9659   2.643   2.309  10.891  0.3170  0.2515 -0.2690
  652TMC3    O1 9660   2.675   2.304  10.384 -0.5267  0.3166 -0.1533
  652TMC3    O2 9661   2.692   2.291  11.002 -0.7582  0.7118 -0.1538
  653MPD2     C 9662   1.036   1.928   0.026 -0.0833 -0.0559  1.1260
  653MPD2    C1 9663   1.005   2.028  17.632 -0.2093  0.3581  0.0164
  653MPD2    C2 9664   0.965   1.999  17.509  0.4025 -0.8203  0.3503
  653MPD2    C3 9665   0.959   1.870  17.468  0.2123 -0.5895 -0.8547
  653MPD2    C4 9666   1.007   1.772  17.544 -0.2391 -0.5481 -0.1938
  653MPD2    C5 9667   1.032   1.799  17.674 -0.2373 -0.4982 -0.1498
  653MPD2     H 9668   0.934   2.076  17.440 -0.3487 -1.8559 -0.4706
  653MPD2    H1 9669   1.012   1.669  17.512  1.4255 -0.2055 -1.0227
  653MPD2    H2 9670   1.074   1.949   0.125  1.0721 -0.5715  0.7819
  653MPD2    H3 9671   1.046   1.711   0.043  1.2050  0.0647  0.3435
  653MPD2     N 9672   0.916   1.850  17.333 -0.5357  0.2635  0.2223
  653MPD2    H5 9673   0.882   1.926  17.275  2.7169  1.3194 -0.2867
  653MPD2    N1 9674   1.023   2.166  17.665  0.4983  0.5342  0.1244
  653MPD2    H7 9675   1.016   2.234  17.590 -2.4959  0.5198  0.3991
  654TMC3    C1 9676   0.823   1.741  17.156 -0.0184 -0.6676 -0.4420
  654TMC3    C2 9677   0.713   1.824  17.160  0.4270  0.1594  0.2284
  654TMC3    C3 9678   0.635   1.831  17.049  0.8153  0.1323 -0.3638
  654TMC3    C4 9679   0.862   1.669  17.043 -0.2545  0.4211  0.1500
  654TMC3    C5 9680   0.777   1.688  16.938 -1.0108  0.4500  0.6073
  654TMC3    C6 9681   0.669   1.770  16.935  0.1351  0.5970  0.0668
  654TMC3     C 9682   0.907   1.730  17.265  0.3286  0.1118  0.7086
  654TMC3     O 9683   0.954   1.620  17.281 -0.0101  0.0795 -0.8368
  654TMC3     H 9684   0.670   1.867  17.249 -0.1798  0.4156 -0.1949
  654TMC3    H1 9685   0.939   1.593  17.041 -2.2957 -1.6697  1.2116
  654TMC3    H2 9686   0.621   1.787  16.839  0.5062  1.4390  0.0311
  654TMC3    C7 9687   0.798   1.602  16.821  0.1452 -0.1692 -0.4701
  654TMC3    C8 9688   0.504   1.899  17.066 -0.5315 -0.5261 -0.0019
  654TMC3    O1 9689   0.795   1.652  16.710 -0.4804  0.8435  0.3961
  654TMC3    O2 9690   0.489   1.979  17.159 -0.1300  0.5642  0.1190
  655MPD2     C 9691   2.336   2.245  15.788  0.1408 -0.3683  0.3286
  655MPD2    C1 9692   2.264   2.338  15.724 -0.2361 -0.0572 -0.5844
  655MPD2    C2 9693   2.243   2.325  15.589  0.2765 -0.1665  0.0464
  655MPD2    C3 9694   2.306   2.229  15.512  0.4132  0.0461 -0.7261
  655MPD2    C4 9695   2.386   2.142  15.588 -0.5117  0.0851 -0.6258
  655MPD2    C5 9696   2.399   2.144  15.723  0.5955  0.2462  0.0951
  655MPD2     H 9697   2.175   2.393  15.539  0.5243  0.4776  0.5958
  655MPD2    H1 9698   2.448   2.072  15.534  2.9352  1.5480  1.3839
  655MPD2    H2 9699   2.359   2.253  15.894  0.1946  1.4773  0.1788
  655MPD2    H3 9700   2.461   2.067  15.769 -1.6077  0.2514  3.1228
  655MPD2     N 9701   2.267   2.195  15.383  0.3282  0.0574 -0.0310
  655MPD2    H5 9702   2.308   2.111  15.346 -2.0844 -0.9758 -0.3832
  655MPD2    N1 9703   2.196   2.443  15.782  0.4847  0.7592 -0.0035
  655MPD2    H7 9704   2.125   2.487  15.724 -0.0784 -1.7487 -1.2186
  656TMC3    C1 9705   2.128   2.608  15.940 -0.7217 -0.1019  0.0591
  656TMC3    C2 9706   2.083   2.612  16.076  0.2332 -0.1796 -0.6578
  656TMC3    C3 9707   1.983   2.701  16.104 -0.1224 -0.6881 -0.5561
  656TMC3    C4 9708   2.084   2.679  15.837  0.0608  0.2719  0.0535
  656TMC3    C5 9709   1.985   2.768  15.871  0.4874 -0.2568 -0.5118
  656TMC3    C6 9710   1.936   2.777  16.002  0.0876  0.0346  0.1419
  656TMC3     C 9711   2.209   2.493  15.913 -0.3882 -0.4914  0.9098
  656TMC3     O 9712   2.303   2.471  15.987 -0.7120 -0.2583 -0.5815
  656TMC3     H 9713   2.113   2.537  16.148 -2.1765 -1.1313 -0.6542
  656TMC3    H1 9714   2.145   2.682  15.747 -0.1944  0.6133 -0.1069
  656TMC3    H2 9715   1.867   2.858  16.022 -1.2165 -0.7699 -1.0843
  656TMC3    C7 9716   1.934   2.848  15.768 -0.4031 -0.9038 -0.5802
  656TMC3    C8 9717   1.883   2.641  16.179  0.5651  0.1947 -0.3462
  656TMC3    O1 9718   2.014   2.889  15.683  0.2069 -0.0601  0.3579
  656TMC3    O2 9719   1.879   2.519  16.182  0.1477  0.3069  0.0799
  657TMC3    C1 9720   1.048   1.904  15.228 -0.5400 -0.3245  0.1414
  657TMC3    C2 9721   1.082   1.998  15.322  0.2884 -0.1946  0.5813
  657TMC3    C3 9722   1.085   2.132  15.278  0.3807  0.3091  0.0902
  657TMC3    C4 9723   0.987   1.930  15.108  0.8751 -0.3068  1.0012
  657TMC3    C5 9724   0.987   2.062  15.069 -0.0104  0.0161  0.6105
  657TMC3    C6 9725   1.036   2.159  15.150 -0.7191 -0.6635 -0.1737
  657TMC3     C 9726   1.049   1.759  15.260 -0.4889  0.5471 -0.1425
  657TMC3     O 9727   0.949   1.693  15.241 -0.2160  0.3843  0.3538
  657TMC3     H 9728   1.131   1.971  15.415  1.8448  1.2993  0.1856
  657TMC3    H1 9729   0.963   1.847  15.043 -0.0274  1.2546 -0.6579
  657TMC3    H2 9730   1.039   2.264  15.123  0.1211  0.1462  3.0480
  657TMC3    C7 9731   0.911   2.094  14.951  0.7791  0.3741  0.0558
  657TMC3    C8 9732   1.116   2.235  15.377 -0.4740  0.9300  0.3795
  657TMC3    O1 9733   0.892   1.999  14.874 -0.3038  0.6759  0.7236
  657TMC3    O2 9734   1.156   2.338  15.329 -0.0235 -0.0548 -0.2893
  658MPD2     C 9735   2.354   1.883  14.592  0.4221 -1.2962 -0.3075
  658MPD2    C1 9736   2.349   2.000  14.656 -0.2004  0.1703 -0.1028
  658MPD2    C2 9737   2.347   2.117  14.586 -0.3766 -0.0177  0.4662
  658MPD2    C3 9738   2.341   2.114  14.446 -0.2487 -0.1298  0.0327
  658MPD2    C4 9739   2.358   1.993  14.383  0.3879 -0.8137 -0.0198
  658MPD2    C5 9740   2.366   1.880  14.458  0.0457  0.2838  0.7005
  658MPD2     H 9741   2.322   2.209  14.639 -1.9365 -1.8626  2.9449
  658MPD2    H1 9742   2.356   1.984  14.275 -2.1059  0.2548 -0.0703
  658MPD2    H2 9743   2.354   1.784  14.637 -0.5284 -2.2211 -2.3291
  658MPD2    H3 9744   2.376   1.781  14.414  0.1975  1.2705 -1.4981
  658MPD2     N 9745   2.310   2.236  14.374 -0.3977 -0.3129  0.1439
  658MPD2    H5 9746   2.303   2.318  14.434  1.2553 -1.2645  1.6354
  658MPD2    N1 9747   2.319   1.994  14.793  0.4735 -0.0733  0.2372
  658MPD2    H7 9748   2.303   1.904  14.838 -1.5954 -0.0181 -0.3773
  659TMC3    C1 9749   2.241   2.079  14.999  0.1510  0.0216 -0.0665
  659TMC3    C2 9750   2.266   2.166  15.104 -0.0871 -0.7546  0.3730
  659TMC3    C3 9751   2.160   2.196  15.185 -0.5231  0.1580 -0.4502
  659TMC3    C4 9752   2.113   2.020  14.979  0.4780  0.7878 -0.3602
  659TMC3    C5 9753   2.017   2.050  15.075 -0.7894  0.9744  0.6230
  659TMC3    C6 9754   2.036   2.146  15.167 -0.0921  0.0510  0.2791
  659TMC3     C 9755   2.318   2.102  14.879  0.6379 -0.0428 -0.1925
  659TMC3     O 9756   2.372   2.209  14.865  0.0476 -0.0506  0.0143
  659TMC3     H 9757   2.357   2.223  15.117 -1.2028  1.2585 -0.5822
  659TMC3    H1 9758   2.088   1.964  14.891  2.6272  2.0990 -1.8173
  659TMC3    H2 9759   1.965   2.182  15.242  0.7617 -2.0682  2.1049
  659TMC3    C7 9760   1.875   2.037  15.039 -0.1093  0.6220 -0.4703
  659TMC3    C8 9761   2.175   2.267  15.307  0.9558  0.1741 -0.7716
  659TMC3    O1 9762   1.808   2.131  15.081 -0.3641 -0.4918  0.1114
  659TMC3    O2 9763   2.091   2.355  15.330 -0.2787 -0.2029  0.2680
  660MPD2     C 9764   0.383   0.927  12.789  0.1495  0.0158 -0.1852
  660MPD2    C1 9765   0.276   1.002  12.793 -0.4227 -0.3051  0.2857
  660MPD2    C2 9766   0.157   0.954  12.853  0.1061  0.2529  0.0050
  660MPD2    C3 9767   0.162   0.832  12.921 -0.5208 -1.0256 -0.5934
  660MPD2    C4 9768   0.272   0.750  12.908  0.2764  0.1686  0.3555
  660MPD2    C5 9769   0.378   0.803  12.845  0.0050  0.1935 -0.3522
  660MPD2     H 9770   0.067   1.014  12.854  0.6715  1.1040 -0.2175
  660MPD2    H1 9771   0.275   0.653  12.956  1.1676  0.8891  1.7684
  660MPD2    H2 9772   0.467   0.950  12.725 -0.3075 -0.1134 -0.8389
  660MPD2    H3 9773   0.471   0.748  12.835 -1.4660 -1.4601 -4.8112
  660MPD2     N 9774   0.057   0.779  12.997 -0.0721 -0.0657 -0.0342
  660MPD2    H5 9775   0.071   0.691  13.046  1.3735 -0.3616 -0.9580
  660MPD2    N1 9776   0.281   1.125  12.715 -0.2785  0.5527  0.1817
  660MPD2    H7 9777   0.354   1.130  12.644 -0.9093  0.9171 -0.4478
  661TMC3    C1 9778   0.195   1.332  12.630 -0.6087  0.0620 -0.1379
  661TMC3    C2 9779   0.281   1.333  12.521  0.0567  0.0567 -0.0987
  661TMC3    C3 9780   0.277   1.427  12.419 -0.3443 -0.1312 -0.1872
  661TMC3    C4 9781   0.084   1.417  12.622 -0.1965  0.0065 -0.0951
  661TMC3    C5 9782   0.067   1.487  12.505  0.2713 -0.4557 -0.1715
  661TMC3    C6 9783   0.162   1.498  12.412 -0.5409 -0.7132  0.4977
  661TMC3     C 9784   0.189   1.224  12.729  0.6808  0.5200 -0.3825
  661TMC3     O 9785   0.105   1.229  12.819 -0.1806 -0.0789 -0.5766
  661TMC3     H 9786   0.375   1.280  12.527  0.5222  1.1117  2.0751
  661TMC3    H1 9787   4.721   1.402  12.688  1.0747 -1.4786  1.1990
  661TMC3    H2 9788   0.152   1.561  12.325 -3.0459  2.1607  2.8464
  661TMC3    C7 9789   4.655   1.489  12.455 -0.2375 -0.3679 -0.0948
  661TMC3    C8 9790   0.356   1.414  12.303  0.6536  0.1473  0.3638
  661TMC3    O1 9791   4.566   1.485  12.540  0.1838 -0.2764  0.0890
  661TMC3    O2 9792   0.403   1.303  12.275  0.4390  0.6299  0.3268
  662MPD2     C 9793   0.523   0.934  17.100 -0.3433 -1.1050 -0.3600
  662MPD2    C1 9794   0.402   0.930  17.163 -1.0681 -0.0340  0.5535
  662MPD2    C2 9795   0.378   1.026  17.254 -0.0441  0.2891 -0.0566
  662MPD2    C3 9796   0.467   1.123  17.294  0.4383  0.2989 -0.2691
  662MPD2    C4 9797   0.594   1.110  17.237 -0.2943 -0.0824  0.3069
  662MPD2    C5 9798   0.618   1.023  17.136  0.0024  0.4529  0.2869
  662MPD2     H 9799   0.281   1.023  17.302  0.4154 -2.2342  0.7430
  662MPD2    H1 9800   0.673   1.178  17.265 -0.3354  0.7471 -1.5931
  662MPD2    H2 9801   0.552   0.865  17.021 -0.4618 -0.6847 -0.7721
  662MPD2    H3 9802   0.717   1.015  17.093  0.4273 -1.0953  1.5524
  662MPD2     N 9803   0.438   1.220  17.391  0.1860 -0.0448 -0.7405
  662MPD2    H5 9804   0.352   1.213  17.444  0.0302 -1.1168 -1.1316
  662MPD2    N1 9805   0.302   0.838  17.139 -0.2190 -0.6319  0.5622
  662MPD2    H7 9806   0.219   0.836  17.198 -0.7051  1.8987 -0.0403
  663TMC3    C1 9807   0.258   0.611  17.094 -0.4059  1.0526  0.1001
  663TMC3    C2 9808   0.187   0.599  17.212  0.2411 -0.0286  0.0252
  663TMC3    C3 9809   0.133   0.485  17.248 -0.5615 -0.0509  0.0862
  663TMC3    C4 9810   0.255   0.506  17.007  0.5045 -0.3552  0.4039
  663TMC3    C5 9811   0.203   0.382  17.048 -0.6273 -0.1893  0.2399
  663TMC3    C6 9812   0.143   0.373  17.168  0.4010  0.5070  0.4456
  663TMC3     C 9813   0.324   0.737  17.052 -0.0683  0.8017  0.1286
  663TMC3     O 9814   0.392   0.722  16.949  0.2267  0.0983  0.1378
  663TMC3     H 9815   0.201   0.668  17.294 -0.4222 -0.1822  0.2746
  663TMC3    H1 9816   0.315   0.517  16.917  1.2041 -1.0439  0.7900
  663TMC3    H2 9817   0.110   0.281  17.215  0.7541  0.4940  0.6727
  663TMC3    C7 9818   0.255   0.270  16.977 -0.4845 -0.7036 -0.0250
  663TMC3    C8 9819   0.130   0.466  17.396  0.4156 -0.1298 -0.3749
  663TMC3    O1 9820   0.307   0.284  16.867  0.1933 -0.0765  0.0875
  663TMC3    O2 9821   0.038   0.513  17.462 -0.1717 -0.1491 -0.3608
  664MPD2     C 9822   2.909   4.297  17.547  0.4763 -1.3414  0.4466
  664MPD2    C1 9823   3.041   4.273  17.584  0.0017 -0.1474 -0.1332
  664MPD2    C2 9824   3.066   4.251   0.031  0.0500  0.8439  0.6430
  664MPD2    C3 9825   2.961   4.233   0.121  1.0997  0.4833 -0.0448
  664MPD2    C4 9826   2.832   4.248   0.076 -1.0073  0.6343  0.7908
  664MPD2    C5 9827   2.810   4.287  17.639  0.0259  0.5007  0.8523
  664MPD2     H 9828   3.166   4.221   0.061  0.2452 -0.9380 -1.7584
  664MPD2    H1 9829   2.746   4.247   0.142 -0.5063  0.0330  1.4399
  664MPD2    H2 9830   2.882   4.318  17.444  0.3102  1.2365  1.0201
  664MPD2    H3 9831   2.709   4.306  17.604 -0.0427 -2.6435 -0.7296
  664MPD2     N 9832   2.990   4.214   0.260 -0.7292  0.2068  0.2247
  664MPD2    H5 9833   3.089   4.218   0.279 -1.0727  0.4882  1.9403
  664MPD2    N1 9834   3.151   4.273  17.495 -0.4699 -0.2384 -0.2242
  664MPD2    H7 9835   3.241   4.276  17.541  0.0988  0.1559 -1.3804
  665TMC3    C1 9836   2.946   4.164   0.482 -0.5108  0.8552 -0.4860
  665TMC3    C2 9837   2.868   4.094   0.566 -0.3081  0.3963  0.3707
  665TMC3    C3 9838   2.912   4.084   0.691  0.0758 -0.0461  0.5720
  665TMC3    C4 9839   3.046   4.243   0.526 -0.6939  0.5920 -0.1151
  665TMC3    C5 9840   3.082   4.240   0.663  0.8252 -0.3365  0.2384
  665TMC3    C6 9841   3.020   4.150   0.749 -0.5009 -0.3919  0.5886
  665TMC3     C 9842   2.898   4.178   0.350  0.5598 -0.0889  0.5849
  665TMC3     O 9843   2.793   4.114   0.336  0.3006  0.1144  0.2044
  665TMC3     H 9844   2.767   4.062   0.544 -0.4641  0.7981  0.5015
  665TMC3    H1 9845   3.096   4.313   0.460 -0.5207 -0.2931 -0.9158
  665TMC3    H2 9846   3.047   4.144   0.853  1.0678 -0.5497  0.1774
  665TMC3    C7 9847   3.210   4.294   0.699  0.1757  0.6297  0.7565
  665TMC3    C8 9848   2.811   4.053   0.799  0.2944  0.5037  0.2884
  665TMC3    O1 9849   3.272   4.356   0.613  0.0681  0.0344  0.1857
  665TMC3    O2 9850   2.821   4.117   0.901  0.5807  0.3497  0.1544
  666TMC3    C1 9851   2.782   3.830   9.019  0.6047  0.8799 -0.2210
  666TMC3    C2 9852   2.818   3.698   9.017  0.1031 -0.3457 -0.2115
  666TMC3    C3 9853   2.939   3.663   9.069  0.0802 -1.0470  0.3546
  666TMC3    C4 9854   2.877   3.924   9.048 -0.2926 -0.6984  0.9880
  666TMC3    C5 9855   3.007   3.887   9.087 -0.4916 -0.8225 -0.2003
  666TMC3    C6 9856   3.033   3.752   9.114 -0.0390  0.0818 -0.4979
  666TMC3     C 9857   2.652   3.838   9.080  0.3625  0.5039 -1.1371
  666TMC3     O 9858   2.617   3.742   9.149 -0.1452  0.5815  0.4910
  666TMC3     H 9859   2.744   3.620   9.008  0.7106 -0.9702  0.2586
  666TMC3    H1 9860   2.856   4.028   9.072  0.8550 -0.0397 -0.8211
  666TMC3    H2 9861   3.123   3.731   9.171 -1.1469 -1.0361  0.8237
  666TMC3    C7 9862   3.066   3.990   9.177  0.0359  0.5829 -0.3146
  666TMC3    C8 9863   2.954   3.526   9.129  0.3645 -0.3508  0.2998
  666TMC3    O1 9864   3.098   3.953   9.293 -0.1398 -0.5848  0.0002
  666TMC3    O2 9865   3.031   3.513   9.225 -0.3215  0.5456 -0.1216
  667MPD2     C 9866   4.478   3.661  14.394 -0.5512  0.1619 -0.0449
  667MPD2    C1 9867   4.391   3.717  14.484 -0.3876 -0.4017  0.3102
  667MPD2    C2 9868   4.278   3.647  14.517  0.0161 -0.3978  0.1929
  667MPD2    C3 9869   4.245   3.531  14.457 -0.5130  0.2564  0.2682
  667MPD2    C4 9870   4.334   3.474  14.370  0.4365 -0.5436  0.2421
  667MPD2    C5 9871   4.457   3.537  14.341  0.4337  0.5826  0.1491
  667MPD2     H 9872   4.203   3.698  14.575 -1.2251 -2.5508  0.4352
  667MPD2    H1 9873   4.323   3.382  14.314 -1.5197  0.6063 -1.2996
  667MPD2    H2 9874   4.575   3.710  14.392 -1.2665  1.6365  0.9372
  667MPD2    H3 9875   4.531   3.484  14.282 -0.7052 -1.6342  0.7225
  667MPD2     N 9876   4.125   3.457  14.475 -0.0892  0.5494  0.3548
  667MPD2    H5 9877   4.117   3.361  14.442 -3.5029  1.6307 -2.0248
  667MPD2    N1 9878   4.405   3.847  14.537 -0.6256  0.0590 -0.0240
  667MPD2    H7 9879   4.331   3.875  14.600 -1.0469 -1.2217  0.0392
  668TMC3    C1 9880   4.482   4.075  14.580 -0.2702  0.6827 -0.1094
  668TMC3    C2 9881   4.501   4.189  14.509  1.1847 -0.2010 -0.1155
  668TMC3    C3 9882   4.487   4.299  14.593  0.0607  0.5239  0.2236
  668TMC3    C4 9883   4.450   4.060  14.710  0.3456  0.0839 -0.3174
  668TMC3    C5 9884   4.433   4.173  14.785  0.4700  0.3164 -0.3757
  668TMC3    C6 9885   4.453   4.290  14.726  0.3822  0.2830  0.0402
  668TMC3     C 9886   4.493   3.948  14.503  0.0232  0.0272 -0.4849
  668TMC3     O 9887   4.571   3.954  14.407  0.4600 -0.2828 -0.0808
  668TMC3     H 9888   4.529   4.190  14.405  0.6985  0.1791 -0.2437
  668TMC3    H1 9889   4.473   3.961  14.750  1.0149  0.2859 -0.1939
  668TMC3    H2 9890   4.440   4.387  14.773 -0.6654  1.1542 -2.0835
  668TMC3    C7 9891   4.413   4.176  14.925  1.0411  0.8314  0.2605
  668TMC3    C8 9892   4.501   4.426  14.546 -0.9527 -0.0163  0.0252
  668TMC3    O1 9893   4.427   4.286  14.975 -0.1739  0.5689  0.0886
  668TMC3    O2 9894   4.449   4.518  14.611  0.7403 -0.4941 -0.3970
  669TMC3    C1 9895   2.045   3.750  14.450 -0.3013  0.1222  0.2633
  669TMC3    C2 9896   1.918   3.746  14.412 -0.1256  0.1803 -0.0136
  669TMC3    C3 9897   1.866   3.849  14.341  0.2609 -0.9388 -0.0849
  669TMC3    C4 9898   2.114   3.867  14.428 -0.3265  0.6023 -0.2869
  669TMC3    C5 9899   2.067   3.956  14.334 -0.0292  0.4310 -0.7354
  669TMC3    C6 9900   1.936   3.953  14.302 -0.1261 -0.5476 -0.7651
  669TMC3     C 9901   2.067   3.687  14.575 -0.2679 -0.8587 -0.5402
  669TMC3     O 9902   1.992   3.592  14.604 -0.1470  0.6167  0.0687
  669TMC3     H 9903   1.851   3.665  14.438  0.0366  0.1891  0.4449
  669TMC3    H1 9904   2.220   3.881  14.447 -0.4777 -0.3900  1.3170
  669TMC3    H2 9905   1.902   4.037  14.241  0.2214  0.2746  0.1754
  669TMC3    C7 9906   2.157   4.059  14.297 -1.0254  0.2481  0.2746
  669TMC3    C8 9907   1.736   3.823  14.279  0.1622 -0.1071  0.4535
  669TMC3    O1 9908   2.179   4.149  14.378 -0.0838 -0.0368  0.5880
  669TMC3    O2 9909   1.706   3.706  14.261 -0.2379  0.7145 -0.0204
  670MPD2     C 9910   0.665   1.680  13.518  0.0580 -0.0982  0.1436
  670MPD2    C1 9911   0.658   1.725  13.649 -0.2438 -0.2098  0.0152
  670MPD2    C2 9912   0.577   1.669  13.743 -0.4056  0.1885  0.8109
  670MPD2    C3 9913   0.487   1.577  13.701  0.1798  0.0941 -0.2735
  670MPD2    C4 9914   0.488   1.535  13.567 -0.0378  0.1364  0.0290
  670MPD2    C5 9915   0.583   1.574  13.474  0.0115  1.0082  0.0936
  670MPD2     H 9916   0.578   1.702  13.846  0.9064 -1.1545  1.2277
  670MPD2    H1 9917   0.414   1.464  13.532  0.7984 -2.2749  3.1021
  670MPD2    H2 9918   0.739   1.717  13.447  0.8008 -1.1225  0.3788
  670MPD2    H3 9919   0.565   1.548  13.371  1.1525 -0.4053  0.2488
  670MPD2     N 9920   0.399   1.531  13.800  0.0541  0.0297 -0.2519
  670MPD2    H5 9921   0.403   1.577  13.890 -0.2010  0.9343 -0.7034
  670MPD2    N1 9922   0.757   1.824  13.687 -0.0388 -0.4850 -0.2875
  670MPD2    H7 9923   0.793   1.816  13.782 -1.0248  0.3777  0.1562
  671TMC3    C1 9924   0.224   1.414  13.891 -0.4474 -0.0530 -0.5819
  671TMC3    C2 9925   0.281   1.367  14.005 -0.2314  1.3227 -0.6657
  671TMC3    C3 9926   0.224   1.254  14.060  0.1797 -0.0663  0.2698
  671TMC3    C4 9927   0.105   1.379  13.849  0.2017  0.1510 -0.1341
  671TMC3    C5 9928   0.050   1.269  13.907 -0.1469  0.0850 -0.2943
  671TMC3    C6 9929   0.113   1.201  14.002 -0.0973  0.1734 -0.1460
  671TMC3     C 9930   0.305   1.435  13.778  0.2038 -0.2652  0.1064
  671TMC3     O 9931   0.261   1.384  13.676  0.1818  0.0361  0.2590
  671TMC3     H 9932   0.386   1.385  14.025  0.2974 -3.4099  1.0513
  671TMC3    H1 9933   0.064   1.428  13.761 -0.4551 -0.8551 -0.3793
  671TMC3    H2 9934   0.070   1.103  14.019  2.1500 -0.4480  1.9829
  671TMC3    C7 9935   4.697   1.188  13.810 -0.6308  0.0906  0.0490
  671TMC3    C8 9936   0.310   1.162  14.132  0.4942  0.5753  0.4418
  671TMC3    O1 9937   0.005   1.070  13.795  0.0877  0.0413  0.3390
  671TMC3    O2 9938   0.306   1.044  14.107  0.0613  0.1361 -0.5309
  672MPD2     C 9939   1.714   2.345   1.898 -0.1832  0.6899 -0.3845
  672MPD2    C1 9940   1.682   2.401   1.779 -0.0680  0.0164 -0.0743
  672MPD2    C2 9941   1.786   2.449   1.704 -0.1779  0.5679 -0.5210
  672MPD2    C3 9942   1.916   2.455   1.741 -0.0546  0.2540  0.4930
  672MPD2    C4 9943   1.951   2.396   1.859 -0.8682  0.6603 -0.1552
  672MPD2    C5 9944   1.849   2.341   1.938  0.4843 -0.3767  0.2043
  672MPD2     H 9945   1.768   2.504   1.612 -1.4748  1.1600  0.0890
  672MPD2    H1 9946   2.050   2.373   1.895 -1.5913 -2.7491 -0.3658
  672MPD2    H2 9947   1.636   2.309   1.964 -1.3200  0.8809 -1.6180
  672MPD2    H3 9948   1.876   2.290   2.030  0.0255 -3.0598 -1.1528
  672MPD2     N 9949   2.011   2.502   1.652 -0.1144 -0.2432 -0.2482
  672MPD2    H5 9950   1.965   2.532   1.566 -0.6608 -0.7664 -0.1363
  672MPD2    N1 9951   1.553   2.403   1.724 -0.2131 -0.2025  0.2715
  672MPD2    H7 9952   1.537   2.469   1.648 -1.0298 -0.1544  0.4896
  673TMC3    C1 9953   1.330   2.357   1.684  0.3790  0.0784  0.3005
  673TMC3    C2 9954   1.260   2.237   1.659 -0.2663  0.2940  0.2337
  673TMC3    C3 9955   1.186   2.233   1.546 -0.7831 -0.0218  0.0292
  673TMC3    C4 9956   1.323   2.469   1.600 -0.1431  0.6553  0.2189
  673TMC3    C5 9957   1.231   2.458   1.500 -0.6766 -0.1412  0.3133
  673TMC3    C6 9958   1.169   2.340   1.463 -1.0027 -0.5193 -0.0150
  673TMC3     C 9959   1.442   2.342   1.783 -0.4105 -0.8176  0.2253
  673TMC3     O 9960   1.442   2.264   1.877 -0.7036  0.1821  0.4889
  673TMC3     H 9961   1.273   2.149   1.721 -1.1014  0.4238  0.5959
  673TMC3    H1 9962   1.342   2.571   1.631 -1.5724  0.1707  2.6170
  673TMC3    H2 9963   1.086   2.336   1.394 -1.6371  0.7727  0.6758
  673TMC3    C7 9964   1.150   2.574   1.467 -0.8595 -0.6062 -0.3881
  673TMC3    C8 9965   1.131   2.101   1.501  0.3583  0.0496 -0.0622
  673TMC3    O1 9966   1.169   2.680   1.532  0.1362 -0.5986 -0.6906
  673TMC3    O2 9967   1.045   2.089   1.415 -0.0567  0.0526  0.4323
  674MPD2     C 9968   1.469   1.143   0.480 -1.1214 -0.5368 -0.1022
  674MPD2    C1 9969   1.350   1.170   0.417  0.2675 -0.3650  0.2829
  674MPD2    C2 9970   1.243   1.216   0.496  0.4722 -0.1208 -0.3960
  674MPD2    C3 9971   1.257   1.215   0.634 -0.4426  0.0734  0.3306
  674MPD2    C4 9972   1.375   1.178   0.688 -0.0006 -0.2257 -0.0696
  674MPD2    C5 9973   1.481   1.135   0.615 -0.2575 -0.2138  0.0589
  674MPD2     H 9974   1.144   1.234   0.458  0.7532  0.0803 -1.0297
  674MPD2    H1 9975   1.379   1.175   0.796  2.1485 -1.7701 -0.1997
  674MPD2    H2 9976   1.567   1.115   0.444  0.1319  1.7954  1.4349
  674MPD2    H3 9977   1.575   1.114   0.665  0.0246 -1.2120 -0.8793
  674MPD2     N 9978   1.143   1.258   0.711 -0.1585 -0.0505  0.4841
  674MPD2    H5 9979   1.068   1.301   0.659  0.2428  1.6774  1.3669
  674MPD2    N1 9980   1.331   1.157   0.271 -0.3341 -0.4403  0.2588
  674MPD2    H7 9981   1.409   1.130   0.213  0.5737  1.2232  0.7017
  675TMC3    C1 9982   1.235   1.154   0.051  0.1878 -0.2234  0.1408
  675TMC3    C2 9983   1.122   1.112  17.667 -0.1255 -0.2412 -0.0802
  675TMC3    C3 9984   1.123   1.124  17.533  0.6613  0.4295 -0.7533
  675TMC3    C4 9985   1.346   1.197  17.676  0.0227 -0.6384 -0.0509
  675TMC3    C5 9986   1.341   1.207  17.541 -0.7744 -0.2088  0.1133
  675TMC3    C6 9987   1.236   1.164  17.462  0.2718  0.0526 -1.5521
  675TMC3     C 9988   1.214   1.153   0.196  0.0260 -0.1392 -0.3113
  675TMC3     O 9989   1.099   1.163   0.231 -0.5563 -0.6383  0.3476
  675TMC3     H 9990   1.048   1.068   0.042 -2.2669  1.1064 -1.6334
  675TMC3    H1 9991   1.433   1.233   0.038 -2.0962 -0.0885  3.0565
  675TMC3    H2 9992   1.239   1.149  17.354 -1.7672 -2.7988 -1.2086
  675TMC3    C7 9993   1.468   1.220  17.472  0.3483  0.3998  0.1687
  675TMC3    C8 9994   1.009   1.068  17.460 -0.0432  0.0480  0.1660
  675TMC3    O1 9995   1.473   1.164  17.367 -0.9086 -0.1114 -0.7976
  675TMC3    O2 9996   1.022   1.036  17.344 -0.0799 -0.6983  0.0429
  676MPD2     C 9997   3.537   0.366  10.682 -0.5428  0.1308  0.0399
  676MPD2    C1 9998   3.481   0.248  10.729 -0.0692  0.1267  0.5392
  676MPD2    C2 9999   3.530   0.136  10.677 -0.5705  0.0740 -0.4403
  676MPD2    C310000   3.644   0.132  10.595  0.3498  0.4138 -0.5725
  676MPD2    C410001   3.704   0.248  10.554 -0.0521 -0.3122 -0.3287
  676MPD2    C510002   3.638   0.368  10.590  0.1893 -0.3959 -0.7514
  676MPD2     H10003   3.482   0.045  10.711  0.1747 -0.9143 -2.0156
  676MPD2    H110004   3.792   0.251  10.491  1.1633  0.1587  1.3960
  676MPD2    H210005   3.492   0.461  10.709  0.5698  0.6135  0.1537
  676MPD2    H310006   3.673   0.461  10.547  1.9795 -0.9292 -0.4813
  676MPD2     N10007   3.701   0.004  10.572 -0.2853 -0.2168 -0.6941
  676MPD2    H510008   3.790   4.719  10.523  0.1950  1.3985 -0.0673
  676MPD2    N110009   3.372   0.245  10.819  1.1183 -0.3299 -0.1256
  676MPD2    H710010   3.327   0.156  10.836 -1.0091  0.8400  0.3756
  677TMC3    C110011   3.255   0.312  11.013 -0.1291 -0.3672  0.0887
  677TMC3    C210012   3.191   0.193  11.002 -0.4573  0.0364 -0.2384
  677TMC3    C310013   3.127   0.150  11.110 -0.1561  0.2514  0.3511
  677TMC3    C410014   3.272   0.378  11.133 -0.6036  0.0527  0.1124
  677TMC3    C510015   3.196   0.333  11.238  0.1971 -0.2955 -0.3026
  677TMC3    C610016   3.113   0.224  11.223  0.3768  0.2099  0.2697
  677TMC3     C10017   3.344   0.348  10.903 -0.3623 -0.3437  0.0821
  677TMC3     O10018   3.411   0.446  10.929 -0.1564  0.2343  0.0264
  677TMC3     H10019   3.191   0.122  10.919  0.7733 -0.3884  0.1208
  677TMC3    H110020   3.333   0.468  11.137 -1.2742  0.4359  1.8180
  677TMC3    H210021   3.070   0.185  11.315  0.9543  1.1286  0.9318
  677TMC3    C710022   3.197   0.390  11.366 -0.6111 -0.0723  0.1526
  677TMC3    C810023   3.059   0.027  11.102  0.5080  0.2149 -0.2752
  677TMC3    O110024   3.123   0.340  11.447 -0.0368 -0.2317  0.4403
  677TMC3    O210025   2.977   0.016  11.012  0.0293 -0.1626  0.3052
  678MPD2     C10026   4.666   4.267   1.681 -0.1292  0.5326  0.4004
  678MPD2    C110027   4.649   4.348   1.569 -0.6210  0.5480 -0.2535
  678MPD2    C210028   4.521   4.386   1.545 -0.0713  0.0204  0.5046
  678MPD2    C310029   4.405   4.325   1.600  0.3146 -0.3538 -0.0234
  678MPD2    C410030   4.428   4.215   1.692  1.0858 -0.3699 -0.3792
  678MPD2    C510031   4.557   4.195   1.730  0.4144  0.2419  0.0406
  678MPD2     H10032   4.504   4.455   1.463  1.1137 -0.1640  0.1046
  678MPD2    H110033   4.348   4.163   1.743  0.7424  0.2844 -0.2516
  678MPD2    H210034   0.038   4.223   1.714 -0.5699 -0.0248  0.9327
  678MPD2    H310035   4.580   4.110   1.793 -1.7576 -2.0179 -2.2264
  678MPD2     N10036   4.269   4.341   1.569  0.3004 -0.0504  0.2498
  678MPD2    H510037   4.202   4.275   1.607  0.2878  0.5358  1.2535
  678MPD2    N110038   0.029   4.426   1.512 -0.6966 -0.5878 -0.0202
  678MPD2    H710039   0.001   4.500   1.448 -0.0327 -0.3252 -0.0108
  679TMC3    C110040   0.476   4.541   1.409  0.4438  0.9150  0.1696
  679TMC3    C210041   0.385   4.505   1.505 -0.2722 -0.6464 -0.1752
  679TMC3    C310042   0.253   4.492   1.467 -0.1376 -0.1552 -0.2484
  679TMC3    C410043   0.450   4.560   1.277  0.1086 -0.3332 -0.2819
  679TMC3    C510044   0.318   4.553   1.243  0.2131  0.4777 -0.8534
  679TMC3    C610045   0.211   4.530   1.343  0.8510  0.0385  0.3064
  679TMC3     C10046   0.611   4.511   1.440 -0.4520  0.6493 -0.6520
  679TMC3     O10047   0.632   4.496   1.559 -0.3161 -0.0301  0.2294
  679TMC3     H10048   0.422   4.490   1.605  0.2538 -0.2302 -0.3103
  679TMC3    H110049   0.525   4.606   1.214  0.3192 -0.0786  0.1517
  679TMC3    H210050   0.104   4.537   1.324  0.7043  2.0001  1.8306
  679TMC3    C710051   0.283   4.607   1.119  0.5868  0.6388 -1.0703
  679TMC3    C810052   0.162   4.422   1.555  0.3904 -0.7754  0.4346
  679TMC3    O110053   0.184   4.676   1.114 -0.0514  0.1189 -0.1728
  679TMC3    O210054   0.218   4.369   1.651 -0.6863 -0.3120 -0.0405
  680MPD2     C10055   4.419   3.577  13.541 -0.4232 -0.4330  1.0453
  680MPD2    C110056   4.511   3.555  13.646  0.1937 -0.6943 -0.6833
  680MPD2    C210057   4.594   3.659  13.680  0.2403 -1.0272  0.7526
  680MPD2    C310058   4.581   3.785  13.622  0.3621 -0.1529  0.3184
  680MPD2    C410059   4.481   3.803  13.529 -0.3245  0.0702 -1.1374
  680MPD2    C510060   4.405   3.699  13.485 -0.4001  0.2090 -0.4456
  680MPD2     H10061   4.665   3.631  13.757 -0.1656 -2.3529  0.6418
  680MPD2    H110062   4.460   3.902  13.491 -2.9459 -0.9135 -2.2356
  680MPD2    H210063   4.346   3.502  13.511 -0.1020 -0.6575  0.8168
  680MPD2    H310064   4.326   3.715  13.413 -0.9294  1.0744  0.3153
  680MPD2     N10065   4.665   3.896  13.660 -0.3795 -0.1639 -0.1839
  680MPD2    H510066   4.640   3.981  13.610 -0.0486 -0.4771 -0.8797
  680MPD2    N110067   4.525   3.429  13.711  0.5100  0.3480  0.2931
  680MPD2    H710068   4.610   3.424  13.767  1.3860 -1.1575 -1.1901
  681TMC3    C110069   4.507   3.205  13.771 -0.1494  0.5660 -0.6546
  681TMC3    C210070   4.508   3.244  13.906 -0.5305 -0.0225 -0.3952
  681TMC3    C310071   4.593   3.166  13.986 -0.4951  0.2747  0.6669
  681TMC3    C410072   4.574   3.087  13.724  0.8757 -0.0018  0.3603
  681TMC3    C510073   4.649   3.013  13.809  0.4715 -0.0419 -0.2438
  681TMC3    C610074   4.660   3.049  13.945  0.9117 -0.3881  0.3930
  681TMC3     C10075   4.463   3.309  13.684  0.7483 -0.7183 -0.0684
  681TMC3     O10076   4.366   3.288  13.619  0.2746 -0.0245 -0.2300
  681TMC3     H10077   4.452   3.327  13.946  0.2362  1.1802 -1.8324
  681TMC3    H110078   4.558   3.058  13.620  1.7696 -0.5102  0.3632
  681TMC3    H210079   0.006   3.004  14.015  0.0662 -1.1751  0.6946
  681TMC3    C710080   0.024   2.918  13.762  0.2383  0.2819  0.2845
  681TMC3    C810081   4.569   3.184  14.123 -0.1089 -0.1798  0.1819
  681TMC3    O110082   0.048   2.826  13.838 -0.2687  0.5788 -0.3239
  681TMC3    O210083   4.451   3.199  14.158 -0.4020 -0.0973 -0.8599
  682MPD2     C10084   2.936   0.228  10.060  0.1188  0.1196  0.5089
  682MPD2    C110085   2.946   0.104  10.127  0.2117 -0.2759  0.3383
  682MPD2    C210086   2.860   0.085  10.232  0.3115 -0.0334  0.0130
  682MPD2    C310087   2.769   0.184  10.270  0.1171 -0.2654  0.1934
  682MPD2    C410088   2.774   0.309  10.212  0.5666  0.2529  0.2166
  682MPD2    C510089   2.854   0.328  10.102 -0.4808  0.0966  0.6052
  682MPD2     H10090   2.874   4.713  10.285 -1.0485  0.2163  0.7881
  682MPD2    H110091   2.716   0.394  10.248 -1.8991 -1.0593 -0.6638
  682MPD2    H210092   3.014   0.253   9.989 -0.9388 -2.0946 -1.3994
  682MPD2    H310093   2.871   0.422  10.050 -2.1528 -0.2967 -0.6670
  682MPD2     N10094   2.684   0.165  10.371 -0.1561 -0.2885  0.5522
  682MPD2    H510095   2.642   0.247  10.413  0.8743  0.3577  0.3196
  682MPD2    N110096   3.042   0.004  10.087 -0.4706 -0.4232  0.7133
  682MPD2    H710097   3.063   4.643  10.141  0.6501 -0.6840 -0.1221
  683TMC3    C110098   2.587   0.032  10.763  0.1402  0.1980 -0.1479
  683TMC3    C210099   2.520   4.633  10.774 -0.1502 -0.0251 -0.5460
  683TMC3    C310100   2.479   4.574  10.663  0.1021  1.0217 -0.3875
  683TMC3    C410101   2.598   0.094  10.643 -0.0539 -0.4707  0.0146
  683TMC3    C510102   2.552   0.034  10.527 -0.0397  1.1043 -0.6144
  683TMC3    C610103   2.487   4.636  10.537 -0.4235  0.3782 -0.2663
  683TMC3     C10104   2.619   0.108  10.876 -0.4172  0.3746  0.3543
  683TMC3     O10105   2.633   0.230  10.864 -0.5039  0.7242 -0.8523
  683TMC3     H10106   2.488   4.600  10.872 -1.1143 -0.0818 -0.8860
  683TMC3    H110107   2.641   0.193  10.633 -2.7164  0.7186  0.5881
  683TMC3    H210108   2.465   4.582  10.446 -0.0763 -0.8047  0.3531
  683TMC3    C710109   2.639   0.033  10.408 -0.2364  0.3138 -0.2972
  683TMC3    C810110   2.436   4.437  10.662 -0.3365  0.9276  0.0964
  683TMC3    O110111   2.644   4.649  10.347  0.4209 -0.0467  0.1020
  683TMC3    O210112   2.356   4.415  10.573 -0.5743 -0.1862  0.0453
  684MPD2     C10113   0.099   4.413  16.197 -0.7984  0.2710  0.0762
  684MPD2    C110114   0.218   4.387  16.257 -0.1601  0.0026  0.6789
  684MPD2    C210115   0.295   4.493  16.310 -0.0281 -0.3534 -0.4221
  684MPD2    C310116   0.249   4.622  16.298 -0.1357 -0.5576 -0.4577
  684MPD2    C410117   0.127   4.651  16.242  0.0183 -0.2589  0.2442
  684MPD2    C510118   0.056   4.544  16.189  0.6421  0.1310 -0.1805
  684MPD2     H10119   0.394   4.468  16.347 -0.4406 -2.2651 -0.6315
  684MPD2    H110120   0.093   0.031  16.230  1.4438  0.1421 -0.4488
  684MPD2    H210121   0.038   4.342  16.143  1.6467 -1.0023 -1.0029
  684MPD2    H310122   4.686   4.566  16.136  0.4498  1.3326  0.6463
  684MPD2     N10123   0.322   0.010  16.331  0.3238 -0.1195 -0.3926
  684MPD2    H510124   0.287   0.097  16.292 -0.3604 -0.0129  0.4689
  684MPD2    N110125   0.273   4.260  16.263  0.9112 -0.3683  0.1606
  684MPD2    H710126   0.368   4.244  16.293  0.2760  0.5192  2.6826
  685TMC3    C110127   0.283   4.023  16.206  1.3501 -0.3965 -0.7172
  685TMC3    C210128   0.232   3.924  16.125  0.3958  0.5350  0.4048
  685TMC3    C310129   0.321   3.824  16.088 -0.5834 -0.3657 -0.8294
  685TMC3    C410130   0.399   4.010  16.272 -0.6871 -0.1787 -0.2633
  685TMC3    C510131   0.478   3.901  16.241  0.3613 -0.3157  0.1306
  685TMC3    C610132   0.440   3.806  16.148 -0.5248 -0.4270  0.1761
  685TMC3     C10133   0.201   4.144  16.238  0.2561  0.1021 -0.2236
  685TMC3     O10134   0.081   4.132  16.218 -0.5266 -0.1597 -0.5531
  685TMC3     H10135   0.127   3.913  16.099  0.6286 -0.7057 -0.0522
  685TMC3    H110136   0.431   4.084  16.344 -2.3908  0.1801  0.1316
  685TMC3    H210137   0.506   3.725  16.116  0.6338  0.7123 -0.2943
  685TMC3    C710138   0.591   3.872  16.329  0.3523 -0.2983 -0.4060
  685TMC3    C810139   0.277   3.726  15.998  0.5583 -0.2360 -0.1162
  685TMC3    O110140   0.629   3.969  16.392 -0.1609  0.1094  0.0254
  685TMC3    O210141   0.347   3.625  15.985 -0.3402 -0.1259 -0.2280
  686MPD2     C10142   1.464   4.143  15.554 -0.1351 -0.4092  0.1808
  686MPD2    C110143   1.528   4.094  15.659 -0.2033 -0.0648 -0.2245
  686MPD2    C210144   1.632   4.009  15.642  0.5635 -0.3420 -0.2156
  686MPD2    C310145   1.681   3.967  15.518  0.6813  0.2043 -0.5949
  686MPD2    C410146   1.627   4.029  15.411 -0.2657 -0.3333  0.0320
  686MPD2    C510147   1.515   4.108  15.430  0.5516  0.2942  0.8539
  686MPD2     H10148   1.693   3.978  15.726 -0.0007 -0.6654  0.0792
  686MPD2    H110149   1.654   3.996  15.311  3.1992  1.3662  0.4157
  686MPD2    H210150   1.370   4.196  15.560 -1.0157 -2.0798  1.0362
  686MPD2    H310151   1.466   4.158  15.347 -1.8944 -0.3340  1.9247
  686MPD2     N10152   1.784   3.868  15.498 -0.8366 -0.7155 -0.4318
  686MPD2    H510153   1.806   3.853  15.400  0.7055  1.0842 -0.3680
  686MPD2    N110154   1.477   4.129  15.779  0.7589 -0.0764 -0.3013
  686MPD2    H710155   1.401   4.197  15.782  0.7965  0.0183 -1.4443
  687TMC3    C110156   1.772   3.759  15.715 -0.3894  0.4117 -0.3853
  687TMC3    C210157   1.641   3.725  15.709 -0.2552 -0.5141 -0.2201
  687TMC3    C310158   1.577   3.708  15.829 -0.2029  0.3393 -0.1506
  687TMC3    C410159   1.840   3.767  15.839 -1.0526 -0.3375  0.0078
  687TMC3    C510160   1.765   3.766  15.954 -0.1360  0.4194  0.6010
  687TMC3    C610161   1.636   3.719  15.952  0.9586 -0.1944 -0.0861
  687TMC3     C10162   1.842   3.783  15.594 -0.5612 -0.2944  0.2889
  687TMC3     O10163   1.944   3.716  15.587 -0.5405 -1.1491  0.0574
  687TMC3     H10164   1.588   3.703  15.617  0.3999  1.6187 -1.1131
  687TMC3    H110165   1.944   3.795  15.837 -2.0395  3.2675 -2.0310
  687TMC3    H210166   1.584   3.720  16.048  0.8748 -1.8857 -0.1206
  687TMC3    C710167   1.828   3.806  16.080  0.3683  0.0691 -0.2812
  687TMC3    C810168   1.430   3.721  15.834  0.1378 -0.0548  0.1802
  687TMC3    O110169   1.762   3.877  16.159 -0.2382 -0.1292  0.4455
  687TMC3    O210170   1.387   3.675  15.941 -0.3911  0.6166 -0.0974
  688MPD2     C10171   1.130   2.821  17.345 -0.0328 -0.1569  0.0671
  688MPD2    C110172   1.188   2.698  17.383 -0.6374 -0.1344 -0.2755
  688MPD2    C210173   1.293   2.641  17.308 -0.4452  0.1820 -0.0544
  688MPD2    C310174   1.338   2.712  17.195 -0.6249  0.2440  0.3802
  688MPD2    C410175   1.275   2.830  17.152  0.1856 -0.9599  0.2602
  688MPD2    C510176   1.168   2.880  17.227 -0.3243 -0.7698  0.1456
  688MPD2     H10177   1.357   2.556  17.332 -1.1918  0.1458  1.8317
  688MPD2    H110178   1.300   2.891  17.066 -0.5395 -2.1333 -0.7750
  688MPD2    H210179   1.049   2.868  17.399  0.3433  1.2558 -0.5986
  688MPD2    H310180   1.129   2.977  17.197  1.3789 -0.0754  0.1484
  688MPD2     N10181   1.436   2.666  17.110  0.2195 -0.1578  0.3918
  688MPD2    H510182   1.458   2.724  17.031  2.0264 -1.1518  0.1479
  688MPD2    N110183   1.148   2.622  17.495 -0.7690 -0.4294 -0.4053
  688MPD2    H710184   1.205   2.540  17.515 -0.1611 -0.3226 -1.7121
  689TMC3    C110185   1.056   2.578   0.017  0.5296 -0.4359  0.0221
  689TMC3    C210186   1.036   2.631   0.144 -0.6907 -0.3984 -0.2030
  689TMC3    C310187   1.051   2.545   0.248 -0.5072  0.2538 -0.8584
  689TMC3    C410188   1.056   2.442  17.684 -0.0587 -0.1517  0.1583
  689TMC3    C510189   1.062   2.360   0.107  1.2291 -0.4217  0.1111
  689TMC3    C610190   1.068   2.407   0.235 -0.2008 -0.6990  0.9294
  689TMC3     C10191   1.057   2.662  17.592  0.1653  0.2588 -0.3031
  689TMC3     O10192   1.000   2.766  17.615 -0.3708 -0.3180  1.0015
  689TMC3     H10193   1.052   2.738   0.149 -1.6056 -0.2413 -0.5723
  689TMC3    H110194   1.055   2.403  17.583  1.6374 -0.1860  0.1452
  689TMC3    H210195   1.062   2.338   0.318  2.6595 -1.6825  0.3480
  689TMC3    C710196   1.062   2.210   0.099 -0.5488 -0.6137 -0.4196
  689TMC3    C810197   1.055   2.607   0.380 -0.4024  0.0283 -0.0775
  689TMC3    O110198   1.083   2.153   0.204  0.0917 -0.0785 -0.3064
  689TMC3    O210199   1.115   2.546   0.469  0.1293  0.6038  0.4936
  690MPD2     C10200   2.879   0.077  15.660 -0.2737  0.1824 -0.2956
  690MPD2    C110201   2.975   4.699  15.657 -0.2635 -0.2605  0.7149
  690MPD2    C210202   3.096   0.003  15.590  0.0136 -0.7987  0.1927
  690MPD2    C310203   3.118   0.125  15.532 -0.1487  0.6049 -0.1052
  690MPD2    C410204   3.016   0.220  15.524  0.0735  0.0595  0.1330
  690MPD2    C510205   2.896   0.190  15.588  0.4387 -0.1861  0.5355
  690MPD2     H10206   3.178   4.653  15.589  0.2881 -0.4449 -3.0799
  690MPD2    H110207   3.021   0.323  15.489 -0.1146  0.4719  1.3138
  690MPD2    H210208   2.783   0.075  15.710  0.2235 -1.1443  0.6026
  690MPD2    H310209   2.818   0.266  15.590  0.7979  0.1593  1.5446
  690MPD2     N10210   3.237   0.139  15.470  0.2084 -0.2310 -0.6340
  690MPD2    H510211   3.310   0.071  15.487  1.0412  1.4149  2.2920
  690MPD2    N110212   2.952   4.573  15.693  1.0164 -0.0365  0.2967
  690MPD2    H710213   3.029   4.507  15.686 -0.2689 -1.4662 -0.4686
  691TMC3    C110214   2.837   4.395  15.787  0.2413 -0.2899 -0.3050
  691TMC3    C210215   2.734   4.381  15.875  0.4907  0.8297  1.2035
  691TMC3    C310216   2.655   4.265  15.865  0.0526 -0.0079 -0.1487
  691TMC3    C410217   2.879   4.288  15.715  0.3889 -0.5486 -0.8268
  691TMC3    C510218   2.812   4.167  15.722 -0.2004 -0.3548  1.0653
  691TMC3    C610219   2.692   4.160  15.779  0.5040 -0.6703 -0.1204
  691TMC3     C10220   2.833   4.530  15.742 -0.3891 -0.6364  1.0480
  691TMC3     O10221   2.726   4.585  15.768 -0.6645  0.6133  0.6248
  691TMC3     H10222   2.719   4.459  15.948 -0.4555  0.4036  1.4650
  691TMC3    H110223   2.961   4.311  15.648 -1.6401  0.1732 -3.0937
  691TMC3    H210224   2.625   4.075  15.782 -1.1490  0.6132 -0.7832
  691TMC3    C710225   2.833   4.087  15.602  0.8921  0.0067  0.3459
  691TMC3    C810226   2.516   4.291  15.888 -0.4500  0.4985 -0.1970
  691TMC3    O110227   2.926   4.125  15.527 -0.0767  0.3533  0.7101
  691TMC3    O210228   2.438   4.200  15.886 -0.2719 -0.3176 -0.1801
  692TMC3    C110229   0.558   1.381  16.090 -0.3006 -0.2440 -0.0763
  692TMC3    C210230   0.628   1.451  16.185  1.2312  0.7669 -0.2675
  692TMC3    C310231   0.674   1.384  16.300 -0.3480  0.4594  0.0867
  692TMC3    C410232   0.554   1.243  16.087  0.1569  0.6511  0.2556
  692TMC3    C510233   0.621   1.173  16.185  0.1920 -0.3096 -0.4656
  692TMC3    C610234   0.678   1.245  16.286  0.1062 -0.1422  0.5803
  692TMC3     C10235   0.461   1.459  16.011 -0.0557 -0.1782 -0.3421
  692TMC3     O10236   0.367   1.394  15.965  0.4376 -0.3210 -0.5787
  692TMC3     H10237   0.609   1.555  16.210  0.6740  0.4105  0.7824
  692TMC3    H110238   0.503   1.187  16.009 -0.9939  0.9427  0.8060
  692TMC3    H210239   0.707   1.201  16.381 -2.1953 -1.4248  0.7095
  692TMC3    C710240   0.636   1.028  16.186 -0.9937  0.5431 -0.8836
  692TMC3    C810241   0.613   1.448  16.417  0.3451  0.6123  0.6385
  692TMC3    O110242   0.700   0.978  16.278  0.4972 -0.1043 -0.3737
  692TMC3    O210243   0.622   1.569  16.431  0.1149  0.3249 -0.5248
  693MPD2     C10244   4.231   3.889  11.098  0.1227  0.7397 -0.0733
  693MPD2    C110245   4.193   3.817  10.987 -0.1239 -0.3623 -0.9880
  693MPD2    C210246   4.288   3.797  10.894  0.0291  0.2282 -0.4213
  693MPD2    C310247   4.425   3.822  10.920  0.4134 -0.0006  0.4505
  693MPD2    C410248   4.465   3.875  11.041 -0.2803  0.1305 -0.3321
  693MPD2    C510249   4.361   3.902  11.131 -0.1065 -0.2239  0.4285
  693MPD2     H10250   4.260   3.752  10.799 -0.7585 -0.2823  0.0515
  693MPD2    H110251   4.568   3.905  11.058  0.8641 -2.3632 -2.8300
  693MPD2    H210252   4.166   3.894  11.185  0.3829  3.2048 -0.0094
  693MPD2    H310253   4.382   3.957  11.222  1.6276 -2.3758  1.3223
  693MPD2     N10254   4.533   3.813  10.835 -0.0536 -0.1133 -0.1776
  693MPD2    H510255   4.621   3.820  10.885 -0.3036 -2.7956  0.6403
  693MPD2    N110256   4.058   3.789  10.971 -0.1063 -0.1971 -0.2366
  693MPD2    H710257   3.992   3.822  11.041 -0.8720  0.6403 -1.3547
  694TMC3    C110258   3.875   3.651  10.909 -0.7374 -0.6276 -0.2197
  694TMC3    C210259   3.799   3.609  10.807  0.3457  0.3792  0.3925
  694TMC3    C310260   3.676   3.553  10.837 -0.0899 -0.3161 -0.4219
  694TMC3    C410261   3.839   3.640  11.042 -0.1828  0.3507 -0.0910
  694TMC3    C510262   3.719   3.571  11.063  0.1829  0.2068  0.0366
  694TMC3    C610263   3.634   3.530  10.965  0.3259  0.7235 -0.3556
  694TMC3     C10264   4.004   3.703  10.881 -0.1144 -0.0301  0.9185
  694TMC3     O10265   4.058   3.652  10.784  0.6123 -0.5408  0.4039
  694TMC3     H10266   3.839   3.598  10.707  0.6181  2.7404  0.2503
  694TMC3    H110267   3.893   3.680  11.127 -0.0884 -0.9065  0.4443
  694TMC3    H210268   3.537   3.486  10.980  0.9551 -0.3791  0.4513
  694TMC3    C710269   3.670   3.559  11.198 -0.3243  0.1716  0.1734
  694TMC3    C810270   3.593   3.491  10.727 -0.3988 -0.2484  0.1377
  694TMC3    O110271   3.691   3.660  11.259 -0.0812 -0.3302 -0.4087
  694TMC3    O210272   3.503   3.409  10.755 -0.0845  0.6440  0.5512
  695MPD2     C10273   0.898   0.656  13.447  0.2642  0.5932  0.0815
  695MPD2    C110274   0.802   0.711  13.540  0.1823 -0.0082  0.1924
  695MPD2    C210275   0.698   0.787  13.488  0.3384  0.1468 -0.5501
  695MPD2    C310276   0.686   0.802  13.348 -0.1444  0.0617 -0.1055
  695MPD2    C410277   0.781   0.753  13.261 -0.5571  0.5935  0.0319
  695MPD2    C510278   0.888   0.677  13.317  0.4708 -0.0773  0.0450
  695MPD2     H10279   0.630   0.834  13.558  0.0254 -1.4648  0.2504
  695MPD2    H110280   0.774   0.763  13.153 -0.3729  1.6215  0.1114
  695MPD2    H210281   0.979   0.593  13.480 -0.4778 -1.3550 -1.8000
  695MPD2    H310282   0.960   0.653  13.240  0.6127  0.0699  0.1329
  695MPD2     N10283   0.561   0.856  13.305  0.2226 -0.3347  0.2116
  695MPD2    H510284   0.494   0.883  13.376  0.1323 -0.8095  0.3066
  695MPD2    N110285   0.807   0.706  13.679  0.1904  0.1655 -0.0555
  695MPD2    H710286   0.734   0.757  13.728  0.7566  1.0934 -0.1771
  696TMC3    C110287   0.415   0.984  13.163 -0.4812  0.4600  0.0832
  696TMC3    C210288   0.305   0.954  13.229 -0.0046 -0.4053  0.0988
  696TMC3    C310289   0.191   1.038  13.220 -0.6890  0.4760 -0.2225
  696TMC3    C410290   0.423   1.101  13.088 -0.3098  0.5132 -0.0219
  696TMC3    C510291   0.317   1.191  13.087 -1.1213 -0.2917  0.7575
  696TMC3    C610292   0.202   1.156  13.158  0.0796 -0.2537 -0.0219
  696TMC3     C10293   0.529   0.894  13.174 -0.2918  0.6548 -0.0978
  696TMC3     O10294   0.584   0.868  13.067  0.0847 -0.7182 -0.1096
  696TMC3     H10295   0.293   0.861  13.283 -1.1398  0.4296  1.3154
  696TMC3    H110296   0.518   1.116  13.040 -1.2980  0.4425 -2.0022
  696TMC3    H210297   0.128   1.235  13.152  0.1406 -0.1066  1.3251
  696TMC3    C710298   0.356   1.332  13.082  0.2266  0.6179 -0.5108
  696TMC3    C810299   0.086   1.026  13.318 -1.0166  0.4344  0.1500
  696TMC3    O110300   0.448   1.358  13.006  0.3822 -0.1703  0.1855
  696TMC3    O210301   0.116   0.956  13.412 -0.0559  0.3215  0.3244
  697MPD2     C10302   4.586   2.639  15.581  0.4627 -0.2105  0.4995
  697MPD2    C110303   4.574   2.618  15.448 -0.2066  0.0952 -0.4099
  697MPD2    C210304   4.590   2.721  15.356  0.0854  0.6897 -0.4566
  697MPD2    C310305   4.605   2.848  15.404  0.7919  0.4795  0.8167
  697MPD2    C410306   4.615   2.870  15.539 -0.2478 -0.7901  0.1437
  697MPD2    C510307   4.597   2.765  15.623  0.1673 -0.4290 -0.5034
  697MPD2     H10308   4.594   2.713  15.248 -0.2945 -2.7779 -0.2049
  697MPD2    H110309   4.646   2.965  15.581 -0.0566 -1.1290  0.7687
  697MPD2    H210310   4.588   2.555  15.649  2.0193 -0.1736  0.4912
  697MPD2    H310311   4.616   2.783  15.728 -0.0537  1.3998 -0.7830
  697MPD2     N10312   4.598   2.955  15.313 -0.2630 -0.1722 -0.3607
  697MPD2    H510313   4.580   2.925  15.218 -1.4111 -2.1724  0.4963
  697MPD2    N110314   4.556   2.489  15.387  0.1382 -0.4937 -0.0475
  697MPD2    H710315   4.580   2.475  15.289 -1.0505 -0.5245 -0.3293
  698TMC3    C110316   4.651   3.164  15.228 -0.1189 -0.0721 -0.5179
  698TMC3    C210317   0.017   3.266  15.243  0.0575  0.3118  0.4280
  698TMC3    C310318   0.081   3.323  15.131  0.3490  0.9061 -0.2077
  698TMC3    C410319   4.631   3.107  15.106 -0.4640  0.4832 -0.4035
  698TMC3    C510320   4.677   3.177  14.998  0.6374  0.4045  0.1478
  698TMC3    C610321   0.048   3.281  15.006  0.4350  0.1471 -0.3409
  698TMC3     C10322   4.641   3.083  15.342  0.3739  0.0344 -0.5854
  698TMC3     O10323   4.696   3.120  15.444 -0.2456 -0.4428  0.2917
  698TMC3     H10324   0.021   3.316  15.339 -1.1967  3.3429 -1.0912
  698TMC3    H110325   4.563   3.026  15.085 -0.1266  0.5872 -1.9135
  698TMC3    H210326   0.088   3.341  14.925  1.2849  0.6921  0.4839
  698TMC3    C710327   4.657   3.112  14.869  0.1967 -0.3171 -0.9045
  698TMC3    C810328   0.180   3.425  15.166  0.7689 -0.1577 -0.6393
  698TMC3    O110329   4.552   3.057  14.853 -0.0834  0.1619  0.2823
  698TMC3    O210330   0.178   3.474  15.281 -0.3232 -0.0633  0.0228
  699TMC3    C110331   4.594   0.789  13.148  0.6658 -0.6091 -0.3157
  699TMC3    C210332   4.649   0.680  13.212 -0.5420 -0.8199 -0.0534
  699TMC3    C310333   4.614   0.654  13.340  0.2530  0.3262 -1.1201
  699TMC3    C410334   4.491   0.870  13.195  0.2538  0.2674  0.0227
  699TMC3    C510335   4.457   0.832  13.323 -0.1106 -0.7704 -0.2578
  699TMC3    C610336   4.516   0.729  13.402  0.3321 -0.0410 -0.2132
  699TMC3     C10337   4.661   0.849  13.037 -0.9986 -0.3374 -0.3005
  699TMC3     O10338   4.627   0.962  13.010  0.1836  0.2750 -0.3260
  699TMC3     H10339   0.001   0.620  13.161  0.1650 -1.9682  2.3374
  699TMC3    H110340   4.450   0.954  13.140 -1.0015  1.2167  2.4055
  699TMC3    H210341   4.487   0.717  13.506  0.2853 -1.5249 -0.3917
  699TMC3    C710342   4.334   0.893  13.368  0.5248 -0.1392 -0.4151
  699TMC3    C810343   4.664   0.541  13.420  0.2193 -0.0248  0.3353
  699TMC3    O110344   4.257   0.932  13.283 -0.3522  0.2529 -0.2074
  699TMC3    O210345   4.635   0.544  13.539  0.3979 -0.3532  0.1102
  700TMC3    C110346   3.736   3.256  17.384  0.4587  0.4289 -0.0876
  700TMC3    C210347   3.804   3.132  17.370  0.8273 -0.7306  0.4392
  700TMC3    C310348   3.937   3.124  17.405  0.5686  0.4492  0.3486
  700TMC3    C410349   3.812   3.370  17.414 -1.0863 -0.2130  0.1614
  700TMC3    C510350   3.941   3.352  17.452  0.2008 -0.9611  0.4068
  700TMC3    C610351   4.002   3.232  17.453 -0.7596  0.1609 -0.0770
  700TMC3     C10352   3.630   3.284  17.284  0.1773  0.5740  0.0148
  700TMC3     O10353   3.565   3.187  17.248 -0.2065 -0.2352 -0.1015
  700TMC3     H10354   3.746   3.040  17.374 -2.0289  0.9759 -2.2132
  700TMC3    H110355   3.766   3.461  17.451 -1.5876  0.0115 -0.9850
  700TMC3    H210356   4.103   3.228  17.491 -1.0393 -0.2723  0.6068
  700TMC3    C710357   4.014   3.471  17.498  0.1147  0.3749 -0.4326
  700TMC3    C810358   4.012   3.010  17.357 -0.3179  0.3288  0.3341
  700TMC3    O110359   4.101   3.444  17.582  0.3398 -0.2152 -0.5715
  700TMC3    O210360   4.133   3.008  17.382 -0.2667  0.0904  0.0825
  701TMC3    C110361   3.903   1.608  15.246 -0.2311  0.5792  0.4317
  701TMC3    C210362   3.956   1.557  15.127 -1.1625 -0.9796 -0.2667
  701TMC3    C310363   4.020   1.648  15.053  0.3515  0.3311  0.3354
  701TMC3    C410364   3.926   1.737  15.290  0.1637  0.4332  0.1220
  701TMC3    C510365   3.985   1.823  15.208  0.0186 -0.9419  0.4600
  701TMC3    C610366   4.032   1.779  15.087  0.1096  0.3253 -0.1129
  701TMC3     C10367   3.813   1.536  15.328 -0.4203 -0.4093 -0.1896
  701TMC3     O10368   3.807   1.574  15.445 -0.3980 -0.0469  0.0364
  701TMC3     H10369   3.933   1.455  15.096  1.1255 -0.3895 -3.8649
  701TMC3    H110370   3.864   1.780  15.367  1.4184 -1.4468  2.1567
  701TMC3    H210371   4.075   1.848  15.015 -0.9195  1.5558  0.4535
  701TMC3    C710372   4.014   1.958  15.254  0.3822  0.0886 -0.5437
  701TMC3    C810373   4.064   1.624  14.922  0.5063 -0.6336  0.1366
  701TMC3    O110374   4.059   2.020  15.160 -1.0480 -0.4626 -0.3438
  701TMC3    O210375   4.149   1.698  14.878 -0.1519  0.0601  0.1433
  702MPD2     C10376   4.250   4.666  10.236 -0.6277 -0.0732 -1.0127
  702MPD2    C110377   4.177   4.720  10.334 -0.4705 -0.3769 -0.2028
  702MPD2    C210378   4.143   0.133  10.322 -0.4065  0.4401 -0.0131
  702MPD2    C310379   4.162   0.207  10.207 -0.2415 -0.1048  0.0407
  702MPD2    C410380   4.245   0.154  10.111  0.8528 -0.7561 -0.6238
  702MPD2    C510381   4.292   0.025  10.130 -0.3815  0.7190  0.0863
  702MPD2     H10382   4.067   0.170  10.390 -2.0738  0.0582 -1.6590
  702MPD2    H110383   4.269   0.213  10.023 -0.0073  0.1385 -0.2526
  702MPD2    H210384   4.280   4.562  10.235 -0.0069  0.1125 -1.8654
  702MPD2    H310385   4.354   4.711  10.049 -0.1006  0.7000  0.3066
  702MPD2     N10386   4.098   0.327  10.176 -0.3501 -0.2085 -0.1424
  702MPD2    H510387   4.104   0.366  10.083 -2.6062  0.2322 -0.1123
  702MPD2    N110388   4.110   4.650  10.440  0.0339  0.0358  0.2434
  702MPD2    H710389   4.046   4.708  10.494  0.9533 -0.3745  1.7610
  703TMC3    C110390   3.962   0.518  10.206 -0.6718 -0.1621  0.0505
  703TMC3    C210391   3.838   0.556  10.255  0.4430 -0.1725 -0.1006
  703TMC3    C310392   3.786   0.671  10.213 -0.2627 -0.3921 -0.3331
  703TMC3    C410393   4.032   0.593  10.117  0.4902  0.4653 -0.1078
  703TMC3    C510394   3.978   0.721  10.094  0.0201 -0.1126  0.3823
  703TMC3    C610395   3.855   0.764  10.132  0.6956  0.1340  0.4521
  703TMC3     C10396   4.016   0.396  10.264  0.1076  0.0414 -0.0829
  703TMC3     O10397   3.975   0.363  10.375  0.1890 -0.1561  0.1508
  703TMC3     H10398   3.794   0.504  10.339  0.9127  1.3005  1.0431
  703TMC3    H110399   4.128   0.561  10.079  1.5374  2.5493  0.8191
  703TMC3    H210400   3.804   0.852  10.094 -0.5179 -0.6211  0.3504
  703TMC3    C710401   4.033   0.793   9.988  0.5018 -0.3421 -0.0037
  703TMC3    C810402   3.676   0.727  10.288  0.0765  1.1308 -0.1918
  703TMC3    O110403   3.953   0.847   9.913  0.2202  0.0110  0.7280
  703TMC3    O210404   3.676   0.851  10.299 -0.0922  0.2634  0.6704
  704TMC3    C110405   0.857   2.588  12.518 -0.9256 -0.5887  0.3195
  704TMC3    C210406   0.972   2.667  12.514  0.1768 -0.5829 -1.1856
  704TMC3    C310407   1.081   2.596  12.554  0.1264 -0.3297 -0.1348
  704TMC3    C410408   0.847   2.463  12.577 -0.0311 -0.0011  0.0197
  704TMC3    C510409   0.959   2.416  12.635  0.2816 -0.0356 -0.8612
  704TMC3    C610410   1.077   2.479  12.623 -0.1888  0.5344  0.3948
  704TMC3     C10411   0.746   2.627  12.441 -0.2388  0.6222  0.4431
  704TMC3     O10412   0.636   2.608  12.489  0.4558  0.7588  0.1325
  704TMC3     H10413   0.979   2.757  12.453 -1.8444  1.4859  1.6277
  704TMC3    H110414   0.761   2.398  12.566 -0.3289  0.7462 -2.2224
  704TMC3    H210415   1.161   2.424  12.664 -1.7635 -1.6878  0.6400
  704TMC3    C710416   0.969   2.275  12.644  0.5685  0.5064  0.1991
  704TMC3    C810417   1.206   2.654  12.549  0.2398 -0.6365 -0.3588
  704TMC3    O110418   1.077   2.222  12.619 -0.0020 -0.3892 -0.5503
  704TMC3    O210419   1.222   2.763  12.602 -0.4424  0.2561  0.2724
  705MPD2     C10420   0.877   0.625  16.605 -0.7882  0.3695 -1.5873
  705MPD2    C110421   0.810   0.699  16.506 -0.0046 -0.2740  0.3512
  705MPD2    C210422   0.681   0.741  16.521  0.2908  0.7158 -0.0102
  705MPD2    C310423   0.613   0.717  16.640 -0.3341  0.2115  0.0780
  705MPD2    C410424   0.678   0.642  16.737 -0.4108 -0.1623  0.3307
  705MPD2    C510425   0.808   0.600  16.722 -0.3416  0.8698  0.3262
  705MPD2     H10426   0.632   0.792  16.439  0.0936 -0.0151 -0.3440
  705MPD2    H110427   0.620   0.621  16.827  0.8567  1.0275  1.4209
  705MPD2    H210428   0.972   0.577  16.585 -1.1939  0.1662 -3.0138
  705MPD2    H310429   0.852   0.540  16.801 -2.1138 -1.3317 -0.3519
  705MPD2     N10430   0.476   0.747  16.663 -0.7319 -0.5093  0.1497
  705MPD2    H510431   0.432   0.745  16.754 -0.5368  1.7813  0.3080
  705MPD2    N110432   0.853   0.699  16.370  0.4107  0.3133  0.1927
  705MPD2    H710433   0.801   0.764  16.311  2.6957  0.6038 -1.5087
  706TMC3    C110434   1.086   0.654  15.967 -0.2289 -0.4360 -0.5291
  706TMC3    C210435   1.026   0.767  15.922 -0.6321  0.5570 -0.4987
  706TMC3    C310436   0.966   0.848  16.013  0.5393 -0.2656 -0.6112
  706TMC3    C410437   1.072   0.618  16.097  0.2386  0.4035 -0.7587
  706TMC3    C510438   0.998   0.696  16.188  0.7740  0.4579  0.6504
  706TMC3    C610439   0.940   0.816  16.142  0.5907 -0.8027  0.0519
  706TMC3     C10440   1.151   0.563  15.876 -0.5377 -0.3817 -0.2787
  706TMC3     O10441   1.227   0.480  15.926  0.4108  0.0260 -0.1747
  706TMC3     H10442   1.061   0.800  15.825 -0.0247  2.3416  0.3320
  706TMC3    H110443   1.130   0.532  16.129 -2.0729 -1.3821 -1.3751
  706TMC3    H210444   0.882   0.884  16.204  0.0096 -0.5936 -0.7112
  706TMC3    C710445   0.972   0.650  16.321  0.2342  0.4691 -0.1044
  706TMC3    C810446   0.961   0.985  15.967 -0.7388 -0.8491 -0.4471
  706TMC3    O110447   1.042   0.561  16.372  0.1127 -0.0750 -0.4980
  706TMC3    O210448   0.956   0.999  15.843  0.3038  0.2627 -0.5020
  707TMC3    C110449   2.541   0.503   1.422 -0.3329  0.0605 -0.1541
  707TMC3    C210450   2.434   0.419   1.437 -0.5846  0.2704  0.9146
  707TMC3    C310451   2.324   0.463   1.493  0.0553  0.1846  0.1733
  707TMC3    C410452   2.522   0.636   1.449  0.1171 -0.2770 -0.1684
  707TMC3    C510453   2.396   0.675   1.493  0.4024 -0.5821  0.3362
  707TMC3    C610454   2.297   0.588   1.524  0.6446  0.1256  0.2343
  707TMC3     C10455   2.667   0.443   1.393  0.4081 -0.5077  0.5819
  707TMC3     O10456   2.663   0.324   1.424  0.0841 -0.1499 -0.4227
  707TMC3     H10457   2.439   0.317   1.401 -1.2046 -0.0430  1.7051
  707TMC3    H110458   2.599   0.710   1.430  0.7402 -1.0541 -0.6763
  707TMC3    H210459   2.203   0.616   1.569  0.6948  1.8490 -0.7248
  707TMC3    C710460   2.386   0.819   1.533 -0.5826  0.0497  0.6437
  707TMC3    C810461   2.268   0.375   1.589 -0.0215 -0.0542  0.1979
  707TMC3    O110462   2.476   0.895   1.502  0.6851  0.1648 -0.2354
  707TMC3    O210463   2.215   0.424   1.690  0.1853  0.1407  0.4073
  708MPD2     C10464   3.737   3.670  13.493 -0.5781 -0.3730  0.7911
  708MPD2    C110465   3.605   3.676  13.520  0.2100  0.0888  0.4308
  708MPD2    C210466   3.560   3.659  13.653  0.1586 -0.1862 -0.8784
  708MPD2    C310467   3.648   3.643  13.759 -0.2088  0.7488  0.0792
  708MPD2    C410468   3.786   3.637  13.723  1.0538 -0.2317 -0.2171
  708MPD2    C510469   3.828   3.668  13.597  0.6579  0.4502 -0.1889
  708MPD2     H10470   3.453   3.670  13.669  0.9675  0.0881  4.0652
  708MPD2    H110471   3.860   3.608  13.798 -0.1674 -2.2455  0.2067
  708MPD2    H210472   3.779   3.693  13.395  0.4352  0.2075  1.3531
  708MPD2    H310473   3.933   3.669  13.569  1.1309  0.2567  1.5500
  708MPD2     N10474   3.611   3.630  13.899  0.5413  0.0179 -0.9826
  708MPD2    H510475   3.690   3.615  13.960 -0.8031 -0.6829  0.5671
  708MPD2    N110476   3.504   3.705  13.417  0.6665  0.0843 -0.0349
  708MPD2    H710477   3.409   3.696  13.451  1.2239  2.8006  2.2399
  709TMC3    C110478   3.409   3.818  13.233 -0.4469  0.6709  0.0263
  709TMC3    C210479   3.423   3.946  13.200  0.2607  0.2080  0.1164
  709TMC3    C310480   3.320   4.028  13.233 -1.2019  0.4675 -0.2404
  709TMC3    C410481   3.292   3.781  13.300  0.2268  0.2284 -0.8920
  709TMC3    C510482   3.196   3.874  13.348  0.2365 -0.8459  0.9516
  709TMC3    C610483   3.208   4.003  13.312  0.9345  0.5562  0.0488
  709TMC3     C10484   3.529   3.753  13.293  0.8443 -1.0019  0.9593
  709TMC3     O10485   3.629   3.763  13.229 -0.2143 -0.0997 -0.1517
  709TMC3     H10486   3.522   3.974  13.165 -1.0753  3.6062 -0.9656
  709TMC3    H110487   3.279   3.674  13.314 -0.3418  0.6132  1.5773
  709TMC3    H210488   3.137   4.070  13.359 -2.1634 -2.7984  0.2068
  709TMC3    C710489   3.163   3.841  13.484 -0.3062  0.0202 -0.0534
  709TMC3    C810490   3.334   4.174  13.217 -0.6061 -0.6334  0.5195
  709TMC3    O110491   3.242   3.763  13.536  0.0207  0.3640 -0.2764
  709TMC3    O210492   3.237   4.245  13.247  0.0666  0.6643 -0.5408
  710TMC3    C110493   4.657   0.464   0.591 -0.5935  0.0624  0.4476
  710TMC3    C210494   4.673   0.490   0.465  0.1874  0.0337 -0.6976
  710TMC3    C310495   0.028   0.397   0.394 -0.8187  0.4658  0.0928
  710TMC3    C410496   4.717   0.358   0.652  0.3168  0.0091  0.3284
  710TMC3    C510497   0.073   0.272   0.585 -0.4026 -0.0188  0.2511
  710TMC3    C610498   0.097   0.289   0.450  0.6886  0.0477 -0.0603
  710TMC3     C10499   4.551   0.517   0.671 -0.1578 -0.2975  0.7517
  710TMC3     O10500   4.514   0.450   0.767  0.1491  0.6348  0.1039
  710TMC3     H10501   4.636   0.577   0.412 -0.5736 -0.3607 -0.8112
  710TMC3    H110502   4.704   0.342   0.758 -2.1855 -1.1667 -0.1252
  710TMC3    H210503   0.135   0.206   0.391 -1.0395 -1.2927  0.7227
  710TMC3    C710504   0.135   0.175   0.671 -0.5674 -1.4347  0.5539
  710TMC3    C810505   0.077   0.426   0.262  0.4817  0.4383 -0.0731
  710TMC3    O110506   0.095   0.171   0.789 -0.2890 -0.0340 -0.1087
  710TMC3    O210507   0.015   0.496   0.188  0.1441  0.2373  0.4241
  711TMC3    C110508   4.521   1.683  14.776 -0.1780 -0.1099  0.8262
  711TMC3    C210509   4.514   1.745  14.901 -0.0242 -0.3157 -0.4428
  711TMC3    C310510   4.631   1.782  14.959 -0.1030  0.1512 -0.6969
  711TMC3    C410511   4.645   1.667  14.713  0.6970 -0.9803  0.1665
  711TMC3    C510512   0.034   1.715  14.777 -0.2436  0.5204  0.7317
  711TMC3    C610513   0.030   1.779  14.892  0.0832  0.3316  0.2159
  711TMC3     C10514   4.446   1.554  14.765  0.1186  0.4437  0.3660
  711TMC3     O10515   4.449   1.492  14.661 -0.2390 -0.2135  0.0335
  711TMC3     H10516   4.420   1.743  14.956  1.3855 -1.7408  1.9007
  711TMC3    H110517   4.642   1.634  14.610  0.7779  1.9895 -0.8075
  711TMC3    H210518   0.117   1.830  14.932 -0.3898  0.7630  0.6921
  711TMC3    C710519   0.130   1.608  14.803 -0.3604  0.9894  0.2569
  711TMC3    C810520   4.630   1.759  15.100 -0.8351 -0.4436  0.4551
  711TMC3    O110521   0.218   1.631  14.886 -0.0464 -0.0583  0.1915
  711TMC3    O210522   4.516   1.767  15.154 -0.3597 -0.3873 -0.4193
  712MPD2     C10523   1.338   2.674  13.829  1.3122 -0.1851 -0.6471
  712MPD2    C110524   1.241   2.692  13.733 -0.5793  0.0251  0.2699
  712MPD2    C210525   1.239   2.813  13.668 -0.4841  0.0927  0.3141
  712MPD2    C310526   1.329   2.914  13.701  0.5150  0.5207 -0.3150
  712MPD2    C410527   1.423   2.895  13.798  0.3784 -0.1613 -0.5026
  712MPD2    C510528   1.429   2.775  13.860  0.3299  0.1447 -0.7840
  712MPD2     H10529   1.172   2.842  13.587 -0.7069  0.6888  0.7089
  712MPD2    H110530   1.499   2.963  13.834 -0.3702  0.5618 -0.2762
  712MPD2    H210531   1.352   2.575  13.872  0.7349  0.1947  0.4224
  712MPD2    H310532   1.503   2.751  13.935 -2.2147 -1.5304  1.1770
  712MPD2     N10533   1.331   3.039  13.639 -0.4352  0.3221 -0.0207
  712MPD2    H510534   1.409   3.102  13.654 -0.5265  0.5891 -0.6620
  712MPD2    N110535   1.152   2.587  13.692 -0.0964 -0.3664 -0.5734
  712MPD2    H710536   1.095   2.608  13.611 -1.7603  0.3195  0.7843
  713TMC3    C110537   1.274   3.213  13.496 -0.4089 -0.1215  0.3415
  713TMC3    C210538   1.397   3.201  13.439 -0.3841  0.3501 -0.0141
  713TMC3    C310539   1.427   3.286  13.335  0.0813 -0.8324 -0.1779
  713TMC3    C410540   1.180   3.306  13.458 -0.0871 -0.1502  0.4955
  713TMC3    C510541   1.206   3.379  13.340 -0.5308  0.1262 -0.4294
  713TMC3    C610542   1.328   3.366  13.280  0.5672 -0.2919 -0.2961
  713TMC3     C10543   1.229   3.093  13.566  0.3352 -0.1529 -0.2263
  713TMC3     O10544   1.112   3.057  13.553  0.3123  0.0203  0.0657
  713TMC3     H10545   1.473   3.129  13.465 -0.0184  0.6319 -0.2901
  713TMC3    H110546   1.086   3.321  13.510  0.2567  0.7315  0.8675
  713TMC3    H210547   1.347   3.415  13.186  0.4179  1.5442  0.6196
  713TMC3    C710548   1.107   3.460  13.270 -0.5423  0.0862  0.5186
  713TMC3    C810549   1.569   3.322  13.315 -0.0630  0.0157  0.5726
  713TMC3    O110550   1.150   3.511  13.167  0.2281 -0.2329  0.1406
  713TMC3    O210551   1.580   3.432  13.260  0.3284  0.6567  0.6719
  714MPD2     C10552   3.117   1.326   1.577  0.0544  0.2661 -0.1782
  714MPD2    C110553   3.163   1.424   1.495 -0.1706  0.2089 -0.1009
  714MPD2    C210554   3.083   1.489   1.406 -0.3996 -0.3006 -0.2255
  714MPD2    C310555   2.944   1.464   1.407  0.2900 -0.0599  0.2343
  714MPD2    C410556   2.891   1.380   1.508 -1.1144  0.0916 -1.0956
  714MPD2    C510557   2.982   1.314   1.588 -0.1081 -0.1131 -0.3903
  714MPD2     H10558   3.132   1.555   1.335 -1.4682 -0.7850 -1.4135
  714MPD2    H110559   2.785   1.363   1.520 -1.1341  1.3506  0.5206
  714MPD2    H210560   3.184   1.262   1.633 -2.9728 -2.3644  0.4649
  714MPD2    H310561   2.956   1.229   1.651 -2.6052 -0.0602 -1.3373
  714MPD2     N10562   2.860   1.542   1.323 -0.0091 -0.5685  0.3691
  714MPD2    H510563   2.917   1.605   1.266  0.5323 -0.3275  1.1735
  714MPD2    N110564   3.304   1.441   1.494  0.1337 -0.1995 -0.3906
  714MPD2    H710565   3.345   1.372   1.556 -1.0219 -0.7404 -0.2140
  715TMC3    C110566   3.515   1.545   1.481 -0.4864 -0.3537  0.0238
  715TMC3    C210567   3.579   1.425   1.497 -0.2430  0.3948  0.3137
  715TMC3    C310568   3.717   1.420   1.490  1.0608 -0.1017  0.0753
  715TMC3    C410569   3.592   1.655   1.466 -0.4314 -0.1386 -0.0185
  715TMC3    C510570   3.729   1.650   1.448 -0.3526  0.0171 -0.3280
  715TMC3    C610571   3.798   1.532   1.467 -0.2595 -0.1415 -0.2544
  715TMC3     C10572   3.369   1.556   1.459  0.1380  0.8666 -0.3020
  715TMC3     O10573   3.323   1.658   1.412 -0.6059  0.6376  0.1713
  715TMC3     H10574   3.517   1.337   1.482  1.3353 -0.7055  0.2729
  715TMC3    H110575   3.535   1.747   1.460  0.2326  0.3017  0.3825
  715TMC3    H210576   3.906   1.526   1.465 -0.1452  2.1081 -1.1072
  715TMC3    C710577   3.802   1.773   1.422  0.3475 -0.2997  0.1276
  715TMC3    C810578   3.779   1.287   1.497 -0.0388 -0.1589 -0.3186
  715TMC3    O110579   3.921   1.758   1.446  0.0815  0.0036 -0.0259
  715TMC3    O210580   3.706   1.204   1.444  0.5237 -0.0642  0.2629
  716MPD2     C10581   3.724   4.254  10.005  0.0571 -0.3025 -0.0742
  716MPD2    C110582   3.813   4.209   9.915  0.7306  0.6037  0.2320
  716MPD2    C210583   3.870   4.085   9.940  0.4133  0.6279 -0.3893
  716MPD2    C310584   3.832   4.011  10.050  0.4523 -0.2457  0.4573
  716MPD2    C410585   3.747   4.068  10.144 -0.2961 -0.2076  0.4008
  716MPD2    C510586   3.690   4.190  10.115  0.2359 -0.1218 -0.3236
  716MPD2     H10587   3.925   4.027   9.866 -1.6928 -1.1347 -0.5832
  716MPD2    H110588   3.722   4.027  10.241  1.3121  0.4485  1.0848
  716MPD2    H210589   3.698   4.359  10.000 -1.5534 -0.7171 -0.3353
  716MPD2    H310590   3.619   4.232  10.186 -1.0621  1.5898 -2.6276
  716MPD2     N10591   3.879   3.879  10.066  0.7158  0.3364  0.1177
  716MPD2    H510592   3.951   3.846  10.003  1.0593 -0.6582  1.0291
  716MPD2    N110593   3.828   4.286   9.799  0.2349  0.8229 -0.3881
  716MPD2    H710594   3.758   4.357   9.781 -1.6641 -0.9868 -0.2514
  717TMC3    C110595   3.848   3.647  10.123 -0.5844  0.8363 -0.3657
  717TMC3    C210596   3.864   3.626   9.988  0.0949  0.1145 -0.3684
  717TMC3    C310597   3.883   3.499   9.940  0.2444  0.0485 -0.3836
  717TMC3    C410598   3.844   3.546  10.209 -0.4916  0.1654 -0.2213
  717TMC3    C510599   3.874   3.420  10.162  0.7379 -0.7595 -0.0990
  717TMC3    C610600   3.888   3.394  10.026 -0.5440  0.3773  0.0636
  717TMC3     C10601   3.825   3.789  10.162  0.1665 -1.1198 -0.2531
  717TMC3     O10602   3.786   3.814  10.275 -0.0535 -0.1286  0.0064
  717TMC3     H10603   3.857   3.704   9.913 -0.1522 -0.2383 -0.7075
  717TMC3    H110604   3.843   3.573  10.314 -0.8624  0.4153 -0.2938
  717TMC3    H210605   3.896   3.291   9.992  0.8914  0.5802 -0.2187
  717TMC3    C710606   3.910   3.314  10.256  0.8742  0.2111  0.0057
  717TMC3    C810607   3.908   3.477   9.793  0.6334  0.9899 -0.5893
  717TMC3    O110608   3.972   3.215  10.218  0.1216 -0.0392 -0.5355
  717TMC3    O210609   3.880   3.575   9.721  0.3379 -0.1295 -0.1282
  718MPD2     C10610   2.439   3.127  12.793  0.4234  0.0555 -0.6116
  718MPD2    C110611   2.344   3.030  12.823  0.0380  0.2054 -0.2781
  718MPD2    C210612   2.392   2.910  12.871 -0.0407  0.3242  0.6740
  718MPD2    C310613   2.529   2.881  12.879 -0.3654 -0.0288 -0.8478
  718MPD2    C410614   2.611   2.975  12.824  0.0275 -0.7248 -0.1433
  718MPD2    C510615   2.571   3.105  12.797  0.0139 -0.3495 -0.2267
  718MPD2     H10616   2.317   2.840  12.906 -0.4735  0.1977 -0.4797
  718MPD2    H110617   2.719   2.973  12.815  0.1905  0.1743  1.5532
  718MPD2    H210618   2.414   3.226  12.757  0.9716 -0.0137 -1.1806
  718MPD2    H310619   2.638   3.182  12.762  1.6452 -1.0478  1.3563
  718MPD2     N10620   2.566   2.760  12.937  0.1197 -0.6543 -0.0153
  718MPD2    H510621   2.492   2.703  12.976 -1.4228  0.2245 -1.6912
  718MPD2    N110622   2.214   3.075  12.805  0.5479  0.5181 -0.1460
  718MPD2    H710623   2.204   3.174  12.789 -0.5319  0.2960 -0.8276
  719TMC3    C110624   1.979   3.071  12.791 -0.7821  0.9418 -0.4204
  719TMC3    C210625   1.933   3.005  12.680 -0.2715 -0.8565 -0.4887
  719TMC3    C310626   1.942   3.074  12.563 -0.5943 -0.5971 -0.3720
  719TMC3    C410627   2.002   3.206  12.789  0.3430 -0.5483  0.1803
  719TMC3    C510628   2.004   3.272  12.672  0.0563 -0.2520 -0.2283
  719TMC3    C610629   1.971   3.204  12.559  0.0131 -0.3854 -0.1083
  719TMC3     C10630   2.103   2.998  12.813 -0.4739 -0.4892 -0.3650
  719TMC3     O10631   2.101   2.879  12.826 -0.2741  0.3345  0.3452
  719TMC3     H10632   1.910   2.899  12.677  3.1208 -1.6790  2.3149
  719TMC3    H110633   2.039   3.264  12.872 -0.9615 -1.0530  1.1233
  719TMC3    H210634   2.003   3.242  12.463 -0.1850 -2.2532 -0.9129
  719TMC3    C710635   2.114   3.371  12.656  0.6484 -0.0837 -0.3844
  719TMC3    C810636   2.010   2.998  12.456  0.4164 -0.5926 -0.1840
  719TMC3    O110637   2.202   3.353  12.743  0.5407 -0.9104 -0.3210
  719TMC3    O210638   1.990   3.030  12.340  0.1785  0.2833 -0.4204
  720MPD2     C10639   1.006   4.549  13.992  0.0082  0.9618  0.5386
  720MPD2    C110640   1.101   4.638  13.957 -0.3127  0.5934  0.0586
  720MPD2    C210641   1.229   4.626  14.010 -0.2868  0.5139  0.3248
  720MPD2    C310642   1.262   4.530  14.104  0.8459  0.4284  0.1178
  720MPD2    C410643   1.159   4.441  14.141  0.2127 -0.4925  0.0933
  720MPD2    C510644   1.037   4.448  14.082  0.0411 -0.1855 -0.0248
  720MPD2     H10645   1.312   4.682  13.970  0.1205  0.3788  0.9753
  720MPD2    H110646   1.171   4.369  14.221  0.8145  1.8340  2.1235
  720MPD2    H210647   0.906   4.550  13.950  0.3873  0.1555 -0.3910
  720MPD2    H310648   0.960   4.381  14.119  0.4062 -0.8170 -0.4240
  720MPD2     N10649   1.393   4.537  14.158  0.4163  0.2342 -0.2751
  720MPD2    H510650   1.458   4.611  14.134  0.2698  0.2358 -0.6633
  720MPD2    N110651   1.069   0.009  13.856 -0.6612 -0.0204  0.2969
  720MPD2    H710652   0.968   0.013  13.844 -0.6913 -0.6132  0.3454
  721TMC3    C110653   1.558   4.504  14.312  0.3301  0.6868  0.0567
  721TMC3    C210654   1.572   4.487  14.448  0.1967  0.2213  0.6465
  721TMC3    C310655   1.687   4.522  14.507 -0.5226 -0.2183  0.1196
  721TMC3    C410656   1.654   4.565  14.236 -0.5789 -0.4104 -0.0350
  721TMC3    C510657   1.769   4.599  14.307  0.2944  0.7680  0.1081
  721TMC3    C610658   1.791   4.575  14.437 -0.3967 -0.4836 -0.4208
  721TMC3     C10659   1.439   4.449  14.254 -0.7433 -0.2360 -0.0425
  721TMC3     O10660   1.383   4.354  14.310 -0.3315  0.7100  0.4850
  721TMC3     H10661   1.508   4.415  14.498  1.2828 -1.8990 -1.0174
  721TMC3    H110662   1.651   4.568  14.128  1.1340 -2.0786 -0.1194
  721TMC3    H210663   1.889   4.562  14.482 -1.9232 -0.0481  3.0530
  721TMC3    C710664   1.876   4.665  14.230  0.5115  0.1488 -0.4446
  721TMC3    C810665   1.719   4.487  14.645  0.0029 -0.4236 -0.2633
  721TMC3    O110666   1.876   4.648  14.108  0.5841  0.1412 -0.6600
  721TMC3    O210667   1.828   4.449  14.675 -0.7068  0.5424 -0.0017
  722MPD2     C10668   4.591   3.093  13.336 -0.6024 -0.0514  0.3759
  722MPD2    C110669   4.559   3.230  13.326  0.2432  0.3319 -1.0457
  722MPD2    C210670   4.439   3.260  13.267  0.1186  0.0331 -0.9761
  722MPD2    C310671   4.352   3.168  13.210  0.4242 -0.0710 -0.3993
  722MPD2    C410672   4.402   3.038  13.198 -0.0915  0.2422  1.0036
  722MPD2    C510673   4.509   3.003  13.269 -0.3266 -0.1764 -0.7423
  722MPD2     H10674   4.416   3.366  13.265  0.2797  0.0459 -2.2063
  722MPD2    H110675   4.365   2.962  13.131  0.4303  0.3632  0.5850
  722MPD2    H210676   4.692   3.063  13.362 -1.2155 -1.9131  0.5607
  722MPD2    H310677   4.535   2.898  13.262  0.8575  0.1476 -1.3211
  722MPD2     N10678   4.228   3.197  13.153 -0.1118  0.5944 -0.7715
  722MPD2    H510679   4.209   3.294  13.131 -1.3897 -0.0329 -2.4723
  722MPD2    N110680   4.639   3.336  13.381 -0.4587 -0.0921 -0.2873
  722MPD2    H710681   4.621   3.430  13.348  0.3459  1.2134  2.9927
  723TMC3    C110682   4.035   3.167  13.024  0.2422  0.1555 -0.0473
  723TMC3    C210683   3.942   3.074  12.983 -0.2612  0.1065 -0.0264
  723TMC3    C310684   3.860   3.104  12.875 -1.0815 -0.2135  0.0371
  723TMC3    C410685   4.049   3.292  12.963  0.0113  0.0140 -0.4060
  723TMC3    C510686   3.952   3.319  12.867  0.4125  0.0593  0.7064
  723TMC3    C610687   3.859   3.230  12.818 -0.1836 -0.2806 -0.5499
  723TMC3     C10688   4.142   3.108  13.105 -0.2693  0.8351 -0.3533
  723TMC3     O10689   4.115   2.996  13.137 -0.2521  0.2596 -0.5555
  723TMC3     H10690   3.929   2.978  13.033 -0.3083  0.5560  0.8224
  723TMC3    H110691   4.122   3.363  13.000 -0.7982  1.7665 -2.1711
  723TMC3    H210692   3.784   3.260  12.745 -1.4530 -0.7790  0.5548
  723TMC3    C710693   3.946   3.442  12.793  0.2210 -0.2074  0.7103
  723TMC3    C810694   3.768   3.010  12.824 -0.1738 -0.3210  0.0382
  723TMC3    O110695   3.889   3.444  12.686  0.3876 -0.2103  0.0519
  723TMC3    O210696   3.668   3.055  12.769  0.0566  0.0647  0.9966
  724TMC3    C110697   0.779   2.320   9.701 -1.1805 -0.2864  0.1674
  724TMC3    C210698   0.735   2.445   9.735  0.2413  0.0066 -0.4689
  724TMC3    C310699   0.825   2.523   9.802  0.1977  0.5186 -0.6763
  724TMC3    C410700   0.911   2.277   9.717  0.0174 -0.2794  0.9495
  724TMC3    C510701   1.000   2.369   9.778 -0.9084 -0.2358  0.1465
  724TMC3    C610702   0.957   2.488   9.833 -0.4045 -0.0268  0.4135
  724TMC3     C10703   0.691   2.223   9.632 -0.8481 -0.4895 -0.4770
  724TMC3     O10704   0.743   2.136   9.562  0.4709 -0.2462  0.5413
  724TMC3     H10705   0.641   2.482   9.697 -0.3141 -1.5285 -0.5939
  724TMC3    H110706   0.954   2.182   9.685 -0.8914 -1.2674  2.6885
  724TMC3    H210707   1.021   2.548   9.896 -2.3411  2.2789  0.1788
  724TMC3    C710708   1.141   2.330   9.772 -0.5057  0.3679  0.4693
  724TMC3    C810709   0.774   2.658   9.824 -0.1815 -0.3264 -0.1974
  724TMC3    O110710   1.158   2.206   9.765  0.2373 -0.7663 -0.3271
  724TMC3    O210711   0.654   2.685   9.812 -0.7611 -0.2637  0.5846
  725TMC3    C110712   1.787   0.182  12.715 -0.5371 -0.7162  0.7396
  725TMC3    C210713   1.674   0.168  12.629  0.4196  0.4917 -0.1455
  725TMC3    C310714   1.654   0.041  12.587  0.6284 -0.6669 -0.0898
  725TMC3    C410715   1.880   0.087  12.730 -0.3898  0.7449  0.0940
  725TMC3    C510716   1.862   4.692  12.664  0.3866 -0.6041  0.2647
  725TMC3    C610717   1.746   4.667  12.600 -0.4610  0.3274  0.5184
  725TMC3     C10718   1.806   0.301  12.791 -0.2608  0.1074  0.5472
  725TMC3     O10719   1.795   0.409  12.734 -0.2673  0.1740  0.9874
  725TMC3     H10720   1.598   0.245  12.626 -0.8594 -0.7246  1.3974
  725TMC3    H110721   1.973   0.110  12.781 -0.6311  2.3517 -0.1965
  725TMC3    H210722   1.727   4.569  12.558  0.3386  0.2654  0.2847
  725TMC3    C710723   1.976   4.634  12.592 -0.1288  0.0231 -0.3629
  725TMC3    C810724   1.599   0.021  12.457 -0.2105  0.2219  0.2766
  725TMC3    O110725   2.063   4.709  12.560 -0.2614 -0.4294 -0.1824
  725TMC3    O210726   1.558   4.634  12.427  0.1151  0.3089  0.1058
  726MPD2     C10727   4.660   2.001  10.844 -0.7650  0.3032  0.3454
  726MPD2    C110728   4.571   1.955  10.751 -0.5369 -0.1898 -0.3564
  726MPD2    C210729   4.444   1.911  10.798  0.4876 -0.6358 -0.1163
  726MPD2    C310730   4.412   1.896  10.935  0.1185  0.1274 -0.7903
  726MPD2    C410731   4.510   1.926  11.022  0.3841 -0.1811 -0.1133
  726MPD2    C510732   4.632   1.975  10.977  0.4073  0.4845  0.4483
  726MPD2     H10733   4.370   1.878  10.726  0.5384  0.3696 -0.6283
  726MPD2    H110734   4.489   1.928  11.129  1.2132 -1.8326  0.0822
  726MPD2    H210735   0.022   2.059  10.807  1.2986 -2.3045  0.8761
  726MPD2    H310736   4.708   2.021  11.039  1.7529 -1.6335  0.3743
  726MPD2     N10737   4.287   1.863  10.988  0.7532  0.3718  0.6464
  726MPD2    H510738   4.266   1.881  11.086 -1.7038 -0.2482  0.2409
  726MPD2    N110739   4.584   1.960  10.615  0.4912  0.1761  0.3318
  726MPD2    H710740   4.498   1.929  10.569 -0.2219  0.4036  1.5125
  727TMC3    C110741   4.662   2.071  10.420  0.3486  0.1937  1.0180
  727TMC3    C210742   0.032   2.163  10.369 -0.3560  0.8753 -0.2420
  727TMC3    C310743   0.007   2.227  10.253 -0.4461 -0.7128  0.5318
  727TMC3    C410744   4.545   2.051  10.351 -0.2991  0.5198 -0.0864
  727TMC3    C510745   4.538   2.096  10.226 -0.1511  0.5738 -0.9304
  727TMC3    C610746   4.634   2.179  10.171 -0.0454 -0.0873 -0.4729
  727TMC3     C10747   4.692   2.015  10.546  0.2297  0.4907 -0.1670
  727TMC3     O10748   0.077   2.045  10.592 -0.3749 -0.4480 -0.3597
  727TMC3     H10749   0.121   2.178  10.429  1.0040  0.5663 -2.2021
  727TMC3    H110750   4.471   1.987  10.399  2.2395 -1.2704  1.4668
  727TMC3    H210751   4.609   2.218  10.073 -2.3740 -2.8132 -0.9820
  727TMC3    C710752   4.425   2.050  10.137  0.2971  0.8983  0.7336
  727TMC3    C810753   0.060   2.361  10.223  0.8201  0.6727  0.5416
  727TMC3    O110754   4.422   2.088  10.023 -0.5439 -0.1133 -0.1337
  727TMC3    O210755   0.147   2.392  10.304  0.3203  0.1886 -0.8895
  728TMC3    C110756   3.382   0.212  15.291 -0.2281 -0.4202 -0.2653
  728TMC3    C210757   3.499   0.194  15.350 -0.8222 -0.6231  0.5721
  728TMC3    C310758   3.615   0.190  15.268 -0.6773  0.3509 -0.5002
  728TMC3    C410759   3.361   0.231  15.156 -0.2263 -0.7378  0.2467
  728TMC3    C510760   3.476   0.227  15.080  0.1862  0.2071  0.2382
  728TMC3    C610761   3.606   0.205  15.134 -0.2517  0.1058  0.3614
  728TMC3     C10762   3.259   0.225  15.364  0.4832 -0.2236 -0.5764
  728TMC3     O10763   3.202   0.327  15.342  0.0242 -0.1144 -0.3735
  728TMC3     H10764   3.508   0.199  15.458  1.0964 -0.4047  0.4117
  728TMC3    H110765   3.264   0.237  15.108  0.3054  1.0971 -0.5915
  728TMC3    H210766   3.690   0.184  15.070  2.0518  3.7000  2.2268
  728TMC3    C710767   3.463   0.235  14.930 -0.7093  0.2269  0.4544
  728TMC3    C810768   3.743   0.177  15.339  0.0532 -0.0034 -0.5867
  728TMC3    O110769   3.348   0.210  14.890  0.1663 -0.5547  0.2269
  728TMC3    O210770   3.728   0.154  15.458  0.0441  0.4367  0.4545
  729MPD2     C10771   1.198   1.581  16.436 -0.5044  0.0214 -0.4369
  729MPD2    C110772   1.293   1.481  16.422  0.1066 -0.0651 -0.4710
  729MPD2    C210773   1.303   1.393  16.520  0.1466 -0.3429  0.5993
  729MPD2    C310774   1.248   1.414  16.641 -0.0982 -0.7612 -0.0916
  729MPD2    C410775   1.158   1.517  16.661  0.7446 -0.0491  0.3824
  729MPD2    C510776   1.128   1.595  16.557  0.1299  0.9679 -0.0181
  729MPD2     H10777   1.374   1.311  16.516 -0.4111 -0.6051 -3.3633
  729MPD2    H110778   1.110   1.514  16.758 -0.2762  1.6600 -0.0697
  729MPD2    H210779   1.167   1.650  16.358 -0.2325  0.4963 -0.1200
  729MPD2    H310780   1.059   1.676  16.576 -0.6668  0.1314  0.6423
  729MPD2     N10781   1.244   1.331  16.755  0.3885 -0.3109 -0.5637
  729MPD2    H510782   1.190   1.363  16.835 -0.3616 -1.9465 -0.4162
  729MPD2    N110783   1.367   1.478  16.305 -0.3277 -0.7439  0.3858
  729MPD2    H710784   1.365   1.566  16.253  0.6627 -1.0555 -0.1795
  730TMC3    C110785   1.313   1.167  16.902  0.3439 -0.0886  0.2100
  730TMC3    C210786   1.448   1.138  16.929  0.2676  0.0422 -0.5815
  730TMC3    C310787   1.513   1.217  17.024 -0.9363  0.3078 -0.2171
  730TMC3    C410788   1.245   1.249  16.985 -0.0278 -0.5799 -0.1607
  730TMC3    C510789   1.303   1.318  17.081  0.4847  0.5587  0.6442
  730TMC3    C610790   1.442   1.311  17.094 -0.2991  0.1228 -0.4377
  730TMC3     C10791   1.303   1.209  16.766  0.5136  0.1295  0.4011
  730TMC3     O10792   1.371   1.143  16.688  0.1374  0.3197  0.3446
  730TMC3     H10793   1.503   1.085  16.851  2.1775  0.0418  0.7682
  730TMC3    H110794   1.139   1.267  16.973  0.3414  0.1329 -2.3364
  730TMC3    H210795   1.506   1.374  17.155 -0.7114  2.0368 -1.9992
  730TMC3    C710796   1.263   1.448  17.080 -0.0745 -0.2215  0.3196
  730TMC3    C810797   1.655   1.229  17.010  0.3333  0.1757 -0.0341
  730TMC3    O110798   1.202   1.494  16.981 -0.6933 -0.4992 -0.1718
  730TMC3    O210799   1.703   1.135  16.952  0.0418  0.4386 -0.0856
  731MPD2     C10800   1.205   4.419  12.103  0.5448 -0.1914 -0.0954
  731MPD2    C110801   1.335   4.403  12.151  0.3567 -0.3704 -0.4906
  731MPD2    C210802   1.358   4.433  12.289  0.3661  0.2807  0.0183
  731MPD2    C310803   1.254   4.469  12.367  0.1917  0.4060  0.9842
  731MPD2    C410804   1.127   4.483  12.315 -0.2764  0.5679 -0.3798
  731MPD2    C510805   1.108   4.469  12.180 -0.1963  0.6409  0.2184
  731MPD2     H10806   1.455   4.440  12.336  0.1985 -0.5720  0.4815
  731MPD2    H110807   1.048   4.520  12.380  2.0356  1.6924  1.7887
  731MPD2    H210808   1.182   4.392  12.001  0.0352 -0.6703  0.1475
  731MPD2    H310809   1.006   4.481  12.145 -0.9767 -3.8637  0.9262
  731MPD2     N10810   1.274   4.508  12.502 -0.6904  0.2726 -0.1794
  731MPD2    H510811   1.368   4.525  12.534  0.1048 -3.0717 -0.8325
  731MPD2    N110812   1.429   4.377  12.051  0.7639 -0.2246 -0.4809
  731MPD2    H710813   1.389   4.360  11.959  1.0434 -2.4343 -0.1941
  732TMC3    C110814   1.613   4.359  11.929 -0.1381  0.3336 -0.4070
  732TMC3    C210815   1.538   4.322  11.822  0.2786  0.3245 -0.0996
  732TMC3    C310816   1.590   4.354  11.695  0.5407 -0.4852  0.5349
  732TMC3    C410817   1.733   4.410  11.909  0.5244  0.4854 -0.3935
  732TMC3    C510818   1.792   4.409  11.779  0.0482 -0.3366 -0.7289
  732TMC3    C610819   1.720   4.389  11.660 -0.2522  0.2555  0.3716
  732TMC3     C10820   1.562   4.359  12.062 -0.0025 -0.0364 -0.0835
  732TMC3     O10821   1.637   4.367  12.160 -0.0924 -0.0162 -0.4646
  732TMC3     H10822   1.446   4.266  11.835  0.3987  0.0356 -0.4979
  732TMC3    H110823   1.788   4.449  11.994  0.8325  0.4425 -0.5711
  732TMC3    H210824   1.757   4.391  11.559  2.5204  0.0971  1.3914
  732TMC3    C710825   1.936   4.408  11.777  0.4897  0.6355  1.0010
  732TMC3    C810826   1.507   4.325  11.580 -0.4155  0.0641  0.3064
  732TMC3    O110827   1.983   4.373  11.882  0.4411  0.6011 -0.7214
  732TMC3    O210828   1.568   4.284  11.484 -0.4992  0.1365  0.9631
  733TMC3    C110829   2.442   2.441  12.938 -0.2014 -0.3954  0.3356
  733TMC3    C210830   2.547   2.517  12.996 -0.2551 -0.6405  0.3568
  733TMC3    C310831   2.649   2.554  12.920 -0.2875 -0.1042  0.0217
  733TMC3    C410832   2.447   2.409  12.804 -0.0270 -1.0903  0.3134
  733TMC3    C510833   2.553   2.452  12.728  0.1879 -0.3335 -0.3134
  733TMC3    C610834   2.653   2.520  12.785 -0.0416  0.0613  0.6186
  733TMC3     C10835   2.306   2.471  12.965 -0.0921  0.6666  0.2497
  733TMC3     O10836   2.242   2.508  12.868  0.4505 -0.0254  0.4648
  733TMC3     H10837   2.535   2.545  13.100 -1.1322  0.5202 -0.0582
  733TMC3    H110838   2.380   2.333  12.765  0.3877 -1.6207  0.6402
  733TMC3    H210839   2.736   2.558  12.725 -1.4712  3.0334  0.4920
  733TMC3    C710840   2.514   2.505  12.603  0.5499 -0.0081  0.2029
  733TMC3    C810841   2.684   2.694  12.933 -0.1990 -0.2607  0.2051
  733TMC3    O110842   2.594   2.522  12.514  0.1452  0.8317 -0.1129
  733TMC3    O210843   2.793   2.732  12.900 -0.9528 -0.0989 -0.3825
  734MPD2     C10844   4.176   0.714  12.335  0.3462  0.2127 -0.4322
  734MPD2    C110845   4.126   0.638  12.235  0.2924  0.6444  0.3554
  734MPD2    C210846   4.177   0.658  12.109 -0.0590  0.0839  0.3279
  734MPD2    C310847   4.273   0.750  12.082  0.7207 -0.1778  0.2542
  734MPD2    C410848   4.326   0.827  12.182  0.2284  1.0746 -0.3970
  734MPD2    C510849   4.274   0.812  12.306  0.7992  0.9050 -0.0900
  734MPD2     H10850   4.140   0.607  12.020  0.5331 -0.6519  0.5108
  734MPD2    H110851   4.403   0.902  12.166  0.0452  1.1186 -1.0776
  734MPD2    H210852   4.130   0.707  12.433 -1.0324 -1.3457 -1.1896
  734MPD2    H310853   4.303   0.893  12.372  0.4299 -0.7817  2.1801
  734MPD2     N10854   4.324   0.744  11.952  0.2356 -0.0151  0.1276
  734MPD2    H510855   4.286   0.663  11.904 -0.2930 -0.3645  1.1436
  734MPD2    N110856   4.027   0.545  12.265  0.5128  0.2022 -0.2077
  734MPD2    H710857   3.999   0.540  12.363 -0.5072  0.0197 -0.5030
  735TMC3    C110858   3.878   0.363  12.215  0.2868  0.4574  0.7395
  735TMC3    C210859   3.804   0.322  12.104  0.0141  0.0667 -0.1841
  735TMC3    C310860   3.823   0.193  12.061 -0.3482 -0.1108 -0.6538
  735TMC3    C410861   3.946   0.274  12.293  0.4147  0.1299 -0.9399
  735TMC3    C510862   3.963   0.146  12.249 -0.1044  0.4253 -0.5546
  735TMC3    C610863   3.904   0.104  12.130  0.0009  0.2039 -0.2179
  735TMC3     C10864   3.965   0.468  12.169 -0.0130  0.3707 -0.5405
  735TMC3     O10865   3.970   0.488  12.046  0.1151  0.2847  0.3287
  735TMC3     H10866   3.748   0.395  12.047 -0.2591  0.8732  1.1398
  735TMC3    H110867   4.016   0.318  12.362 -0.1858 -0.6663  0.1797
  735TMC3    H210868   3.911   0.006  12.084  0.3045  0.0768  0.1011
  735TMC3    C710869   4.088   0.088  12.281 -0.5146 -0.1764 -0.7091
  735TMC3    C810870   3.835   0.177  11.913 -0.5113 -0.2063 -0.0330
  735TMC3    O110871   4.179   0.164  12.306  0.6427 -0.3964  0.7016
  735TMC3    O210872   3.856   0.066  11.868 -0.2252  0.2680 -0.5521
  736MPD2     C10873   4.162   4.440  12.263  0.4408 -0.4239  1.2207
  736MPD2    C110874   4.184   4.577  12.266 -0.1041 -0.1278  0.6718
  736MPD2    C210875   4.315   4.615  12.247  0.4944 -0.2436  0.7904
  736MPD2    C310876   4.422   4.525  12.236  0.1916  0.2150 -0.5099
  736MPD2    C410877   4.388   4.389  12.244 -0.3716  0.1926  0.0237
  736MPD2    C510878   4.262   4.349  12.248  0.7534  0.0282 -0.1431
  736MPD2     H10879   4.336   4.720  12.235  3.4146 -0.7687  1.3739
  736MPD2    H110880   4.463   4.312  12.256  1.5962  2.0375 -0.5916
  736MPD2    H210881   4.062   4.400  12.270  0.1439 -0.0951 -1.1639
  736MPD2    H310882   4.236   4.244  12.250 -1.2048  0.5339  0.3980
  736MPD2     N10883   4.552   4.557  12.211 -0.1636  0.2587 -0.7864
  736MPD2    H510884   4.623   4.486  12.194  0.7989  0.9344  0.4051
  736MPD2    N110885   4.073   4.677  12.268  0.4019  0.0151  0.4119
  736MPD2    H710886   3.977   4.649  12.254  0.3108  0.4739  0.1194
  737TMC3    C110887   4.690   4.705  12.093 -0.7469 -0.2851  0.2842
  737TMC3    C210888   0.004   0.113  12.072 -0.9182 -0.7774  0.4595
  737TMC3    C310889   0.055   0.140  11.948 -0.4487 -0.6459 -0.5219
  737TMC3    C410890   4.707   4.606  11.998  0.3076 -0.2490  0.0397
  737TMC3    C510891   0.037   4.641  11.879  0.2548  0.6056 -0.2412
  737TMC3    C610892   0.067   0.050  11.851 -0.1376  0.0370  0.0263
  737TMC3     C10893   4.601   4.683  12.204  0.0819 -0.0890 -0.0599
  737TMC3     O10894   4.564   0.058  12.267 -0.3385 -0.4638  0.0675
  737TMC3     H10895   4.712   0.199  12.137  0.4948 -1.2052  1.3542
  737TMC3    H110896   4.659   4.509  12.004 -1.1685  0.4447 -0.4303
  737TMC3    H210897   0.117   0.073  11.758 -0.5389  1.8312  0.2675
  737TMC3    C710898   0.029   4.547  11.771  0.8377  0.2123  0.3591
  737TMC3    C810899   0.111   0.273  11.923 -0.0904  0.0644 -0.2573
  737TMC3    O110900   4.681   4.447  11.789  0.1437  0.6628 -0.4267
  737TMC3    O210901   0.161   0.323  12.022  0.1547 -0.2551  0.2910
  738MPD2     C10902   0.453   3.508  15.206  0.0885  0.2980  0.2296
  738MPD2    C110903   0.397   3.511  15.084 -0.0034  0.3228  0.0944
  738MPD2    C210904   0.455   3.569  14.975  0.6490  0.0590 -0.5266
  738MPD2    C310905   0.581   3.626  14.987  0.4840  0.3534  0.0022
  738MPD2    C410906   0.649   3.608  15.111 -0.2862  0.0173 -0.0173
  738MPD2    C510907   0.581   3.551  15.220  1.0512 -0.7395 -0.1310
  738MPD2     H10908   0.394   3.577  14.885 -1.5769 -1.2093  0.8791
  738MPD2    H110909   0.749   3.646  15.130  0.3549 -0.9160 -1.5580
  738MPD2    H210910   0.410   3.464  15.295  0.2468 -2.6889 -1.1814
  738MPD2    H310911   0.618   3.554  15.321 -0.4810  1.2470  0.3785
  738MPD2     N10912   0.641   3.699  14.884 -0.3139  0.0278 -0.0625
  738MPD2    H510913   0.738   3.722  14.906 -0.7682  0.7495  1.1684
  738MPD2    N110914   0.271   3.450  15.064  1.0123 -0.4147 -0.7341
  738MPD2    H710915   0.251   3.427  14.967  0.2955 -1.4078 -0.3492
  739TMC3    C110916   0.692   3.821  14.688  0.1443 -0.6342 -0.0926
  739TMC3    C210917   0.680   3.803  14.552  0.1841 -0.4316 -0.7444
  739TMC3    C310918   0.776   3.872  14.481 -0.7780 -1.4050  0.1560
  739TMC3    C410919   0.782   3.898  14.751  0.3385  0.4535 -0.3712
  739TMC3    C510920   0.875   3.957  14.673  0.6957 -0.4570  0.2107
  739TMC3    C610921   0.866   3.953  14.538  0.1986 -0.2870 -0.0099
  739TMC3     C10922   0.598   3.737  14.764  0.2225 -0.5872  0.0759
  739TMC3     O10923   0.483   3.733  14.724 -0.0365  0.0879 -0.0659
  739TMC3     H10924   0.618   3.725  14.508 -0.2119 -0.6749  0.2296
  739TMC3    H110925   0.791   3.899  14.859  1.6667  0.9727 -0.4813
  739TMC3    H210926   0.947   3.986  14.474 -0.6906 -1.7870 -1.9042
  739TMC3    C710927   1.005   3.994  14.731 -0.5255  0.2986  0.1912
  739TMC3    C810928   0.746   3.883  14.343 -0.3792 -0.0310  0.3253
  739TMC3    O110929   1.021   3.946  14.844 -0.1347  0.0084 -0.2383
  739TMC3    O210930   0.629   3.855  14.323 -0.1691 -0.7445 -0.2782
  740TMC3    C110931   1.150   0.231  14.329 -1.4930 -0.2837 -0.0220
  740TMC3    C210932   1.164   0.163  14.451  0.1688 -0.5575  0.3064
  740TMC3    C310933   1.286   0.107  14.467  0.9375 -0.0780  0.7286
  740TMC3    C410934   1.248   0.234  14.230 -0.5669 -0.2688  0.2300
  740TMC3    C510935   1.350   0.152  14.241  0.1494  0.3178  0.8795
  740TMC3    C610936   1.373   0.099  14.362  1.2915  0.0849 -0.8570
  740TMC3     C10937   1.016   0.261  14.270 -0.5375 -0.7296  0.1074
  740TMC3     O10938   1.015   0.277  14.146  0.1483  0.0568 -0.4134
  740TMC3     H10939   1.083   0.143  14.520  1.7797  0.7487  2.5738
  740TMC3    H110940   1.225   0.274  14.132  1.4455 -0.4361 -0.2966
  740TMC3    H210941   1.456   0.029  14.376  0.1757 -1.0387  0.1926
  740TMC3    C710942   1.453   0.160  14.143 -0.3424  0.7222 -0.0826
  740TMC3    C810943   1.339   0.062  14.599  0.7610  0.1732  0.1245
  740TMC3    O110944   1.539   0.080  14.171  0.7834 -0.0394 -0.4451
  740TMC3    O210945   1.443   4.722  14.603 -0.5817 -0.2434  0.7525
  741TMC3    C110946   0.509   4.187  14.327  0.0624  0.5587 -0.0738
  741TMC3    C210947   0.407   4.104  14.283  0.4800 -0.2365 -0.6169
  741TMC3    C310948   0.354   4.019  14.373  0.1525 -0.6382 -0.5084
  741TMC3    C410949   0.562   4.191  14.450 -1.1381  0.8333  0.4292
  741TMC3    C510950   0.502   4.109  14.541 -0.4342  0.6975  0.4853
  741TMC3    C610951   0.403   4.024  14.500 -0.1170  0.1945 -1.0980
  741TMC3     C10952   0.587   4.246  14.216  0.3145  0.8837 -0.3680
  741TMC3     O10953   0.708   4.268  14.235  0.1944 -0.7904  0.0813
  741TMC3     H10954   0.388   4.088  14.177  2.1434 -1.6876 -0.6889
  741TMC3    H110955   0.644   4.258  14.469  0.3973 -0.8655 -0.1748
  741TMC3    H210956   0.367   3.948  14.568  1.2934  1.1807  0.7364
  741TMC3    C710957   0.530   4.133  14.679  0.6176  0.9313  0.5316
  741TMC3    C810958   0.280   3.901  14.331 -0.6226  0.3715 -0.6305
  741TMC3    O110959   0.623   4.205  14.705  0.3288  0.4409 -0.2727
  741TMC3    O210960   0.277   3.808  14.407 -0.0148  0.4648  0.3574
  742TMC3    C110961   0.569   2.773  15.409 -0.1405  0.1788  0.3766
  742TMC3    C210962   0.488   2.755  15.304  0.4309 -0.2051  0.3170
  742TMC3    C310963   0.537   2.763  15.180  0.8094 -0.7343 -0.5702
  742TMC3    C410964   0.699   2.809  15.389 -0.0182 -0.1526 -0.1241
  742TMC3    C510965   0.749   2.806  15.263  0.6226  0.4281  0.7854
  742TMC3    C610966   0.666   2.782  15.154  0.2990  1.3070 -0.4317
  742TMC3     C10967   0.535   2.736  15.544  0.1139  0.6470  0.5296
  742TMC3     O10968   0.624   2.708  15.624 -0.2141  0.0641  0.2526
  742TMC3     H10969   0.398   2.697  15.317 -2.0043  3.0052 -2.1224
  742TMC3    H110970   0.757   2.814  15.480 -0.8076  3.8111  0.1240
  742TMC3    H210971   0.715   2.768  15.058 -1.9940  0.7992 -1.5246
  742TMC3    C710972   0.882   2.754  15.251 -0.1015  0.4485  0.0844
  742TMC3    C810973   0.446   2.734  15.068  0.7760  0.3927 -0.1355
  742TMC3    O110974   0.893   2.636  15.218 -0.1677  0.1048  0.0757
  742TMC3    O210975   0.501   2.676  14.973  0.0908  0.2786  1.1595
  743MPD2     C10976   2.579   4.088   1.954 -0.2281  0.0811  0.4673
  743MPD2    C110977   2.530   4.009   1.851 -0.9136 -0.5799  0.0293
  743MPD2    C210978   2.564   3.879   1.856 -0.8055 -0.7277  0.3169
  743MPD2    C310979   2.661   3.833   1.943 -0.8358  0.2473  0.1860
  743MPD2    C410980   2.709   3.911   2.043 -0.4832  0.0102 -0.1783
  743MPD2    C510981   2.664   4.040   2.054  0.3557 -0.1110 -0.1590
  743MPD2     H10982   2.522   3.817   1.778  0.3766 -0.4432 -0.5459
  743MPD2    H110983   2.782   3.886   2.119 -0.7796  0.7768  0.3625
  743MPD2    H210984   2.561   4.194   1.944 -0.5222  0.2438  2.6617
  743MPD2    H310985   2.712   4.108   2.123 -0.1077  0.4276 -0.3605
  743MPD2     N10986   2.716   3.705   1.912  0.3766 -0.6478  0.5804
  743MPD2    H510987   2.672   3.648   1.840 -0.4697  0.3995  0.2631
  743MPD2    N110988   2.467   4.074   1.742  0.1388 -0.1295 -0.2167
  743MPD2    H710989   2.450   4.174   1.746  1.7629  0.2542 -3.0448
  744TMC3    C110990   2.386   4.109   1.519 -0.6960  0.5179  0.5748
  744TMC3    C210991   2.334   4.233   1.548 -0.0937  0.0711  0.1012
  744TMC3    C310992   2.318   4.320   1.447  0.2024  0.1966  0.1093
  744TMC3    C410993   2.414   4.073   1.386  0.3600  0.1085 -0.3056
  744TMC3    C510994   2.399   4.166   1.288  0.1199 -0.1101 -0.4263
  744TMC3    C610995   2.350   4.289   1.321  0.3256 -0.2235  0.1575
  744TMC3     C10996   2.437   4.015   1.628  0.6318  0.5870  0.2135
  744TMC3     O10997   2.472   3.907   1.591 -0.4188  0.4129  0.0032
  744TMC3     H10998   2.321   4.255   1.653 -0.5125  1.0504 -0.1600
  744TMC3    H110999   2.476   3.987   1.360 -1.5498 -1.9264  1.8390
  744TMC3    H211000   2.361   4.353   1.234 -1.2694  0.5505  0.5172
  744TMC3    C711001   2.429   4.134   1.153 -0.3760 -0.3860 -0.0343
  744TMC3    C811002   2.294   4.460   1.472  0.1222 -0.6594 -0.1593
  744TMC3    O111003   2.470   4.233   1.088 -0.1221  0.5290 -0.2835
  744TMC3    O211004   2.325   4.539   1.382 -0.3636  0.3667 -0.5367
  745TMC3    C111005   1.051   2.369  13.678  0.6969 -0.0474  0.1307
  745TMC3    C211006   0.970   2.293  13.753  0.0964  0.0431 -0.5626
  745TMC3    C311007   0.837   2.295  13.712 -0.0878  0.0822  0.4841
  745TMC3    C411008   1.020   2.412  13.551 -0.4171 -0.1352  0.1610
  745TMC3    C511009   0.897   2.372  13.502 -0.0076  0.7221 -0.5050
  745TMC3    C611010   0.802   2.318  13.581 -0.4934  0.4506 -0.2174
  745TMC3     C11011   1.136   2.457  13.754  0.6260 -0.2316 -0.0196
  745TMC3     O11012   1.183   2.410  13.854  0.0414  0.2176  1.0011
  745TMC3     H11013   0.994   2.276  13.857  0.2248  0.5883 -0.5030
  745TMC3    H111014   1.088   2.474  13.493 -0.0671  1.4445  2.2860
  745TMC3    H211015   0.702   2.302  13.543 -0.3398 -1.1894  0.0885
  745TMC3    C711016   0.857   2.453  13.387  0.4907 -0.1671 -0.0631
  745TMC3    C811017   0.777   2.400  13.793  0.1439 -0.4550 -0.3236
  745TMC3    O111018   0.736   2.467  13.377 -0.2399 -0.3858 -0.3747
  745TMC3    O211019   0.832   2.429  13.899  0.0473 -0.3976 -0.3056
  746TMC3    C111020   3.778   4.506  10.607 -0.7331  0.7154  0.0013
  746TMC3    C211021   3.887   4.545  10.531  0.5118  0.1211  0.3986
  746TMC3    C311022   3.993   4.469  10.529 -0.6510 -0.4285  0.1314
  746TMC3    C411023   3.779   4.400  10.691  0.8082 -0.5047  0.0460
  746TMC3    C511024   3.895   4.324  10.688  0.2156 -0.0887  0.2470
  746TMC3    C611025   4.003   4.353  10.611  0.4087  0.7223  0.9066
  746TMC3     C11026   3.677   4.603  10.635 -0.4564 -0.0988 -0.0369
  746TMC3     O11027   3.598   4.576  10.727  0.0371 -0.3840 -0.4632
  746TMC3     H11028   3.875   4.607  10.443 -1.8383  1.1477  1.4289
  746TMC3    H111029   3.691   4.373  10.748  2.5980 -1.8447  2.1717
  746TMC3    H211030   4.096   4.298  10.617  0.0128 -0.1385 -0.9563
  746TMC3    C711031   3.880   4.192  10.755 -0.4633  0.0772 -0.0988
  746TMC3    C811032   4.107   4.512  10.454 -0.1060 -1.1308  0.3062
  746TMC3    O111033   3.971   4.146  10.824 -0.4127  0.4233  0.1721
  746TMC3    O211034   4.182   4.431  10.405 -0.0734 -0.1030 -0.1144
  747TMC3    C111035   0.391   0.191  10.889  0.6490 -0.6083  0.7066
  747TMC3    C211036   0.291   0.120  10.945 -0.0365 -0.4511 -0.0507
  747TMC3    C311037   0.330   0.025  11.035 -0.3387  0.4087 -0.5240
  747TMC3    C411038   0.523   0.183  10.927  0.4227  0.4341  0.2674
  747TMC3    C511039   0.560   0.096  11.027 -0.8699 -0.2127  0.1679
  747TMC3    C611040   0.459   0.022  11.085 -1.3725 -0.2704  0.4674
  747TMC3     C11041   0.372   0.250  10.761 -0.2964 -0.0352 -1.7468
  747TMC3     O11042   0.461   0.330  10.726 -0.2469  0.1236  0.3535
  747TMC3     H11043   0.189   0.126  10.908  0.2434 -0.5768 -0.8401
  747TMC3    H111044   0.605   0.234  10.878  1.9003 -0.4889  1.7654
  747TMC3    H211045   0.489   4.666  11.153 -2.1268 -0.5453  0.4888
  747TMC3    C711046   0.700   0.057  11.033  0.3575  0.8267 -0.3022
  747TMC3    C811047   0.227   4.656  11.093  0.7571  0.2303 -0.4568
  747TMC3    O111048   0.787   0.140  11.026  0.0164 -0.0079  0.1426
  747TMC3    O211049   0.123   4.652  11.034 -0.1975 -0.1156 -0.7466
  748MPD2     C11050   1.956   0.699   2.132  0.4026  0.8558 -0.5193
  748MPD2    C111051   1.972   0.567   2.114  0.1414  0.6393 -0.0105
  748MPD2    C211052   2.084   0.516   2.045  0.4584  0.7254  0.1716
  748MPD2    C311053   2.185   0.603   1.995 -0.4108 -0.4546  0.2584
  748MPD2    C411054   2.165   0.740   2.020 -0.1002  0.6109 -0.1814
  748MPD2    C511055   2.055   0.788   2.086 -0.6586  0.4237  0.1645
  748MPD2     H11056   2.096   0.409   2.033 -1.0726  0.5287  0.4832
  748MPD2    H111057   2.238   0.811   1.982  0.2754  1.0928  1.4740
  748MPD2    H211058   1.875   0.735   2.193  0.2785  1.5209 -1.0792
  748MPD2    H311059   2.062   0.891   2.117  2.8194  0.6491 -1.3864
  748MPD2     N11060   2.304   0.555   1.932 -0.3396 -0.1402 -0.0206
  748MPD2    H511061   2.315   0.454   1.919  3.6992  0.3681 -0.5823
  748MPD2    N111062   1.883   0.490   2.188  0.1725  0.5019 -0.3732
  748MPD2    H711063   1.803   0.541   2.224  1.4241  1.6537  0.7415
  749TMC3    C111064   2.524   0.564   1.839  0.3573 -0.0675 -0.0077
  749TMC3    C211065   2.523   0.427   1.830 -0.1877 -0.1581  0.6081
  749TMC3    C311066   2.633   0.367   1.769  0.2827  0.0939  0.2060
  749TMC3    C411067   2.627   0.640   1.794  0.1272 -0.7219 -0.0859
  749TMC3    C511068   2.725   0.576   1.728  0.2514  0.1140  0.3205
  749TMC3    C611069   2.733   0.437   1.712  0.2711 -0.7082  1.0013
  749TMC3     C11070   2.410   0.633   1.894 -0.1285  0.0372  0.7590
  749TMC3     O11071   2.429   0.752   1.899 -0.4033 -0.4869  0.3396
  749TMC3     H11072   2.448   0.364   1.877 -1.7124 -0.3089 -2.0485
  749TMC3    H111073   2.634   0.747   1.811 -0.9843 -0.8433  1.1329
  749TMC3    H211074   2.806   0.388   1.649 -0.9526 -1.5559  0.2176
  749TMC3    C711075   2.821   0.658   1.667  0.3333 -0.4091 -0.0148
  749TMC3    C811076   2.618   0.225   1.764 -1.2670  0.1058  0.0379
  749TMC3    O111077   2.794   0.776   1.647  0.2565  0.1715  0.1794
  749TMC3    O211078   2.508   0.178   1.783 -0.8197 -0.0455  0.0377
  750MPD2     C11079   3.527   1.521  11.561  0.4065 -0.1917  0.1813
  750MPD2    C111080   3.418   1.509  11.476  0.9725 -0.0289  0.1160
  750MPD2    C211081   3.422   1.418  11.379  0.6011 -0.2261  0.0541
  750MPD2    C311082   3.534   1.346  11.346 -0.4322 -0.4256  0.0886
  750MPD2    C411083   3.639   1.361  11.435 -0.1977 -0.1415  0.9360
  750MPD2    C511084   3.636   1.455  11.532 -1.1625 -0.6135 -0.2974
  750MPD2     H11085   3.339   1.425  11.309 -2.3890 -0.4447  3.5964
  750MPD2    H111086   3.735   1.313  11.418  1.1623  2.6403  0.7427
  750MPD2    H211087   3.522   1.601  11.633 -0.5256 -0.5544  0.5224
  750MPD2    H311088   3.724   1.477  11.592 -0.7474  0.6217 -1.3712
  750MPD2     N11089   3.538   1.227  11.261 -0.0428  0.2554  0.2899
  750MPD2    H511090   3.630   1.189  11.243  0.1073  1.0013 -0.4804
  750MPD2    N111091   3.308   1.586  11.509 -0.3453  0.8171  0.6085
  750MPD2    H711092   3.327   1.642  11.592 -0.0366  1.9519 -0.2385
  751TMC3    C111093   3.443   1.052  11.131 -0.2591 -0.3834  0.3115
  751TMC3    C211094   3.339   0.970  11.117  0.0573 -0.3762  0.0547
  751TMC3    C311095   3.356   0.856  11.043 -0.0515  0.1701  0.0524
  751TMC3    C411096   3.559   1.042  11.056  0.5529  0.0690 -0.3646
  751TMC3    C511097   3.574   0.930  10.977 -0.4237  0.2388 -0.3212
  751TMC3    C611098   3.474   0.830  10.983  1.0812  1.2690  0.4370
  751TMC3     C11099   3.426   1.167  11.217 -0.4313 -0.2763 -0.5694
  751TMC3     O11100   3.314   1.195  11.252 -0.6472 -0.4320 -0.4647
  751TMC3     H11101   3.252   0.993  11.177 -0.5757 -2.9410  0.1244
  751TMC3    H111102   3.634   1.119  11.042 -1.4606  1.6985 -2.1943
  751TMC3    H211103   3.476   0.746  10.915  1.8134  1.3128  0.4073
  751TMC3    C711104   3.686   0.922  10.880  0.2393  0.2310  0.5251
  751TMC3    C811105   3.235   0.800  10.995  0.0921  0.0488 -0.5753
  751TMC3    O111106   3.755   1.020  10.860 -0.2897 -0.0730 -0.4329
  751TMC3    O211107   3.232   0.770  10.874 -0.3511  0.6158 -0.5374
  752TMC3    C111108   2.209   1.030  16.901 -0.4619  0.2126 -0.2957
  752TMC3    C211109   2.091   0.973  16.934 -0.0864 -0.4855 -0.0835
  752TMC3    C311110   2.039   1.001  17.057  0.0483 -0.5259 -0.0109
  752TMC3    C411111   2.269   1.123  16.977 -0.5789 -0.7183 -0.0634
  752TMC3    C511112   2.215   1.144  17.105 -0.3938  0.2446 -0.4249
  752TMC3    C611113   2.092   1.092  17.139  0.2398  0.9223 -0.1663
  752TMC3     C11114   2.256   1.030  16.769  0.7612  0.8144 -0.1566
  752TMC3     O11115   2.377   1.041  16.756 -0.0909  0.3000 -0.6144
  752TMC3     H11116   2.040   0.912  16.860  0.5290 -0.4607 -0.5226
  752TMC3    H111117   2.368   1.156  16.948 -0.5914  0.7714  1.5884
  752TMC3    H211118   2.064   1.097  17.244 -1.4453 -2.2556 -0.4735
  752TMC3    C711119   2.247   1.270  17.177 -0.3970  0.2215  0.4876
  752TMC3    C811120   1.908   0.945  17.080  0.2727  0.1734 -0.5109
  752TMC3    O111121   2.202   1.281  17.291 -0.0252  0.1243 -0.1342
  752TMC3    O211122   1.857   0.884  16.988 -0.0639  0.4195  0.1597
  753TMC3    C111123   3.951   2.432  13.257 -0.8131 -0.0941  0.0037
  753TMC3    C211124   4.051   2.395  13.345  1.0132  0.4409 -0.9759
  753TMC3    C311125   4.084   2.264  13.361 -0.3922  0.0945  0.1012
  753TMC3    C411126   3.885   2.340  13.179 -0.5181 -0.4723  0.2379
  753TMC3    C511127   3.918   2.206  13.204 -1.0754  0.7079 -0.3520
  753TMC3    C611128   4.011   2.170  13.299 -0.2843  0.0525  0.0718
  753TMC3     C11129   3.924   2.577  13.253  0.6553  0.2308 -0.0793
  753TMC3     O11130   3.995   2.651  13.315 -0.1187  0.1975 -0.1073
  753TMC3     H11131   4.107   2.472  13.395  1.4201  0.1671 -1.0070
  753TMC3    H111132   3.815   2.358  13.098 -1.5011 -0.6653  1.0419
  753TMC3    H211133   4.038   2.069  13.326  2.5201  0.0601 -2.7520
  753TMC3    C711134   3.824   2.109  13.153 -0.2238 -0.4444 -0.0109
  753TMC3    C811135   4.195   2.220  13.447 -0.9890 -0.8151  0.2145
  753TMC3    O111136   3.720   2.156  13.103 -0.2198 -0.2288  0.1318
  753TMC3    O211137   4.250   2.115  13.425 -0.2318  0.5111  0.0405
  754MPD2     C11138   2.934   0.893  12.919 -0.3123 -0.3073 -0.3544
  754MPD2    C111139   2.873   0.856  13.032  0.0313  0.7285 -0.1932
  754MPD2    C211140   2.741   0.873  13.047 -0.3603  0.0012  0.5537
  754MPD2    C311141   2.672   0.928  12.941  0.5147 -0.4529  0.4647
  754MPD2    C411142   2.734   0.948  12.819  0.0542 -0.2412 -0.0187
  754MPD2    C511143   2.865   0.931  12.817  0.5617  0.5442 -0.7286
  754MPD2     H11144   2.684   0.840  13.133 -0.7470 -1.4211 -0.2590
  754MPD2    H111145   2.694   1.009  12.739  2.0259 -0.8610 -1.4861
  754MPD2    H211146   3.041   0.872  12.917 -0.7935 -2.6138 -2.8154
  754MPD2    H311147   2.915   0.953  12.723 -1.2882 -1.0217 -2.0765
  754MPD2     N11148   2.534   0.948  12.940 -0.4631  0.0870  0.5792
  754MPD2    H511149   2.490   0.962  12.850  1.5205 -1.3877 -0.6181
  754MPD2    N111150   2.949   0.794  13.139 -0.0057 -0.1953 -0.6123
  754MPD2    H711151   3.045   0.770  13.116 -0.1870 -0.3766 -1.1614
  755MPD2     C11152   1.584   1.401  13.268  0.5536 -0.4482  0.0962
  755MPD2    C111153   1.705   1.393  13.332 -0.3396 -0.0090 -0.6591
  755MPD2    C211154   1.811   1.319  13.284 -0.5506  0.2600  0.1377
  755MPD2    C311155   1.804   1.256  13.162 -0.0247  0.4701 -0.3762
  755MPD2    C411156   1.686   1.272  13.092  0.5415  0.1373 -0.2187
  755MPD2    C511157   1.576   1.336  13.148  0.6770  0.1020  0.0982
  755MPD2     H11158   1.903   1.305  13.339 -1.7318 -2.4977  1.4366
  755MPD2    H111159   1.689   1.223  12.995 -0.6579 -3.0965  1.3609
  755MPD2    H211160   1.492   1.443  13.307 -0.0175 -1.1481 -0.5026
  755MPD2    H311161   1.479   1.336  13.098  1.0015  1.6678 -0.5258
  755MPD2     N11162   1.897   1.166  13.119  0.9291  0.4320 -0.6642
  755MPD2    H511163   1.874   1.117  13.033 -0.2774 -1.4740  0.7398
  755MPD2    N111164   1.725   1.458  13.454  0.7566 -0.0789  0.7442
  755MPD2    H711165   1.812   1.436  13.501  1.1029  1.7705  0.9777
  756MPD2     C11166   3.309   2.148   9.604 -0.4000 -0.5833  0.0146
  756MPD2    C111167   3.283   2.031   9.679 -0.0296  0.0797  0.8188
  756MPD2    C211168   3.164   1.961   9.661  0.0907 -0.1370  0.5333
  756MPD2    C311169   3.079   1.986   9.556  0.0069  0.2880  0.1179
  756MPD2    C411170   3.099   2.101   9.481  0.3421  1.1738 -0.5950
  756MPD2    C511171   3.210   2.185   9.508 -1.4470  0.0225 -0.3527
  756MPD2     H11172   3.147   1.876   9.727  0.1736 -1.9880 -1.7876
  756MPD2    H111173   3.035   2.134   9.400 -2.5449 -1.0762  0.7934
  756MPD2    H211174   3.395   2.214   9.609  0.0521 -1.1713 -0.0742
  756MPD2    H311175   3.222   2.274   9.447 -1.9176  0.4439  0.1798
  756MPD2     N11176   2.971   1.899   9.547 -0.0128  0.1416 -0.0736
  756MPD2    H511177   2.968   1.814   9.602 -1.0974 -0.2982 -0.8162
  756MPD2    N111178   3.361   2.005   9.788 -0.0565 -0.5336  0.5326
  756MPD2    H711179   3.329   1.919   9.831 -1.7781 -1.1392 -1.9679
  757MPD2     C11180   2.598   0.980   9.494 -0.8725 -0.0949 -0.0859
  757MPD2    C111181   2.478   1.041   9.508 -0.6647 -0.7006 -0.0661
  757MPD2    C211182   2.481   1.178   9.504  0.1797 -0.2997  0.3613
  757MPD2    C311183   2.603   1.252   9.513  0.0452 -0.4686  0.0877
  757MPD2    C411184   2.725   1.180   9.516  0.3152  0.2445 -0.5630
  757MPD2    C511185   2.718   1.043   9.515 -0.3232 -0.4845 -1.0157
  757MPD2     H11186   2.387   1.232   9.509 -0.8973 -2.3047  1.7122
  757MPD2    H111187   2.827   1.218   9.516  0.0799  0.8717 -1.0413
  757MPD2    H211188   2.588   0.872   9.488  1.0558 -0.1961 -1.2943
  757MPD2    H311189   2.806   0.983   9.495  0.2896  0.5425 -1.3599
  757MPD2     N11190   2.597   1.395   9.498 -0.0156 -0.1376  0.2837
  757MPD2    H511191   2.503   1.428   9.480  0.1622  2.2641  3.6612
  757MPD2    N111192   2.362   0.963   9.517  0.3788  0.7096 -0.1305
  757MPD2    H711193   2.382   0.866   9.539 -2.2550  0.1664 -0.1144
  758MPD2     C11194   3.100   0.703  15.893  0.3948 -1.0159  0.2205
  758MPD2    C111195   3.197   0.631  15.949 -0.4695 -0.2424  0.9927
  758MPD2    C211196   3.247   0.684  16.072 -0.3374 -0.1151 -0.4690
  758MPD2    C311197   3.195   0.798  16.126  0.2353  0.1510 -0.7246
  758MPD2    C411198   3.099   0.870  16.069 -0.2314  0.1154  0.2189
  758MPD2    C511199   3.045   0.818  15.954 -0.3027 -0.6719 -0.0686
  758MPD2     H11200   3.315   0.624  16.130 -0.2055 -0.5557 -1.0766
  758MPD2    H111201   3.065   0.964  16.111 -2.4798 -0.3143 -0.5997
  758MPD2    H211202   3.066   0.673  15.795  0.5006  1.2133 -0.4988
  758MPD2    H311203   2.974   0.877  15.896  0.1842  0.0174  0.0318
  758MPD2     N11204   3.241   0.838  16.251  0.0966 -0.2329  0.0128
  758MPD2    H511205   3.184   0.897  16.311 -0.5767 -1.1172  0.2387
  758MPD2    N111206   3.257   0.523  15.874  0.3141 -0.2497 -0.3495
  758MPD2    H711207   3.231   0.511  15.776  1.7075  0.7304 -0.8413
  759MPD2     C11208   2.908   0.382   9.566  0.5667  0.1554  0.2644
  759MPD2    C111209   2.926   0.250   9.614 -0.7910  0.4075 -0.3975
  759MPD2    C211210   3.038   0.182   9.569  0.6058  0.3176 -0.6440
  759MPD2    C311211   3.128   0.232   9.480 -0.3481  0.7181  0.4938
  759MPD2    C411212   3.103   0.364   9.435  0.5154 -0.0039  0.6178
  759MPD2    C511213   2.998   0.425   9.478  0.5075 -0.1734  0.4052
  759MPD2     H11214   3.045   0.077   9.598  1.2440  0.2265 -1.1048
  759MPD2    H111215   3.178   0.414   9.374  1.9284 -0.0881  2.2737
  759MPD2    H211216   2.827   0.451   9.591 -1.9213 -2.8337  0.4196
  759MPD2    H311217   2.986   0.530   9.456 -1.3097 -0.6002 -0.6631
  759MPD2     N11218   3.243   0.152   9.442 -0.9026 -0.3768 -0.3369
  759MPD2    H511219   3.247   0.060   9.485 -0.2317 -0.9242 -1.5791
  759MPD2    N111220   2.844   0.182   9.702 -0.3416 -0.5783 -0.0617
  759MPD2    H711221   2.884   0.092   9.725 -1.6021 -0.9606  0.6264
  760MPD2     C11222   1.352   1.011  11.760 -0.6332 -0.1396  0.4033
  760MPD2    C111223   1.478   1.061  11.735 -0.0218 -0.4690 -0.3011
  760MPD2    C211224   1.589   0.983  11.762 -0.6182 -0.7795 -0.6210
  760MPD2    C311225   1.570   0.867  11.835 -0.6265  0.2509 -0.2620
  760MPD2    C411226   1.449   0.828  11.879 -0.6381 -0.6382 -0.3497
  760MPD2    C511227   1.344   0.896  11.839 -0.0765 -0.0421 -0.2311
  760MPD2     H11228   1.690   1.017  11.742 -0.1335 -1.5109  0.5536
  760MPD2    H111229   1.442   0.740  11.943 -0.3160 -0.8492 -0.5995
  760MPD2    H211230   1.262   1.071  11.757  0.2691  1.0820 -2.6380
  760MPD2    H311231   1.246   0.870  11.877 -0.9548  1.4161 -1.5241
  760MPD2     N11232   1.678   0.782  11.876  0.2217  0.2426 -0.4149
  760MPD2    H511233   1.661   0.731  11.962 -0.9138  1.2130 -0.0550
  760MPD2    N111234   1.496   1.190  11.681  0.3086  0.1217 -0.1512
  760MPD2    H711235   1.586   1.235  11.671 -0.0596  1.3439  2.1204
  761MPD2     C11236   2.880   0.453  11.123 -0.0508 -0.0764 -0.0218
  761MPD2    C111237   2.934   0.485  10.998 -0.0681  0.3554  0.4945
  761MPD2    C211238   3.024   0.587  10.989 -0.1823  0.6321 -0.8524
  761MPD2    C311239   3.050   0.663  11.101 -0.2311 -0.1085  0.9359
  761MPD2    C411240   2.989   0.638  11.221  0.0611  0.6036  0.6355
  761MPD2    C511241   2.910   0.533  11.232 -0.5000  0.6466 -0.5873
  761MPD2     H11242   3.081   0.605  10.899  0.7078  1.7675 -0.0622
  761MPD2    H111243   2.990   0.702  11.309  3.8824  0.4598  0.7042
  761MPD2    H211244   2.806   0.375  11.138 -0.4365  0.5721  1.4179
  761MPD2    H311245   2.854   0.518  11.323 -1.5133  3.1461 -0.8067
  761MPD2     N11246   3.145   0.768  11.100 -0.6341 -0.7943 -0.3518
  761MPD2    H511247   3.179   0.798  11.191  1.3497 -0.5747 -1.1679
  761MPD2    N111248   2.897   0.399  10.891 -0.2817  0.0178 -0.5704
  761MPD2    H711249   2.836   0.320  10.912  0.1788  0.4558  2.4959
  762MPD2     C11250   3.294   0.631  10.620  0.0963 -0.4324  0.3285
  762MPD2    C111251   3.282   0.551  10.507  0.1022 -0.3943  0.1190
  762MPD2    C211252   3.380   0.546  10.408 -0.6828 -0.5045 -0.0948
  762MPD2    C311253   3.490   0.637  10.419  0.4052 -0.3502 -0.2751
  762MPD2    C411254   3.512   0.712  10.535  0.0980 -0.4459 -0.8409
  762MPD2    C511255   3.411   0.703  10.629 -0.4340  0.3314 -0.0276
  762MPD2     H11256   3.372   0.477  10.325 -1.2672  1.1712 -1.4343
  762MPD2    H111257   3.598   0.776  10.555  1.2260 -2.0165 -0.6466
  762MPD2    H211258   3.212   0.634  10.691 -0.0198 -0.7700  0.2107
  762MPD2    H311259   3.425   0.765  10.717  3.4240  1.4547 -1.4513
  762MPD2     N11260   3.581   0.635  10.311  1.0357  0.5438  0.2003
  762MPD2    H511261   3.581   0.550  10.255 -1.1279  1.0028 -0.4831
  762MPD2    N111262   3.158   0.477  10.496  0.5832 -0.5054 -0.0386
  762MPD2    H711263   3.094   0.496  10.572 -1.2998 -3.2342 -0.9277
  763MPD2     C11264   0.218   0.961  16.199 -0.2323 -0.4037 -0.7942
  763MPD2    C111265   0.103   0.991  16.117 -0.8486  0.2696  0.6848
  763MPD2    C211266   0.030   1.105  16.153  0.3872 -0.1366  0.4837
  763MPD2    C311267   0.072   1.188  16.252 -0.7018 -0.1205  0.7021
  763MPD2    C411268   0.187   1.157  16.325 -0.3635  0.1072 -0.1980
  763MPD2    C511269   0.261   1.045  16.297 -0.4943 -0.2215  0.5206
  763MPD2     H11270   4.666   1.135  16.094  1.0068  1.2370  0.2899
  763MPD2    H111271   0.211   1.222  16.407  0.6672 -0.3871 -0.1076
  763MPD2    H211272   0.274   0.870  16.181  1.8800  0.3995  1.7691
  763MPD2    H311273   0.339   1.014  16.365  0.6396  1.2160 -0.1327
  763MPD2     N11274   0.028   1.325  16.257  0.1673 -0.2197  0.1257
  763MPD2    H511275   0.087   1.373  16.325 -0.9224  0.1669  0.7850
  763MPD2    N111276   0.050   0.913  16.011  1.0402  0.2807  0.8643
  763MPD2    H711277   4.694   0.953  15.959  0.8999 -2.3456 -0.9195
  764MPD2     C11278   3.188   2.525  17.480 -0.4841 -0.7785  0.3581
  764MPD2    C111279   3.095   2.460  17.400 -0.4618  0.5290  0.1665
  764MPD2    C211280   2.968   2.432  17.461 -0.4481 -0.2108  0.1345
  764MPD2    C311281   2.945   2.455  17.597  0.1103  0.4179 -0.0861
  764MPD2    C411282   3.036   2.527  17.665 -0.0778 -0.2058 -0.4022
  764MPD2    C511283   3.149   2.569  17.602 -0.0774 -0.1980  0.0385
  764MPD2     H11284   2.891   2.386  17.400 -0.1131  1.0452 -1.2588
  764MPD2    H111285   3.034   2.560   0.077 -0.1772 -0.4453 -0.3277
  764MPD2    H211286   3.291   2.545  17.455 -0.6166  0.0131  0.4316
  764MPD2    H311287   3.220   2.636  17.649 -1.9324  0.1199  2.3753
  764MPD2     N11288   2.829   2.411  17.658 -0.4768  0.6821 -0.1227
  764MPD2    H511289   2.756   2.384  17.592 -0.3315 -1.8187  0.7225
  764MPD2    N111290   3.122   2.431  17.261  0.1232  0.5734 -0.2655
  764MPD2    H711291   3.048   2.380  17.213  2.6486 -2.2810 -1.1734
  765MPD2     C11292   2.132   4.610  16.005  0.5871  0.2766  0.1061
  765MPD2    C111293   2.248   4.683  15.990 -0.4807  0.3104 -1.2740
  765MPD2    C211294   2.364   4.614  15.960  0.7511  0.3914  0.1499
  765MPD2    C311295   2.363   4.477  15.943 -0.0823  1.1528 -0.1353
  765MPD2    C411296   2.245   4.406  15.956 -0.8196 -0.7100 -0.2546
  765MPD2    C511297   2.129   4.474  15.993  0.1876 -0.7617 -0.3788
  765MPD2     H11298   2.452   4.677  15.957  2.5560 -2.1345  0.8844
  765MPD2    H111299   2.240   4.299  15.940  0.4584 -0.6706 -0.8652
  765MPD2    H211300   2.037   4.653  16.032  0.6691 -1.0290  2.5171
  765MPD2    H311301   2.035   4.420  15.999  0.1079 -0.6609 -0.7092
  765MPD2     N11302   2.488   4.429  15.901 -0.1515  0.0468  0.0689
  765MPD2    H511303   2.564   4.495  15.890 -1.0304  0.5397 -3.1452
  765MPD2    N111304   2.233   0.094  16.021 -0.0260 -0.4286  0.3101
  765MPD2    H711305   2.139   0.116  16.051 -0.1277  0.1628 -0.4596
  766MPD2     C11306   1.741   0.432  15.719  0.0707 -0.1448  0.0535
  766MPD2    C111307   1.877   0.420  15.737 -0.4522  0.1369 -0.1770
  766MPD2    C211308   1.964   0.371  15.642 -0.5823  0.0940 -0.3522
  766MPD2    C311309   1.917   0.335  15.522  0.2339  0.5584 -0.6903
  766MPD2    C411310   1.781   0.355  15.498 -0.4843 -0.7037  0.4264
  766MPD2    C511311   1.695   0.399  15.593 -0.4691 -0.5278  0.2941
  766MPD2     H11312   2.072   0.373  15.654 -0.7963  2.1947  1.1638
  766MPD2    H111313   1.741   0.325  15.402 -1.4249 -0.3361  0.6985
  766MPD2    H211314   1.680   0.469  15.800 -1.6266 -0.6969 -0.9649
  766MPD2    H311315   1.588   0.401  15.574 -0.6269 -1.4891  1.0640
  766MPD2     N11316   1.993   0.296  15.406  0.5774 -0.2495  0.3273
  766MPD2    H511317   1.948   0.278  15.316 -1.2180  0.2401  1.1286
  766MPD2    N111318   1.933   0.446  15.866 -0.1290 -0.4954  0.0936
  766MPD2    H711319   1.882   0.433  15.953  0.3745 -2.6139  0.0887
  767MPD2     C11320   1.803   0.703  15.379 -0.4976  0.1592 -0.6625
  767MPD2    C111321   1.912   0.649  15.304 -0.2824 -1.1154  0.3937
  767MPD2    C211322   1.886   0.568  15.190 -0.0747 -0.1331 -0.7158
  767MPD2    C311323   1.762   0.552  15.137  0.0940  0.1030 -0.6134
  767MPD2    C411324   1.658   0.613  15.202 -0.0100  0.3467 -0.0033
  767MPD2    C511325   1.676   0.689  15.321  0.6659 -0.5708 -0.4107
  767MPD2     H11326   1.960   0.512  15.134  0.1781  0.1862 -0.7009
  767MPD2    H111327   1.559   0.595  15.162  0.3034 -1.9045  0.2636
  767MPD2    H211328   1.816   0.768  15.465 -1.9120 -0.8976  0.3258
  767MPD2    H311329   1.598   0.736  15.379  0.1221 -1.0157 -0.7786
  767MPD2     N11330   1.750   0.466  15.024 -0.5582  0.3951  0.1227
  767MPD2    H511331   1.823   0.399  15.005 -2.1004 -1.8769  2.3253
  767MPD2    N111332   2.035   0.689  15.355 -0.5873  0.4592  0.8905
  767MPD2    H711333   2.038   0.760  15.427  3.0729  2.0021 -0.7780
  768MPD2     C11334   2.842   3.194  10.642  0.4937 -0.6155  0.2910
  768MPD2    C111335   2.961   3.237  10.701  0.0639  0.6560 -0.5632
  768MPD2    C211336   2.959   3.226  10.838  0.1938 -0.5814 -0.5486
  768MPD2    C311337   2.857   3.168  10.913  0.0225 -1.0177 -0.3649
  768MPD2    C411338   2.744   3.122  10.850  0.1808  0.2391 -0.6333
  768MPD2    C511339   2.734   3.143  10.716  0.1728 -0.4841  0.4230
  768MPD2     H11340   3.042   3.265  10.896 -0.7644  2.0456 -0.9762
  768MPD2    H111341   2.662   3.069  10.897  0.5537  0.4369  0.2421
  768MPD2    H211342   2.821   3.205  10.536  0.8046 -0.3203  0.2588
  768MPD2    H311343   2.643   3.110  10.667 -0.2347 -2.3342  2.4122
  768MPD2     N11344   2.866   3.165  11.057  0.6417 -1.2613  0.6042
  768MPD2    H511345   2.956   3.200  11.091  0.2985  0.9010 -0.7299
  768MPD2    N111346   3.064   3.313  10.633 -0.0382 -0.2694 -0.0710
  768MPD2    H711347   3.143   3.346  10.688  0.7371 -0.6394 -0.9671
  769MPD2     C11348   4.048   1.396  14.448 -0.5440 -0.9167  0.1021
  769MPD2    C111349   3.941   1.358  14.526  0.5597  0.1141  0.7834
  769MPD2    C211350   3.927   1.391  14.661 -0.1708  0.1471  0.0168
  769MPD2    C311351   4.017   1.480  14.719  0.5573 -0.2618 -0.2987
  769MPD2    C411352   4.120   1.521  14.635 -0.4976  0.3970  0.5458
  769MPD2    C511353   4.131   1.478  14.503 -1.2689 -0.8037  0.4530
  769MPD2     H11354   3.839   1.362  14.718 -0.6441  0.9461 -0.3134
  769MPD2    H111355   4.189   1.593  14.676  1.8255 -0.7847 -1.3212
  769MPD2    H211356   4.039   1.383  14.341 -0.7557 -2.2097  0.2731
  769MPD2    H311357   4.202   1.524  14.435 -1.5085 -0.7962  0.2076
  769MPD2     N11358   3.992   1.532  14.852  0.2002 -0.6408 -0.3585
  769MPD2    H511359   3.911   1.490  14.898 -1.1584  0.4788 -1.7464
  769MPD2    N111360   3.841   1.281  14.463 -0.2311 -0.3434  0.7045
  769MPD2    H711361   3.847   1.275  14.362 -0.2226 -2.2409  0.8209
  770MPD2     C11362   2.978   1.049  14.442 -0.5680  0.1141 -0.4019
  770MPD2    C111363   3.103   1.064  14.499 -0.1744  0.0230 -0.1538
  770MPD2    C211364   3.181   1.166  14.452  0.4149  0.3046  0.5784
  770MPD2    C311365   3.148   1.238  14.336  0.4751 -0.0690 -0.0530
  770MPD2    C411366   3.024   1.217  14.284  0.3989  0.1289  0.4027
  770MPD2    C511367   2.935   1.128  14.342 -0.5047  0.2166  0.7798
  770MPD2     H11368   3.278   1.188  14.495 -0.1473 -0.7143  2.3996
  770MPD2    H111369   2.986   1.281  14.205  1.8029  2.1258  1.3281
  770MPD2    H211370   2.910   0.971  14.474  0.6973 -0.1490  1.6219
  770MPD2    H311371   2.833   1.124  14.306  0.5122  2.6357 -2.3975
  770MPD2     N11372   3.237   1.327  14.271 -0.1473 -0.5835  0.3591
  770MPD2    H511373   3.196   1.379  14.195  1.4108 -1.5497 -1.1396
  770MPD2    N111374   3.134   0.976  14.601 -0.1092 -0.1529 -0.4400
  770MPD2    H711375   3.062   0.910  14.628  0.4090  0.4912  2.5980
  771MPD2     C11376   4.367   4.212  13.823 -0.2748 -0.3738 -0.6379
  771MPD2    C111377   4.338   4.339  13.788  0.0112 -1.1528  0.9107
  771MPD2    C211378   4.257   4.358  13.681 -0.0804 -0.7000  0.2241
  771MPD2    C311379   4.200   4.249  13.619 -0.1333  0.8510  0.5480
  771MPD2    C411380   4.236   4.121  13.651 -0.4888 -0.3174  0.1567
  771MPD2    C511381   4.328   4.105  13.755  0.3802 -0.4170 -0.2191
  771MPD2     H11382   4.229   4.457  13.647  1.3961 -0.1474  0.6548
  771MPD2    H111383   4.195   4.034  13.602 -1.8406  0.7693 -0.6271
  771MPD2    H211384   4.441   4.198  13.901  1.1729 -0.9107 -2.0987
  771MPD2    H311385   4.375   4.009  13.776  0.2250 -0.3810  0.2978
  771MPD2     N11386   4.105   4.276  13.510  0.0263 -0.4546  0.1878
  771MPD2    H511387   4.085   4.375  13.500 -0.7802 -0.2559  4.0838
  771MPD2    N111388   4.394   4.450  13.864  0.1170  0.0823 -0.0245
  771MPD2    H711389   4.353   4.539  13.841  0.4155  0.0234 -0.7909
  772MPD2     C11390   4.161   0.402  13.943 -0.3021  0.2181  0.0900
  772MPD2    C111391   4.148   0.271  13.902 -0.1605 -0.7146  0.8679
  772MPD2    C211392   4.029   0.230  13.855  0.5038  0.6104 -0.9323
  772MPD2    C311393   3.918   0.320  13.845  0.5692  0.0450 -0.3520
  772MPD2    C411394   3.936   0.449  13.878 -0.3842  0.3057 -0.1443
  772MPD2    C511395   4.055   0.484  13.928 -0.3829 -0.1749  0.1189
  772MPD2     H11396   4.011   0.136  13.804  0.4978 -0.2746  0.6639
  772MPD2    H111397   3.855   0.520  13.866 -0.3967  0.0104 -1.7878
  772MPD2    H211398   4.250   0.449  13.983 -1.1017 -1.1512  3.4489
  772MPD2    H311399   4.052   0.590  13.952 -1.5562  0.1726 -1.5093
  772MPD2     N11400   3.790   0.296  13.791  0.7654 -0.5655 -0.3741
  772MPD2    H511401   3.729   0.375  13.773  0.5352 -0.9056 -1.0616
  772MPD2    N111402   4.253   0.175  13.907  0.2943  0.4314  0.0166
  772MPD2    H711403   4.241   0.086  13.858 -0.9456  0.5907  0.0374
  773MPD2     C11404   3.449   1.102   0.764 -0.0963  0.2101  0.0731
  773MPD2    C111405   3.405   0.997   0.696  0.7108 -0.1785  0.2095
  773MPD2    C211406   3.492   0.890   0.687 -0.5960 -0.1005 -0.5905
  773MPD2    C311407   3.620   0.891   0.736  0.4518  0.1765  0.2814
  773MPD2    C411408   3.658   1.004   0.801  0.4171 -0.5280  0.7268
  773MPD2    C511409   3.576   1.112   0.802  1.0791  0.1648 -0.5831
  773MPD2     H11410   3.463   0.811   0.619  0.1427  0.1711 -1.2128
  773MPD2    H111411   3.762   1.021   0.827  0.2333  0.5970  0.7150
  773MPD2    H211412   3.383   1.187   0.782 -1.3882 -0.5451 -1.1441
  773MPD2    H311413   3.614   1.203   0.847  4.2499 -1.2885 -0.2396
  773MPD2     N11414   3.694   0.775   0.712  0.6874 -0.5443  0.0446
  773MPD2    H511415   3.651   0.694   0.667  0.0282 -0.7318  1.0118
  773MPD2    N111416   3.276   0.995   0.638 -0.7518  0.5501 -0.0635
  773MPD2    H711417   3.250   0.917   0.579 -0.4255  0.2879  0.1363
  774MPD2     C11418   2.216   0.548  13.702  0.3279 -0.3147 -0.3902
  774MPD2    C111419   2.296   0.494  13.611 -0.0643  1.0710  0.3656
  774MPD2    C211420   2.391   0.571  13.545  0.3064 -0.3007 -0.3302
  774MPD2    C311421   2.404   0.698  13.580 -0.6571 -0.1121  0.0042
  774MPD2    C411422   2.327   0.752  13.673  0.6279  0.1970 -0.3710
  774MPD2    C511423   2.224   0.680  13.732  0.0879  1.0127  0.6344
  774MPD2     H11424   2.440   0.532  13.458  0.3062 -0.0668 -0.4353
  774MPD2    H111425   2.329   0.859  13.694 -0.2877  0.4199 -1.4488
  774MPD2    H211426   2.141   0.494  13.759 -0.1193 -0.0809 -0.7644
  774MPD2    H311427   2.151   0.727  13.797 -2.7610 -0.1463 -1.7422
  774MPD2     N11428   2.511   0.768  13.521  0.0437 -0.1856 -0.6986
  774MPD2    H511429   2.568   0.706  13.464  2.2491  1.9876 -0.8655
  774MPD2    N111430   2.288   0.353  13.602 -0.4114 -0.6846  0.4727
  774MPD2    H711431   2.207   0.304  13.637  0.9958 -1.0528  3.2279
  775MPD2     C11432   4.175   1.475  15.529  0.1085 -0.0963 -0.0479
  775MPD2    C111433   4.151   1.595  15.595  0.1783 -0.3890  0.1467
  775MPD2    C211434   4.208   1.712  15.546  0.4852 -0.4252 -0.6004
  775MPD2    C311435   4.308   1.702  15.451 -0.1901  0.4590 -0.2012
  775MPD2    C411436   4.324   1.584  15.383  0.1828  0.6810  0.2920
  775MPD2    C511437   4.250   1.476  15.424  0.2080 -0.3632 -0.3614
  775MPD2     H11438   4.208   1.813  15.587  0.7998 -1.3917  1.7635
  775MPD2    H111439   4.389   1.576  15.296  2.5895  1.3621  2.0370
  775MPD2    H211440   4.123   1.380  15.539 -0.9427  0.7540  2.5917
  775MPD2    H311441   4.272   1.381  15.377  1.1438 -0.5558  0.4745
  775MPD2     N11442   4.375   1.816  15.397 -0.0507 -0.0106  0.1118
  775MPD2    H511443   4.432   1.807  15.314 -0.7417 -1.1975 -0.2326
  775MPD2    N111444   4.055   1.596  15.699  0.5248  0.1326  0.6602
  775MPD2    H711445   4.009   1.508  15.721 -0.6353  0.2830 -1.1213
  776MPD2     C11446   3.567   2.023  11.611  0.2274  0.1772  0.0824
  776MPD2    C111447   3.452   2.089  11.567  0.0338  0.3845  0.5270
  776MPD2    C211448   3.452   2.218  11.528  0.2838 -0.4341  0.3348
  776MPD2    C311449   3.575   2.276  11.504  0.2276 -0.2810 -0.7342
  776MPD2    C411450   3.690   2.210  11.553  0.0833 -0.3351 -0.0158
  776MPD2    C511451   3.690   2.083  11.607 -0.6782 -0.0479  0.3705
  776MPD2     H11452   3.359   2.269  11.509  0.0728 -0.9093  0.1025
  776MPD2    H111453   3.782   2.267  11.551  0.1889 -0.5099 -0.0593
  776MPD2    H211454   3.565   1.916  11.631  0.5917  0.1087 -0.2259
  776MPD2    H311455   3.782   2.038  11.644  1.3652  1.5191 -2.7843
  776MPD2     N11456   3.584   2.412  11.456  0.5028 -0.5721 -0.2480
  776MPD2    H511457   3.676   2.453  11.461 -0.2066  0.9518  0.3427
  776MPD2    N111458   3.332   2.018  11.564 -0.0170 -0.1575  0.1987
  776MPD2    H711459   3.333   1.924  11.601  0.6915  0.4942  1.8300
  777MPD2     C11460   3.569   4.489   1.021 -0.2316  0.3135  0.6100
  777MPD2    C111461   3.467   4.427   1.093 -0.1713  0.4154  0.0631
  777MPD2    C211462   3.379   4.342   1.026  0.7835 -0.2359 -0.4843
  777MPD2    C311463   3.374   4.344   0.888  0.6022  0.2374  0.4492
  777MPD2    C411464   3.478   4.411   0.814 -0.0311  0.0181 -0.4649
  777MPD2    C511465   3.573   4.470   0.886  0.2235 -0.3401  0.4997
  777MPD2     H11466   3.291   4.306   1.079 -0.1965  0.3227 -1.7301
  777MPD2    H111467   3.500   4.414   0.708  3.0832 -1.3235  0.1448
  777MPD2    H211468   3.647   4.547   1.070  0.3352  1.2519 -1.3949
  777MPD2    H311469   3.650   4.526   0.834  1.5672 -1.2850  1.4565
  777MPD2     N11470   3.256   4.284   0.829 -0.0248 -0.5143  0.2263
  777MPD2    H511471   3.187   4.255   0.898 -0.5841 -1.5873 -0.7706
  777MPD2    N111472   3.462   4.456   1.230  0.8226  0.0977 -0.2014
  777MPD2    H711473   3.539   4.514   1.263  0.6799  0.4500 -0.4844
  778MPD2     C11474   4.534   4.657  14.383  0.9383 -0.7839  0.7416
  778MPD2    C111475   4.612   4.547  14.371  0.4219 -0.2330 -0.8896
  778MPD2    C211476   0.013   4.562  14.330 -0.1048  0.2155  0.1759
  778MPD2    C311477   0.057   4.678  14.273  0.1513  0.6276 -0.1815
  778MPD2    C411478   4.696   0.067  14.272 -0.2193  0.8346  0.0659
  778MPD2    C511479   4.573   0.059  14.331  0.4411 -0.9777 -0.0098
  778MPD2     H11480   0.090   4.486  14.343 -0.7784 -0.6980 -1.1890
  778MPD2    H111481   0.014   0.160  14.233 -0.1055  0.3445 -0.9902
  778MPD2    H211482   4.434   4.650  14.424  1.5174 -0.8364  2.1447
  778MPD2    H311483   4.509   0.147  14.326  3.1695  0.8773 -2.5498
  778MPD2     N11484   0.189   4.673  14.215  0.0174  0.1640 -0.4256
  778MPD2    H511485   0.239   4.586  14.230 -1.6377 -0.4243  1.7528
  778MPD2    N111486   4.577   4.425  14.436  0.5562  0.0160 -0.0115
  778MPD2    H711487   4.635   4.344  14.416  0.5908 -0.4861  2.1735
  779MPD2     C11488   3.956   3.194  14.198  0.3665 -0.0758  1.0153
  779MPD2    C111489   4.086   3.221  14.175 -0.0752 -0.9487 -0.3157
  779MPD2    C211490   4.124   3.352  14.137 -0.0087 -0.2706  0.0937
  779MPD2    C311491   4.030   3.454  14.127 -1.3053  0.1411  0.6890
  779MPD2    C411492   3.902   3.424  14.166  0.5455 -0.2531  0.2469
  779MPD2    C511493   3.869   3.295  14.198 -0.0459 -0.1581  0.6146
  779MPD2     H11494   4.226   3.382  14.115  0.8892 -1.9484  1.8370
  779MPD2    H111495   3.824   3.499  14.168 -0.5844 -1.4140 -0.6467
  779MPD2    H211496   3.923   3.095  14.229 -0.0928 -0.0946  0.4724
  779MPD2    H311497   3.770   3.267  14.230  0.2029 -0.7841  0.8412
  779MPD2     N11498   4.078   3.587  14.089  0.2934  0.3880 -0.2210
  779MPD2    H511499   4.178   3.590  14.070  0.1185 -0.2871 -1.2163
  779MPD2    N111500   4.182   3.129  14.181  0.2702  0.3229 -0.4190
  779MPD2    H711501   4.279   3.157  14.174  0.4407 -0.3873 -0.9488
  780MPD2     C11502   4.414   3.216   0.899  0.3017  0.0268 -0.3777
  780MPD2    C111503   4.372   3.118   0.803 -0.2621  0.3202 -0.3094
  780MPD2    C211504   4.295   3.161   0.697 -0.7376  0.3096 -0.2069
  780MPD2    C311505   4.263   3.295   0.686 -0.7920  0.2711 -0.2631
  780MPD2    C411506   4.297   3.383   0.783 -1.0857 -0.0728  0.2930
  780MPD2    C511507   4.368   3.345   0.895  0.3318 -0.0560 -0.7304
  780MPD2     H11508   4.260   3.092   0.620  0.6977 -1.2218  0.5085
  780MPD2    H111509   4.267   3.488   0.780  0.2978  0.2622 -2.2732
  780MPD2    H211510   4.477   3.178   0.979 -0.2205  0.1759  0.1017
  780MPD2    H311511   4.392   3.419   0.970 -0.4103  0.9792 -1.5156
  780MPD2     N11512   4.172   3.325   0.577  0.4714 -0.5442 -0.4516
  780MPD2    H511513   4.155   3.258   0.503 -0.8509  0.6358 -1.2292
  780MPD2    N111514   4.425   2.982   0.816  0.2774  0.0421 -0.0239
  780MPD2    H711515   4.462   2.968   0.909 -0.6786  1.9168  0.6337
  781MPD2     C11516   1.503   0.470  11.849 -0.0072  0.3717  0.3706
  781MPD2    C111517   1.426   0.359  11.891  0.1594 -0.3165 -0.9518
  781MPD2    C211518   1.406   0.264  11.794 -0.1511 -0.1303 -0.3190
  781MPD2    C311519   1.472   0.275  11.671  0.3597 -0.2740 -0.8649
  781MPD2    C411520   1.536   0.388  11.633 -0.2433  0.3307  0.1737
  781MPD2    C511521   1.547   0.489  11.721  0.2109  0.4572  0.4528
  781MPD2     H11522   1.353   0.174  11.823  3.2503 -1.2958  2.2196
  781MPD2    H111523   1.569   0.399  11.530 -1.1340 -0.2634 -0.1689
  781MPD2    H211524   1.530   0.549  11.919  2.3069  0.5202 -0.6609
  781MPD2    H311525   1.580   0.590  11.701 -0.1271  0.6030  0.6270
  781MPD2     N11526   1.465   0.178  11.577  0.2469 -0.0087 -0.2488
  781MPD2    H511527   1.519   0.194  11.493 -1.5522  1.4780 -1.1262
  781MPD2    N111528   1.376   0.340  12.025  0.2922  0.0324 -0.0837
  781MPD2    H711529   1.329   0.255  12.056 -0.4718  0.3132 -0.4845
  782MPD2     C11530   3.674   1.477  10.447 -0.3136  0.0242 -0.3485
  782MPD2    C111531   3.813   1.501  10.455  0.6341  0.0825 -0.3843
  782MPD2    C211532   3.855   1.575  10.560  1.2132 -0.3414  0.5878
  782MPD2    C311533   3.762   1.634  10.651  0.0053  0.2702  1.0540
  782MPD2    C411534   3.627   1.609  10.644 -0.1544 -0.5936  0.8754
  782MPD2    C511535   3.583   1.535  10.535 -0.3757  0.1376  0.5606
  782MPD2     H11536   3.961   1.588  10.579  1.1869 -0.8118  1.0494
  782MPD2    H111537   3.549   1.640  10.712 -0.8668  1.6425 -0.9960
  782MPD2    H211538   3.622   1.429  10.366  0.4108 -1.2728 -0.0448
  782MPD2    H311539   3.479   1.510  10.515  0.0735 -2.3844  1.3222
  782MPD2     N11540   3.812   1.697  10.764 -0.3081 -0.0208  0.1978
  782MPD2    H511541   3.913   1.703  10.772 -0.2303  1.5215 -1.9218
  782MPD2    N111542   3.908   1.430  10.381  0.0202  0.1209  0.0515
  782MPD2    H711543   4.004   1.457  10.400 -0.0544 -0.1900  0.8954
  783MPD2     C11544   3.855   0.649  10.717  0.3237 -0.6615 -0.3148
  783MPD2    C111545   3.800   0.774  10.717  0.8900 -0.2368 -0.3034
  783MPD2    C211546   3.847   0.867  10.622 -0.1499 -0.1573  0.4542
  783MPD2    C311547   3.946   0.834  10.537 -0.4188 -0.5188 -0.9218
  783MPD2    C411548   3.993   0.708  10.531 -0.0764 -0.0169 -0.8076
  783MPD2    C511549   3.941   0.611  10.613 -0.5628  0.0235 -0.5960
  783MPD2     H11550   3.796   0.963  10.622  0.7417  0.3052 -1.4521
  783MPD2    H111551   4.062   0.681  10.452  0.9517  0.5576 -0.1031
  783MPD2    H211552   3.835   0.583  10.801 -1.9209  0.5604  0.1180
  783MPD2    H311553   3.981   0.510  10.616 -0.0624  0.2576  0.4189
  783MPD2     N11554   3.993   0.932  10.446  0.1324 -0.2985  0.4067
  783MPD2    H511555   3.952   1.025  10.451  0.1215 -0.2326 -0.8190
  783MPD2    N111556   3.704   0.799  10.825  0.0320  0.5468 -0.0034
  783MPD2    H711557   3.655   0.719  10.865  2.5087  0.5373  2.9597
  784MPD2     C11558   1.228   1.600   1.436 -0.4529 -0.0101 -0.0163
  784MPD2    C111559   1.338   1.655   1.492  0.0113  0.1643  0.8223
  784MPD2    C211560   1.329   1.791   1.527 -0.4638 -0.0061  0.5098
  784MPD2    C311561   1.218   1.865   1.503 -0.6463 -0.3745  0.3091
  784MPD2    C411562   1.114   1.805   1.443 -1.3404  0.4753  0.2012
  784MPD2    C511563   1.118   1.674   1.402 -0.8220 -0.1194  0.8277
  784MPD2     H11564   1.422   1.830   1.568 -1.0944 -0.5822  2.4950
  784MPD2    H111565   1.017   1.855   1.439 -1.4572  0.1748 -0.6337
  784MPD2    H211566   1.222   1.497   1.402  1.6095 -0.5089  1.1382
  784MPD2    H311567   1.030   1.635   1.353 -0.2171 -3.3166  2.2389
  784MPD2     N11568   1.218   1.999   1.548  0.2275  0.4936  0.3739
  784MPD2    H511569   1.300   2.031   1.600  1.2462 -1.7360  0.1280
  784MPD2    N111570   1.460   1.584   1.517 -0.1499 -0.2592 -0.1813
  784MPD2    H711571   1.523   1.648   1.564 -0.2110  0.0464 -0.5213
  785MPD2     C11572   1.085   4.240  10.651  0.1447  0.2147  0.6131
  785MPD2    C111573   1.001   4.316  10.574 -0.3794 -0.3453  0.7966
  785MPD2    C211574   0.953   4.263  10.457  0.4021  0.9438 -0.4208
  785MPD2    C311575   0.984   4.142  10.412 -0.1479  0.6458  0.4762
  785MPD2    C411576   1.067   4.067  10.488 -0.2349  0.7441 -0.2823
  785MPD2    C511577   1.113   4.114  10.610 -0.5257  0.2898 -0.2588
  785MPD2     H11578   0.899   4.330  10.391  0.1256  1.1418  0.0083
  785MPD2    H111579   1.102   3.968  10.461 -2.0686  1.0909 -4.0090
  785MPD2    H211580   1.123   4.279  10.745  0.8486  4.2766 -1.3818
  785MPD2    H311581   1.170   4.053  10.680  0.1470 -0.2860 -1.3055
  785MPD2     N11582   0.924   4.110  10.289 -0.3739 -0.0573 -0.0051
  785MPD2    H511583   0.866   4.178  10.242  0.5315 -0.7858 -2.1936
  785MPD2    N111584   0.963   4.447  10.634 -0.4055  0.6734  0.0711
  785MPD2    H711585   1.027   4.495  10.696  0.7650 -2.3995  1.2277
  786MPD2     C11586   4.708   2.720  14.845 -0.8118  0.1880  0.3627
  786MPD2    C111587   0.104   2.682  14.797 -0.4783  0.4941  0.9765
  786MPD2    C211588   0.213   2.696  14.879  0.0549  0.0110  0.6249
  786MPD2    C311589   0.207   2.749  15.004  0.6176 -0.2642  0.0487
  786MPD2    C411590   0.086   2.799  15.049 -0.7541 -0.4022  0.0460
  786MPD2    C511591   4.700   2.787  14.966 -0.2668 -0.2641  0.1833
  786MPD2     H11592   0.308   2.670  14.834  0.2479 -1.5365  1.9092
  786MPD2    H111593   0.077   2.863  15.136  0.5069 -1.3954  0.8940
  786MPD2    H211594   4.618   2.722  14.784 -0.8500 -0.4351  0.3939
  786MPD2    H311595   4.607   2.837  14.992 -1.1801 -1.8814  0.0464
  786MPD2     N11596   0.323   2.780  15.084 -0.2575  0.1298  0.1739
  786MPD2    H511597   0.311   2.826  15.174 -0.1104  0.6239 -0.0530
  786MPD2    N111598   0.129   2.619  14.672 -0.1237 -1.2018 -0.5177
  786MPD2    H711599   0.228   2.604  14.658 -0.2307 -1.2370 -1.2042
  787MPD2     C11600   0.210   2.120  14.953  0.8490  0.3785  0.3189
  787MPD2    C111601   0.266   2.093  14.831  0.0024 -0.4065  0.0606
  787MPD2    C211602   0.362   1.992  14.831 -0.0481 -0.1471  0.4636
  787MPD2    C311603   0.398   1.925  14.947  0.2291  0.2801 -0.3665
  787MPD2    C411604   0.341   1.965  15.066  0.0005  0.5536  0.4943
  787MPD2    C511605   0.244   2.052  15.068  0.1561 -1.2162 -0.8214
  787MPD2     H11606   0.421   1.955  14.747 -0.6004 -0.0240  0.0236
  787MPD2    H111607   0.367   1.932  15.166  0.1608 -0.6057  0.0781
  787MPD2    H211608   0.130   2.191  14.971 -0.4139 -1.3161  1.4774
  787MPD2    H311609   0.201   2.083  15.163  1.3298 -1.9877 -0.0527
  787MPD2     N11610   0.512   1.834  14.941  0.0428  0.5519 -0.4967
  787MPD2    H511611   0.541   1.806  14.848 -0.0074  0.6429 -0.5409
  787MPD2    N111612   0.223   2.168  14.722  0.0227 -0.8057  0.3752
  787MPD2    H711613   0.165   2.250  14.738 -0.1687 -0.6432 -1.1914
  788MPD2     C11614   2.584   0.802  17.599  0.3909 -0.1172 -0.1381
  788MPD2    C111615   2.514   0.721  17.685  0.6987 -0.3417  0.2163
  788MPD2    C211616   2.482   0.590  17.651 -0.4977 -0.1629  0.3965
  788MPD2    C311617   2.512   0.540  17.525 -0.0458 -0.5846 -0.4758
  788MPD2    C411618   2.567   0.629  17.440 -0.2109 -0.6385  0.3059
  788MPD2    C511619   2.605   0.754  17.474  0.3967 -0.8511  0.3063
  788MPD2     H11620   2.420   0.538   0.032 -0.2433 -1.2128 -0.1304
  788MPD2    H111621   2.587   0.596  17.339 -1.1865  1.9197 -0.7272
  788MPD2    H211622   2.615   0.905  17.615 -0.0467 -0.4233  2.5957
  788MPD2    H311623   2.670   0.809  17.408  0.1200 -0.8619  0.0232
  788MPD2     N11624   2.474   0.411  17.482  0.2976  0.2726  0.2109
  788MPD2    H511625   2.499   0.397  17.385  1.7301  0.6596  0.5325
  788MPD2    N111626   2.469   0.771   0.120 -0.2744 -0.3890  0.2053
  788MPD2    H711627   2.433   0.696   0.178 -0.0530  0.4318  1.4032
  789MPD2     C11628   2.851   0.556  16.206  0.3501  0.4291  0.0513
  789MPD2    C111629   2.790   0.486  16.307  0.1221  0.4495  0.2908
  789MPD2    C211630   2.669   0.533  16.362 -0.6463 -0.3887 -0.2567
  789MPD2    C311631   2.607   0.642  16.322  0.2740 -0.7242 -0.4855
  789MPD2    C411632   2.676   0.716  16.223 -0.6116 -0.0906  0.0325
  789MPD2    C511633   2.788   0.671  16.163 -0.3978  0.5673  0.2432
  789MPD2     H11634   2.625   0.476  16.444 -0.2039 -2.2014 -1.2789
  789MPD2    H111635   2.641   0.810  16.181  0.7806  0.5690  0.3782
  789MPD2    H211636   2.949   0.530  16.167  0.4426  1.2264 -0.2579
  789MPD2    H311637   2.841   0.735  16.094 -1.8101  0.9875 -0.4435
  789MPD2     N11638   2.482   0.697  16.374  0.0263  0.4568  0.0145
  789MPD2    H511639   2.441   0.783  16.339  2.3100  1.6596  0.2640
  789MPD2    N111640   2.842   0.367  16.364 -0.3257 -0.3254  0.0715
  789MPD2    H711641   2.787   0.332  16.442 -1.2645 -0.6067 -0.7126
  790MPD2     C11642   2.942   2.473  13.389  0.0771  0.4214  0.1899
  790MPD2    C111643   3.044   2.389  13.384  0.3484  0.3499  0.2739
  790MPD2    C211644   3.042   2.291  13.282 -0.6751  0.3738  0.3092
  790MPD2    C311645   2.946   2.291  13.187  0.3874 -0.1425 -0.1587
  790MPD2    C411646   2.859   2.395  13.181  0.0437  0.4690 -0.3030
  790MPD2    C511647   2.843   2.477  13.292 -0.0782 -0.2821 -0.6797
  790MPD2     H11648   3.125   2.221  13.275 -1.9066 -0.8569 -1.9857
  790MPD2    H111649   2.782   2.404  13.106  0.8719 -0.8735 -1.2997
  790MPD2    H211650   2.936   2.550  13.465  3.6044  0.5081  0.3984
  790MPD2    H311651   2.758   2.544  13.296  0.9573  1.0480 -0.8640
  790MPD2     N11652   2.952   2.193  13.086 -0.1011 -0.1576 -0.2210
  790MPD2    H511653   2.990   2.103  13.111  1.0618  0.2654 -0.4323
  790MPD2    N111654   3.148   2.407  13.479  0.1852  0.6255  0.2429
  790MPD2    H711655   3.125   2.472  13.553 -3.8060 -0.4408 -0.0673
  791MPD2     C11656   2.512   1.903  12.412  0.1324  0.4013 -0.4031
  791MPD2    C111657   2.530   1.801  12.501  0.4071 -0.5469  0.3618
  791MPD2    C211658   2.464   1.684  12.470 -0.2619  0.2872 -0.3191
  791MPD2    C311659   2.368   1.670  12.368  0.1285  0.4365  0.0947
  791MPD2    C411660   2.341   1.776  12.292 -0.1987  0.0760  0.0600
  791MPD2    C511661   2.409   1.890  12.316 -0.0919  0.6234 -0.2227
  791MPD2     H11662   2.487   1.607  12.543 -1.6613  1.3899  1.2969
  791MPD2    H111663   2.283   1.769  12.201  1.2595 -0.1780 -0.8523
  791MPD2    H211664   2.567   1.997  12.416  0.3055  0.2479  0.8063
  791MPD2    H311665   2.393   1.973  12.249  3.7481  1.4568 -0.0750
  791MPD2     N11666   2.300   1.544  12.347 -0.1725  0.9359  0.4096
  791MPD2    H511667   2.329   1.473  12.413 -1.2467  0.7316  0.6561
  791MPD2    N111668   2.613   1.812  12.610 -0.2151 -0.0888 -0.1536
  791MPD2    H711669   2.645   1.726  12.654 -0.0687  0.4120  0.7117
  792MPD2     C11670   3.870   1.957  11.369  0.3751 -0.3509  0.2964
  792MPD2    C111671   3.782   2.016  11.281 -0.4670 -0.0923  0.9716
  792MPD2    C211672   3.657   1.957  11.260  0.1418  0.2819 -0.6647
  792MPD2    C311673   3.636   1.832  11.311  0.6997  0.4735  0.4354
  792MPD2    C411674   3.733   1.770  11.386  0.1692  0.3329 -0.7312
  792MPD2    C511675   3.848   1.831  11.415  0.2751  0.0428 -0.1437
  792MPD2     H11676   3.573   2.012  11.219  0.4572  2.0980  1.1856
  792MPD2    H111677   3.714   1.669  11.421 -1.7718  0.5282 -1.2128
  792MPD2    H211678   3.961   2.006  11.402 -1.0557  2.6145 -0.1975
  792MPD2    H311679   3.919   1.786  11.483 -0.7289  0.0507  0.9207
  792MPD2     N11680   3.528   1.753  11.269 -0.1463  0.4646  0.3119
  792MPD2    H511681   3.538   1.654  11.288  0.1398  0.4161 -0.0880
  792MPD2    N111682   3.808   2.149  11.239 -0.2637  0.6201  0.3305
  792MPD2    H711683   3.892   2.192  11.277 -0.2357  0.9174 -0.0704
  793MPD2     C11684   3.043   1.817  10.416  0.2617  0.1884  0.0354
  793MPD2    C111685   3.170   1.834  10.466 -0.6613 -0.4289 -0.5213
  793MPD2    C211686   3.196   1.818  10.602  0.3889  0.2468  0.2761
  793MPD2    C311687   3.094   1.777  10.692  0.6542  0.1021 -0.1125
  793MPD2    C411688   2.970   1.752  10.643  0.5160  0.0134  0.1770
  793MPD2    C511689   2.953   1.771  10.511  0.2298 -0.1078  0.7262
  793MPD2     H11690   3.301   1.825  10.629  0.7021 -0.8814 -0.6418
  793MPD2    H111691   2.879   1.712  10.688  0.2381 -1.6276 -1.8335
  793MPD2    H211692   3.018   1.817  10.311 -2.1179  0.8562  0.5900
  793MPD2    H311693   2.854   1.747  10.472  0.0293  1.3664  0.3433
  793MPD2     N11694   3.134   1.755  10.824  0.6963  0.5685  0.0096
  793MPD2    H511695   3.232   1.774  10.843  0.9919 -0.4996 -0.4821
  793MPD2    N111696   3.281   1.880  10.385 -0.6011 -0.1290  0.0064
  793MPD2    H711697   3.361   1.919  10.432  0.1569 -1.6854  0.0022
  794MPD2     C11698   2.973   1.504   0.054 -0.1130  0.2182 -0.3851
  794MPD2    C111699   2.998   1.367   0.029 -0.1839 -0.5263 -0.9017
  794MPD2    C211700   3.046   1.326  17.596  0.2450 -0.0874 -0.3592
  794MPD2    C311701   3.063   1.418  17.495  0.3915  0.1543 -0.4761
  794MPD2    C411702   3.018   1.549  17.516  0.6643  0.0540 -0.6349
  794MPD2    C511703   2.984   1.586  17.644 -0.2437 -0.9399 -0.6526
  794MPD2     H11704   3.083   1.224  17.584  0.7057  0.4172 -3.1546
  794MPD2    H111705   3.041   1.628  17.446  0.0745  0.2350 -0.6252
  794MPD2    H211706   2.921   1.542   0.141 -1.2227 -2.8793  0.3173
  794MPD2    H311707   2.962   1.691  17.660  1.3402 -0.6504 -0.3492
  794MPD2     N11708   3.124   1.394  17.375 -0.5122  0.3491  0.2799
  794MPD2    H511709   3.131   1.467  17.305 -2.9751  3.4043  3.1948
  794MPD2    N111710   2.987   1.272   0.134  0.1099 -0.0877 -0.0788
  794MPD2    H711711   3.021   1.178   0.119  1.9390  0.5512  0.1618
  795MPD2     C11712   0.619   3.537  13.098 -0.7393 -0.5546  0.2310
  795MPD2    C111713   0.615   3.494  13.228 -0.3182  0.4878 -0.7089
  795MPD2    C211714   0.735   3.475  13.296  0.0652 -0.3813 -0.0555
  795MPD2    C311715   0.855   3.503  13.242  0.3247 -0.0839  0.1391
  795MPD2    C411716   0.860   3.538  13.110  0.0448  0.0622  0.1309
  795MPD2    C511717   0.741   3.558  13.038  0.7942 -0.3424 -0.1239
  795MPD2     H11718   0.732   3.439  13.398  3.5417 -1.3733 -0.3024
  795MPD2    H111719   0.950   3.564  13.055  1.6008  0.8771  3.0602
  795MPD2    H211720   0.531   3.560  13.040  0.3455 -0.6855 -1.4718
  795MPD2    H311721   0.748   3.598  12.938  2.1309 -1.2291 -0.3896
  795MPD2     N11722   0.973   3.451  13.316 -0.5603 -0.3327 -0.2263
  795MPD2    H511723   0.953   3.423  13.412  0.3677 -3.3813 -0.9175
  795MPD2    N111724   0.492   3.486  13.287 -0.7096 -0.2972 -0.0962
  795MPD2    H711725   0.407   3.512  13.238 -0.5246 -0.2280 -0.3787
  796MPD2     C11726   0.670   0.570  15.962 -0.4450 -0.2811  0.5401
  796MPD2    C111727   0.648   0.605  16.089  0.2484  0.7649 -0.1164
  796MPD2    C211728   0.623   0.742  16.125  0.2065  0.1284 -0.4494
  796MPD2    C311729   0.633   0.840  16.033 -0.3122 -0.0827 -0.1112
  796MPD2    C411730   0.663   0.806  15.904  0.2514 -0.6726 -0.1400
  796MPD2    C511731   0.682   0.670  15.870  0.8489  0.0751  0.0874
  796MPD2     H11732   0.605   0.768  16.228  2.3767  0.2890 -0.1123
  796MPD2    H111733   0.672   0.879  15.824 -0.3387 -0.5411 -0.0853
  796MPD2    H211734   0.694   0.471  15.926 -1.8060 -1.0183  1.6640
  796MPD2    H311735   0.707   0.636  15.770 -1.3975  1.9242 -1.1178
  796MPD2     N11736   0.605   0.977  16.064 -0.0017  0.6393 -0.4787
  796MPD2    H511737   0.590   1.033  15.981 -0.2142  4.4128  2.0591
  796MPD2    N111738   0.637   0.508  16.199 -0.1540 -0.3327 -0.0495
  796MPD2    H711739   0.611   0.542  16.291  1.3211  0.6045  0.0179
  797MPD2     C11740   0.969   4.328  17.524  0.3149  0.1829 -0.2885
  797MPD2    C111741   1.089   4.370  17.586 -0.4174 -0.1924  0.0852
  797MPD2    C211742   1.113   4.503  17.566  0.4673 -0.3654 -0.2653
  797MPD2    C311743   1.023   4.589  17.502  0.7050  0.4960  0.1161
  797MPD2    C411744   0.899   4.546  17.451 -0.3657  0.0433  0.2446
  797MPD2    C511745   0.875   4.411  17.465 -0.4933  0.3316  0.0841
  797MPD2     H11746   1.205   4.543  17.608  0.2455 -1.1617  0.9910
  797MPD2    H111747   0.827   4.613  17.406 -1.3319  0.1381  1.9055
  797MPD2    H211748   0.952   4.221  17.533 -0.8158  0.4115  0.3378
  797MPD2    H311749   0.774   4.386  17.435 -0.3167  1.5531 -1.5526
  797MPD2     N11750   1.054   0.005  17.503  0.4149 -0.0083 -0.4936
  797MPD2    H511751   1.145   0.033  17.540 -0.1925  1.6383 -0.2616
  797MPD2    N111752   1.189   4.290  17.650 -0.1944  0.1280 -0.1353
  797MPD2    H711753   1.273   4.338  17.682  0.1801  0.1144 -1.0848
  798MPD2     C11754   1.681   0.043  17.360 -0.4315 -0.2981  0.0021
  798MPD2    C111755   1.573   0.039  17.445 -0.4624  0.6996 -0.2948
  798MPD2    C211756   1.538   4.643  17.510  0.1620  0.6759 -0.5402
  798MPD2    C311757   1.619   4.533  17.503  0.1004  0.3326  0.3974
  798MPD2    C411758   1.735   4.537  17.428  0.5722 -0.7272 -0.0833
  798MPD2    C511759   1.763   4.656  17.361 -0.5495 -0.1567 -0.2369
  798MPD2     H11760   1.443   4.629  17.560 -0.7829 -2.8810 -3.3292
  798MPD2    H111761   1.816   4.466  17.442 -0.4540 -1.6630  1.0786
  798MPD2    H211762   1.709   0.127  17.298  1.0366  0.2681  1.4308
  798MPD2    H311763   1.856   4.658  17.305 -0.9864  1.3903 -0.9200
  798MPD2     N11764   1.587   4.415  17.575  0.0509  0.5465  0.3992
  798MPD2    H511765   1.500   4.422  17.629 -0.3255 -0.7368 -0.0535
  798MPD2    N111766   1.485   0.146  17.442 -0.0878  0.8081 -0.2389
  798MPD2    H711767   1.495   0.215  17.368  2.2529 -0.5641 -1.1822
  799MPD2     C11768   0.234   1.583  14.466  0.5567  0.3320 -0.4957
  799MPD2    C111769   0.156   1.513  14.375 -0.3399 -0.2274  0.2664
  799MPD2    C211770   0.105   1.583  14.266  0.2532 -0.7662  0.7150
  799MPD2    C311771   0.137   1.718  14.242  0.2201  0.6558 -0.2540
  799MPD2    C411772   0.204   1.782  14.346 -0.3862  1.0545 -0.3088
  799MPD2    C511773   0.259   1.712  14.449 -0.2306  0.0154  0.2357
  799MPD2     H11774   0.032   1.540  14.199  1.1623 -0.7366 -0.2973
  799MPD2    H111775   0.221   1.890  14.350  0.2523  1.0276 -2.3320
  799MPD2    H211776   0.260   1.538  14.561 -2.1148 -0.9334 -0.3779
  799MPD2    H311777   0.319   1.769  14.519 -0.2451 -0.9077  1.0040
  799MPD2     N11778   0.116   1.788  14.122  0.2381  0.1600 -0.6149
  799MPD2    H511779   0.173   1.873  14.126  1.0088 -0.3549 -0.6105
  799MPD2    N111780   0.119   1.378  14.391  0.3603 -0.3528  0.4135
  799MPD2    H711781   0.055   1.337  14.324  0.5306  0.4165 -0.2187
  800MPD2     C11782   0.672   2.887  13.735 -0.5071  0.4938 -0.0210
  800MPD2    C111783   0.785   2.830  13.786 -0.5407 -0.1398 -0.0309
  800MPD2    C211784   0.786   2.694  13.783 -0.1517  0.4391  0.4091
  800MPD2    C311785   0.680   2.620  13.729  0.3291  0.3336  0.3522
  800MPD2    C411786   0.577   2.681  13.666  0.1010  0.1105  0.4283
  800MPD2    C511787   0.569   2.816  13.676  0.4922 -0.4042  0.1886
  800MPD2     H11788   0.872   2.645  13.826  0.6913  1.2277 -0.3737
  800MPD2    H111789   0.505   2.621  13.611 -0.2261  2.5797 -1.8437
  800MPD2    H211790   0.666   2.995  13.738 -0.5465  0.4368  1.9616
  800MPD2    H311791   0.480   2.865  13.639  0.4591 -1.3069 -0.9277
  800MPD2     N11792   0.684   2.472  13.727  0.5021 -0.4408 -0.1186
  800MPD2    H511793   0.624   2.415  13.667 -0.4973 -1.6126  1.9735
  800MPD2    N111794   0.889   2.915  13.836 -0.4597 -0.1715 -0.9022
  800MPD2    H711795   0.874   3.014  13.815  0.4422  0.3952  1.2120
  801MPD2     C11796   0.895   3.534  13.959  0.1122  0.1809  0.2814
  801MPD2    C111797   0.962   3.457  14.048 -0.1418  0.3013  0.0607
  801MPD2    C211798   0.909   3.444  14.176  1.3852  0.6804 -0.6737
  801MPD2    C311799   0.784   3.501  14.205  0.1638 -0.6957 -0.5939
  801MPD2    C411800   0.719   3.579  14.115  0.0838  0.2986 -0.7117
  801MPD2    C511801   0.780   3.603  13.997  0.3583 -0.4436 -0.3528
  801MPD2     H11802   0.948   3.372  14.248 -0.5520  0.1447 -0.1471
  801MPD2    H111803   0.630   3.635  14.141 -0.4112  0.0345 -1.8312
  801MPD2    H211804   0.938   3.556  13.861 -1.8498 -2.3288 -1.1327
  801MPD2    H311805   0.731   3.656  13.916 -2.6067  0.8628  2.2845
  801MPD2     N11806   0.725   3.499  14.332  0.5436 -0.0426  0.0473
  801MPD2    H511807   0.639   3.552  14.342  1.2690  1.0620  0.5775
  801MPD2    N111808   1.065   3.371  14.016  0.3766  0.3132 -0.2190
  801MPD2    H711809   1.123   3.327  14.086 -0.1613 -0.1731 -0.0764
  802MPD2     C11810   4.596   4.485   0.764  0.1504  0.2621  0.0587
  802MPD2    C111811   4.534   4.412   0.665  0.1015  0.4386  0.9511
  802MPD2    C211812   4.604   4.309   0.602  0.4221  0.2356  0.2841
  802MPD2    C311813   0.018   4.284   0.631 -0.0861 -0.0088 -1.3033
  802MPD2    C411814   0.073   4.350   0.743  0.4976 -0.2700 -0.1643
  802MPD2    C511815   0.003   4.447   0.806 -0.2789  0.5995  0.4075
  802MPD2     H11816   4.568   4.253   0.516  1.0072 -0.9878  0.8370
  802MPD2    H111817   0.180   4.353   0.757  0.1065  1.9207  2.1939
  802MPD2    H211818   4.540   4.560   0.818 -1.0288 -0.6476  0.0863
  802MPD2    H311819   0.050   4.496   0.891 -1.0893 -0.2998  1.3800
  802MPD2     N11820   0.086   4.176   0.569  0.2934  0.1165 -0.8317
  802MPD2    H511821   0.043   4.132   0.489  1.4787  0.8239 -1.8538
  802MPD2    N111822   4.400   4.443   0.630 -0.0812  0.8860  0.0219
  802MPD2    H711823   4.345   4.380   0.573 -0.4123  1.0908  0.1116
  803MPD2     C11824   1.556   1.949  11.763 -0.5188  0.0668  0.1101
  803MPD2    C111825   1.565   1.984  11.899 -0.0120  0.7139  0.6006
  803MPD2    C211826   1.496   1.911  11.996 -0.6404  0.4092 -0.4094
  803MPD2    C311827   1.406   1.807  11.957 -0.0886  0.1094 -0.1879
  803MPD2    C411828   1.396   1.786  11.822 -0.0198  0.0253 -0.1458
  803MPD2    C511829   1.467   1.854  11.724  0.1090 -0.0586 -0.3317
  803MPD2     H11830   1.517   1.932  12.100 -0.0407  2.4860 -0.9401
  803MPD2    H111831   1.332   1.706  11.787 -0.4174  0.3984 -0.2727
  803MPD2    H211832   1.607   2.000  11.682  2.2638 -1.3051  1.0205
  803MPD2    H311833   1.447   1.823  11.622 -0.5432  0.9345 -0.5103
  803MPD2     N11834   1.328   1.748  12.060 -0.1223  0.0919 -0.3807
  803MPD2    H511835   1.348   1.782  12.153 -0.2964  0.5611 -0.5124
  803MPD2    N111836   1.651   2.087  11.938 -0.0131 -0.4318  0.1960
  803MPD2    H711837   1.650   2.095  12.039  1.6160  0.0489  0.1790
  804MPD2     C11838   0.690   2.907  17.025  0.0236 -0.2269  0.2040
  804MPD2    C111839   0.721   2.861  17.148 -0.5948 -0.0671 -0.6990
  804MPD2    C211840   0.807   2.932  17.236  0.1939 -0.2352 -0.0731
  804MPD2    C311841   0.852   3.056  17.208  0.8282  0.1752 -0.4910
  804MPD2    C411842   0.817   3.100  17.082 -0.2302 -0.0778 -0.4491
  804MPD2    C511843   0.741   3.030  16.996  0.0694  0.1380 -0.0847
  804MPD2     H11844   0.829   2.889  17.333  3.5668  0.5974 -0.4530
  804MPD2    H111845   0.832   3.203  17.054 -0.1039  0.7394  2.5885
  804MPD2    H211846   0.624   2.854  16.958 -0.1272 -1.6688  1.5097
  804MPD2    H311847   0.725   3.072  16.897 -1.4257  1.5023  0.7543
  804MPD2     N11848   0.929   3.126  17.303 -0.0852  0.1959 -0.0647
  804MPD2    H511849   0.925   3.086  17.396  0.8685 -1.3640 -0.6870
  804MPD2    N111850   0.685   2.732  17.190  0.3261 -1.1194 -0.4802
  804MPD2    H711851   0.700   2.693  17.282  2.9398 -0.6910 -0.7120
  805MPD2     C11852   4.703   1.665  15.373  0.1772  0.3571  0.5457
  805MPD2    C111853   0.074   1.687  15.272  0.0654 -0.1409  0.3481
  805MPD2    C211854   0.210   1.663  15.298 -0.1045 -0.8278 -0.2405
  805MPD2    C311855   0.255   1.634  15.424 -0.3339 -0.3416 -0.8985
  805MPD2    C411856   0.161   1.615  15.528 -1.1680  0.2179 -0.2137
  805MPD2    C511857   0.030   1.639  15.498  0.1542 -0.2853  0.0740
  805MPD2     H11858   0.282   1.672  15.217  1.0372 -2.8630  0.5483
  805MPD2    H111859   0.187   1.578  15.626 -1.9583 -1.3658 -0.5971
  805MPD2    H211860   4.596   1.673  15.355  0.1446  0.1960  0.6696
  805MPD2    H311861   4.683   1.640  15.581 -1.4875 -1.6697 -1.2799
  805MPD2     N11862   0.397   1.629  15.436  0.1704  0.5568  0.0711
  805MPD2    H511863   0.444   1.668  15.355  0.6050  1.4602  0.7501
  805MPD2    N111864   0.036   1.722  15.139  0.4696  0.0443 -0.1721
  805MPD2    H711865   0.107   1.701  15.070  1.7693  2.2828  0.4722
  806MPD2     C11866   0.538   0.842  17.491 -0.3332  1.2893  0.3902
  806MPD2    C111867   0.560   0.921  17.602 -0.6338  0.8496 -0.3099
  806MPD2    C211868   0.677   0.988  17.611 -0.0806 -0.7068 -0.1213
  806MPD2    C311869   0.782   0.976  17.523 -0.3949  0.2125  0.4512
  806MPD2    C411870   0.758   0.885  17.421 -0.2143 -0.6028 -0.5751
  806MPD2    C511871   0.639   0.818  17.404 -0.4133 -0.6486 -0.5246
  806MPD2     H11872   0.682   1.075  17.676 -0.3195 -0.4294 -0.4763
  806MPD2    H111873   0.829   0.874  17.340 -1.5536 -1.5315 -1.6196
  806MPD2    H211874   0.442   0.791  17.487  0.9519 -1.1683  0.4205
  806MPD2    H311875   0.626   0.751  17.320 -3.0981 -0.2386 -0.4474
  806MPD2     N11876   0.896   1.059  17.543  0.2342  0.7748 -0.5995
  806MPD2    H511877   0.901   1.114  17.628  0.7055 -0.8482  0.4246
  806MPD2    N111878   0.468   0.915   0.015 -0.1264 -0.0714  0.1305
  806MPD2    H711879   0.388   0.854  17.689 -0.2965  0.5513 -1.3195
  807MPD2     C11880   0.445   0.448   0.574  0.8875 -0.5743 -0.2038
  807MPD2    C111881   0.346   0.529   0.620  0.1329  0.8611 -0.2954
  807MPD2    C211882   0.284   0.500   0.744 -0.0245  0.4000  0.0625
  807MPD2    C311883   0.324   0.396   0.827  0.1267 -0.0188 -0.3120
  807MPD2    C411884   0.420   0.319   0.776 -0.4490  0.1557 -0.1453
  807MPD2    C511885   0.483   0.344   0.658 -0.1102 -0.4302 -0.0507
  807MPD2     H11886   0.203   0.565   0.774  0.8784  0.9074  1.4487
  807MPD2    H111887   0.461   0.230   0.822 -0.0679  0.8611  0.8740
  807MPD2    H211888   0.502   0.453   0.482  0.7210 -0.1721 -0.2815
  807MPD2    H311889   0.566   0.280   0.630 -0.3260 -0.5705 -0.3751
  807MPD2     N11890   0.269   0.377   0.956  0.4906  0.0138  0.6438
  807MPD2    H511891   0.192   0.438   0.980  0.4977  0.4531 -0.4232
  807MPD2    N111892   0.290   0.637   0.541  0.2378  0.3747  0.1018
  807MPD2    H711893   0.218   0.694   0.584 -1.2831  0.5772 -2.7083
  808MPD2     C11894   1.346   3.904  10.080  0.3782  0.8278  0.7513
  808MPD2    C111895   1.436   3.815  10.033  0.5033 -0.3785 -0.7066
  808MPD2    C211896   1.540   3.858   9.948  0.2181  0.6091 -0.1383
  808MPD2    C311897   1.565   3.995   9.926  0.3301  0.2078 -0.3068
  808MPD2    C411898   1.470   4.076   9.978  0.5468 -0.5611  0.8037
  808MPD2    C511899   1.364   4.031  10.053  0.3208  0.3897 -0.1670
  808MPD2     H11900   1.604   3.785   9.899 -0.7380 -0.4620  0.2031
  808MPD2    H111901   1.465   4.181   9.951 -1.3665 -0.8663  0.0382
  808MPD2    H211902   1.258   3.867  10.131 -0.0711  0.9614  0.0636
  808MPD2    H311903   1.298   4.108  10.090  0.6862  1.6551 -2.1354
  808MPD2     N11904   1.679   4.045   9.852 -0.1662 -0.2806 -0.8553
  808MPD2    H511905   1.680   4.146   9.847  1.1412 -0.2057  1.0430
  808MPD2    N111906   1.417   3.674  10.046 -0.3351  0.3319 -0.1972
  808MPD2    H711907   1.491   3.614  10.011  0.2925  0.3512  1.0864
  809MPD2     C11908   2.189   4.125   8.898  0.4688 -0.1801  0.1014
  809MPD2    C111909   2.204   4.020   8.984 -0.4169  0.2802  0.1951
  809MPD2    C211910   2.152   4.035   9.112 -0.1798 -0.5284  1.1226
  809MPD2    C311911   2.084   4.153   9.144  0.1872 -0.0033  0.5112
  809MPD2    C411912   2.079   4.263   9.057  0.2038 -0.0677 -0.1119
  809MPD2    C511913   2.137   4.244   8.933 -0.2407 -0.3046 -0.8270
  809MPD2     H11914   2.152   3.947   9.176  3.0569 -0.9635  0.5142
  809MPD2    H111915   2.034   4.359   9.083  1.2037  0.9694 -2.2166
  809MPD2    H211916   2.216   4.122   8.793  1.5089 -3.8762  0.4531
  809MPD2    H311917   2.129   4.324   8.861 -1.0337 -0.2607 -0.6970
  809MPD2     N11918   2.018   4.171   9.270  0.1755  0.2703  0.4896
  809MPD2    H511919   1.984   4.265   9.288 -1.6877 -0.1902 -0.6572
  809MPD2    N111920   2.262   3.901   8.953  0.0506  0.3142 -0.3058
  809MPD2    H711921   2.257   3.832   9.027 -1.7839  0.3918 -0.3561
  810MPD2     C11922   1.062   2.530  10.159  0.6811  0.2730  0.2072
  810MPD2    C111923   0.929   2.513  10.200 -0.3391  0.0678  0.2479
  810MPD2    C211924   0.845   2.615  10.213  0.2321  0.1884  0.0912
  810MPD2    C311925   0.893   2.747  10.193  0.1459 -0.1153 -0.1413
  810MPD2    C411926   1.021   2.764  10.149 -0.6815  0.0337 -0.6196
  810MPD2    C511927   1.106   2.660  10.129  0.0973 -0.0148 -0.5468
  810MPD2     H11928   0.750   2.594  10.260  0.9307  1.5439  2.1564
  810MPD2    H111929   1.050   2.864  10.118  1.7013 -0.8890 -1.3221
  810MPD2    H211930   1.124   2.443  10.145  0.2446 -0.0540  0.3184
  810MPD2    H311931   1.201   2.684  10.083  0.1107  1.5039  0.2661
  810MPD2     N11932   0.818   2.863  10.201 -0.5991  0.1155  0.6684
  810MPD2    H511933   0.868   2.950  10.183 -0.6563  0.0454  0.1745
  810MPD2    N111934   0.875   2.382  10.215 -0.6375 -0.2649  0.2063
  810MPD2    H711935   0.777   2.379  10.241 -0.7734 -0.1293 -0.2790
  811MPD2     C11936   0.186   2.131   9.915 -0.1047 -0.4771  0.0358
  811MPD2    C111937   0.283   2.231   9.933 -0.7957  1.2268 -0.3567
  811MPD2    C211938   0.249   2.366   9.910  0.3331  0.0889 -0.0962
  811MPD2    C311939   0.127   2.396   9.852  0.7845  0.0665 -0.0669
  811MPD2    C411940   0.030   2.296   9.842 -0.1516 -0.3003  0.3051
  811MPD2    C511941   0.061   2.170   9.881  0.1421 -0.0699  0.1628
  811MPD2     H11942   0.320   2.448   9.912  1.6718 -1.0837  0.7334
  811MPD2    H111943   4.651   2.316   9.810 -0.0585 -0.3935 -0.0436
  811MPD2    H211944   0.204   2.028   9.946  0.6429 -0.4731 -0.3768
  811MPD2    H311945   4.709   2.091   9.872  0.0264  0.1714 -0.9979
  811MPD2     N11946   0.112   2.534   9.815  0.0807 -0.0550 -0.5502
  811MPD2    H511947   0.192   2.594   9.832 -1.4165  1.2594  1.8331
  811MPD2    N111948   0.403   2.171   9.980 -0.3105 -0.2694  0.5076
  811MPD2    H711949   0.402   2.071   9.993  1.2837 -0.1262  1.8919
  812MPD2     C11950   4.168   1.966  12.313 -0.2991  0.6350  0.1862
  812MPD2    C111951   4.031   1.969  12.343 -0.0190 -0.0785 -0.0733
  812MPD2    C211952   3.975   1.858  12.408 -0.3898 -0.2065 -1.0192
  812MPD2    C311953   4.054   1.759  12.467 -0.1465 -0.1064  0.2545
  812MPD2    C411954   4.187   1.754  12.430  0.0744 -0.4103  0.0957
  812MPD2    C511955   4.238   1.854  12.351  0.0010 -0.2871  0.2172
  812MPD2     H11956   3.869   1.850  12.425 -0.6919  1.8259 -1.9927
  812MPD2    H111957   4.258   1.693  12.486  1.5334  0.2686 -1.0218
  812MPD2    H211958   4.219   2.041  12.253 -0.6747 -0.3179 -1.3162
  812MPD2    H311959   4.344   1.843  12.334 -0.0057  0.4625 -0.3180
  812MPD2     N11960   4.004   1.662  12.560  0.1010 -0.8562 -0.5485
  812MPD2    H511961   3.906   1.669  12.586 -0.4291 -1.7465 -2.2855
  812MPD2    N111962   3.960   2.089  12.302 -0.2272  0.3493  0.1093
  812MPD2    H711963   4.010   2.162  12.252 -0.2869 -1.6357 -2.8998
  813MPD2     C11964   3.666   4.039  12.799 -0.4964  0.4379 -0.0056
  813MPD2    C111965   3.602   4.151  12.752  0.7452 -0.6896 -0.9038
  813MPD2    C211966   3.470   4.180  12.785 -0.4814  0.4840  0.6975
  813MPD2    C311967   3.398   4.082  12.856 -0.2854  0.2916 -0.4891
  813MPD2    C411968   3.454   3.963  12.886 -0.1493  0.1128 -0.6146
  813MPD2    C511969   3.590   3.942  12.861 -0.1619 -0.3886  0.2086
  813MPD2     H11970   3.414   4.268  12.755  0.7666  0.4794 -1.6905
  813MPD2    H111971   3.399   3.885  12.937 -0.4028 -0.1136 -1.2338
  813MPD2    H211972   3.772   4.025  12.781 -0.8706 -1.9129 -0.3824
  813MPD2    H311973   3.641   3.856  12.904  0.1301 -0.7303 -0.8174
  813MPD2     N11974   3.254   4.106  12.861 -0.2055 -0.5917  0.4913
  813MPD2    H511975   3.223   4.194  12.823  1.3797  0.0017  0.5397
  813MPD2    N111976   3.687   4.238  12.676 -0.2507 -0.8914 -0.3162
  813MPD2    H711977   3.787   4.220  12.678  0.0966  1.1659  0.1566
  814MPD2     C11978   3.541   0.544  12.011 -0.4031  0.4866  0.2338
  814MPD2    C111979   3.636   0.596  11.923  0.0886 -0.2250  0.4012
  814MPD2    C211980   3.726   0.695  11.967  0.4192 -0.0237 -0.5799
  814MPD2    C311981   3.718   0.742  12.099 -0.3741 -0.3431 -0.1168
  814MPD2    C411982   3.623   0.688  12.179  0.8792 -0.3659 -0.4498
  814MPD2    C511983   3.539   0.589  12.136  0.3313 -0.4853  0.3606
  814MPD2     H11984   3.802   0.725  11.895  0.2955  0.9165 -0.3123
  814MPD2    H111985   3.610   0.727  12.279 -2.7370 -0.5215 -0.8580
  814MPD2    H211986   3.471   0.468  11.975  0.2764  0.9867 -2.1079
  814MPD2    H311987   3.470   0.542  12.205 -0.0459  0.7690  0.8323
  814MPD2     N11988   3.803   0.841  12.155 -0.0725  0.1683 -0.7129
  814MPD2    H511989   3.784   0.873  12.250  0.4304 -0.3169 -0.4470
  814MPD2    N111990   3.639   0.561  11.788  0.3792  0.1483 -0.2631
  814MPD2    H711991   3.709   0.609  11.733  1.5710 -0.5137  0.6753
  815MPD2     C11992   3.494   3.909  12.023 -0.7413 -0.2670  0.1641
  815MPD2    C111993   3.504   3.774  12.069  0.9378 -0.5438  0.1269
  815MPD2    C211994   3.396   3.713  12.131  0.4100  0.6247  0.0832
  815MPD2    C311995   3.287   3.785  12.154  0.1757  0.5344 -0.0262
  815MPD2    C411996   3.280   3.916  12.115 -0.4367  0.1308 -0.0186
  815MPD2    C511997   3.381   3.975  12.055 -0.1241  0.0788  0.2958
  815MPD2     H11998   3.391   3.608  12.156  0.8432  0.8622  1.1346
  815MPD2    H111999   3.196   3.981  12.134 -1.0057 -1.2034  2.0464
  815MPD2    H212000   3.579   3.961  11.981 -1.6541  1.8134  0.9180
  815MPD2    H312001   3.378   4.083  12.044  0.4934  0.2074  1.3734
  815MPD2     N12002   3.175   3.718  12.202  0.1032  0.7887  0.3441
  815MPD2    H512003   3.184   3.617  12.215 -1.5227  0.2115 -2.8420
  815MPD2    N112004   3.626   3.707  12.030 -0.0736 -0.8417  0.4134
  815MPD2    H712005   3.679   3.754  11.959 -0.3076  2.2199  2.2744
  816MPD2     C12006   3.871   2.724  17.186  0.0189  0.5082 -0.3611
  816MPD2    C112007   3.970   2.805  17.234  0.0213 -0.2459  0.1217
  816MPD2    C212008   4.096   2.742  17.246 -1.0903  0.0354 -0.0786
  816MPD2    C312009   4.119   2.616  17.201  0.0266  0.0066 -0.4320
  816MPD2    C412010   4.011   2.536  17.160 -0.1942  1.2737  0.4451
  816MPD2    C512011   3.888   2.593  17.158  0.5360 -0.3575 -0.3887
  816MPD2     H12012   4.172   2.804  17.291  0.6319 -1.2299 -1.2727
  816MPD2    H112013   4.016   2.435  17.122 -0.1141  0.5299  2.4431
  816MPD2    H212014   3.771   2.766  17.176 -0.4201  0.0932  2.4834
  816MPD2    H312015   3.808   2.527  17.126 -0.6896  0.2574  1.3832
  816MPD2     N12016   4.253   2.571  17.209 -0.0956 -0.6927 -0.0615
  816MPD2    H512017   4.326   2.634  17.242 -1.1605 -0.5329  1.9570
  816MPD2    N112018   3.933   2.940  17.264  0.1565  0.2438  0.1865
  816MPD2    H712019   3.843   2.979  17.238  0.1065 -0.5329 -0.8173
  817MPD2     C12020   3.721   0.078  10.166  0.1278 -0.1056  0.3232
  817MPD2    C112021   3.807   0.070  10.055  0.6527  0.0676  0.0592
  817MPD2    C212022   3.818   0.185   9.972  0.0670  0.0059 -0.2797
  817MPD2    C312023   3.734   0.294  10.003  0.4115 -0.0618  0.2655
  817MPD2    C412024   3.637   0.290  10.101 -0.0312 -0.0517 -0.7537
  817MPD2    C512025   3.635   0.183  10.182  0.0129  0.2031  0.1080
  817MPD2     H12026   3.877   0.207   9.883  0.4698 -1.1771 -0.3035
  817MPD2    H112027   3.570   0.372  10.124 -0.6994 -0.0643 -2.6564
  817MPD2    H212028   3.724   0.004  10.245 -0.9964 -0.0905  0.3784
  817MPD2    H312029   3.573   0.191  10.270  1.0388 -1.0735  0.9582
  817MPD2     N12030   3.755   0.414   9.932 -0.3053 -0.6663  0.3703
  817MPD2    H512031   3.838   0.429   9.875 -1.0154 -0.8069 -0.6857
  817MPD2    N112032   3.901   4.689  10.024  0.3273  0.3041 -0.3186
  817MPD2    H712033   3.973   4.715   9.957  1.9299 -0.3325  1.1573
  818MPD2     C12034   3.193   4.481   9.272 -0.4359 -0.4203  0.6265
  818MPD2    C112035   3.180   4.369   9.354  0.3743 -0.1226 -0.3408
  818MPD2    C212036   3.162   4.240   9.302  1.2200 -0.0788  0.8447
  818MPD2    C312037   3.124   4.228   9.169 -0.2374  0.2056  0.4008
  818MPD2    C412038   3.137   4.347   9.094  0.2260 -0.3466  0.4257
  818MPD2    C512039   3.177   4.468   9.145  1.1537 -0.2188  0.2596
  818MPD2     H12040   3.151   4.158   9.372 -0.5803 -1.4655 -1.0406
  818MPD2    H112041   3.123   4.344   8.986  1.5244  2.3436  0.1660
  818MPD2    H212042   3.222   4.579   9.311 -1.4720  0.2211 -0.2328
  818MPD2    H312043   3.184   4.552   9.078  1.7239  0.1075  0.7230
  818MPD2     N12044   3.084   4.110   9.107 -0.1617 -0.3607  0.0940
  818MPD2    H512045   3.068   4.111   9.007  0.9642  1.5856 -0.0510
  818MPD2    N112046   3.181   4.374   9.500  0.6270  0.0646  0.1605
  818MPD2    H712047   3.179   4.282   9.542 -2.1333 -0.5677 -1.3285
  819MPD2     C12048   0.978   1.435  15.448 -0.2367  0.5069  0.2169
  819MPD2    C112049   0.900   1.345  15.513 -0.4664  0.6756  0.0522
  819MPD2    C212050   0.967   1.264  15.601 -0.1214  0.3835 -0.2031
  819MPD2    C312051   1.092   1.293  15.655  0.5195  0.7009  0.7121
  819MPD2    C412052   1.157   1.402  15.605 -0.2206  0.1109 -0.3003
  819MPD2    C512053   1.108   1.470  15.495  0.2858 -0.3152  0.2377
  819MPD2     H12054   0.914   1.175  15.632  0.9646  0.3721  1.6062
  819MPD2    H112055   1.250   1.433  15.652 -0.6693  2.2628 -0.8545
  819MPD2    H212056   0.936   1.493  15.368 -0.5392  0.2056  0.1560
  819MPD2    H312057   1.164   1.548  15.445 -0.3744 -1.3020 -2.0495
  819MPD2     N12058   1.148   1.202  15.750  0.8333  0.4400  0.4880
  819MPD2    H512059   1.102   1.112  15.762 -0.4437  1.1803  1.1330
  819MPD2    N112060   0.773   1.307  15.469  0.4111 -0.1050 -0.2667
  819MPD2    H712061   0.745   1.347  15.380  0.4857 -1.7232 -1.0084
  820MPD2     C12062   0.006   1.265  14.810  0.0266 -0.2423 -0.0588
  820MPD2    C112063   0.086   1.367  14.849  0.6673  0.6259  0.2117
  820MPD2    C212064   0.164   1.357  14.961 -0.1033  1.1000  0.0677
  820MPD2    C312065   0.169   1.235  15.034 -0.3606 -0.2021 -0.8597
  820MPD2    C412066   0.091   1.132  14.985 -0.0533 -0.0535 -0.2829
  820MPD2    C512067   0.013   1.149  14.876 -0.5287 -0.7988 -0.2151
  820MPD2     H12068   0.231   1.432  15.001  0.9145 -0.5052  1.3700
  820MPD2    H112069   0.084   1.031  15.024 -1.3905  0.5974  1.1726
  820MPD2    H212070   4.660   1.276  14.727 -1.1396 -0.9637  0.8227
  820MPD2    H312071   4.675   1.064  14.845 -0.2215 -1.3617  0.7432
  820MPD2     N12072   0.243   1.213  15.153  0.0116 -0.0422  0.4888
  820MPD2    H512073   0.234   1.127  15.206  1.6227 -0.4298  0.1466
  820MPD2    N112074   0.070   1.486  14.777  0.3759 -0.2068  0.0220
  820MPD2    H712075   4.719   1.492  14.707  1.3171  1.9223 -0.7939
  821MPD2     C12076   0.837   2.641  13.141  0.5073  0.5560  0.4236
  821MPD2    C112077   0.946   2.563  13.182  0.2083 -0.8840 -0.0203
  821MPD2    C212078   1.058   2.560  13.099  0.7101 -1.1143 -0.2173
  821MPD2    C312079   1.075   2.645  12.995 -0.1806  0.6769  0.0128
  821MPD2    C412080   0.966   2.721  12.963  1.1067 -0.3629  0.5502
  821MPD2    C512081   0.849   2.715  13.033  0.6702 -0.4195 -0.8210
  821MPD2     H12082   1.148   2.513  13.136 -0.7829 -1.8772  2.4227
  821MPD2    H112083   0.961   2.789  12.878 -1.3987 -1.6175 -0.3163
  821MPD2    H212084   0.748   2.649  13.203  0.4157 -1.7504  0.5911
  821MPD2    H312085   0.765   2.778  13.003 -0.9860 -1.5988  1.3892
  821MPD2     N12086   1.188   2.672  12.913  0.1778  0.0528 -0.6016
  821MPD2    H512087   1.183   2.752  12.850 -3.1175 -1.4308 -2.2387
  821MPD2    N112088   0.953   2.483  13.296 -0.4053 -0.0385 -0.2231
  821MPD2    H712089   1.041   2.435  13.308 -0.4549  0.2904  1.4046
  822MPD2     C12090   1.652   2.442  15.710 -0.4322 -0.0950  0.2035
  822MPD2    C112091   1.691   2.459  15.838  0.4316 -0.4206 -0.2535
  822MPD2    C212092   1.630   2.554  15.917  0.2028 -0.3412 -0.0832
  822MPD2    C312093   1.507   2.611  15.885 -0.2075  0.0964  0.0053
  822MPD2    C412094   1.453   2.584  15.760  1.1299  0.3030 -0.0419
  822MPD2    C512095   1.530   2.508  15.674  0.2152 -0.6046  0.7669
  822MPD2     H12096   1.663   2.566  16.020  2.3440 -1.3335 -0.6477
  822MPD2    H112097   1.358   2.622  15.725  0.7354 -1.7846 -1.2220
  822MPD2    H212098   1.699   2.374  15.640 -0.5223  2.0308 -1.9330
  822MPD2    H312099   1.483   2.486  15.579 -1.4544 -1.0763  1.7070
  822MPD2     N12100   1.441   2.696  15.976 -0.0460 -0.4545  0.0407
  822MPD2    H512101   1.345   2.722  15.957 -0.0835 -1.6845 -1.4486
  822MPD2    N112102   1.798   2.388  15.896  0.3345 -0.0128 -0.4040
  822MPD2    H712103   1.810   2.397  15.997 -0.9458 -0.2600 -0.2395
  823MPD2     C12104   1.077   2.946  16.711  0.7371  0.5130  0.3224
  823MPD2    C112105   1.130   2.864  16.609 -0.2097 -0.2784 -0.3692
  823MPD2    C212106   1.163   2.734  16.647 -0.2514  0.3665 -0.2193
  823MPD2    C312107   1.140   2.690  16.782 -0.0987  0.2061 -0.0572
  823MPD2    C412108   1.087   2.782  16.868 -0.5504 -0.4506 -0.0469
  823MPD2    C512109   1.063   2.913  16.841 -0.2624 -0.8199 -0.0545
  823MPD2     H12110   1.212   2.675  16.570 -0.8667 -0.6893  0.2035
  823MPD2    H112111   1.067   2.763  16.973  0.7414  2.1039  0.6558
  823MPD2    H212112   1.036   3.043  16.683  1.5888  0.4952 -1.0422
  823MPD2    H312113   1.015   2.979  16.912  0.9152  1.4833 -1.3664
  823MPD2     N12114   1.186   2.564  16.834  0.7215 -0.1511  0.0731
  823MPD2    H512115   1.172   2.551  16.934  0.3206  0.8941  0.1577
  823MPD2    N112116   1.150   2.914  16.479 -0.3374 -0.0011 -0.1198
  823MPD2    H712117   1.137   3.013  16.461  1.7552  0.4359  0.7930
  824MPD2     C12118   1.870   1.605  15.782 -0.3549  0.0126 -0.2274
  824MPD2    C112119   1.988   1.673  15.795  0.0721  0.3844  0.1146
  824MPD2    C212120   2.112   1.619  15.758  0.0512 -0.3318  0.7795
  824MPD2    C312121   2.116   1.490  15.712 -0.6082 -0.7568 -0.0185
  824MPD2    C412122   1.992   1.424  15.708 -0.0132 -0.5837 -0.1934
  824MPD2    C512123   1.875   1.476  15.749 -0.3353 -0.0515 -0.0431
  824MPD2     H12124   2.200   1.680  15.776 -1.0604  2.4783 -3.1913
  824MPD2    H112125   1.988   1.323  15.667 -2.5226 -1.4852  2.2309
  824MPD2    H212126   1.772   1.648  15.802 -0.3384  0.2429 -0.6377
  824MPD2    H312127   1.782   1.423  15.740 -0.4666 -0.0402  1.2587
  824MPD2     N12128   2.236   1.439  15.669 -0.0026  1.1531  0.2818
  824MPD2    H512129   2.316   1.500  15.677  0.0255  1.6822 -3.8670
  824MPD2    N112130   1.970   1.803  15.852 -0.2696  0.0779  0.1310
  824MPD2    H712131   1.875   1.838  15.858  0.2791  1.3915  1.2056
  825MPD2     C12132   2.703   1.431  14.937  0.1386  0.9140  0.7879
  825MPD2    C112133   2.651   1.504  15.039  0.5551  0.4825  0.5382
  825MPD2    C212134   2.631   1.645  15.031 -0.5103  0.4693  0.1276
  825MPD2    C312135   2.674   1.704  14.911 -0.2903  0.3104  0.1851
  825MPD2    C412136   2.705   1.625  14.804  0.3236 -0.1570 -1.1307
  825MPD2    C512137   2.731   1.492  14.817 -0.0374  0.6983  0.0740
  825MPD2     H12138   2.603   1.698  15.120  0.9469 -1.5506  1.7967
  825MPD2    H112139   2.712   1.666  14.704 -1.3660  1.6441 -0.5215
  825MPD2    H212140   2.717   1.325  14.950 -1.1100  0.8310  1.3606
  825MPD2    H312141   2.749   1.436  14.725  0.9644  3.2349 -1.2566
  825MPD2     N12142   2.680   1.843  14.896  0.2821  0.2893 -0.2195
  825MPD2    H512143   2.710   1.878  14.806  3.4201 -0.9572  0.3551
  825MPD2    N112144   2.630   1.437  15.165  0.8655  0.1633 -0.0534
  825MPD2    H712145   2.653   1.338  15.168  1.6471  0.3972  1.3501
  826MPD2     C12146   2.039   1.732  13.584 -1.1183 -0.7459  0.3989
  826MPD2    C112147   1.943   1.755  13.488  0.5011 -0.4689 -0.0793
  826MPD2    C212148   1.834   1.838  13.514 -0.0254  0.2251 -0.1078
  826MPD2    C312149   1.822   1.904  13.636  0.0611 -0.8195 -0.5766
  826MPD2    C412150   1.920   1.888  13.734 -0.2550  0.9705 -0.0916
  826MPD2    C512151   2.018   1.801  13.706 -0.0275  0.8347 -0.9229
  826MPD2     H12152   1.763   1.859  13.435  0.2896  1.0539 -0.1734
  826MPD2    H112153   1.914   1.936  13.831 -0.1258 -0.4308  0.6108
  826MPD2    H212154   2.125   1.667  13.577 -0.5272 -0.0443  1.1489
  826MPD2    H312155   2.090   1.767  13.781 -0.8862 -0.6892 -0.7850
  826MPD2     N12156   1.716   1.998  13.656 -0.4997 -0.1719  0.5424
  826MPD2    H512157   1.722   2.044  13.747  2.1517  0.2682  0.1458
  826MPD2    N112158   1.961   1.696  13.363  0.0725  0.2707 -0.1055
  826MPD2    H712159   2.032   1.623  13.357 -0.9447 -0.8958  1.8683
  827MPD2     C12160   3.281   2.994   9.795 -0.8364 -0.0655  0.1330
  827MPD2    C112161   3.218   2.898   9.871 -0.4180 -0.6890  0.8891
  827MPD2    C212162   3.163   2.788   9.805 -1.0446 -0.0779 -0.6407
  827MPD2    C312163   3.149   2.783   9.670  0.6408  0.3130 -0.5587
  827MPD2    C412164   3.215   2.880   9.593  0.7031  0.3796 -0.3241
  827MPD2    C512165   3.284   2.986   9.656 -0.2703 -0.3682  0.0703
  827MPD2     H12166   3.128   2.701   9.859 -0.5538  0.4860  0.5675
  827MPD2    H112167   3.214   2.880   9.485  2.2156  2.6405 -0.3485
  827MPD2    H212168   3.347   3.064   9.845  0.7013 -1.7765  0.5186
  827MPD2    H312169   3.336   3.057   9.592 -0.8837  0.7392  0.7976
  827MPD2     N12170   3.081   2.677   9.611 -0.0324 -0.1216 -0.3326
  827MPD2    H512171   3.057   2.599   9.671  0.0483 -1.4441 -2.0179
  827MPD2    N112172   3.222   2.916  10.008  0.0352  0.5335 -0.8691
  827MPD2    H712173   3.250   3.006  10.046 -2.8529  0.8100  0.6525
  828MPD2     C12174   1.389   3.094  12.462 -0.6207 -0.3498  0.0918
  828MPD2    C112175   1.342   3.015  12.360  0.1599 -0.1221 -0.4500
  828MPD2    C212176   1.433   2.951  12.280 -0.3109 -0.0460  0.0193
  828MPD2    C312177   1.574   2.977  12.280 -0.3345 -0.7929 -0.2390
  828MPD2    C412178   1.610   3.075  12.370 -0.0279  0.2558 -0.6007
  828MPD2    C512179   1.524   3.118  12.463 -0.1365  0.1494 -0.2298
  828MPD2     H12180   1.391   2.887  12.203 -1.4619  0.9854 -0.2093
  828MPD2    H112181   1.714   3.106  12.370  0.8753 -2.7173 -1.0489
  828MPD2    H212182   1.325   3.140  12.536 -0.8124 -2.4666  1.2455
  828MPD2    H312183   1.561   3.186  12.539  2.7923 -0.0450 -1.4678
  828MPD2     N12184   1.666   2.914  12.197  0.0608  0.0395  0.2276
  828MPD2    H512185   1.761   2.950  12.202 -0.4819  1.2758  1.6841
  828MPD2    N112186   1.204   2.984  12.331 -0.0713 -0.2906  0.1035
  828MPD2    H712187   1.180   2.917  12.259 -0.0315 -0.2527  0.0552
  829MPD2     C12188   0.889   3.637  11.740  0.5212  0.2567  0.6530
  829MPD2    C112189   0.777   3.570  11.785  0.4862  1.0641 -0.1465
  829MPD2    C212190   0.780   3.456  11.871 -0.1750 -0.3161  0.1996
  829MPD2    C312191   0.901   3.417  11.925 -0.1006 -0.4808 -0.2956
  829MPD2    C412192   1.008   3.500  11.902  0.5822 -0.1788  0.2106
  829MPD2    C512193   1.003   3.608  11.808 -0.0459  0.3478 -0.2024
  829MPD2     H12194   0.691   3.416  11.919  1.5874 -3.1861  1.0365
  829MPD2    H112195   1.096   3.470  11.956  0.7585  0.2124  0.1430
  829MPD2    H212196   0.887   3.719  11.669  0.8313 -1.8198 -1.7743
  829MPD2    H312197   1.093   3.659  11.776  1.1293 -1.0630  0.8415
  829MPD2     N12198   0.913   3.311  12.016  0.4447 -0.0275 -0.4483
  829MPD2    H512199   1.001   3.303  12.066 -0.1139 -2.7505  0.1007
  829MPD2    N112200   0.645   3.610  11.741  0.0504  0.0942 -0.5169
  829MPD2    H712201   0.654   3.682  11.670 -0.6649 -1.1476 -1.8564
  830MPD2     C12202   1.853   0.811  15.784  0.0959  0.0939  0.2674
  830MPD2    C112203   1.742   0.864  15.723 -0.7546  0.3876  0.1211
  830MPD2    C212204   1.757   0.967  15.625 -0.6374  0.3342 -0.7828
  830MPD2    C312205   1.886   1.004  15.589 -0.4544 -0.0528 -0.4240
  830MPD2    C412206   2.003   0.946  15.642 -1.1216 -0.3947  0.1825
  830MPD2    C512207   1.979   0.848  15.738  0.6350  0.9607 -0.1905
  830MPD2     H12208   1.670   1.028  15.603 -0.2684  0.7218 -1.1381
  830MPD2    H112209   2.103   0.980  15.619 -0.3313 -2.1154  1.1011
  830MPD2    H212210   1.852   0.738  15.864  1.5316  0.2662  0.4545
  830MPD2    H312211   2.062   0.799  15.786 -1.2147 -0.8477  1.1952
  830MPD2     N12212   1.909   1.115  15.496  0.5564  0.4307  0.1418
  830MPD2    H512213   2.005   1.139  15.476  0.2819  1.6564  0.2858
  830MPD2    N112214   1.616   0.833  15.781  0.2618  0.3806  0.2262
  830MPD2    H712215   1.620   0.772  15.862 -3.4336  1.2809  1.0957
  831MPD2     C12216   1.698   2.796  16.453 -0.2061  0.3797  0.0051
  831MPD2    C112217   1.717   2.708  16.352 -0.0857  0.3649  0.7904
  831MPD2    C212218   1.630   2.603  16.334  0.5615  0.3375 -0.2145
  831MPD2    C312219   1.513   2.587  16.414  0.4385  0.3328 -0.3551
  831MPD2    C412220   1.503   2.669  16.530 -0.3011  0.2058 -0.7361
  831MPD2    C512221   1.598   2.773  16.543 -0.0309 -0.3061 -0.4278
  831MPD2     H12222   1.638   2.538  16.248  2.1269 -1.4588  1.2889
  831MPD2    H112223   1.424   2.633  16.595 -0.5957  0.6244 -0.8609
  831MPD2    H212224   1.760   2.883  16.474 -1.8964  1.1055  2.0167
  831MPD2    H312225   1.593   2.833  16.633  1.9826 -0.5409 -0.1598
  831MPD2     N12226   1.407   2.489  16.388  0.0423  0.5048 -0.7408
  831MPD2    H512227   1.334   2.483  16.459 -1.3783  1.1689 -2.1542
  831MPD2    N112228   1.822   2.729  16.264  0.4314  0.2416  0.0315
  831MPD2    H712229   1.859   2.823  16.267  0.3654  0.2783 -0.3390
  832MPD2     C12230   4.488   3.752  17.338 -0.2287 -0.1067 -0.0514
  832MPD2    C112231   4.509   3.857  17.261  0.2065 -0.2181 -0.8190
  832MPD2    C212232   4.439   3.867  17.137  0.7129 -0.6164  0.6813
  832MPD2    C312233   4.346   3.772  17.097 -0.1166  0.0262 -0.4363
  832MPD2    C412234   4.342   3.660  17.180  0.4866 -0.3206  0.6273
  832MPD2    C512235   4.408   3.651  17.301 -0.3119  0.1703 -0.0779
  832MPD2     H12236   4.451   3.953  17.072 -0.5600 -1.7090 -0.9736
  832MPD2    H112237   4.277   3.574  17.165  0.0731  0.4258 -1.9027
  832MPD2    H212238   4.547   3.737  17.428 -1.1935  2.3645  0.9909
  832MPD2    H312239   4.392   3.566  17.367 -2.1382  1.0818  0.6611
  832MPD2     N12240   4.254   3.782  16.988  0.4907  0.0560 -0.4767
  832MPD2    H512241   4.183   3.710  16.998  0.8537 -0.2544 -0.1349
  832MPD2    N112242   4.600   3.958  17.308 -0.0486 -0.0845  0.0597
  832MPD2    H712243   4.642   3.949  17.400 -1.1120 -0.4321  0.5173
  833MPD2     C12244   2.082   0.620  12.232 -0.8352  0.1314  0.3025
  833MPD2    C112245   2.090   0.728  12.142 -0.6734 -0.8105  0.2128
  833MPD2    C212246   2.180   0.719  12.038  0.3003 -0.8244 -0.3178
  833MPD2    C312247   2.260   0.602  12.028 -0.4668 -0.2231 -0.7402
  833MPD2    C412248   2.245   0.501  12.115 -0.2225 -0.2571 -0.2504
  833MPD2    C512249   2.151   0.504  12.204  0.2971 -1.1875 -0.1073
  833MPD2     H12250   2.182   0.795  11.961 -0.6437 -1.0298 -0.5425
  833MPD2    H112251   2.300   0.408  12.104  2.1544  1.0644  0.4777
  833MPD2    H212252   2.014   0.624  12.317 -1.9393 -0.5512 -0.5529
  833MPD2    H312253   2.139   0.419  12.271 -0.7744 -0.2378  0.9180
  833MPD2     N12254   2.354   0.580  11.921  0.2695  0.1545 -0.0043
  833MPD2    H512255   2.404   0.493  11.911 -2.8034 -1.4946 -0.9296
  833MPD2    N112256   2.020   0.849  12.164  0.9212 -0.6680  0.8735
  833MPD2    H712257   1.945   0.847  12.233 -0.1293  1.7561 -0.2127
  834MPD2     C12258   2.696   4.707  11.208  0.3575  0.2861 -0.6093
  834MPD2    C112259   2.637   0.067  11.122 -0.8859 -0.4792  0.0095
  834MPD2    C212260   2.568   0.179  11.168  0.3019 -0.1199 -0.2481
  834MPD2    C312261   2.561   0.209  11.304  0.4428 -0.4527 -0.3183
  834MPD2    C412262   2.628   0.125  11.389 -0.4120  0.0188 -0.6178
  834MPD2    C512263   2.705   0.022  11.338  0.4830 -0.0500  0.4657
  834MPD2     H12264   2.517   0.242  11.097  0.2657  1.3274  1.0499
  834MPD2    H112265   2.633   0.131  11.497  0.3974 -2.8655 -0.5040
  834MPD2    H212266   2.747   4.616  11.177  1.4425  0.3260  1.0843
  834MPD2    H312267   2.749   4.667  11.400 -0.3225  0.6800  1.9644
  834MPD2     N12268   2.483   0.322  11.356  0.4116 -0.0437  0.0707
  834MPD2    H512269   2.442   0.378  11.283  0.5188 -0.3639 -0.2344
  834MPD2    N112270   2.638   0.028  10.987 -0.1882 -0.5395  0.1864
  834MPD2    H712271   2.649   4.650  10.973 -0.2639 -0.4219 -0.6989
  835MPD2     C12272   2.287   3.083  11.384 -0.3653 -0.1529 -0.0465
  835MPD2    C112273   2.198   3.184  11.398  0.2768  0.1167 -0.4296
  835MPD2    C212274   2.189   3.250  11.517  0.2727  0.7581 -0.3438
  835MPD2    C312275   2.267   3.199  11.623 -0.9313  0.2824  0.2255
  835MPD2    C412276   2.356   3.088  11.609 -0.7875 -0.1149 -0.4639
  835MPD2    C512277   2.368   3.041  11.482 -0.7438 -0.5184 -0.0152
  835MPD2     H12278   2.101   3.309  11.540  1.2018  1.8565  0.4123
  835MPD2    H112279   2.416   3.048  11.690 -0.6223 -0.6319 -0.8439
  835MPD2    H212280   2.307   3.028  11.293  1.7617  1.6330 -0.6679
  835MPD2    H312281   2.429   2.957  11.454  1.5044  1.7053 -1.8245
  835MPD2     N12282   2.266   3.249  11.752 -0.0056 -0.1668 -0.5055
  835MPD2    H512283   2.336   3.213  11.815  0.0844 -0.7787 -0.9629
  835MPD2    N112284   2.098   3.220  11.300  0.9606 -0.1657 -0.2163
  835MPD2    H712285   2.039   3.298  11.325  1.3631  0.3743 -0.9522
  836MPD2     C12286   2.004   3.947  12.095 -0.1954 -0.1745  0.0003
  836MPD2    C112287   1.985   3.820  12.154  0.1763 -0.0201 -0.2321
  836MPD2    C212288   1.872   3.797  12.229  0.2119 -0.4324 -0.0334
  836MPD2    C312289   1.785   3.899  12.246  0.2691 -0.4964  0.0749
  836MPD2    C412290   1.795   4.020  12.176 -0.1276 -0.2358  0.1117
  836MPD2    C512291   1.902   4.042  12.099 -0.3211  0.3276 -0.4102
  836MPD2     H12292   1.867   3.700  12.276 -0.5316 -1.0012 -1.3026
  836MPD2    H112293   1.722   4.098  12.196  0.9948  1.2718 -1.6500
  836MPD2    H212294   2.097   3.956  12.039 -1.2026  2.3693 -1.2353
  836MPD2    H312295   1.903   4.128  12.033  0.0741  0.1097 -0.6918
  836MPD2     N12296   1.679   3.853  12.330  0.3144 -0.2208  0.1056
  836MPD2    H512297   1.678   3.753  12.344 -0.2017  0.1099  2.3597
  836MPD2    N112298   2.086   3.722  12.135  0.0194  0.1766  0.2738
  836MPD2    H712299   2.160   3.756  12.074  3.2522 -1.9845  3.0505
  837MPD2     C12300   0.425   3.267   9.766 -0.0076 -0.1249  0.6370
  837MPD2    C112301   0.304   3.258   9.836 -0.2425 -0.2427  0.5972
  837MPD2    C212302   0.234   3.368   9.871 -0.9650  0.8248 -0.6532
  837MPD2    C312303   0.282   3.498   9.833 -0.3223 -0.8059 -0.0344
  837MPD2    C412304   0.407   3.507   9.769  0.7067 -0.1849 -0.1224
  837MPD2    C512305   0.474   3.392   9.737  0.1173  0.3094 -0.6044
  837MPD2     H12306   0.143   3.355   9.928  0.1901  1.7814  1.4002
  837MPD2    H112307   0.461   3.601   9.762  0.5017  0.1206  2.4114
  837MPD2    H212308   0.484   3.181   9.735 -2.2679 -1.5788  0.4167
  837MPD2    H312309   0.573   3.389   9.691  0.6132  3.5285  0.2789
  837MPD2     N12310   0.190   3.605   9.859  0.3743 -0.5605 -0.0542
  837MPD2    H512311   0.107   3.583   9.912 -0.6743  0.0960 -1.4375
  837MPD2    N112312   0.247   3.129   9.860 -0.1259 -0.2753  0.2212
  837MPD2    H712313   0.164   3.121   9.919  0.5181 -2.5835  0.7977
  838MPD2     C12314   3.358   1.456  12.002 -0.2586  0.1710  0.4473
  838MPD2    C112315   3.338   1.320  12.012 -0.6528  0.2139  0.0550
  838MPD2    C212316   3.214   1.278  12.048  0.3162  0.5296  0.0236
  838MPD2    C312317   3.111   1.364  12.086 -0.7009  0.3704 -0.6630
  838MPD2    C412318   3.142   1.498  12.099  0.1682 -0.8268  0.7533
  838MPD2    C512319   3.262   1.543  12.047  0.3839  0.5536  0.7257
  838MPD2     H12320   3.193   1.172  12.043 -0.1741  0.5606  1.3933
  838MPD2    H112321   3.071   1.561  12.151  0.9018 -0.6113  1.4870
  838MPD2    H212322   3.440   1.515  11.963 -1.7054  1.1252 -1.1438
  838MPD2    H312323   3.273   1.650  12.032 -1.5086  0.3010 -2.3451
  838MPD2     N12324   2.977   1.309  12.103  0.2164  0.5221 -0.5179
  838MPD2    H512325   2.954   1.213  12.084 -0.4146  1.0975 -2.7154
  838MPD2    N112326   3.432   1.221  11.976  0.3946  0.0273  0.1282
  838MPD2    H712327   3.402   1.124  11.972 -0.6956  0.3436  0.8076
  839MPD2     C12328   3.135   0.566  11.590  0.2741  0.5484  0.3361
  839MPD2    C112329   3.253   0.572  11.509 -0.1625  0.3403 -0.2334
  839MPD2    C212330   3.355   0.657  11.547  0.1642 -0.2252 -0.2165
  839MPD2    C312331   3.343   0.733  11.670 -0.7747  0.9634  0.0988
  839MPD2    C412332   3.231   0.721  11.743 -0.7139  0.2128 -0.3600
  839MPD2    C512333   3.132   0.636  11.714  0.1629  0.7012 -0.1566
  839MPD2     H12334   3.449   0.675  11.495 -0.0894 -1.5030 -1.1091
  839MPD2    H112335   3.218   0.786  11.829 -1.2839  3.0232 -2.5441
  839MPD2    H212336   3.048   0.503  11.577 -0.8554  2.5442 -1.6517
  839MPD2    H312337   3.044   0.622  11.776 -0.1466  1.0801 -0.5066
  839MPD2     N12338   3.432   0.833  11.710  0.6734  0.0018  0.0209
  839MPD2    H512339   3.398   0.891  11.787  2.6669  0.9061  0.2179
  839MPD2    N112340   3.268   0.502  11.388 -0.2717  0.4587  0.0641
  839MPD2    H712341   3.339   0.534  11.322  0.3242 -0.0473  0.4539
  840MPD2     C12342   3.444   3.432  10.238 -0.3899  0.1881  0.6449
  840MPD2    C112343   3.438   3.345  10.346 -0.0907 -0.6840 -0.1048
  840MPD2    C212344   3.487   3.385  10.465  0.2621 -0.1269 -0.3179
  840MPD2    C312345   3.547   3.506  10.482  0.2723  0.4021  0.6465
  840MPD2    C412346   3.543   3.593  10.382  0.6144  0.9330  0.2887
  840MPD2    C512347   3.490   3.559  10.262  0.1570  0.4777 -0.2473
  840MPD2     H12348   3.504   3.312  10.544  2.9884 -0.1516 -0.9293
  840MPD2    H112349   3.585   3.693  10.387 -2.3677  2.2050  0.0998
  840MPD2    H212350   3.405   3.403  10.141  0.7525  1.3947 -0.1669
  840MPD2    H312351   3.487   3.638  10.187  1.3357  1.3551  0.6404
  840MPD2     N12352   3.615   3.548  10.602 -0.0466  0.3170 -0.4052
  840MPD2    H512353   3.671   3.633  10.600  2.4741 -1.3890 -2.4119
  840MPD2    N112354   3.372   3.217  10.332  0.0458  0.4827  0.7386
  840MPD2    H712355   3.333   3.190  10.242  2.5162  0.4074 -0.3150
  841MPD2     C12356   3.035   3.553  14.609  0.2546  0.1280 -0.5428
  841MPD2    C112357   3.070   3.425  14.653  0.3186 -0.2945 -0.6174
  841MPD2    C212358   3.200   3.382  14.645  0.6688  0.6033  0.8138
  841MPD2    C312359   3.296   3.458  14.597 -0.4169  0.0187  0.0171
  841MPD2    C412360   3.269   3.589  14.561  0.9057  0.2895  0.9260
  841MPD2    C512361   3.139   3.635  14.569  0.0697 -0.2440  0.7921
  841MPD2     H12362   3.221   3.282  14.682 -4.6151 -0.2593  1.4976
  841MPD2    H112363   3.346   3.661  14.538 -0.5390  2.3683  2.5609
  841MPD2    H212364   2.932   3.587  14.616  0.1086 -0.9537  2.6755
  841MPD2    H312365   3.111   3.737  14.549 -1.3403 -0.4493  1.7259
  841MPD2     N12366   3.424   3.405  14.583  0.5628 -0.0790  0.3215
  841MPD2    H512367   3.449   3.311  14.611 -2.5377 -0.4472  1.8675
  841MPD2    N112368   2.968   3.332  14.706 -0.1759  0.2450 -0.5218
  841MPD2    H712369   3.000   3.236  14.712 -0.9006 -0.0642 -1.5546
  842MPD2     C12370   3.708   4.186  16.604 -0.3042 -0.7167 -0.2500
  842MPD2    C112371   3.575   4.161  16.615 -0.0839 -0.3093 -0.6402
  842MPD2    C212372   3.511   4.155  16.741 -0.2854 -1.1377  0.1658
  842MPD2    C312373   3.603   4.137  16.842 -0.2149 -0.9398  0.5417
  842MPD2    C412374   3.739   4.155  16.828 -0.1186 -0.0856  0.9374
  842MPD2    C512375   3.793   4.188  16.711  0.0796 -0.4651  0.3593
  842MPD2     H12376   3.403   4.150  16.741 -0.3514  0.3315  1.2585
  842MPD2    H112377   3.804   4.166  16.914 -0.4695 -1.6051  1.4092
  842MPD2    H212378   3.757   4.205  16.509 -0.0171 -1.9976 -0.3571
  842MPD2    H312379   3.901   4.196  16.704  0.2686 -2.7837  0.6594
  842MPD2     N12380   3.563   4.122  16.977  0.0405 -0.7416 -0.6535
  842MPD2    H512381   3.630   4.108  17.052 -0.0740  0.5932 -0.3028
  842MPD2    N112382   3.512   4.155  16.489 -0.0591 -0.3917 -0.3732
  842MPD2    H712383   3.572   4.168  16.408  2.6606 -1.0163  1.5387
  843MPD2     C12384   2.002   0.087   0.608  0.1345  0.3750 -0.1090
  843MPD2    C112385   1.907   0.153   0.682  0.1430 -0.0731 -0.3307
  843MPD2    C212386   1.786   0.202   0.624 -0.1216 -0.3422  0.3224
  843MPD2    C312387   1.769   0.198   0.489 -0.4934 -0.4715  0.8265
  843MPD2    C412388   1.862   0.132   0.414  0.5564  0.1089 -0.3907
  843MPD2    C512389   1.980   0.082   0.470 -0.5146 -0.8249 -0.2079
  843MPD2     H12390   1.705   0.240   0.685 -0.8041 -2.4548  0.7498
  843MPD2    H112391   1.860   0.126   0.306  0.1775 -0.5980 -0.3459
  843MPD2    H212392   2.089   0.032   0.642 -0.3786  0.1688  0.8882
  843MPD2    H312393   2.053   0.034   0.406  0.0412 -1.5189  0.9209
  843MPD2     N12394   1.658   0.248   0.421 -0.2380  0.3435 -0.1580
  843MPD2    H512395   1.649   0.226   0.323 -0.1391 -0.9563  0.1222
  843MPD2    N112396   1.929   0.144   0.824 -0.2595 -0.0867  0.5046
  843MPD2    H712397   2.019   0.103   0.843  0.7225  1.3848 -0.9632
  844MPD2     C12398   4.316   3.208  16.770  0.0491  0.9582 -0.2383
  844MPD2    C112399   4.444   3.217  16.709 -0.3891  0.3110 -0.1221
  844MPD2    C212400   4.537   3.291  16.774  0.6260  0.5964 -0.0763
  844MPD2    C312401   4.514   3.356  16.895 -0.1115 -0.4567 -0.8938
  844MPD2    C412402   4.392   3.342  16.960  0.0581 -0.2224  0.4342
  844MPD2    C512403   4.295   3.268  16.893 -0.7161  0.4672  0.4090
  844MPD2     H12404   4.638   3.291  16.733  0.6575 -2.5593 -0.0090
  844MPD2    H112405   4.375   3.379  17.060 -1.4803  0.5808 -0.1296
  844MPD2    H212406   4.237   3.146  16.728  0.1018 -0.4286  1.7163
  844MPD2    H312407   4.210   3.256  16.958  1.0339  0.2862  2.6545
  844MPD2     N12408   4.626   3.423  16.956 -0.0521 -0.4420  0.4687
  844MPD2    H512409   4.711   3.439  16.902  0.8317 -0.4281  1.8541
  844MPD2    N112410   4.481   3.142  16.596 -0.1921 -0.2037 -0.1718
  844MPD2    H712411   4.580   3.125  16.582 -0.5470 -1.0857 -1.5359
  845MPD2     C12412   0.169   4.298  16.668  0.7887  0.3995 -0.1058
  845MPD2    C112413   0.100   4.308  16.789  0.0757 -0.1796 -0.7941
  845MPD2    C212414   0.104   4.198  16.868  0.0711 -0.0334  0.3858
  845MPD2    C312415   0.158   4.077  16.829 -0.5485  0.3009 -0.3884
  845MPD2    C412416   0.228   4.074  16.711  0.4187  0.1987 -0.1710
  845MPD2    C512417   0.228   4.185  16.624  0.7678 -0.3144 -0.6632
  845MPD2     H12418   0.053   4.199  16.963 -0.6272  1.3405 -0.0017
  845MPD2    H112419   0.285   3.986  16.679 -1.2965 -0.3332 -1.7575
  845MPD2    H212420   0.186   4.384  16.605  3.5405  1.1320  1.6276
  845MPD2    H312421   0.286   4.189  16.533 -0.7946  0.5128 -1.6362
  845MPD2     N12422   0.143   3.967  16.922  0.3052 -0.6324  0.2336
  845MPD2    H512423   0.098   3.989  17.010  1.6816 -2.0748  1.2902
  845MPD2    N112424   0.038   4.431  16.819 -0.4048 -0.9948  0.2774
  845MPD2    H712425   0.050   4.511  16.759 -1.5848 -1.1747 -0.2101
  846MPD2     C12426   1.657   0.242  13.690 -0.0137  0.4892 -0.6979
  846MPD2    C112427   1.565   0.345  13.714 -0.4275 -0.0548  0.8108
  846MPD2    C212428   1.492   0.338  13.830 -0.5247 -0.3055 -0.9635
  846MPD2    C312429   1.506   0.236  13.917  0.2813 -0.0839 -0.2188
  846MPD2    C412430   1.610   0.145  13.893 -0.1678 -0.5264 -0.6273
  846MPD2    C512431   1.681   0.141  13.779  0.6331 -0.1313 -0.5153
  846MPD2     H12432   1.414   0.408  13.858  1.2030  1.2842 -0.0582
  846MPD2    H112433   1.631   0.063  13.960 -0.7506 -0.2228 -0.0766
  846MPD2    H212434   1.720   0.247  13.602  0.5595  0.2807 -0.2991
  846MPD2    H312435   1.774   0.085  13.770  1.3336  1.0436 -0.6598
  846MPD2     N12436   1.433   0.238  14.034  0.0598  0.6223 -0.1383
  846MPD2    H512437   1.360   0.308  14.040 -1.0105 -0.5467  0.4035
  846MPD2    N112438   1.533   0.451  13.632  0.1929 -0.6048  0.4436
  846MPD2    H712439   1.472   0.526  13.662 -0.1034 -0.6552 -0.0229
  847MPD2     C12440   1.514   0.972  14.429 -0.9126  0.1129 -0.2893
  847MPD2    C112441   1.629   1.045  14.432 -0.0775 -0.4818  0.3286
  847MPD2    C212442   1.743   0.982  14.485  0.4498  0.0278  0.3875
  847MPD2    C312443   1.733   0.857  14.544 -0.6042  0.0541  0.4990
  847MPD2    C412444   1.605   0.790  14.553  0.2530  0.3948  0.4414
  847MPD2    C512445   1.503   0.844  14.483  0.2477  0.0619  0.1461
  847MPD2     H12446   1.837   1.037  14.486  0.0695  0.6815  0.0859
  847MPD2    H112447   1.589   0.695  14.602 -1.3902  0.0041 -0.8606
  847MPD2    H212448   1.432   1.002  14.364 -1.2871  0.9238  0.5579
  847MPD2    H312449   1.412   0.786  14.480 -0.4304  1.1040  0.5633
  847MPD2     N12450   1.854   0.820  14.603  0.2389 -0.1715  0.6719
  847MPD2    H512451   1.936   0.873  14.574 -0.6577  0.3277 -0.9116
  847MPD2    N112452   1.629   1.184  14.399  0.6895 -0.1102 -0.7170
  847MPD2    H712453   1.719   1.224  14.422  0.5045 -0.3567  0.4078
  848MPD2     C12454   4.025   3.892  16.181  0.1522  0.5323 -0.0387
  848MPD2    C112455   4.077   3.983  16.263  0.3201 -0.0930  1.1670
  848MPD2    C212456   4.144   4.095  16.211 -0.2028  0.2852  0.4824
  848MPD2    C312457   4.135   4.120  16.073  0.8114  0.1470 -0.0362
  848MPD2    C412458   4.067   4.036  15.991 -0.5749  0.3160 -0.2753
  848MPD2    C512459   4.021   3.919  16.046 -0.3996  0.1151  0.0608
  848MPD2     H12460   4.187   4.171  16.274  1.1579 -2.0287  2.3408
  848MPD2    H112461   4.054   4.043  15.883  1.1294  0.5425 -0.4750
  848MPD2    H212462   4.001   3.789  16.206 -0.3119  0.2175 -1.7197
  848MPD2    H312463   3.975   3.847  15.980  0.6491  0.0965 -0.6633
  848MPD2     N12464   4.193   4.233  16.012 -0.5127 -0.7470 -0.0119
  848MPD2    H512465   4.178   4.243  15.912  0.5996  0.3697 -0.0651
  848MPD2    N112466   4.084   3.957  16.403  0.0705  0.1311  0.6096
  848MPD2    H712467   4.124   4.026  16.466  2.8815 -1.6640  0.7984
  849MPD2     C12468   2.910   3.998  13.700 -0.9000  0.6948 -0.1204
  849MPD2    C112469   3.021   3.928  13.668 -1.3119 -0.1171  0.2107
  849MPD2    C212470   3.103   3.883  13.772  0.2317 -0.1220  0.3034
  849MPD2    C312471   3.075   3.903  13.912 -0.1078 -0.2573 -0.0918
  849MPD2    C412472   2.960   3.969  13.941  0.5750  0.3565 -0.1315
  849MPD2    C512473   2.877   4.013  13.835  0.1222 -0.1991 -0.5522
  849MPD2     H12474   3.195   3.828  13.754  0.6089  0.4182  0.5610
  849MPD2    H112475   2.913   3.973  14.039  0.7768  0.7172 -0.0505
  849MPD2    H212476   2.848   4.047  13.625 -0.9555 -0.0811 -0.5748
  849MPD2    H312477   2.781   4.062  13.853 -0.1867 -2.0249  2.7603
  849MPD2     N12478   3.165   3.839  13.999 -0.1286  0.4441  0.2607
  849MPD2    H512479   3.237   3.778  13.962  0.6048  0.4745  1.6224
  849MPD2    N112480   3.052   3.902  13.535  0.2451 -0.1369 -0.1514
  849MPD2    H712481   2.995   3.939  13.460 -0.9323 -3.2759 -0.8077
  850MPD2     C12482   1.447   1.811  14.879  0.0794  1.0219 -0.1210
  850MPD2    C112483   1.467   1.941  14.924 -0.8541 -0.5230  0.0611
  850MPD2    C212484   1.594   1.985  14.960  0.4647 -0.5970  0.0850
  850MPD2    C312485   1.699   1.897  14.957 -0.6570 -0.0736  0.0585
  850MPD2    C412486   1.680   1.770  14.906 -0.0428 -1.2662  0.2260
  850MPD2    C512487   1.554   1.722  14.873  0.1431  0.2476  0.4294
  850MPD2     H12488   1.606   2.089  14.987  1.8275 -1.2627  2.0375
  850MPD2    H112489   1.761   1.698  14.904 -0.1696 -1.3944 -0.3554
  850MPD2    H212490   1.343   1.783  14.863 -0.1582  2.0797 -0.4110
  850MPD2    H312491   1.545   1.615  14.856 -1.1899  0.3124  0.6971
  850MPD2     N12492   1.839   1.932  14.968 -0.1088  0.2422  0.3070
  850MPD2    H512493   1.910   1.860  14.953 -1.6077 -1.0556 -0.5964
  850MPD2    N112494   1.353   2.027  14.934  0.4057  0.3889 -0.3921
  850MPD2    H712495   1.271   1.999  14.880  2.3473 -2.9321 -1.6053
  851MPD2     C12496   1.942   2.063  15.492 -0.0728  0.6215 -0.4030
  851MPD2    C112497   1.824   2.003  15.440  0.0982  0.9003 -0.6466
  851MPD2    C212498   1.828   1.868  15.409 -0.2254 -0.6393 -0.7638
  851MPD2    C312499   1.937   1.792  15.432 -0.0410 -0.5002  0.2210
  851MPD2    C412500   2.056   1.846  15.488 -0.9323  0.3368  0.1010
  851MPD2    C512501   2.050   1.982  15.522  0.5186 -0.5810  0.0763
  851MPD2     H12502   1.738   1.823  15.369 -0.5799  0.3284 -1.0465
  851MPD2    H112503   2.139   1.782  15.517 -1.4069 -0.3089  0.0425
  851MPD2    H212504   1.957   2.168  15.511 -2.3396  0.5581  1.6795
  851MPD2    H312505   2.141   2.027  15.560  0.8368 -0.9921 -0.2049
  851MPD2     N12506   1.921   1.661  15.398  0.3254  0.6221 -0.0593
  851MPD2    H512507   1.832   1.628  15.364  0.8127  0.4233 -1.1191
  851MPD2    N112508   1.719   2.088  15.400  0.4824  0.0147  0.9209
  851MPD2    H712509   1.757   2.181  15.383  0.1933  0.2161  1.3702
  852MPD2     C12510   1.258   4.320   9.685  0.1782  0.1906 -0.5713
  852MPD2    C112511   1.179   4.378   9.784  0.6609  0.1132  0.2095
  852MPD2    C212512   1.205   4.508   9.822 -0.1772  0.1402 -0.0364
  852MPD2    C312513   1.293   4.585   9.749  0.0846 -0.4551  1.0107
  852MPD2    C412514   1.362   4.523   9.648  0.0497  0.6657  0.3000
  852MPD2    C512515   1.345   4.395   9.618  0.3005 -0.1415 -0.3925
  852MPD2     H12516   1.164   4.541   9.917 -1.5682 -2.7615  0.3708
  852MPD2    H112517   1.436   4.572   9.585  0.2853  0.5608  0.4982
  852MPD2    H212518   1.238   4.219   9.653  2.2251 -0.3938  0.0101
  852MPD2    H312519   1.393   4.355   9.530 -2.5843 -0.5467 -1.8001
  852MPD2     N12520   1.312   4.721   9.778  0.4430 -0.3199  0.4338
  852MPD2    H512521   1.270   0.020   9.868  2.1683 -0.7200  1.3313
  852MPD2    N112522   1.082   4.301   9.851  0.3985  0.0365 -0.2629
  852MPD2    H712523   1.044   4.358   9.925  0.4567 -0.0568 -0.1618
  853MPD2     C12524   3.124   4.429  12.074 -0.8333 -0.3031 -0.4494
  853MPD2    C112525   3.035   4.516  12.005 -0.3713  0.2775  0.5796
  853MPD2    C212526   2.991   4.468  11.881 -0.5240 -0.4828  0.8448
  853MPD2    C312527   3.038   4.346  11.837  0.1464 -0.2754  0.9342
  853MPD2    C412528   3.129   4.267  11.901  0.4659  0.0027 -0.3511
  853MPD2    C512529   3.172   4.309  12.025 -0.1839 -0.0112  0.7608
  853MPD2     H12530   2.914   4.525  11.830 -0.3802 -2.1327 -1.1942
  853MPD2    H112531   3.155   4.169  11.862 -2.8652 -1.1976  0.4568
  853MPD2    H212532   3.164   4.453  12.172  0.1157 -1.0506 -0.6575
  853MPD2    H312533   3.243   4.245  12.075  0.4375  1.6314  1.9767
  853MPD2     N12534   3.001   4.286  11.714  0.3972 -0.6412 -0.2206
  853MPD2    H512535   3.048   4.201  11.685  3.2480  1.0948 -0.7515
  853MPD2    N112536   2.987   4.623  12.079 -0.3164 -0.0210 -0.2292
  853MPD2    H712537   3.033   4.653  12.164  2.2208 -1.9403 -0.9339
  854MPD2     C12538   4.272   4.635  12.674  0.1176 -0.1520 -0.2093
  854MPD2    C112539   4.382   4.658  12.598 -0.0391 -0.0234  0.2074
  854MPD2    C212540   4.470   4.561  12.574  0.7664 -0.3036  0.3279
  854MPD2    C312541   4.455   4.435  12.633  0.1688 -0.2507 -0.3160
  854MPD2    C412542   4.347   4.414  12.717 -0.4426  0.2744 -0.2619
  854MPD2    C512543   4.252   4.517  12.735  0.0822  0.0555  0.3043
  854MPD2     H12544   4.547   4.582  12.501  0.2720 -1.0964 -0.4242
  854MPD2    H112545   4.329   4.312  12.750  0.3097  0.5927  1.1626
  854MPD2    H212546   4.199   4.715  12.685  0.3643 -0.0890  1.0436
  854MPD2    H312547   4.161   4.506  12.792 -0.1471 -1.0286 -0.2687
  854MPD2     N12548   4.536   4.324  12.611 -0.2049 -0.3696 -0.3150
  854MPD2    H512549   4.523   4.242  12.670 -0.9740  1.8261  2.5850
  854MPD2    N112550   4.405   0.060  12.544  0.2861  0.4762 -0.0510
  854MPD2    H712551   4.470   0.064  12.467  0.7556  0.9116  0.3643
  855MPD2     C12552   0.241   4.409  13.265 -0.1805  0.1641  0.7784
  855MPD2    C112553   0.241   4.273  13.272 -0.5791  0.0901 -0.3974
  855MPD2    C212554   0.221   4.211  13.154 -0.6518 -0.1427 -0.2939
  855MPD2    C312555   0.209   4.283  13.036 -0.3408 -0.5672 -0.7009
  855MPD2    C412556   0.221   4.419  13.035  0.4442 -0.2410  0.5285
  855MPD2    C512557   0.235   4.487  13.154 -0.1370  0.3195  0.0807
  855MPD2     H12558   0.186   4.108  13.152  0.8624 -0.6625 -0.0738
  855MPD2    H112559   0.195   4.476  12.947 -1.0675  1.2739  1.9515
  855MPD2    H212560   0.249   4.472  13.353 -0.0050 -0.9520  1.5582
  855MPD2    H312561   0.241   4.595  13.165 -0.2923  0.0633  2.6180
  855MPD2     N12562   0.173   4.228  12.911 -1.2476  0.0806  0.4001
  855MPD2    H512563   0.156   4.301  12.843 -0.2096  0.4815  0.5745
  855MPD2    N112564   0.237   4.195  13.388 -0.0751 -1.2764 -0.4979
  855MPD2    H712565   0.210   4.097  13.380 -1.6230 -1.0156  1.6999
  856MPD2     C12566   2.571   0.458  13.978  0.2636 -0.0234  0.4041
  856MPD2    C112567   2.642   0.579  13.976 -0.6947 -0.2303  0.6403
  856MPD2    C212568   2.573   0.701  13.976  0.6304  0.6422  0.2555
  856MPD2    C312569   2.434   0.700  14.003 -0.2857 -0.1416 -0.3311
  856MPD2    C412570   2.364   0.575  14.003  0.4876 -0.0702 -0.8990
  856MPD2    C512571   2.433   0.456  13.990 -0.3369  0.3586  0.0313
  856MPD2     H12572   2.640   0.786  13.974  0.0383  1.1227  0.8484
  856MPD2    H112573   2.256   0.576  14.017  0.6555  0.9935  0.2632
  856MPD2    H212574   2.625   0.365  13.969  0.7506  0.4126 -1.0497
  856MPD2    H312575   2.386   0.358  13.995  1.7964 -0.6214  0.9301
  856MPD2     N12576   2.365   0.819  14.045 -0.5297  0.3948 -0.8855
  856MPD2    H512577   2.269   0.813  14.079  0.4019 -1.0404  1.4578
  856MPD2    N112578   2.783   0.585  13.957 -0.7960  0.3414  0.3432
  856MPD2    H712579   2.822   0.678  13.947  2.1381 -0.7994  1.0707
  857MPD2     C12580   3.606   2.536  12.731  0.5262  0.1058 -0.4983
  857MPD2    C112581   3.742   2.526  12.750  0.0951 -0.3615  0.2468
  857MPD2    C212582   3.807   2.642  12.792 -0.1836 -0.1927 -0.0912
  857MPD2    C312583   3.745   2.765  12.789  0.4577 -0.5524 -0.1074
  857MPD2    C412584   3.610   2.772  12.767  0.1558  0.4913  0.1960
  857MPD2    C512585   3.542   2.659  12.742 -0.1423  0.0454 -0.1135
  857MPD2     H12586   3.907   2.635  12.833  0.5136  1.0303 -1.5738
  857MPD2    H112587   3.552   2.863  12.776  0.2867  0.6129 -0.1852
  857MPD2    H212588   3.555   2.447  12.695  3.0676 -2.2373  1.7353
  857MPD2    H312589   3.436   2.661  12.718 -0.0811  1.5570 -0.2492
  857MPD2     N12590   3.820   2.879  12.822 -0.6272 -0.5452 -0.1034
  857MPD2    H512591   3.915   2.866  12.854 -0.0908  0.4226 -1.3195
  857MPD2    N112592   3.798   2.397  12.741 -0.1784 -0.5127 -0.7642
  857MPD2    H712593   3.728   2.330  12.711 -0.9181 -0.6023  1.1267
  858MPD2     C12594   4.243   1.486  16.704  0.1728 -0.8727  0.0950
  858MPD2    C112595   4.360   1.556  16.682  0.6180  0.4976 -0.3087
  858MPD2    C212596   4.437   1.602  16.787  0.2357 -0.0583  0.6210
  858MPD2    C312597   4.382   1.574  16.917 -0.4392  0.0922  0.2938
  858MPD2    C412598   4.255   1.528  16.934  0.4211 -0.1755 -0.1150
  858MPD2    C512599   4.187   1.476  16.831  0.2481 -0.5492  0.0539
  858MPD2     H12600   4.532   1.651  16.770  0.4082 -0.5637  0.1447
  858MPD2    H112601   4.211   1.528  17.033 -3.5872  2.0418 -1.8767
  858MPD2    H212602   4.186   1.462  16.615 -2.2135 -0.0364  1.4043
  858MPD2    H312603   4.083   1.447  16.846  0.4020 -1.2513 -0.2424
  858MPD2     N12604   4.460   1.609  17.030 -0.0773  0.2971 -0.5481
  858MPD2    H512605   4.426   1.595  17.125  2.2816 -2.4549 -0.1051
  858MPD2    N112606   4.391   1.586  16.546  0.0809 -0.5863 -0.5559
  858MPD2    H712607   4.324   1.553  16.478  0.0917 -1.9734  0.1026
  859MPD2     C12608   3.269   3.673  15.785 -0.0972 -0.3113  0.2704
  859MPD2    C112609   3.370   3.697  15.697  0.7411  0.2801  0.2627
  859MPD2    C212610   3.474   3.604  15.684 -0.3550  0.1052  0.4408
  859MPD2    C312611   3.462   3.485  15.751 -0.2784 -0.4915 -0.3773
  859MPD2    C412612   3.368   3.468  15.852  0.3375 -0.1230  0.5095
  859MPD2    C512613   3.279   3.567  15.871  0.0972  0.6056  0.2678
  859MPD2     H12614   3.550   3.622  15.609  0.7217 -2.8321  0.8090
  859MPD2    H112615   3.372   3.382  15.917 -0.6029  0.2709  1.0863
  859MPD2    H212616   3.197   3.748  15.814 -0.5818  0.1614 -2.2198
  859MPD2    H312617   3.214   3.546  15.955  0.8795  1.5933  1.1310
  859MPD2     N12618   3.555   3.377  15.737 -0.9332 -0.1369 -1.1896
  859MPD2    H512619   3.548   3.296  15.797 -0.2128  1.5416  1.1923
  859MPD2    N112620   3.381   3.811  15.616  0.4365  0.4508  0.4603
  859MPD2    H712621   3.451   3.817  15.543 -0.7261  1.9564 -0.5024
  860MPD2     C12622   1.264   4.225  11.419  0.8660 -0.3093  0.1304
  860MPD2    C112623   1.258   4.299  11.540  0.4656  0.8565  0.6264
  860MPD2    C212624   1.134   4.347  11.581  0.6489 -0.4871  0.5067
  860MPD2    C312625   1.016   4.311  11.512 -0.5428 -0.2994 -0.5623
  860MPD2    C412626   1.028   4.244  11.388 -0.3082  0.4250 -0.1907
  860MPD2    C512627   1.148   4.201  11.348  0.0773 -0.1762 -0.0356
  860MPD2     H12628   1.124   4.419  11.661  0.5673 -0.8832  0.8490
  860MPD2    H112629   0.950   4.213  11.320 -0.8639 -0.7036  0.9564
  860MPD2    H212630   1.358   4.186  11.382  0.5443 -0.0621 -0.9470
  860MPD2    H312631   1.147   4.136  11.261  0.5691  0.1535 -0.2920
  860MPD2     N12632   0.904   4.370  11.564  0.1776 -0.0894  0.0168
  860MPD2    H512633   0.909   4.429  11.647  0.2155  0.9261 -0.6998
  860MPD2    N112634   1.373   4.340  11.614  0.1550  0.6996  0.4898
  860MPD2    H712635   1.360   4.402  11.693  3.4554  0.6632  1.0619
  861MPD2     C12636   0.128   3.003  11.309 -0.1648 -0.3181  0.1401
  861MPD2    C112637   0.000   3.009  11.361  0.4119  0.4019  0.1269
  861MPD2    C212638   4.621   3.024  11.270 -0.1893  0.1386 -0.4381
  861MPD2    C312639   4.637   3.038  11.130 -0.6220  0.5064  0.2926
  861MPD2    C412640   0.044   3.036  11.092 -0.3680  0.2373 -0.2068
  861MPD2    C512641   0.144   3.025  11.174  0.1480  0.2106  0.0089
  861MPD2     H12642   4.521   3.024  11.312  0.1104 -1.4821  0.2602
  861MPD2    H112643   0.065   3.039  10.986  0.4264 -1.2007 -0.0968
  861MPD2    H212644   0.220   2.997  11.366 -0.1315  0.2556  0.1536
  861MPD2    H312645   0.241   3.012  11.128  1.0509  1.1868  1.6801
  861MPD2     N12646   4.538   3.048  11.034  0.2431 -0.1494  0.0723
  861MPD2    H512647   4.565   3.043  10.936  2.3127  0.7495  0.6038
  861MPD2    N112648   4.688   2.971  11.494 -0.3019 -0.6584  0.2604
  861MPD2    H712649   4.594   2.946  11.524 -0.8013 -1.2750 -1.8506
  862MPD2     C12650   4.182   3.057  10.409 -0.6496 -0.5402  0.1900
  862MPD2    C112651   4.279   3.019  10.504 -0.3590 -0.8023  0.1390
  862MPD2    C212652   4.350   2.901  10.474 -0.1839  0.3768 -0.5304
  862MPD2    C312653   4.319   2.827  10.360  0.8701 -0.6534 -0.1869
  862MPD2    C412654   4.224   2.868  10.273 -0.7100  0.0943 -0.4126
  862MPD2    C512655   4.144   2.969  10.309 -0.2126 -0.0905  0.9568
  862MPD2     H12656   4.423   2.875  10.550  0.9259  0.8940 -1.4285
  862MPD2    H112657   4.201   2.823  10.177  2.1050 -3.6049  0.6562
  862MPD2    H212658   4.118   3.141  10.434 -1.0095 -1.1083  1.1904
  862MPD2    H312659   4.055   2.990  10.252 -0.3015  1.2330  1.5823
  862MPD2     N12660   4.375   2.699  10.340 -0.2011  0.1635 -0.3115
  862MPD2    H512661   4.333   2.635  10.273  0.4577  0.9767 -1.4942
  862MPD2    N112662   4.310   3.098  10.620 -0.1764 -0.1909  0.2609
  862MPD2    H712663   4.382   3.064  10.682 -0.9168 -1.7736  0.2449
  863MPD2     C12664   3.733   0.444  16.715  0.4273  0.7111 -0.1686
  863MPD2    C112665   3.630   0.503  16.779  0.4848 -0.3078 -0.1773
  863MPD2    C212666   3.617   0.475  16.912  0.7547  0.2604 -0.1419
  863MPD2    C312667   3.704   0.391  16.982  0.1509 -0.3150 -0.4362
  863MPD2    C412668   3.816   0.349  16.911  0.0602 -0.4718 -0.3427
  863MPD2    C512669   3.826   0.363  16.778 -0.6231  0.8028  0.2049
  863MPD2     H12670   3.529   0.508  16.966  1.7243 -0.3611  1.8193
  863MPD2    H112671   3.896   0.302  16.967  0.3559  0.3236 -0.0839
  863MPD2    H212672   3.740   0.467  16.609 -0.1806 -0.0512 -0.3824
  863MPD2    H312673   3.918   0.336  16.727 -1.6240 -1.1534 -0.5257
  863MPD2     N12674   3.680   0.362  17.121 -0.0784 -0.0842  0.5082
  863MPD2    H512675   3.763   0.330  17.170  0.1120 -0.7225 -0.2211
  863MPD2    N112676   3.538   0.594  16.722 -0.2979 -0.3455  0.4420
  863MPD2    H712677   3.560   0.603  16.623  1.3597 -0.4114  0.7901
  864MPD2     C12678   3.577   2.141  17.203 -0.0072  0.2723  0.2814
  864MPD2    C112679   3.677   2.068  17.130 -0.0314 -0.2363  0.2058
  864MPD2    C212680   3.763   2.142  17.053  0.0580 -0.3196  0.9538
  864MPD2    C312681   3.744   2.276  17.038 -0.3281  0.5177 -0.0291
  864MPD2    C412682   3.645   2.342  17.098 -0.2642 -0.4552 -0.1801
  864MPD2    C512683   3.558   2.272  17.176 -0.2709 -0.4437  0.7949
  864MPD2     H12684   3.847   2.086  17.013 -0.0729 -0.8578  1.4354
  864MPD2    H112685   3.633   2.447  17.074  0.5875 -0.2261  0.3907
  864MPD2    H212686   3.515   2.080  17.268  1.8502 -0.4237  1.4149
  864MPD2    H312687   3.476   2.318  17.231 -1.2606 -0.9905 -0.2452
  864MPD2     N12688   3.819   2.348  16.933 -0.3695  0.2431  0.4876
  864MPD2    H512689   3.776   2.429  16.890  1.1700 -0.2025 -1.9184
  864MPD2    N112690   3.681   1.929  17.154  0.6288  0.1809 -0.2133
  864MPD2    H712691   3.604   1.889  17.206  0.3448 -0.7798 -1.3586
  865MPD2     C12692   3.700   2.243  15.947 -0.0095 -0.9453 -0.4664
  865MPD2    C112693   3.715   2.159  16.051 -0.5236 -0.3553  0.0569
  865MPD2    C212694   3.764   2.205  16.173  0.4639 -0.1631 -0.3043
  865MPD2    C312695   3.787   2.340  16.197 -0.3412  0.0148 -0.8597
  865MPD2    C412696   3.774   2.427  16.091  0.8021  0.3701  0.4275
  865MPD2    C512697   3.741   2.374  15.963  0.5890 -0.1216  0.2343
  865MPD2     H12698   3.788   2.129  16.246 -1.3251  1.8046  2.3176
  865MPD2    H112699   3.799   2.532  16.088  2.2337 -0.0307 -1.5711
  865MPD2    H212700   3.669   2.228  15.844 -1.3030  3.0396 -0.6444
  865MPD2    H312701   3.738   2.442  15.878  0.6882  0.9975  1.1254
  865MPD2     N12702   3.847   2.389  16.312  0.5215  0.2648 -0.1915
  865MPD2    H512703   3.879   2.485  16.303 -0.2500  0.5424  0.0486
  865MPD2    N112704   3.717   2.015  16.023  0.5107 -0.2394  0.3360
  865MPD2    H712705   3.692   1.990  15.928  0.4492  0.7497  0.0838
  866MPD2     C12706   0.376   3.168  11.866 -0.0671 -0.9738 -0.2572
  866MPD2    C112707   0.408   3.214  11.738  0.2394 -0.1899  0.6918
  866MPD2    C212708   0.307   3.256  11.650  0.4307  0.7370  0.2034
  866MPD2    C312709   0.177   3.246  11.695 -0.8076  0.1908  0.1417
  866MPD2    C412710   0.148   3.192  11.820  0.1176  0.1655 -0.5362
  866MPD2    C512711   0.249   3.153  11.900 -0.4468  0.4649  0.0826
  866MPD2     H12712   0.327   3.304  11.555 -1.2230  1.7504  0.3594
  866MPD2    H112713   0.046   3.177  11.855  0.8981  0.0037  1.6002
  866MPD2    H212714   0.455   3.133  11.931  0.9625 -2.5714 -2.3604
  866MPD2    H312715   0.231   3.119  12.001 -1.7579  2.9167  0.6642
  866MPD2     N12716   0.060   3.290  11.622 -0.4924  0.3665 -0.3631
  866MPD2    H512717   4.696   3.295  11.676  0.5473  1.7955  1.1428
  866MPD2    N112718   0.544   3.215  11.698 -0.2401  0.0625 -0.6835
  866MPD2    H712719   0.611   3.175  11.763 -0.9674 -1.1772 -0.7175
  867MPD2     C12720   3.374   1.671  16.639  0.3786  0.5962  0.7280
  867MPD2    C112721   3.361   1.685  16.777 -0.6071 -0.2315 -0.0072
  867MPD2    C212722   3.327   1.815  16.822 -0.7598 -0.2926  0.3289
  867MPD2    C312723   3.306   1.925  16.734 -0.4735 -0.1049 -0.1016
  867MPD2    C412724   3.319   1.903  16.599  0.6971  0.2207  0.5702
  867MPD2    C512725   3.355   1.780  16.552 -0.6442 -0.0015  0.5449
  867MPD2     H12726   3.328   1.835  16.929 -1.3866  1.0136  0.0928
  867MPD2    H112727   3.295   1.981  16.529  0.1374 -2.1212 -1.8421
  867MPD2    H212728   3.395   1.572  16.598  1.2659  1.0958 -0.0251
  867MPD2    H312729   3.361   1.765  16.444 -0.3762 -0.7582  0.6650
  867MPD2     N12730   3.285   2.056  16.785 -0.1995  0.1390  0.4571
  867MPD2    H512731   3.270   2.123  16.709  0.8088  0.0623  0.1900
  867MPD2    N112732   3.372   1.570  16.863 -0.2002 -0.5186  0.8591
  867MPD2    H712733   3.392   1.485  16.810  0.3573 -0.4086  0.8906
  868MPD2     C12734   4.214   0.986  13.687  0.1478  0.4281  0.7157
  868MPD2    C112735   4.200   0.962  13.559  0.4600 -0.5377 -0.4276
  868MPD2    C212736   4.080   0.983  13.499  0.2823  0.3250  0.4163
  868MPD2    C312737   3.971   1.021  13.575  0.4317 -0.5141  0.0996
  868MPD2    C412738   3.986   1.041  13.710 -0.0856  0.4890 -0.2337
  868MPD2    C512739   4.114   1.038  13.763 -0.1351  0.1620 -0.4861
  868MPD2     H12740   4.074   0.973  13.391  1.0220 -1.3581  0.5418
  868MPD2    H112741   3.906   1.076  13.774  1.7455  1.7907  1.3245
  868MPD2    H212742   4.311   0.964  13.729  0.5689  1.0112  0.0402
  868MPD2    H312743   4.135   1.060  13.867 -0.7377  0.8864 -0.5166
  868MPD2     N12744   3.847   1.038  13.512 -0.3866  0.1327  0.4540
  868MPD2    H512745   3.842   1.040  13.411 -0.0840  0.7836  0.4522
  868MPD2    N112746   4.316   0.911  13.504 -0.5544  0.2961 -0.3911
  868MPD2    H712747   4.389   0.891  13.571 -0.9105  0.7019  0.1154
  869MPD2     C12748   1.203   0.079   2.618 -0.1068 -0.8071 -0.0715
  869MPD2    C112749   1.125   4.701   2.565 -0.7813 -0.2286  0.1770
  869MPD2    C212750   1.123   4.682   2.430  0.3567  0.1577 -0.2760
  869MPD2    C312751   1.222   0.014   2.350 -0.0867  0.3320 -0.1714
  869MPD2    C412752   1.306   0.114   2.402 -0.4618  0.6541 -0.3262
  869MPD2    C512753   1.290   0.145   2.530 -0.1374 -0.6368 -0.2124
  869MPD2     H12754   1.072   4.594   2.394  3.1947 -1.0970 -1.2336
  869MPD2    H112755   1.391   0.157   2.351  0.2848 -1.3189 -0.7597
  869MPD2    H212756   1.199   0.108   2.722 -0.3661 -1.2521  0.0423
  869MPD2    H312757   1.355   0.221   2.573  0.2016  0.3862 -2.4939
  869MPD2     N12758   1.255   4.695   2.215 -0.0152 -0.1626 -0.2230
  869MPD2    H512759   1.320   0.025   2.158 -0.2199  0.7111  0.3262
  869MPD2    N112760   1.051   4.624   2.657 -0.8438  0.0987 -0.8073
  869MPD2    H712761   1.050   4.654   2.754 -2.3169  0.5524 -0.9501
  870MPD2     C12762   4.708   3.431   1.635 -0.5485  0.5983 -0.0685
  870MPD2    C112763   0.088   3.363   1.580  0.0007  0.2673 -0.0062
  870MPD2    C212764   0.102   3.346   1.445  0.5147  0.0182  0.0934
  870MPD2    C312765   0.013   3.400   1.355  0.4074  0.1807 -0.1276
  870MPD2    C412766   4.644   3.484   1.407  0.1106 -0.3671 -0.6017
  870MPD2    C512767   4.618   3.486   1.545 -0.0149  0.0470 -0.9402
  870MPD2     H12768   0.188   3.299   1.398  0.0421  1.3657 -2.1046
  870MPD2    H112769   4.584   3.551   1.346 -0.6416  0.1287  0.6779
  870MPD2    H212770   4.692   3.438   1.742 -0.7467 -1.3143  0.0262
  870MPD2    H312771   4.530   3.538   1.583  0.6190  1.0869 -0.9040
  870MPD2     N12772   0.026   3.381   1.213 -0.0736  0.3797  0.2426
  870MPD2    H512773   0.112   3.336   1.183 -0.9159 -0.4438 -0.9608
  870MPD2    N112774   0.178   3.308   1.673  0.2217 -0.1333  0.7694
  870MPD2    H712775   0.166   3.338   1.769 -0.9314 -1.7895  1.1363
  871MPD2     C12776   1.622   2.211  16.318  0.7547  0.1940  0.2223
  871MPD2    C112777   1.577   2.125  16.411 -0.4118 -0.0504  0.3348
  871MPD2    C212778   1.582   1.993  16.378 -0.1873  0.1885  0.0836
  871MPD2    C312779   1.605   1.945  16.248  0.1652 -0.5965 -0.3467
  871MPD2    C412780   1.641   2.037  16.152 -0.3884  1.1102  0.3847
  871MPD2    C512781   1.664   2.169  16.186  0.5711  0.0110  0.2153
  871MPD2     H12782   1.576   1.915  16.453 -0.0491  0.7257  0.6445
  871MPD2    H112783   1.655   2.000  16.051  0.0341  1.3089  0.3711
  871MPD2    H212784   1.619   2.318  16.338 -0.0689  0.0275  0.9575
  871MPD2    H312785   1.700   2.242  16.114 -2.1049  1.1017 -0.0198
  871MPD2     N12786   1.620   1.806  16.223 -0.7521 -0.5286 -0.3220
  871MPD2    H512787   1.600   1.745  16.301 -0.2025  0.1267  0.3375
  871MPD2    N112788   1.541   2.170  16.544  1.3405 -0.0710 -0.9724
  871MPD2    H712789   1.550   2.270  16.559  2.4910 -0.2912 -0.1198
  872MPD2     C12790   2.334   0.146  14.266 -0.3681  0.1473  0.2918
  872MPD2    C112791   2.268   0.104  14.155 -0.2279  0.0489 -0.3765
  872MPD2    C212792   2.132   0.071  14.170  0.5303  0.8411 -0.6400
  872MPD2    C312793   2.076   0.072  14.294  0.5129  0.4351 -0.3823
  872MPD2    C412794   2.148   0.113  14.404  0.5054 -0.6962 -0.1215
  872MPD2    C512795   2.276   0.155  14.386 -0.3042 -0.0789  0.0702
  872MPD2     H12796   2.072   0.025  14.092  0.6164 -2.1149  1.0318
  872MPD2    H112797   2.119   0.127  14.508  0.2945  0.8560 -0.3987
  872MPD2    H212798   2.438   0.177  14.264  0.3911 -2.4920 -1.2122
  872MPD2    H312799   2.331   0.197  14.469  0.1539 -0.2704 -0.1358
  872MPD2     N12800   1.946   0.024  14.316  0.3607 -0.3716 -0.3918
  872MPD2    H512801   1.915   0.033  14.413 -0.1871  1.5522 -0.7526
  872MPD2    N112802   2.314   0.104  14.026 -0.3910  0.5152 -0.4923
  872MPD2    H712803   2.241   0.093  13.957 -0.7852 -0.4523  0.0876
  873MPD2     C12804   3.832   4.109   0.972 -0.5795  0.0343  0.5052
  873MPD2    C112805   3.734   4.123   1.069  0.1004  0.5261 -0.5719
  873MPD2    C212806   3.606   4.088   1.039 -0.4510 -0.3864  0.5883
  873MPD2    C312807   3.571   4.037   0.910 -0.0136  0.1562 -0.4143
  873MPD2    C412808   3.668   4.047   0.812  0.6784 -0.4227  0.5477
  873MPD2    C512809   3.798   4.071   0.845  0.8008  0.4794 -0.0634
  873MPD2     H12810   3.531   4.096   1.117 -0.6249  0.1045  0.3719
  873MPD2    H112811   3.644   3.999   0.718 -1.1869  0.9763  0.3077
  873MPD2    H212812   3.937   4.120   0.995 -0.6733 -0.4690  1.1895
  873MPD2    H312813   3.875   4.060   0.770 -0.4056 -1.7798 -0.9658
  873MPD2     N12814   3.444   3.978   0.876 -0.5367  0.3494 -0.1112
  873MPD2    H512815   3.432   3.956   0.778 -2.3155 -0.8229  0.3853
  873MPD2    N112816   3.774   4.187   1.186  0.2416 -0.0610 -0.0478
  873MPD2    H712817   3.699   4.221   1.244  1.0652 -1.6577  1.9509
  874MPD2     C12818   3.524   4.591  15.817  0.1724  0.0034 -0.2043
  874MPD2    C112819   3.575   4.515  15.913 -0.6347 -0.1397  0.6486
  874MPD2    C212820   3.710   4.521  15.939 -0.1149  0.3510  0.2699
  874MPD2    C312821   3.801   4.600  15.870  0.1087 -0.3406 -0.0955
  874MPD2    C412822   3.742   4.686  15.778 -0.0029 -0.0756  0.2151
  874MPD2    C512823   3.603   4.677  15.753  0.6640  0.1169  0.0909
  874MPD2     H12824   3.749   4.469  16.025 -0.7227  1.5045  1.2515
  874MPD2    H112825   3.807   0.032  15.723  0.4552 -1.1262 -0.5549
  874MPD2    H212826   3.419   4.591  15.790  0.5295 -0.4783 -1.6494
  874MPD2    H312827   3.572   0.020  15.673  0.9024  0.9052  0.6453
  874MPD2     N12828   3.936   4.586  15.891  0.3995  0.1123 -0.0340
  874MPD2    H512829   3.970   4.530  15.968  1.1240  1.1902  0.4286
  874MPD2    N112830   3.480   4.440  15.986 -0.5837 -0.4156  0.1644
  874MPD2    H712831   3.386   4.468  15.960  0.3100  1.8965 -0.6382
  875MPD2     C12832   0.141   2.895  14.456  0.2799  0.3663  0.1803
  875MPD2    C112833   0.008   2.920  14.486  0.0074 -0.3679  0.2782
  875MPD2    C212834   4.698   2.983  14.602 -0.6292  0.1786 -0.0878
  875MPD2    C312835   0.081   3.026  14.684 -0.2675 -0.5846 -0.1646
  875MPD2    C412836   0.212   3.005  14.649  0.4341  0.1530  0.3603
  875MPD2    C512837   0.242   2.937  14.536  0.2989 -0.7012 -0.0159
  875MPD2     H12838   4.594   3.006  14.622  0.1814  2.2900  1.7363
  875MPD2    H112839   0.293   3.028  14.717  2.4455 -1.8212 -1.3742
  875MPD2    H212840   0.162   2.840  14.365 -1.0632  0.7589 -0.3709
  875MPD2    H312841   0.346   2.912  14.520  0.1154  0.7077 -3.3390
  875MPD2     N12842   0.057   3.099  14.797 -0.0371 -0.0031 -0.1265
  875MPD2    H512843   0.137   3.129  14.852 -0.0147 -0.0389 -0.1399
  875MPD2    N112844   4.611   2.873  14.412 -0.2496 -0.3645 -0.2664
  875MPD2    H712845   4.523   2.897  14.455  0.2017 -0.7060  0.8328
  876MPD2     C12846   3.508   4.096  15.856  0.3403 -0.3752 -0.0721
  876MPD2    C112847   3.637   4.063  15.810  0.3160  0.3620  0.0809
  876MPD2    C212848   3.698   3.946  15.848  0.9197  0.6658 -0.0733
  876MPD2    C312849   3.629   3.852  15.925  0.4895  0.9550 -0.1659
  876MPD2    C412850   3.501   3.882  15.963  0.6367  0.1360 -0.0004
  876MPD2    C512851   3.440   3.998  15.929 -0.6779  0.2721 -0.7523
  876MPD2     H12852   3.789   3.913  15.798  0.3389  0.9401 -1.3259
  876MPD2    H112853   3.437   3.814  16.018  0.6927 -1.2522 -1.6184
  876MPD2    H212854   3.460   4.190  15.828  2.1928  0.6767  0.3004
  876MPD2    H312855   3.337   4.020  15.954 -0.8977 -1.8863  0.2825
  876MPD2     N12856   3.692   3.726  15.944 -0.0845  0.0242  0.4527
  876MPD2    H512857   3.781   3.705  15.899 -0.7810  2.1271 -1.9284
  876MPD2    N112858   3.701   4.154  15.727  0.2383 -0.6209 -0.1879
  876MPD2    H712859   3.656   4.245  15.721 -0.2992 -0.9118 -0.6729
  877MPD2     C12860   3.543   4.565  15.158  0.1764 -0.9600 -0.0731
  877MPD2    C112861   3.675   4.542  15.151 -0.0177 -0.1656  0.5237
  877MPD2    C212862   3.737   4.556  15.027 -0.5580 -0.0819 -0.6179
  877MPD2    C312863   3.661   4.592  14.918  0.2913  0.0679  0.4382
  877MPD2    C412864   3.526   4.616  14.931 -0.5418  0.1735  0.5872
  877MPD2    C512865   3.474   4.614  15.053  0.7075 -0.1565  0.1230
  877MPD2     H12866   3.845   4.555  15.017 -0.3690  0.6434  1.3838
  877MPD2    H112867   3.473   4.656  14.846  2.0310  2.7499  0.2008
  877MPD2    H212868   3.487   4.535  15.245  1.6286 -2.3277  0.3992
  877MPD2    H312869   3.369   4.642  15.062  0.7497  0.4044 -1.1069
  877MPD2     N12870   3.710   4.608  14.791 -0.7070 -0.6058 -0.0525
  877MPD2    H512871   3.645   4.641  14.720 -1.7919 -3.0707 -0.2145
  877MPD2    N112872   3.760   4.516  15.263 -0.3001  0.6068 -0.7598
  877MPD2    H712873   3.858   4.500  15.245 -0.1260 -1.2340  1.8247
  878MPD2     C12874   3.542   4.613  13.059 -0.2108 -0.2644  0.2864
  878MPD2    C112875   3.620   4.506  13.014  0.0592  0.3732  0.5515
  878MPD2    C212876   3.583   4.383  13.055 -0.7207 -0.2887 -0.2842
  878MPD2    C312877   3.478   4.359  13.141  0.1586 -0.8078  0.5294
  878MPD2    C412878   3.415   4.463  13.202  0.1937 -0.0556 -0.3197
  878MPD2    C512879   3.448   4.590  13.150  0.3081 -0.6537  0.1106
  878MPD2     H12880   3.630   4.293  13.018 -1.4109 -0.6768 -0.2142
  878MPD2    H112881   3.340   4.449  13.279  0.9525 -3.1567 -0.1548
  878MPD2    H212882   3.568   4.710  13.019 -1.4366  0.3407  0.9707
  878MPD2    H312883   3.392   4.677  13.183  1.9124 -0.6007  2.6742
  878MPD2     N12884   3.447   4.220  13.151 -0.4265  0.0267 -0.6797
  878MPD2    H512885   3.515   4.150  13.122  0.3723  0.1147  1.0073
  878MPD2    N112886   3.715   4.515  12.906 -0.6290  0.3451  0.2645
  878MPD2    H712887   3.758   4.427  12.877  1.5140  1.2732  0.5785
  879MPD2     C12888   4.542   0.611  16.950 -0.4616  0.2603  0.1408
  879MPD2    C112889   4.460   0.546  17.040  0.1995  0.0139  0.2195
  879MPD2    C212890   4.386   0.437  16.993  0.5008  0.2349  1.1614
  879MPD2    C312891   4.366   0.419  16.859 -0.8761 -1.2938 -0.4338
  879MPD2    C412892   4.441   0.504  16.771  0.5943  0.2099 -0.3784
  879MPD2    C512893   4.542   0.585  16.820 -0.2936 -0.2713 -0.3483
  879MPD2     H12894   4.321   0.371  17.050 -1.0092 -0.2875 -1.1493
  879MPD2    H112895   4.428   0.505  16.663 -1.9375 -1.9923 -0.1009
  879MPD2    H212896   4.611   0.680  16.999  0.3560 -1.3125  1.2086
  879MPD2    H312897   4.593   0.643  16.744  1.6715 -0.9224  0.4817
  879MPD2     N12898   4.289   0.326  16.797  0.0417  0.0464  0.1133
  879MPD2    H512899   4.284   0.337  16.696  3.2346 -0.6929 -0.1269
  879MPD2    N112900   4.467   0.583  17.174  0.8162  0.1411 -0.1492
  879MPD2    H712901   4.507   0.675  17.189  0.8507  0.0070  0.5508
  880MPD2     C12902   0.806   2.816   1.181 -0.7782 -0.3706 -0.1627
  880MPD2    C112903   0.851   2.704   1.117 -0.6474 -0.3713  0.1557
  880MPD2    C212904   0.955   2.627   1.171 -0.6036 -0.1229 -0.3887
  880MPD2    C312905   0.998   2.665   1.293  0.4944 -0.2812  0.9219
  880MPD2    C412906   0.958   2.776   1.361  0.4519 -0.2065 -0.5223
  880MPD2    C512907   0.858   2.852   1.300 -0.0420  0.0547  0.3041
  880MPD2     H12908   0.970   2.526   1.136 -1.2802  0.1956 -1.5730
  880MPD2    H112909   0.989   2.803   1.461  0.1722  0.1862 -0.5388
  880MPD2    H212910   0.723   2.880   1.152  0.4116  0.3485 -1.9445
  880MPD2    H312911   0.810   2.934   1.352 -0.9841 -1.0821  1.2005
  880MPD2     N12912   1.076   2.566   1.350 -0.1509  0.1916  0.5330
  880MPD2    H512913   1.075   2.482   1.294 -1.4713  1.2875 -1.1019
  880MPD2    N112914   0.792   2.674   0.991 -1.0245 -0.6258 -0.6953
  880MPD2    H712915   0.720   2.740   0.964  1.6485  2.2663 -0.7074
  881MPD2     C12916   0.674   2.124   0.033  0.1383 -0.5205  0.1156
  881MPD2    C112917   0.643   2.258   0.008 -0.3745 -0.2063  0.2989
  881MPD2    C212918   0.653   2.350   0.114  0.3330 -0.8093 -0.5930
  881MPD2    C312919   0.698   2.305   0.239  1.0021 -0.0640  0.5350
  881MPD2    C412920   0.717   2.170   0.257  0.4253 -0.1420  0.4100
  881MPD2    C512921   0.712   2.085   0.157  0.1953 -0.3623 -0.6205
  881MPD2     H12922   0.646   2.456   0.093  0.5531 -0.2657  2.0206
  881MPD2    H112923   0.739   2.140   0.358 -2.5099 -2.6910  0.3024
  881MPD2    H212924   0.663   2.050  17.646 -0.7935 -1.4816  1.1629
  881MPD2    H312925   0.734   1.981   0.181 -2.8996 -1.5086 -2.6217
  881MPD2     N12926   0.707   2.399   0.346  0.2506  0.1337  0.3663
  881MPD2    H512927   0.659   2.488   0.333 -0.5322 -0.3752 -0.1774
  881MPD2    N112928   0.644   2.297  17.565 -0.2485  0.4737 -0.3061
  881MPD2    H712929   0.645   2.233  17.486 -1.1026 -1.5647  1.3360
  882MPD2     C12930   3.472   0.092  14.034  0.1228  0.0208  0.8287
  882MPD2    C112931   3.463   0.041  14.161 -0.6638 -1.0359 -0.0871
  882MPD2    C212932   3.336   4.721  14.207 -0.0015 -0.0416  0.0741
  882MPD2    C312933   3.222   0.004  14.124  0.0632 -0.3772  0.3905
  882MPD2    C412934   3.231   0.061  14.003  0.0496  0.0485  0.3692
  882MPD2    C512935   3.358   0.098  13.961  0.2712 -0.2737  0.5329
  882MPD2     H12936   3.334   4.665  14.299  1.4394  0.1637  0.2394
  882MPD2    H112937   3.145   0.064  13.937  3.0722 -0.3430 -3.5426
  882MPD2    H212938   3.570   0.119  13.997 -0.0775  0.9736  0.9999
  882MPD2    H312939   3.357   0.147  13.864 -0.3498  0.9754  1.1736
  882MPD2     N12940   3.095   4.684  14.161 -0.1245 -0.1523 -0.3640
  882MPD2    H512941   3.017   4.703  14.100 -0.1978  2.4168  0.5140
  882MPD2    N112942   3.582   0.048  14.241  0.2137 -0.0557  0.2490
  882MPD2    H712943   3.660   0.089  14.191 -2.5188  2.0530 -2.2298
  883MPD2     C12944   1.113   4.637  16.707 -0.0753  0.5472  0.5225
  883MPD2    C112945   1.149   4.686  16.580  0.1706 -0.1424  0.2016
  883MPD2    C212946   1.279   0.015  16.574 -0.4121 -0.2692  1.1237
  883MPD2    C312947   1.369   0.019  16.678  0.9126  0.0918 -0.1872
  883MPD2    C412948   1.326   4.691  16.804 -0.4277 -0.5875  0.6675
  883MPD2    C512949   1.198   4.641  16.815  0.0107  0.1551 -0.1939
  883MPD2     H12950   1.307   0.058  16.479 -0.1609 -0.9484  0.8881
  883MPD2    H112951   1.385   4.698  16.894  1.2746 -0.5864 -0.4386
  883MPD2    H212952   1.016   4.595  16.728  0.8266 -1.3240  0.9700
  883MPD2    H312953   1.152   4.613  16.910 -2.5439 -0.7049 -1.6853
  883MPD2     N12954   1.494   0.069  16.655  0.8917  0.0534 -0.3180
  883MPD2    H512955   1.522   0.092  16.560 -0.2225  0.9714 -0.4223
  883MPD2    N112956   1.068   4.682  16.462 -0.0473 -0.2287 -0.6889
  883MPD2    H712957   1.111   4.718  16.377 -0.4130  1.1359 -0.2966
  884MPD2     C12958   2.953   0.315  15.081 -0.1006  0.0396 -0.4067
  884MPD2    C112959   2.979   0.457  15.064 -0.2068  0.3293  0.6955
  884MPD2    C212960   2.893   0.542  15.132 -0.8414 -0.3110 -0.3048
  884MPD2    C312961   2.788   0.493  15.210  0.1919 -0.2046  0.1989
  884MPD2    C412962   2.763   0.358  15.208  0.6392  0.2547  0.2715
  884MPD2    C512963   2.845   0.271  15.150 -0.7190  0.2276  0.3291
  884MPD2     H12964   2.891   0.648  15.111  3.3195 -0.3965 -1.0331
  884MPD2    H112965   2.673   0.314  15.249  1.1035  1.1849  2.2903
  884MPD2    H212966   3.024   0.243  15.043  1.2024  0.7223  0.7651
  884MPD2    H312967   2.830   0.164  15.156  0.1901  0.1420  0.9958
  884MPD2     N12968   2.703   0.583  15.283 -0.2411 -0.0639 -0.1946
  884MPD2    H512969   2.717   0.681  15.262  1.0017 -0.3344 -0.6003
  884MPD2    N112970   3.082   0.499  14.977 -0.1706 -0.2066 -0.1407
  884MPD2    H712971   3.137   0.432  14.923 -2.1235 -1.3904 -0.6748
  885MPD2     C12972   0.938   0.600  17.611 -0.0124 -0.1629  0.1328
  885MPD2    C112973   1.064   0.663  17.608  0.6370 -0.2071 -0.1542
  885MPD2    C212974   1.104   0.700  17.477 -0.5052  0.5222  0.5651
  885MPD2    C312975   1.027   0.660  17.370  0.0443 -0.1825  0.6982
  885MPD2    C412976   0.905   0.592  17.382 -0.1346 -0.1068 -0.3006
  885MPD2    C512977   0.859   0.558  17.508  0.3112  0.0237  0.6891
  885MPD2     H12978   1.194   0.758  17.463 -0.8142  1.4278  2.3108
  885MPD2    H112979   0.843   0.563  17.299 -2.0876  0.1609  1.0718
  885MPD2    H212980   0.903   0.579   0.020  2.2250  0.9604  1.1420
  885MPD2    H312981   0.764   0.506  17.512 -0.0057  0.4991 -0.5076
  885MPD2     N12982   1.068   0.695  17.237  0.0856 -0.2483 -0.2757
  885MPD2    H512983   1.163   0.729  17.224 -0.3652  1.3896  0.6063
  885MPD2    N112984   1.123   0.699   0.040  0.4695  0.0068 -0.4189
  885MPD2    H712985   1.092   0.656   0.126  0.7046  0.3513 -0.1582
  886MPD2     C12986   2.264   3.695  15.863 -0.0188  0.0318  0.0533
  886MPD2    C112987   2.244   3.708  15.731 -0.1804 -0.2072 -0.2553
  886MPD2    C212988   2.238   3.835  15.675 -0.6983 -0.5276 -0.4880
  886MPD2    C312989   2.265   3.948  15.750  0.5593  0.4462 -0.7393
  886MPD2    C412990   2.291   3.930  15.880 -0.0864  0.6079  0.5306
  886MPD2    C512991   2.293   3.806  15.933 -0.2022  0.0806 -1.0036
  886MPD2     H12992   2.218   3.839  15.568  0.5390 -1.1196 -0.7464
  886MPD2    H112993   2.321   4.009  15.949  2.1573 -1.1893  1.6286
  886MPD2    H212994   2.285   3.603  15.916 -1.5553  0.8902  2.1154
  886MPD2    H312995   2.332   3.789  16.033 -0.6438  1.8427 -0.5373
  886MPD2     N12996   2.262   4.079  15.700 -0.3530  0.0302  0.5343
  886MPD2    H512997   2.317   4.143  15.758  0.3560  1.5189 -1.7968
  886MPD2    N112998   2.239   3.593  15.648  0.1019  0.3947 -0.1855
  886MPD2    H712999   2.232   3.605  15.548 -1.2501  1.5973  0.0631
  887MPD2     C13000   2.690   3.737  15.254 -0.0213  0.3427  0.3017
  887MPD2    C113001   2.617   3.714  15.371  0.1967  0.4117 -0.4725
  887MPD2    C213002   2.635   3.799  15.471  0.1434  0.0087  0.4245
  887MPD2    C313003   2.736   3.899  15.470 -0.6526 -0.4076  0.3680
  887MPD2    C413004   2.794   3.925  15.355  0.8606 -0.4178 -0.7755
  887MPD2    C513005   2.781   3.840  15.251  0.2499  0.1445  0.4285
  887MPD2     H13006   2.575   3.786  15.561 -0.0676  0.8003  0.3976
  887MPD2    H113007   2.869   4.001  15.333 -0.7221  1.7345  1.2635
  887MPD2    H213008   2.701   3.663  15.175 -1.4738  0.8601 -0.3868
  887MPD2    H313009   2.841   3.855  15.162  0.1711  0.6866  0.4685
  887MPD2     N13010   2.742   3.987  15.583 -0.3326 -0.6366 -0.5437
  887MPD2    H513011   2.696   3.966  15.671 -0.0510  0.1344 -0.2154
  887MPD2    N113012   2.523   3.608  15.385 -0.2158 -0.1939  0.0604
  887MPD2    H713013   2.479   3.595  15.476  3.6196 -0.0816  1.9403
  888MPD2     C13014   0.088   4.102  14.693  0.7105 -0.1354  0.1550
  888MPD2    C113015   0.108   4.144  14.824  1.4307 -0.1010 -0.6354
  888MPD2    C213016   0.153   4.277  14.850  0.5301 -0.5673  0.0677
  888MPD2    C313017   0.164   4.359  14.744 -0.5398 -0.7335  0.1803
  888MPD2    C413018   0.142   4.314  14.614 -0.5111 -0.7419 -0.7934
  888MPD2    C513019   0.104   4.186  14.593  0.1405  0.4258  0.0321
  888MPD2     H13020   0.179   4.310  14.950  0.0243  1.1200 -0.3502
  888MPD2    H113021   0.161   4.364  14.520 -1.9115 -3.4607 -2.5447
  888MPD2    H213022   0.043   4.007  14.665  0.5664  0.3236 -1.1800
  888MPD2    H313023   0.087   4.142  14.496 -2.0541 -0.2093  0.7014
  888MPD2     N13024   0.203   4.495  14.776 -0.3995 -0.1095 -0.1495
  888MPD2    H513025   0.222   4.520  14.872  0.7605 -0.2312 -0.3444
  888MPD2    N113026   0.080   4.062  14.937 -0.1814  0.2064  0.2392
  888MPD2    H713027   0.099   4.099  15.030  0.5240  1.2265 -0.3044
  889MPD2     C13028   4.034   3.693  12.669 -0.0183 -0.5834  0.0357
  889MPD2    C113029   4.007   3.676  12.809  0.4558  0.2374 -0.4328
  889MPD2    C213030   4.039   3.786  12.886 -0.3113  0.3157 -1.1773
  889MPD2    C313031   4.041   3.923  12.844  0.8968  0.6014 -0.2037
  889MPD2    C413032   4.035   3.937  12.703 -0.1718 -0.8933 -0.3074
  889MPD2    C513033   4.038   3.829  12.621  0.0804 -0.6420 -0.4807
  889MPD2     H13034   4.027   3.775  12.993 -0.5122 -0.1047 -1.2437
  889MPD2    H113035   4.037   4.035  12.656  1.4407 -0.5464  0.5014
  889MPD2    H213036   4.033   3.608  12.602 -1.6705 -1.0408  0.6333
  889MPD2    H313037   4.048   3.856  12.517  1.1004  1.2988  0.1192
  889MPD2     N13038   4.033   4.026  12.942  0.4627 -0.2139 -0.3727
  889MPD2    H513039   4.033   4.009  13.042 -1.6052 -0.5879 -0.4192
  889MPD2    N113040   3.996   3.547  12.867 -0.5921 -0.1711 -0.5598
  889MPD2    H713041   3.997   3.538  12.968 -1.2877 -2.8119 -0.7726
  890MPD2     C13042   3.572   0.448  14.486 -0.0422  0.6334  0.2564
  890MPD2    C113043   3.671   0.482  14.575 -0.1242  0.5958 -0.5042
  890MPD2    C213044   3.672   0.422  14.702  0.0200 -0.2327 -0.8978
  890MPD2    C313045   3.577   0.332  14.731 -0.0072  0.4922 -0.2411
  890MPD2    C413046   3.482   0.299  14.643 -0.0921 -0.1575 -0.2992
  890MPD2    C513047   3.493   0.342  14.513 -0.6228  0.9555  0.0629
  890MPD2     H13048   3.738   0.455  14.780 -2.0103  1.5414  0.0623
  890MPD2    H113049   3.400   0.234  14.674  0.7336 -0.5913  0.9752
  890MPD2    H213050   3.559   0.497  14.390 -1.0423 -2.6588 -1.2871
  890MPD2    H313051   3.420   0.309  14.440 -1.1296  2.7643 -0.2598
  890MPD2     N13052   3.574   0.280  14.864  0.2388 -0.0526 -0.0271
  890MPD2    H513053   3.658   0.304  14.916 -0.2556 -2.7263  1.9731
  890MPD2    N113054   3.746   0.589  14.536  0.3213  0.3379 -0.2424
  890MPD2    H713055   3.722   0.645  14.455  1.9988 -1.0659 -1.7165
  891MPD2     C13056   1.583   3.410  16.711  0.0359 -0.0488 -0.0914
  891MPD2    C113057   1.581   3.489  16.823  0.5850 -1.3739  0.0147
  891MPD2    C213058   1.677   3.476  16.921  0.0376  0.1896 -0.4774
  891MPD2    C313059   1.779   3.383  16.903  0.4208 -0.1380  0.2624
  891MPD2    C413060   1.775   3.306  16.793 -0.7266 -0.2225 -0.6115
  891MPD2    C513061   1.684   3.317  16.696  0.2244 -0.0149 -0.2354
  891MPD2     H13062   1.693   3.547  17.001  0.6959  0.5465 -0.9182
  891MPD2    H113063   1.852   3.231  16.776 -0.6524 -0.3214  0.1609
  891MPD2    H213064   1.504   3.425  16.637 -2.5060 -3.9954  1.8163
  891MPD2    H313065   1.687   3.260  16.604  2.0928  0.1752 -0.2951
  891MPD2     N13066   1.883   3.383  17.004  0.0269 -0.0748 -0.2189
  891MPD2    H513067   1.874   3.452  17.078 -1.1397 -2.3678  1.8015
  891MPD2    N113068   1.485   3.589  16.837 -0.7314 -0.2551 -0.4328
  891MPD2    H713069   1.422   3.602  16.758  0.7503 -1.4518 -1.8222
  892MPD2     C13070   2.642   4.568  15.065 -0.2544 -0.2267 -0.0948
  892MPD2    C113071   2.586   4.670  14.979 -0.0543 -0.4405  0.1888
  892MPD2    C213072   2.608   4.657  14.843  0.1282  0.8167 -0.2765
  892MPD2    C313073   2.693   4.566  14.795  0.2558 -0.3470 -0.0206
  892MPD2    C413074   2.758   4.479  14.882 -0.5050  0.1511 -0.2753
  892MPD2    C513075   2.725   4.476  15.010 -0.4839 -0.3949 -0.1496
  892MPD2     H13076   2.556   0.007  14.780 -0.5125  0.3176 -0.3281
  892MPD2    H113077   2.828   4.400  14.856 -0.0705  0.7664 -0.9973
  892MPD2    H213078   2.636   4.568  15.174 -3.2441  1.6872 -0.2419
  892MPD2    H313079   2.774   4.412  15.082  1.1735  2.8224  1.5644
  892MPD2     N13080   2.729   4.559  14.659 -0.1988  0.5954  0.1706
  892MPD2    H513081   2.817   4.512  14.641 -1.3388 -0.3598 -2.9484
  892MPD2    N113082   2.505   0.053  15.020 -0.6237 -0.4660  0.1709
  892MPD2    H713083   2.471   0.100  14.937 -0.5772  1.8678  1.4726
  893MPD2     C13084   0.618   3.492   1.530 -0.6882  0.2115 -0.4417
  893MPD2    C113085   0.595   3.548   1.653 -0.0504 -0.1739  0.8597
  893MPD2    C213086   0.473   3.619   1.660 -0.4983  0.2940 -0.7441
  893MPD2    C313087   0.381   3.618   1.554 -0.3638  0.6153 -0.3837
  893MPD2    C413088   0.401   3.545   1.443 -0.0011  0.2929  0.4242
  893MPD2    C513089   0.524   3.478   1.436  0.2799 -0.2508  0.4243
  893MPD2     H13090   0.431   3.652   1.754  0.6225 -1.2094  0.2689
  893MPD2    H113091   0.324   3.544   1.367  0.8971 -0.6892 -0.4753
  893MPD2    H213092   0.712   3.438   1.520 -0.7443  0.1783 -0.8003
  893MPD2    H313093   0.554   3.415   1.353  0.6674 -1.0005  1.1431
  893MPD2     N13094   0.254   3.691   1.558  0.2081  0.7108  0.1288
  893MPD2    H513095   0.196   3.684   1.475 -2.2905 -0.6915  2.0281
  893MPD2    N113096   0.693   3.537   1.756 -1.3012  0.3625  0.0915
  893MPD2    H713097   0.776   3.487   1.725 -1.3299  1.5952 -1.9769
  894MPD2     C13098   2.167   1.116   0.765  0.6400 -0.3487  0.5440
  894MPD2    C113099   2.241   1.076   0.870 -0.8303  0.6548  0.1064
  894MPD2    C213100   2.317   1.175   0.934  0.3007 -0.0070  0.0151
  894MPD2    C313101   2.315   1.307   0.893 -0.2595  0.0341 -0.6298
  894MPD2    C413102   2.228   1.344   0.794 -0.1533  0.1449  0.0401
  894MPD2    C513103   2.159   1.247   0.726  0.6453 -0.0646  0.6891
  894MPD2     H13104   2.383   1.138   1.011  0.0869  0.3333  0.3573
  894MPD2    H113105   2.220   1.449   0.768  0.3758 -0.1600 -1.3292
  894MPD2    H213106   2.113   1.053   0.695  1.0928  1.6541 -1.6054
  894MPD2    H313107   2.096   1.271   0.641  2.1702  0.2674 -0.3313
  894MPD2     N13108   2.401   1.400   0.957 -0.1352 -0.2444  0.4094
  894MPD2    H513109   2.460   1.356   1.026  0.5150 -1.0962 -0.6745
  894MPD2    N113110   2.246   0.941   0.910 -0.1267  0.1284  0.1780
  894MPD2    H713111   2.311   0.912   0.982  2.4161 -0.8612 -2.5249
  895MPD2     C13112   1.805   4.225  13.947 -0.0332  0.1890 -0.3655
  895MPD2    C113113   1.748   4.196  13.829 -0.6008 -0.2852  0.2013
  895MPD2    C213114   1.817   4.129  13.725 -0.3170  0.2692 -0.0495
  895MPD2    C313115   1.953   4.097  13.740 -0.2342 -0.1830  1.0752
  895MPD2    C413116   2.007   4.124  13.861  1.0186  0.0161  0.1025
  895MPD2    C513117   1.935   4.184  13.960  1.0560 -0.0638 -0.5519
  895MPD2     H13118   1.779   4.126  13.624  0.2439  1.7445 -0.2965
  895MPD2    H113119   2.109   4.092  13.880  1.0865 -0.4436 -1.0353
  895MPD2    H213120   1.748   4.272  14.026  0.4622 -0.1537  0.1935
  895MPD2    H313121   1.985   4.206  14.054 -3.4461 -0.4259  1.8975
  895MPD2     N13122   2.036   4.042  13.641 -0.3678  0.5441  0.1809
  895MPD2    H513123   2.133   4.028  13.668  0.1101  0.7352 -1.4861
  895MPD2    N113124   1.621   4.236  13.794 -0.4445 -0.9986  0.2541
  895MPD2    H713125   1.580   4.192  13.712  1.4483  0.7685 -1.6393
  896MPD2     C13126   4.529   2.523   1.146 -0.3345  0.5276  0.3818
  896MPD2    C113127   4.562   2.391   1.127 -0.6516  0.0013 -0.5612
  896MPD2    C213128   4.464   2.304   1.088  0.2782  0.6241 -0.2003
  896MPD2    C313129   4.333   2.348   1.063  0.3520 -0.4007 -0.4099
  896MPD2    C413130   4.306   2.489   1.068 -0.7692  0.2059  0.4089
  896MPD2    C513131   4.399   2.566   1.130  0.3785  0.0824 -0.3961
  896MPD2     H13132   4.495   2.200   1.087 -0.9687  0.2591 -0.4713
  896MPD2    H113133   4.205   2.527   1.059 -0.5218  0.8191  0.1439
  896MPD2    H213134   4.608   2.582   1.191  0.7624  1.1261 -2.3617
  896MPD2    H313135   4.368   2.659   1.176  0.5700  0.3061 -0.7167
  896MPD2     N13136   4.231   2.249   1.036  0.4775  0.1642 -0.5240
  896MPD2    H513137   4.262   2.153   1.036  0.2540  0.0912  0.9493
  896MPD2    N113138   4.698   2.359   1.138 -0.5616  0.0454  0.0796
  896MPD2    H713139   0.038   2.428   1.179 -0.7625 -0.6800  1.5801
  897MPD2     C13140   0.457   4.006   9.986 -0.7022  0.6909 -0.1650
  897MPD2    C113141   0.376   4.080  10.067  0.4998 -0.4411  0.7453
  897MPD2    C213142   0.293   4.022  10.153 -0.0229  0.2659 -0.0354
  897MPD2    C313143   0.298   3.881  10.173 -0.4658  0.5022 -0.3597
  897MPD2    C413144   0.392   3.809  10.102 -0.7211 -0.1492  0.0930
  897MPD2    C513145   0.468   3.872  10.006 -0.7594 -0.4399  0.3643
  897MPD2     H13146   0.216   4.083  10.199  1.5373  0.0780  2.8238
  897MPD2    H113147   0.419   3.705  10.119  1.5947  0.4848  0.2557
  897MPD2    H213148   0.500   4.047   9.896  0.0869  0.7379  0.2342
  897MPD2    H313149   0.532   3.819   9.936 -0.7391  0.7607 -0.5269
  897MPD2     N13150   0.227   3.814  10.273 -0.7371 -0.2122 -0.2756
  897MPD2    H513151   0.258   3.723  10.304  3.7438  1.4519  0.0741
  897MPD2    N113152   0.362   4.218  10.035 -0.2439  0.2536 -0.0191
  897MPD2    H713153   0.405   4.252   9.949 -0.3363 -0.4903 -0.3600
  898MPD2     C13154   2.509   4.525  17.401 -0.4704  0.0016  0.0389
  898MPD2    C113155   2.596   4.633  17.396  0.4083  0.6116  0.4350
  898MPD2    C213156   2.583   0.004  17.295  0.0945 -0.7326 -0.2457
  898MPD2    C313157   2.474   0.003  17.209  0.6260 -0.1995 -0.1167
  898MPD2    C413158   2.391   4.618  17.209  0.0875  0.1737 -0.2400
  898MPD2    C513159   2.414   4.517  17.302 -0.4950  0.0266  0.3726
  898MPD2     H13160   2.659   0.081  17.294 -0.4037 -0.2363 -0.0132
  898MPD2    H113161   2.309   4.596  17.143  0.1726 -1.0134  0.0486
  898MPD2    H213162   2.522   4.447  17.476 -0.2833  2.4961  2.6202
  898MPD2    H313163   2.351   4.429  17.295 -1.1783  0.3575  2.2949
  898MPD2     N13164   2.464   0.110  17.117  0.0639  0.3017  0.4668
  898MPD2    H513165   2.540   0.175  17.132 -0.5913  1.2150 -0.1623
  898MPD2    N113166   2.700   4.655  17.492  0.1304 -0.1260 -0.3843
  898MPD2    H713167   2.763   0.010  17.473 -0.1134  0.2876  0.5105
  899MPD2     C13168   3.118   0.251  17.680 -0.8125 -0.3384  0.9955
  899MPD2    C113169   3.240   0.266   0.046  0.7036 -0.0598  0.1813
  899MPD2    C213170   3.259   0.230   0.177 -0.0711  0.8839 -1.0637
  899MPD2    C313171   3.152   0.176   0.256  0.9206  0.2026  0.3385
  899MPD2    C413172   3.027   0.184   0.203  0.2782 -0.2740  0.6025
  899MPD2    C513173   3.012   0.213   0.073  0.5455  0.4060 -0.1138
  899MPD2     H13174   3.362   0.234   0.210  0.5488 -2.5410 -2.6427
  899MPD2    H113175   2.939   0.159   0.261 -0.4466  0.9563  0.0205
  899MPD2    H213176   3.096   0.279  17.577 -0.5003  0.8536  1.2587
  899MPD2    H313177   2.913   0.219   0.030  0.3639 -0.3660  0.2099
  899MPD2     N13178   3.170   0.134   0.390 -0.2434  0.2492  0.7691
  899MPD2    H513179   3.086   0.103   0.438  0.4296  0.9023  2.3724
  899MPD2    N113180   3.344   0.300  17.648  0.4514 -0.3036 -0.1575
  899MPD2    H713181   3.318   0.308  17.550 -1.9208  3.6177  0.7836
  900MPD2     C13182   2.876   2.137  12.468 -0.2936 -0.0108 -0.1715
  900MPD2    C113183   2.885   2.048  12.361  0.4874  0.0959  0.3148
  900MPD2    C213184   2.799   2.057  12.254  1.0972  0.6238 -0.4204
  900MPD2    C313185   2.711   2.170  12.240 -0.1408  0.0163 -0.2334
  900MPD2    C413186   2.700   2.260  12.346  0.0281  1.3006  0.1763
  900MPD2    C513187   2.779   2.239  12.461 -0.1987 -0.4766  0.9778
  900MPD2     H13188   2.807   1.981  12.177  2.4626 -1.1732  1.5041
  900MPD2    H113189   2.640   2.350  12.351  0.6794  1.7198  0.5175
  900MPD2    H213190   2.927   2.134  12.563  0.0003  1.5410 -0.2788
  900MPD2    H313191   2.776   2.309  12.544 -1.6856  1.6837 -0.9191
  900MPD2     N13192   2.629   2.175  12.123  0.4793 -0.1603 -0.1589
  900MPD2    H513193   2.650   2.103  12.054 -0.5074  1.8463 -2.5874
  900MPD2    N113194   2.973   1.943  12.386  0.3938  0.0473  0.3161
  900MPD2    H713195   3.004   1.931  12.482 -0.2650  0.8460  0.6235
  901MPD2     C13196   2.751   0.927  12.462 -0.3031  0.0807 -0.2136
  901MPD2    C113197   2.888   0.922  12.466  0.0304  1.1645  0.0566
  901MPD2    C213198   2.963   1.032  12.473  0.3059 -0.1572 -0.0873
  901MPD2    C313199   2.913   1.162  12.472  0.5692  0.0857 -0.1934
  901MPD2    C413200   2.774   1.163  12.463  0.3843  0.3078  0.4215
  901MPD2    C513201   2.694   1.051  12.463  0.5024 -0.3723  0.1410
  901MPD2     H13202   3.071   1.019  12.476  0.0298 -2.2604  0.2012
  901MPD2    H113203   2.717   1.255  12.453  0.9612  0.7028  0.7519
  901MPD2    H213204   2.695   0.835  12.450 -0.4056  0.0850  0.2096
  901MPD2    H313205   2.588   1.068  12.449  0.5085  0.3454  0.9966
  901MPD2     N13206   2.999   1.278  12.471 -0.4928  0.4488  0.0009
  901MPD2    H513207   3.100   1.267  12.463 -0.5045  2.0443 -2.4594
  901MPD2    N113208   2.936   0.786  12.469  0.0385  0.2603  0.1632
  901MPD2    H713209   2.870   0.715  12.500 -1.5727  1.4642 -0.5142
  902MPD2     C13210   1.990   4.291  12.455  0.0381  0.3928 -0.4852
  902MPD2    C113211   2.043   4.414  12.488  0.1177  0.8221  0.0769
  902MPD2    C213212   2.164   4.455  12.433 -1.0230 -0.6254  0.0424
  902MPD2    C313213   2.240   4.368  12.368  0.5488 -0.1745  0.2884
  902MPD2    C413214   2.206   4.233  12.360 -0.1565  0.1000 -0.3016
  902MPD2    C513215   2.077   4.202  12.398  0.3353 -0.5480 -0.6198
  902MPD2     H13216   2.202   4.553  12.457 -1.0303 -0.5972 -0.0620
  902MPD2    H113217   2.262   4.160  12.303  0.6955  0.3494  0.2210
  902MPD2    H213218   1.893   4.258  12.491 -0.4489 -1.8574 -3.9390
  902MPD2    H313219   2.050   4.100  12.372 -1.8058 -0.4376  1.2004
  902MPD2     N13220   2.367   4.397  12.310  0.1363 -0.2063 -0.4377
  902MPD2    H513221   2.419   4.318  12.272 -1.7987 -0.9521 -1.5468
  902MPD2    N113222   1.957   4.501  12.563 -0.1551 -0.5130  0.5239
  902MPD2    H713223   1.887   4.447  12.613 -0.3206 -0.1816  0.6485
  903MPD2     C13224   2.350   4.668  11.658 -0.2385 -1.1629  0.2831
  903MPD2    C113225   2.347   4.544  11.708  0.3227 -0.0176 -0.1969
  903MPD2    C213226   2.226   4.479  11.708  0.2657 -0.1076 -0.7525
  903MPD2    C313227   2.113   4.531  11.651 -0.3309  0.3926  0.0847
  903MPD2    C413228   2.123   4.647  11.579  0.2122  0.0862  0.0528
  903MPD2    C513229   2.245   4.706  11.581 -0.0383 -0.3431  0.5287
  903MPD2     H13230   2.228   4.383  11.760  0.7595 -0.2453 -1.0285
  903MPD2    H113231   2.042   4.681  11.515  1.4709  1.2797 -0.9102
  903MPD2    H213232   2.432   0.016  11.672 -0.2390 -1.4190  1.4886
  903MPD2    H313233   2.252   0.078  11.530 -1.8566 -1.7281 -2.2528
  903MPD2     N13234   1.983   4.468  11.661  0.1522  0.1826 -0.5928
  903MPD2    H513235   1.919   4.518  11.601  0.8910  1.0642 -0.6464
  903MPD2    N113236   2.453   4.500  11.790 -0.3850  0.9197 -0.0132
  903MPD2    H713237   2.450   4.403  11.821 -3.5380  1.0310  0.0535
  904MPD2     C13238   1.810   3.257  13.867  0.4173 -0.1777 -0.0652
  904MPD2    C113239   1.817   3.356  13.776  0.3698 -0.0990 -0.5387
  904MPD2    C213240   1.931   3.425  13.760  0.0202 -0.1150  0.3709
  904MPD2    C313241   2.045   3.404  13.837  0.2299  0.3115  0.6137
  904MPD2    C413242   2.037   3.299  13.923  0.3918 -0.1074  0.3893
  904MPD2    C513243   1.924   3.231  13.935  0.1729 -0.1497  0.3839
  904MPD2     H13244   1.934   3.508  13.689  3.9724 -1.7506 -1.3707
  904MPD2    H113245   2.115   3.272  13.993 -0.8154  0.7758  2.0823
  904MPD2    H213246   1.724   3.194  13.890 -0.0083 -0.3288 -2.1160
  904MPD2    H313247   1.924   3.146  14.001  1.8657 -1.2283 -0.9883
  904MPD2     N13248   2.156   3.482  13.819 -0.1801  0.0970  0.5755
  904MPD2    H513249   2.138   3.566  13.765  1.7313  1.3343  1.8518
  904MPD2    N113250   1.700   3.392  13.697  0.2145  0.0965  0.4452
  904MPD2    H713251   1.704   3.487  13.662 -1.4780 -0.6760 -1.8219
  905MPD2     C13252   1.455   3.927  13.270  0.2517 -0.8032 -0.2759
  905MPD2    C113253   1.538   3.824  13.305 -0.8180 -0.4184  0.0722
  905MPD2    C213254   1.668   3.819  13.265 -0.0830  0.3722  0.1801
  905MPD2    C313255   1.719   3.919  13.186 -0.6582  0.8294  0.0163
  905MPD2    C413256   1.637   4.026  13.155 -0.2253 -0.5872 -0.0992
  905MPD2    C513257   1.501   4.030  13.188  0.5113  0.9616 -0.5263
  905MPD2     H13258   1.728   3.733  13.294 -2.3162 -0.8108  1.3086
  905MPD2    H113259   1.681   4.102  13.091  0.1286  0.3124  1.2226
  905MPD2    H213260   1.351   3.928  13.299 -0.1090 -1.8918 -1.5283
  905MPD2    H313261   1.437   4.110  13.153  0.0124  0.9897  0.4538
  905MPD2     N13262   1.852   3.926  13.135  0.4049  0.7715 -0.2371
  905MPD2    H513263   1.890   4.018  13.118  0.7036  0.7824  0.4598
  905MPD2    N113264   1.496   3.726  13.395 -0.1004 -0.4858 -0.5523
  905MPD2    H713265   1.567   3.657  13.414  0.7720  0.2877 -1.0338
  906MPD2     C13266   3.550   3.496  11.466 -0.7769 -0.7960  0.0692
  906MPD2    C113267   3.542   3.418  11.349 -0.6697  0.1709  0.5168
  906MPD2    C213268   3.462   3.310  11.348  0.1308 -0.3640  0.1522
  906MPD2    C313269   3.395   3.267  11.462 -0.5283  0.0244  0.2247
  906MPD2    C413270   3.424   3.326  11.582  0.3578  0.1399 -0.1273
  906MPD2    C513271   3.494   3.441  11.585  0.5571 -0.0176 -0.6316
  906MPD2     H13272   3.446   3.249  11.259 -2.2774 -2.2917  1.8915
  906MPD2    H113273   3.377   3.291  11.674 -0.6282  2.3746  0.2479
  906MPD2    H213274   3.611   3.586  11.473  1.2447 -2.0756 -0.8364
  906MPD2    H313275   3.504   3.498  11.676 -1.1655 -0.2008 -0.3351
  906MPD2     N13276   3.318   3.148  11.455 -0.3042  0.3165  0.0474
  906MPD2    H513277   3.307   3.106  11.363 -3.6781  2.3862 -0.4982
  906MPD2    N113278   3.602   3.446  11.226 -0.0313  0.0710  0.1773
  906MPD2    H713279   3.596   3.371  11.158 -2.3756 -0.0590  0.5155
  907MPD2     C13280   3.154   2.448  15.216 -0.2898 -0.4808  0.2793
  907MPD2    C113281   3.130   2.314  15.172  0.2311 -0.0269 -0.1168
  907MPD2    C213282   3.227   2.218  15.198  0.4024  0.2607 -0.5795
  907MPD2    C313283   3.340   2.242  15.267 -0.7207  0.6339  0.1010
  907MPD2    C413284   3.355   2.373  15.302 -0.0966 -0.2201 -0.4079
  907MPD2    C513285   3.271   2.473  15.276  0.2586  0.3047 -0.0607
  907MPD2     H13286   3.205   2.115  15.177 -1.3418  0.3818  0.6350
  907MPD2    H113287   3.427   2.401  15.378  0.1333  0.3708 -0.8457
  907MPD2    H213288   3.084   2.528  15.197 -0.8087 -0.2912  3.0538
  907MPD2    H313289   3.305   2.573  15.299 -1.6566  0.2861  2.8731
  907MPD2     N13290   3.431   2.126  15.301  0.0279 -0.1890  0.3657
  907MPD2    H513291   3.399   2.031  15.283  1.3971 -0.3973 -0.9832
  907MPD2    N113292   3.014   2.269  15.107 -0.1924  0.1320 -0.0752
  907MPD2    H713293   3.011   2.178  15.063  1.2008  0.0165  0.0514
  908MPD2     C13294   4.718   4.286   9.267 -0.0470  0.3102  0.2104
  908MPD2    C113295   4.711   4.193   9.369  0.6477  0.1855  0.1925
  908MPD2    C213296   0.031   4.240   9.492 -0.0894 -0.2829 -0.5646
  908MPD2    C313297   0.080   4.369   9.508 -0.4415 -0.3331  0.4078
  908MPD2    C413298   0.094   4.454   9.405  0.5359 -0.0859 -0.3317
  908MPD2    C513299   0.049   4.410   9.284 -0.1618 -0.3656 -0.1599
  908MPD2     H13300   0.020   4.174   9.577 -0.4549 -1.3421 -1.4246
  908MPD2    H113301   0.115   4.560   9.417 -0.6478 -0.0175  1.1111
  908MPD2    H213302   4.673   4.263   9.171 -0.2645  0.5817  0.2480
  908MPD2    H313303   0.034   4.483   9.205 -2.3706 -2.2099 -1.4709
  908MPD2     N13304   0.120   4.402   9.644  0.4314  0.3304 -0.0895
  908MPD2    H513305   0.111   4.336   9.720  0.7225 -2.4296 -2.4334
  908MPD2    N113306   4.653   4.066   9.347  0.9151  0.2752 -0.3000
  908MPD2    H713307   4.625   4.038   9.254 -0.1842 -1.6044  0.6087
  909MPD2     C13308   0.815   1.513  12.108 -0.0220 -0.2539 -0.7165
  909MPD2    C113309   0.822   1.632  12.044 -0.8007 -0.2187  0.3943
  909MPD2    C213310   0.767   1.738  12.112 -0.2438 -0.7490  0.2890
  909MPD2    C313311   0.699   1.718  12.231  0.3519  0.1733  0.0742
  909MPD2    C413312   0.693   1.595  12.290 -0.1222 -0.1561 -0.5818
  909MPD2    C513313   0.757   1.495  12.229  0.4452  0.0085 -0.7566
  909MPD2     H13314   0.777   1.840  12.078 -0.3994 -0.3003  1.5744
  909MPD2    H113315   0.652   1.574  12.388  1.8118 -0.6326  0.1258
  909MPD2    H213316   0.862   1.426  12.064 -1.0420 -0.1765 -1.9694
  909MPD2    H313317   0.748   1.395  12.269 -1.2014  0.4557 -0.0131
  909MPD2     N13318   0.644   1.831  12.299  0.4204 -0.4807  0.4987
  909MPD2    H513319   0.656   1.920  12.252  1.6862 -1.6264 -1.3890
  909MPD2    N113320   0.899   1.644  11.925 -0.2995 -0.3183  0.1212
  909MPD2    H713321   0.909   1.740  11.896 -1.8328 -0.0671  0.4099
  910MPD2     C13322   1.831   3.249  15.986  0.5859 -0.3190 -0.0869
  910MPD2    C113323   1.927   3.235  15.892 -0.7840  0.5185  0.1740
  910MPD2    C213324   1.903   3.291  15.769  0.3391  0.2883  0.3670
  910MPD2    C313325   1.781   3.361  15.738 -0.0342  1.2619 -0.4483
  910MPD2    C413326   1.687   3.375  15.838 -0.4578  0.2377 -0.2171
  910MPD2    C513327   1.710   3.316  15.963 -0.3553 -0.4643 -0.4380
  910MPD2     H13328   1.982   3.270  15.698  1.2398 -0.0718  1.4727
  910MPD2    H113329   1.594   3.428  15.822  0.6710  2.1725 -0.2914
  910MPD2    H213330   1.837   3.202  16.083  0.6852  1.3741  0.7324
  910MPD2    H313331   1.645   3.322  16.049  0.0063 -0.0338 -0.1932
  910MPD2     N13332   1.758   3.409  15.609  0.5306 -0.5598 -0.4023
  910MPD2    H513333   1.670   3.458  15.597  1.9349  2.5460  1.9996
  910MPD2    N113334   2.043   3.168  15.902  0.5274  0.2928  0.1586
  910MPD2    H713335   2.106   3.161  15.823 -0.4713  0.8718 -0.6782
  911MPD2     C13336   4.643   3.917  16.562  0.7044  0.2038  0.1590
  911MPD2    C113337   4.706   3.866  16.449 -0.6901  0.4493 -0.1239
  911MPD2    C213338   4.642   3.870  16.323  0.1098 -0.0979 -0.2805
  911MPD2    C313339   4.514   3.919  16.315 -0.2319  0.6339  0.0810
  911MPD2    C413340   4.446   3.958  16.428 -0.7166 -0.3057  0.9589
  911MPD2    C513341   4.513   3.966  16.548 -0.2647  0.3619 -0.1599
  911MPD2     H13342   4.676   3.812  16.238  2.4643 -0.2310  0.7484
  911MPD2    H113343   4.347   3.999  16.412  0.5122  2.1971 -0.2433
  911MPD2    H213344   4.695   3.922  16.656 -0.3763  0.1477  0.7596
  911MPD2    H313345   4.462   4.005  16.635 -0.6250  0.9250 -0.6219
  911MPD2     N13346   4.429   3.919  16.202 -0.4775  0.2228  0.4148
  911MPD2    H513347   4.329   3.923  16.217 -0.2762 -1.1991  2.0428
  911MPD2    N113348   0.106   3.807  16.473  0.4193  0.0669  0.5586
  911MPD2    H713349   0.142   3.823  16.566  2.5163  0.6897 -0.3633
  912MPD2     C13350   4.417   3.298  15.675  0.0837 -0.0659 -0.3177
  912MPD2    C113351   4.376   3.358  15.787 -0.3079 -0.1264  0.3298
  912MPD2    C213352   4.379   3.280  15.906  1.1619  0.0956  0.6262
  912MPD2    C313353   4.415   3.146  15.905 -0.0812 -0.6389 -0.4531
  912MPD2    C413354   4.443   3.086  15.785 -0.1681  0.2894 -0.4548
  912MPD2    C513355   4.449   3.164  15.673  0.0737  0.2842  0.5989
  912MPD2     H13356   4.380   3.334  16.000  0.2010 -0.4188  0.9332
  912MPD2    H113357   4.474   2.982  15.779 -1.6114 -0.2937  1.8377
  912MPD2    H213358   4.414   3.354  15.582 -0.0785  0.1002 -0.2108
  912MPD2    H313359   4.487   3.121  15.581 -1.0647 -0.5584  0.5230
  912MPD2     N13360   4.440   3.086  16.032 -0.1239 -0.7291 -0.7160
  912MPD2    H513361   4.421   3.148  16.111  2.9706 -1.1139  0.3555
  912MPD2    N113362   4.333   3.495  15.779  0.0025 -0.7715 -0.7179
  912MPD2    H713363   4.341   3.547  15.692 -0.6339  1.2461  0.4271
  913MPD2     C13364   4.656   0.403  10.877  0.2703  0.5471  0.6148
  913MPD2    C113365   0.052   0.441  10.941 -0.0846 -0.3772 -0.0136
  913MPD2    C213366   0.137   0.537  10.881  0.2178 -0.3502 -0.5216
  913MPD2    C313367   0.089   0.599  10.764  0.0964 -0.2691 -0.4803
  913MPD2    C413368   4.698   0.559  10.699  0.8322  0.1772  0.1527
  913MPD2    C513369   4.612   0.467  10.758 -0.0464  0.8093  0.8446
  913MPD2     H13370   0.233   0.570  10.918  0.1403 -1.0694  0.3126
  913MPD2    H113371   4.676   0.606  10.604  0.0177 -1.4980 -0.4872
  913MPD2    H213372   4.594   0.324  10.917  2.3504 -2.0409 -1.2533
  913MPD2    H313373   4.520   0.437  10.708  0.1178  0.9418  0.4662
  913MPD2     N13374   0.169   0.695  10.693 -0.5090 -0.0184  0.4828
  913MPD2    H513375   0.124   0.750  10.621  1.7474  3.0152  1.3632
  913MPD2    N113376   0.087   0.368  11.057 -0.2932 -0.5388 -0.0423
  913MPD2    H713377   0.028   0.291  11.085 -0.6878  0.3028  1.4893
  914MPD2     C13378   2.379   0.757  12.334 -0.3396  0.2117 -1.1680
  914MPD2    C113379   2.487   0.790  12.251 -0.1016 -0.3773  0.0755
  914MPD2    C213380   2.594   0.700  12.247  0.0434 -0.1786  0.6313
  914MPD2    C313381   2.600   0.589  12.321 -0.4879  0.2844  0.5198
  914MPD2    C413382   2.488   0.547  12.394  0.4866 -0.5108  0.2048
  914MPD2    C513383   2.376   0.635  12.405 -0.6189  0.0976 -0.2929
  914MPD2     H13384   2.673   0.709  12.173 -0.9330  1.3398 -0.2050
  914MPD2    H113385   2.492   0.456  12.452  0.9828 -0.8774 -0.4071
  914MPD2    H213386   2.297   0.827  12.345 -1.5208 -1.1661 -1.1149
  914MPD2    H313387   2.288   0.611  12.463 -0.0105  1.5483  1.2415
  914MPD2     N13388   2.723   0.524  12.322 -0.1550  0.0674 -0.5166
  914MPD2    H513389   2.795   0.568  12.267  0.8888  1.1053  1.6851
  914MPD2    N113390   2.497   0.923  12.201 -0.2751  0.3128  0.1109
  914MPD2    H713391   2.420   0.978  12.238 -0.7555  1.7129 -2.9673
  915MPD2     C13392   1.221   0.339  15.423 -0.2974  0.1519  0.3278
  915MPD2    C113393   1.108   0.427  15.412 -0.0516  0.5393  0.4734
  915MPD2    C213394   1.090   0.520  15.514 -0.1430  0.2620  0.1276
  915MPD2    C313395   1.170   0.511  15.631  0.4521 -0.2781 -0.0670
  915MPD2    C413396   1.282   0.433  15.632  0.3327 -0.5712  0.2265
  915MPD2    C513397   1.305   0.345  15.532 -0.0996  0.1829  0.4447
  915MPD2     H13398   1.008   0.591  15.508  1.5413  1.9970 -1.8339
  915MPD2    H113399   1.349   0.432  15.716 -2.6965 -1.9842  2.6249
  915MPD2    H213400   1.242   0.267  15.345  0.6726  1.7378 -0.8649
  915MPD2    H313401   1.394   0.283  15.536  0.3597  0.8544  0.6893
  915MPD2     N13402   1.118   0.596  15.746  0.2850  0.3704 -0.5050
  915MPD2    H513403   1.033   0.647  15.727 -0.8714 -0.6009  1.9915
  915MPD2    N113404   1.018   0.416  15.305  0.1111  0.2909  0.2500
  915MPD2    H713405   1.006   0.328  15.256 -0.1535 -0.2600  1.2989
  916MPD2     C13406   4.039   3.445  15.530  0.5054  0.7307  0.1391
  916MPD2    C113407   4.047   3.351  15.628  0.2245  0.4924 -0.5201
  916MPD2    C213408   4.101   3.224  15.603  0.4464  0.1626 -0.0157
  916MPD2    C313409   4.156   3.197  15.478  0.8630  0.3063  0.3683
  916MPD2    C413410   4.162   3.303  15.392 -0.2409  0.0739  0.4242
  916MPD2    C513411   4.095   3.422  15.410 -0.1536 -0.5868  0.7264
  916MPD2     H13412   4.091   3.148  15.679 -1.2225  1.2991  0.8819
  916MPD2    H113413   4.193   3.287  15.289 -1.5787 -1.5411  0.2619
  916MPD2    H213414   3.997   3.542  15.554 -1.2351 -0.8721  3.5097
  916MPD2    H313415   4.107   3.499  15.335 -0.6446 -0.1560  1.0823
  916MPD2     N13416   4.199   3.062  15.448 -0.5670  0.8244 -0.1584
  916MPD2    H513417   4.160   2.985  15.502 -0.8481 -0.9996 -2.9987
  916MPD2    N113418   3.993   3.389  15.761 -0.4509 -0.1905 -0.3472
  916MPD2    H713419   3.951   3.480  15.773  0.7063  0.4594 -1.1832
  917MPD2     C13420   4.467   1.445  11.054  0.5468  0.3219  0.3947
  917MPD2    C113421   4.536   1.455  11.179  0.4064  0.4545  0.2784
  917MPD2    C213422   4.640   1.539  11.193  0.7593  0.1434 -0.7972
  917MPD2    C313423   4.688   1.619  11.086 -0.0305 -0.0121 -0.6091
  917MPD2    C413424   4.614   1.612  10.968 -0.3251 -0.3434  0.5881
  917MPD2    C513425   4.512   1.526  10.946 -0.1203 -0.3142  0.0851
  917MPD2     H13426   4.678   1.556  11.293 -1.3364 -2.2055  0.3992
  917MPD2    H113427   4.633   1.690  10.896  0.3505 -2.1485 -1.1843
  917MPD2    H213428   4.383   1.380  11.029  0.8762 -0.4827  1.3865
  917MPD2    H313429   4.473   1.511  10.846 -0.2971 -0.4148  0.1680
  917MPD2     N13430   0.080   1.701  11.091 -0.2061  0.8623  0.4727
  917MPD2    H513431   0.102   1.765  11.015 -0.6544  1.5116  0.9000
  917MPD2    N113432   4.475   1.387  11.288 -0.9373  0.1016  0.6150
  917MPD2    H713433   4.393   1.332  11.264 -0.4173 -0.6042  0.4638
  918MPD2     C13434   4.408   1.519  12.290  0.7244  0.2231 -1.7010
  918MPD2    C113435   4.528   1.480  12.239 -0.2440  0.2372  0.0237
  918MPD2    C213436   4.537   1.444  12.103 -0.2738 -1.0348  0.3927
  918MPD2    C313437   4.420   1.426  12.032 -0.6262 -0.2342  0.4391
  918MPD2    C413438   4.293   1.464  12.086  0.2794 -0.1224  0.8048
  918MPD2    C513439   4.287   1.512  12.218  0.1128  0.4612  0.1515
  918MPD2     H13440   4.631   1.405  12.064 -0.0757 -1.2680  1.1189
  918MPD2    H113441   4.206   1.466  12.023  1.4689 -2.2117 -0.8771
  918MPD2    H213442   4.404   1.560  12.390 -1.7269  0.1673 -1.7709
  918MPD2    H313443   4.189   1.527  12.260  1.3065  0.4425  2.9910
  918MPD2     N13444   4.421   1.348  11.914 -0.0201 -0.4958  0.8141
  918MPD2    H513445   4.510   1.328  11.869 -0.0712  0.5486  0.2576
  918MPD2    N113446   4.648   1.474  12.321  0.1339  0.5437  0.1938
  918MPD2    H713447   0.005   1.462  12.260  0.9313 -3.2070  1.9615
  919MPD2     C13448   0.274   0.501  11.820 -0.3340  0.1710  0.1320
  919MPD2    C113449   0.179   0.437  11.745  0.6086 -0.3992  0.1874
  919MPD2    C213450   0.135   0.496  11.622  0.6628 -0.3302 -0.1324
  919MPD2    C313451   0.193   0.610  11.567  0.1868 -0.0090  0.6196
  919MPD2    C413452   0.285   0.675  11.645 -0.0792 -0.2646  0.2009
  919MPD2    C513453   0.321   0.622  11.765 -0.5083 -0.4989 -0.1118
  919MPD2     H13454   0.064   0.440  11.562  0.4372  1.2833 -1.3602
  919MPD2    H113455   0.330   0.771  11.619  0.1899 -0.9394 -1.8196
  919MPD2    H213456   0.323   0.469  11.911  3.9566  1.0860 -1.8285
  919MPD2    H313457   0.407   0.671  11.809 -0.0496  0.6726 -2.2892
  919MPD2     N13458   0.133   0.661  11.442 -0.4885  0.1984  0.2818
  919MPD2    H513459   0.171   0.749  11.410  0.1023  0.2384  1.0842
  919MPD2    N113460   0.117   0.317  11.787  0.1064 -0.0565 -0.2755
  919MPD2    H713461   0.056   0.268  11.723  1.9636  1.4689 -3.1730
  920MPD2     C13462   0.373   1.211  10.647 -0.0626  0.0274  0.3703
  920MPD2    C113463   0.251   1.168  10.607  0.2823  0.5168  0.7308
  920MPD2    C213464   0.177   1.099  10.703  0.1277 -0.1710  0.7850
  920MPD2    C313465   0.231   1.058  10.821  0.2258 -0.3965  0.2131
  920MPD2    C413466   0.353   1.099  10.857  0.4863 -0.4290 -0.0114
  920MPD2    C513467   0.424   1.179  10.770  0.5753 -0.0372 -0.8277
  920MPD2     H13468   0.075   1.065  10.688  0.1849  0.9353 -2.1874
  920MPD2    H113469   0.401   1.069  10.950  2.2164  0.4674 -0.6145
  920MPD2    H213470   0.432   1.266  10.575  0.2913 -1.1409 -0.2349
  920MPD2    H313471   0.522   1.209  10.806  0.4638 -0.7463  0.0835
  920MPD2     N13472   0.156   0.967  10.898  0.0595 -0.3143 -0.0904
  920MPD2    H513473   0.058   0.964  10.872 -0.1334  1.4867  0.3770
  920MPD2    N113474   0.189   1.193  10.481 -0.0961  0.5844  0.2341
  920MPD2    H713475   0.100   1.147  10.467  1.1498 -1.5218 -0.7661
  921MPD2     C13476   0.828   3.533  17.087 -0.8159  0.4024  0.4054
  921MPD2    C113477   0.823   3.640  16.998 -0.3942  0.5720 -0.0729
  921MPD2    C213478   0.723   3.642  16.905 -0.9597 -0.5317  0.3386
  921MPD2    C313479   0.617   3.555  16.913 -0.8141 -0.0367  0.0512
  921MPD2    C413480   0.609   3.454  17.011  0.1953  0.2630 -0.0966
  921MPD2    C513481   0.723   3.438  17.093  0.6249  0.9596  0.2561
  921MPD2     H13482   0.728   3.725  16.836 -0.7169 -1.5142 -0.8335
  921MPD2    H113483   0.538   3.372  17.016  1.1673 -0.7559 -3.0350
  921MPD2    H213484   0.916   3.509  17.146 -1.5308 -1.6433  0.6232
  921MPD2    H313485   0.716   3.357  17.165  2.3834  0.0402 -0.6236
  921MPD2     N13486   0.511   3.560  16.816  0.0351 -0.3734 -0.1288
  921MPD2    H513487   0.459   3.475  16.798 -0.0300 -0.5380  0.8785
  921MPD2    N113488   0.924   3.738  16.986 -0.2113  0.1268 -0.0245
  921MPD2    H713489   0.902   3.816  16.925  1.5956 -1.4665 -2.7334
  922MPD2     C13490   2.064   1.500  16.865 -0.0901 -0.3856  0.1402
  922MPD2    C113491   1.967   1.585  16.918  0.0353  0.7424  0.2236
  922MPD2    C213492   1.850   1.534  16.966  0.2445 -0.5002  0.4705
  922MPD2    C313493   1.826   1.399  16.964  0.5806 -0.6193 -0.6663
  922MPD2    C413494   1.921   1.314  16.911 -0.4612  0.4813  0.3726
  922MPD2    C513495   2.042   1.366  16.870  0.6873 -0.1944 -0.9282
  922MPD2     H13496   1.782   1.607  17.008 -0.4657  0.4534 -2.3091
  922MPD2    H113497   1.904   1.207  16.911 -0.3484  0.4521 -2.0232
  922MPD2    H213498   2.161   1.536  16.831 -0.6207 -0.7105 -1.7374
  922MPD2    H313499   2.111   1.292  16.830  3.0037  3.1440 -3.0825
  922MPD2     N13500   1.701   1.359  17.007 -0.3099  0.0577 -0.1784
  922MPD2    H513501   1.645   1.433  17.048  0.8840 -0.5819  2.5957
  922MPD2    N113502   1.982   1.724  16.936 -0.1950  0.2295 -0.3746
  922MPD2    H713503   1.924   1.772  17.004 -1.8096  0.4282 -1.8975
  923MPD2     C13504   4.000   3.210   9.356  0.2228  0.0972 -0.1091
  923MPD2    C113505   3.962   3.345   9.382 -0.7893 -0.3907  0.3441
  923MPD2    C213506   3.942   3.387   9.512 -0.3451 -0.1781 -0.1679
  923MPD2    C313507   3.961   3.304   9.623  0.1362  0.7193 -0.0866
  923MPD2    C413508   4.006   3.172   9.597 -0.2009 -0.1121  0.0725
  923MPD2    C513509   4.019   3.130   9.468 -0.2980  0.1514 -0.4349
  923MPD2     H13510   3.897   3.484   9.524 -1.2168 -0.6255  0.1565
  923MPD2    H113511   4.030   3.107   9.681 -0.3780 -0.0668  0.1581
  923MPD2    H213512   4.017   3.162   9.261 -0.8940  0.4826 -0.4986
  923MPD2    H313513   4.046   3.026   9.453 -0.5594 -0.0609  0.5072
  923MPD2     N13514   3.943   3.348   9.754 -0.4515  0.4523  0.0539
  923MPD2    H513515   3.970   3.284   9.829 -0.6602  0.5060  0.1754
  923MPD2    N113516   3.945   3.432   9.271  0.6650  0.3035 -0.4123
  923MPD2    H713517   3.981   3.389   9.187 -1.9610 -1.5461 -0.5823
  924MPD2     C13518   3.005   1.776  15.066  0.1007 -0.0714 -0.5221
  924MPD2    C113519   3.026   1.793  15.202  0.0153  0.4973  0.1330
  924MPD2    C213520   3.161   1.790  15.247 -0.8539  0.2436 -0.6161
  924MPD2    C313521   3.268   1.768  15.159 -0.8865  0.6522  0.6651
  924MPD2    C413522   3.247   1.754  15.019  0.1170 -0.1558  0.3690
  924MPD2    C513523   3.114   1.754  14.981 -0.3013  0.4941 -0.4236
  924MPD2     H13524   3.179   1.808  15.352  2.8065  0.8085 -1.3319
  924MPD2    H113525   3.326   1.742  14.946  0.5438  0.4485  0.7292
  924MPD2    H213526   2.907   1.779  15.020 -0.0265  0.4817 -0.2114
  924MPD2    H313527   3.098   1.737  14.875 -1.3550  0.2824 -0.2264
  924MPD2     N13528   3.400   1.754  15.198 -0.2183 -0.2972  0.2921
  924MPD2    H513529   3.475   1.769  15.132  0.6334 -1.1034  1.0809
  924MPD2    N113530   2.920   1.820  15.287  0.6978  0.0357  0.5270
  924MPD2    H713531   2.836   1.838  15.233  0.1949  1.0652  1.6710
  925MPD2     C13532   1.685   4.390  14.913 -0.4634 -0.1465 -0.2924
  925MPD2    C113533   1.580   4.438  14.839 -0.1777  0.4754 -0.0157
  925MPD2    C213534   1.454   4.452  14.901 -0.2303  0.1720  0.1832
  925MPD2    C313535   1.437   4.404  15.034 -0.2914  0.1188 -0.8969
  925MPD2    C413536   1.542   4.356  15.106  0.5648  0.3119 -0.1629
  925MPD2    C513537   1.667   4.349  15.046 -0.8553  0.2590  0.2140
  925MPD2     H13538   1.365   4.483  14.847 -0.1659 -1.0255 -0.6057
  925MPD2    H113539   1.534   4.335  15.212 -2.3463  3.0530  0.1386
  925MPD2    H213540   1.789   4.386  14.881 -0.1085  1.2225  0.7339
  925MPD2    H313541   1.752   4.307  15.098  1.4865 -0.4330 -4.1177
  925MPD2     N13542   1.313   4.393  15.107 -0.0851 -0.4356 -0.0299
  925MPD2    H513543   1.332   4.348  15.196  0.1517  0.6199  0.4595
  925MPD2    N113544   1.598   4.488  14.715 -0.1593 -0.1678 -0.5162
  925MPD2    H713545   1.516   4.529  14.671  0.5807 -0.2074 -1.9654
  926MPD2     C13546   0.189   2.756  13.602 -0.0051 -0.1193 -0.1972
  926MPD2    C113547   0.167   2.891  13.574  0.4377  0.1372 -1.0665
  926MPD2    C213548   0.215   2.943  13.455  0.1234 -0.0128  0.7308
  926MPD2    C313549   0.287   2.869  13.373 -0.4461 -0.4171  0.1240
  926MPD2    C413550   0.301   2.734  13.396  0.3460  0.2171 -0.3198
  926MPD2    C513551   0.247   2.677  13.505  0.0253 -0.1579  0.2147
  926MPD2     H13552   0.193   3.047  13.437  2.2400 -0.1022 -2.3939
  926MPD2    H113553   0.346   2.685  13.310  1.1276  1.1708 -0.4551
  926MPD2    H213554   0.172   2.708  13.698  2.3149  0.3699  0.4587
  926MPD2    H313555   0.259   2.571  13.527 -3.4664 -0.5194  0.3606
  926MPD2     N13556   0.348   2.926  13.260  0.1628 -0.6510  0.1134
  926MPD2    H513557   0.413   2.864  13.213  0.6178 -1.5606  1.9466
  926MPD2    N113558   0.087   2.967  13.656 -0.7206 -0.0878  0.7378
  926MPD2    H713559   0.048   3.050  13.613  1.3065  0.6543  0.3078
  927MPD2     C13560   0.396   0.339   0.121 -0.0675  0.1753  0.2031
  927MPD2    C113561   0.268   0.372   0.109 -0.1705  0.5327  0.4090
  927MPD2    C213562   0.216   0.418  17.680  0.2135 -0.2750 -0.8382
  927MPD2    C313563   0.295   0.401  17.566 -0.1349 -0.0556 -0.6113
  927MPD2    C413564   0.425   0.356  17.579 -0.2997 -0.2030  0.4972
  927MPD2    C513565   0.479   0.335   0.011 -0.9200 -0.3555  0.3809
  927MPD2     H13566   0.112   0.447  17.668  0.0887 -0.7931 -1.0281
  927MPD2    H113567   0.473   0.338  17.484  1.4995 -2.3863  1.8224
  927MPD2    H213568   0.428   0.320   0.223  1.0372  0.5158 -0.0882
  927MPD2    H313569   0.578   0.290   0.011 -0.2350  1.1491 -0.7890
  927MPD2     N13570   0.257   0.432  17.435  0.3938  0.2674 -0.0865
  927MPD2    H513571   0.325   0.418  17.361 -0.7162 -3.3019 -0.4116
  927MPD2    N113572   0.206   0.382   0.234  0.4993  0.4830  0.3147
  927MPD2    H713573   0.261   0.343   0.310 -0.1774  2.9017  2.0385
  928MPD2     C13574   2.441   3.794   0.997 -0.1656 -0.2429 -0.2056
  928MPD2    C113575   2.465   3.931   1.014 -0.5684  0.1773  0.2652
  928MPD2    C213576   2.558   3.985   0.933 -0.1173  0.2623 -0.4803
  928MPD2    C313577   2.621   3.907   0.838  0.4986 -0.1519  0.2817
  928MPD2    C413578   2.585   3.775   0.808  0.1949 -0.2800  0.1936
  928MPD2    C513579   2.507   3.714   0.896  0.6027  0.6898 -0.5237
  928MPD2     H13580   2.591   4.087   0.949  1.7530  0.2963 -4.6422
  928MPD2    H113581   2.627   3.731   0.718 -1.5995 -0.8328 -0.3765
  928MPD2    H213582   2.378   3.740   1.066 -0.6890  1.2137  0.4499
  928MPD2    H313583   2.484   3.609   0.884 -0.0586  0.8170 -0.4048
  928MPD2     N13584   2.730   3.949   0.762  0.0205  0.5074  0.8539
  928MPD2    H513585   2.760   3.893   0.683 -0.7357  0.1976  0.7907
  928MPD2    N113586   2.409   4.004   1.123  0.3093  0.5573 -0.1565
  928MPD2    H713587   2.357   3.958   1.197  2.2254 -1.3108  0.0111
  929MPD2     C13588   2.844   3.022   9.170  0.7278 -0.4553  0.4451
  929MPD2    C113589   2.893   3.107   9.262 -0.1098 -0.0352 -0.0194
  929MPD2    C213590   2.891   3.243   9.233 -0.1687  0.1940 -0.2401
  929MPD2    C313591   2.873   3.290   9.102  0.1404 -0.8545  0.0869
  929MPD2    C413592   2.835   3.194   9.005 -0.7683  0.2148  0.8413
  929MPD2    C513593   2.811   3.064   9.044  0.1170  0.0289 -0.2677
  929MPD2     H13594   2.922   3.318   9.305 -1.1391 -1.5240  1.9899
  929MPD2    H113595   2.814   3.223   8.903  0.0950 -2.2362 -0.0408
  929MPD2    H213596   2.832   2.915   9.182 -1.1641 -0.3899 -0.8316
  929MPD2    H313597   2.780   2.993   8.968  2.1213  0.2250 -1.2513
  929MPD2     N13598   2.882   3.431   9.060 -0.5347  0.7512  0.6708
  929MPD2    H513599   2.847   3.453   8.968  1.8810  2.0540  0.0606
  929MPD2    N113600   2.925   3.053   9.391 -0.8511 -0.0356  0.6162
  929MPD2    H713601   2.903   2.954   9.406 -0.5418 -0.2235 -0.1614
  930MPD2     C13602   4.426   1.270  13.565  0.0847  0.1138  0.2438
  930MPD2    C113603   4.545   1.211  13.610 -0.1070 -0.0546 -0.0607
  930MPD2    C213604   4.629   1.141  13.524  0.4475 -0.1064 -0.4882
  930MPD2    C313605   4.608   1.149  13.388  0.8197 -0.3258 -0.0911
  930MPD2    C413606   4.495   1.216  13.337 -0.3839 -0.5736  0.5140
  930MPD2    C513607   4.411   1.275  13.427 -0.6676 -0.5195  0.2693
  930MPD2     H13608   0.001   1.096  13.552  1.5626  1.7173 -1.3024
  930MPD2    H113609   4.486   1.217  13.229 -1.2789  0.3336  0.5956
  930MPD2    H213610   4.358   1.319  13.633  0.5447  0.5359  0.3980
  930MPD2    H313611   4.323   1.322  13.386  0.1194  1.5462  0.9349
  930MPD2     N13612   4.701   1.111  13.293 -0.1845  0.1400 -0.1090
  930MPD2    H513613   4.696   1.139  13.196 -1.7595  0.7870  0.1472
  930MPD2    N113614   4.589   1.241  13.746  0.7003  0.4211 -0.1928
  930MPD2    H713615   4.537   1.320  13.783  0.1534 -0.5953  1.2051
  931MPD2     C13616   0.430   4.669   0.618  0.2424  0.6192  0.0642
  931MPD2    C113617   0.322   0.006   0.690 -0.2224  0.3975  0.4980
  931MPD2    C213618   0.307   4.685   0.823 -0.7133  0.5646 -0.5774
  931MPD2    C313619   0.399   4.612   0.889  0.5488  0.4239 -0.4976
  931MPD2    C413620   0.501   4.555   0.815  0.4960 -1.0242  0.6768
  931MPD2    C513621   0.516   4.585   0.683  0.5310  0.1577  0.1649
  931MPD2     H13622   0.229   0.004   0.885 -0.3500 -0.1143  0.3222
  931MPD2    H113623   0.575   4.498   0.869  1.2903  1.0250  1.7681
  931MPD2    H213624   0.456   4.695   0.516  2.3147 -2.9661 -0.3082
  931MPD2    H313625   0.597   4.541   0.627  2.7373 -0.2627  3.6831
  931MPD2     N13626   0.379   4.575   1.019  0.1876  0.2679 -0.3633
  931MPD2    H513627   0.453   4.517   1.059 -0.6330 -0.9348 -0.5892
  931MPD2    N113628   0.243   0.105   0.621  0.2661 -0.5935  0.8775
  931MPD2    H713629   0.281   0.124   0.528 -1.4358 -1.1215  0.0758
  932MPD2     C13630   2.414   4.143  10.664 -0.3722  0.6655  0.4746
  932MPD2    C113631   2.480   4.213  10.759  0.3815 -0.2761 -0.3986
  932MPD2    C213632   2.545   4.138  10.860  0.0182  0.1108 -0.3118
  932MPD2    C313633   2.541   3.996  10.858  0.2695  0.5496 -0.3817
  932MPD2    C413634   2.461   3.937  10.766  0.2065 -0.2405  0.2223
  932MPD2    C513635   2.406   4.009  10.664  0.1460  0.2739 -0.0506
  932MPD2     H13636   2.591   4.186  10.945 -0.6174  0.5555 -0.2141
  932MPD2    H113637   2.459   3.829  10.754  2.5356 -0.2526 -0.1932
  932MPD2    H213638   2.357   4.191  10.585 -0.8528  1.2836  1.2031
  932MPD2    H313639   2.366   3.947  10.585 -0.6291  0.3125  0.3023
  932MPD2     N13640   2.598   3.908  10.951  0.1070  0.3378 -0.1070
  932MPD2    H513641   2.576   3.811  10.932  0.0102 -0.2518  2.9875
  932MPD2    N113642   2.486   4.358  10.766  0.0236  0.3515 -0.3349
  932MPD2    H713643   2.535   4.397  10.846 -2.4100  0.6028  1.0455
  933MPD2     C13644   2.054   4.632   1.693  0.6582 -0.6084  0.1241
  933MPD2    C113645   2.158   4.617   1.611 -0.3189  0.7064  0.5203
  933MPD2    C213646   2.226   0.012   1.574 -0.2236 -0.4164  0.7754
  933MPD2    C313647   2.197   0.139   1.623  0.2420 -0.8699  0.7843
  933MPD2    C413648   2.110   0.144   1.728 -0.9249 -0.5119  0.2660
  933MPD2    C513649   2.036   0.027   1.758  0.9710 -0.5387 -0.1012
  933MPD2     H13650   2.304   0.005   1.499 -2.0262  1.0308 -1.2015
  933MPD2    H113651   2.083   0.240   1.771  0.7247 -0.1476  0.4762
  933MPD2    H213652   1.992   4.546   1.714 -1.3003  0.4642 -1.2551
  933MPD2    H313653   1.958   0.039   1.832  0.6974 -2.4704 -0.0951
  933MPD2     N13654   2.264   0.241   1.557  0.5371  0.3862  0.2110
  933MPD2    H513655   2.305   0.208   1.470  1.1184 -0.5254  0.8311
  933MPD2    N113656   2.205   4.485   1.576  0.4518 -0.1711 -0.6926
  933MPD2    H713657   2.159   4.408   1.624  2.8582  0.1164  2.0508
  934MPD2     C13658   3.890   2.266   1.308  0.2082 -0.4748  0.1370
  934MPD2    C113659   3.967   2.170   1.360  0.2390 -0.0048  0.2908
  934MPD2    C213660   3.911   2.048   1.385 -0.0869 -0.1023 -0.3886
  934MPD2    C313661   3.782   2.014   1.357  0.1249  0.0903 -0.0171
  934MPD2    C413662   3.703   2.113   1.308 -0.1827 -0.2819 -0.0581
  934MPD2    C513663   3.755   2.233   1.282 -0.2246 -0.6848 -0.4426
  934MPD2     H13664   3.971   1.977   1.440 -0.6284  0.4202  0.8851
  934MPD2    H113665   3.596   2.100   1.292 -0.0020 -1.3789 -0.4029
  934MPD2    H213666   3.929   2.360   1.271  0.5090 -1.3665 -1.7818
  934MPD2    H313667   3.694   2.309   1.235  1.7333  0.5761 -0.9497
  934MPD2     N13668   3.730   1.883   1.377 -0.3177 -0.4187 -0.2996
  934MPD2    H513669   3.635   1.864   1.347 -0.2620 -0.2054 -0.6180
  934MPD2    N113670   4.098   2.196   1.389 -0.1410  0.5655  0.0077
  934MPD2    H713671   4.157   2.117   1.414  0.8597  1.9649  2.0826
  935MPD2     C13672   4.189   0.975   1.506 -0.4149 -0.0595 -0.2772
  935MPD2    C113673   4.057   0.947   1.477 -0.9429  0.3823 -0.3612
  935MPD2    C213674   3.966   1.050   1.485  0.0212 -0.0346 -0.1193
  935MPD2    C313675   4.004   1.182   1.514  0.2679 -0.1916 -0.0300
  935MPD2    C413676   4.132   1.200   1.549 -0.5253 -0.5223 -0.1952
  935MPD2    C513677   4.223   1.103   1.544  0.1849  0.2185  0.6421
  935MPD2     H13678   3.861   1.028   1.467  0.1181 -0.7256  0.1965
  935MPD2    H113679   4.169   1.297   1.582 -0.2551 -0.7957  0.3102
  935MPD2    H213680   4.262   0.896   1.493  0.1067  0.1965  1.0817
  935MPD2    H313681   4.326   1.130   1.564  0.4600  0.2797 -0.8034
  935MPD2     N13682   3.914   1.292   1.525  0.5589 -0.2501  0.6349
  935MPD2    H513683   3.945   1.379   1.567  1.0672  0.7242 -1.7635
  935MPD2    N113684   4.014   0.813   1.448  0.0144  0.1291 -0.3394
  935MPD2    H713685   3.918   0.806   1.414 -0.4573  0.4874  0.9359
  936MPD2     C13686   2.349   2.618  12.371  0.4690 -0.1083 -0.0140
  936MPD2    C113687   2.319   2.629  12.506 -0.1958 -0.0683 -0.7878
  936MPD2    C213688   2.221   2.717  12.541  0.0586  0.1094 -0.4105
  936MPD2    C313689   2.167   2.802  12.454 -0.2777  0.5968  1.0184
  936MPD2    C413690   2.189   2.794  12.318  0.0689 -0.6458  0.4249
  936MPD2    C513691   2.275   2.693  12.271 -0.4544  0.2758 -0.2644
  936MPD2     H13692   2.191   2.735  12.643 -0.5993 -0.3822 -0.5146
  936MPD2    H113693   2.151   2.862  12.243 -2.1052  1.9799  3.9229
  936MPD2    H213694   2.431   2.560  12.331 -0.2211 -0.0946 -1.4492
  936MPD2    H313695   2.307   2.679  12.168 -1.1348  0.0017 -0.4385
  936MPD2     N13696   2.077   2.893  12.514  0.3401  0.1356  0.4500
  936MPD2    H513697   2.084   2.897  12.615  1.9826  0.4154  0.3163
  936MPD2    N113698   2.384   2.551  12.613  0.1906  0.1030  0.2343
  936MPD2    H713699   2.339   2.556  12.704 -2.0567  0.4827 -0.8992
  937MPD2     C13700   4.699   4.473  11.499 -0.0873  0.1439 -0.0141
  937MPD2    C113701   0.101   4.520  11.543  0.3436 -0.5929 -0.0919
  937MPD2    C213702   0.188   4.565  11.448  0.1965  0.8471 -0.3130
  937MPD2    C313703   0.162   4.552  11.315  0.4272  0.0917  0.9481
  937MPD2    C413704   0.043   4.502  11.273 -0.0067  0.2663 -0.4134
  937MPD2    C513705   4.677   4.459  11.368 -0.0342 -0.2562 -0.5461
  937MPD2     H13706   0.275   4.620  11.481  1.9122 -1.1054 -1.6031
  937MPD2    H113707   0.014   4.494  11.169 -0.8927 -1.3119 -0.0432
  937MPD2    H213708   4.615   4.446  11.561 -1.2233  0.4988 -1.4004
  937MPD2    H313709   4.579   4.438  11.326 -1.0475  1.1435  1.1138
  937MPD2     N13710   0.252   4.622  11.227 -0.3202 -0.0919 -0.7626
  937MPD2    H513711   0.336   4.658  11.272  0.1624 -1.1511 -0.8339
  937MPD2    N113712   0.116   4.566  11.675  0.0683  0.1807 -0.1080
  937MPD2    H713713   0.200   4.613  11.709  0.2993  0.1641 -0.6592
  938MPD2     C13714   3.286   0.707   1.454  0.8174  0.1607 -0.1220
  938MPD2    C113715   3.176   0.791   1.442  0.3945  0.5140 -0.8120
  938MPD2    C213716   3.065   0.751   1.512 -0.0101 -0.4029  0.5207
  938MPD2    C313717   3.062   0.635   1.592  0.1620 -0.0987  0.1399
  938MPD2    C413718   3.173   0.558   1.602 -0.1042 -0.0800  0.5260
  938MPD2    C513719   3.279   0.593   1.525  0.0305 -0.5837  0.0547
  938MPD2     H13720   2.983   0.822   1.510  0.2401 -0.1177  0.3802
  938MPD2    H113721   3.165   0.468   1.662  0.1733 -0.0107  0.6675
  938MPD2    H213722   3.384   0.736   1.418 -0.2756  0.9355 -2.4794
  938MPD2    H313723   3.365   0.528   1.530 -0.5653 -1.2927  1.0041
  938MPD2     N13724   2.946   0.601   1.672  0.0342  0.3601 -0.1972
  938MPD2    H513725   2.960   0.512   1.719 -1.9813  0.5585  0.7684
  938MPD2    N113726   3.174   0.911   1.362 -0.3785 -0.4072  0.6068
  938MPD2    H713727   3.091   0.971   1.362 -1.0251 -1.3167 -0.2336
  939MPD2     C13728   0.967   1.863   1.132 -0.3859  0.1077  0.2616
  939MPD2    C113729   0.857   1.946   1.098  0.5238 -0.6428 -0.3862
  939MPD2    C213730   0.780   1.904   0.997  0.1044  0.6028 -0.1468
  939MPD2    C313731   0.807   1.787   0.918 -0.0033 -0.6823  0.2765
  939MPD2    C413732   0.916   1.712   0.947 -0.1126 -0.3486  0.1102
  939MPD2    C513733   0.988   1.753   1.054 -0.7477  0.5956 -0.8035
  939MPD2     H13734   0.683   1.950   0.983 -1.0737 -1.2680  1.8283
  939MPD2    H113735   0.930   1.620   0.891  1.2802 -0.7615  1.1619
  939MPD2    H213736   1.042   1.893   1.204 -0.7558  0.5086  0.4786
  939MPD2    H313737   1.083   1.706   1.076 -1.3753  0.1071  0.8816
  939MPD2     N13738   0.704   1.760   0.832 -0.0408 -0.2855  0.1735
  939MPD2    H513739   0.620   1.817   0.841  1.3226  1.4438  1.9983
  939MPD2    N113740   0.824   2.064   1.165  0.7190 -0.6707 -0.5196
  939MPD2    H713741   0.893   2.089   1.235 -0.5245 -1.5939  1.0511
  940MPD2     C13742   2.677   3.058  13.241  0.3726  0.0342  0.1462
  940MPD2    C113743   2.705   2.961  13.333 -0.1783 -0.0645  0.2085
  940MPD2    C213744   2.811   2.874  13.301 -0.7435  0.1000 -0.4296
  940MPD2    C313745   2.882   2.891  13.184  0.0009 -0.2536 -0.1492
  940MPD2    C413746   2.846   2.979  13.086  0.4048  0.0056  0.6209
  940MPD2    C513747   2.749   3.072  13.126  0.5047 -0.7533 -0.4012
  940MPD2     H13748   2.826   2.788  13.366  0.5082  0.9037  0.3553
  940MPD2    H113749   2.899   2.988  12.991 -1.8951 -0.0101 -0.6513
  940MPD2    H213750   2.625   3.147  13.276  0.9380 -0.0664  1.2393
  940MPD2    H313751   2.724   3.143  13.048  0.6106  2.6124  2.6360
  940MPD2     N13752   2.980   2.805  13.137 -0.1095  0.1436 -0.0090
  940MPD2    H513753   3.015   2.814  13.042 -1.4738  3.5259 -0.2058
  940MPD2    N113754   2.645   2.953  13.456 -0.5897 -0.3710 -0.4505
  940MPD2    H713755   2.673   2.880  13.521 -1.8301  1.2754  1.9453
  941MPD2     C13756   2.525   1.562  11.148  0.0234  1.3481  0.0027
  941MPD2    C113757   2.615   1.605  11.049 -0.4539 -0.3641  0.3515
  941MPD2    C213758   2.660   1.516  10.952  0.3746  0.7684 -0.5770
  941MPD2    C313759   2.607   1.392  10.939  0.1330 -0.6844  0.4307
  941MPD2    C413760   2.510   1.354  11.032 -0.3104  0.3119  0.0908
  941MPD2    C513761   2.464   1.437  11.129 -0.4004  0.1476  0.1474
  941MPD2     H13762   2.740   1.546  10.886 -0.5720  0.9682 -1.6471
  941MPD2    H113763   2.448   1.265  11.029  0.6220 -0.2640 -1.9878
  941MPD2    H213764   2.483   1.606  11.238 -2.0427  1.3540 -0.9828
  941MPD2    H313765   2.377   1.412  11.189 -0.0383  1.3288  1.1746
  941MPD2     N13766   2.638   1.305  10.836  0.3592 -0.2121 -0.3327
  941MPD2    H513767   2.568   1.232  10.824  0.4884 -0.7237  2.0401
  941MPD2    N113768   2.684   1.730  11.064 -0.3194  0.0805  0.5884
  941MPD2    H713769   2.761   1.744  11.000  0.7677 -0.8152  1.6979
  942MPD2     C13770   3.443   3.726   9.144 -0.1827  0.2956  0.4940
  942MPD2    C113771   3.428   3.602   9.083 -0.3166 -0.2526  0.4176
  942MPD2    C213772   3.487   3.485   9.133  0.0219 -0.0085 -0.0418
  942MPD2    C313773   3.574   3.492   9.238  0.2132  0.5345  0.4660
  942MPD2    C413774   3.610   3.621   9.286 -0.5031  0.4002 -0.4529
  942MPD2    C513775   3.538   3.725   9.240  0.1999 -0.0842  0.5936
  942MPD2     H13776   3.463   3.385   9.099  1.7534 -0.1596 -0.8246
  942MPD2    H113777   3.668   3.644   9.375 -0.9921  1.3569 -0.3808
  942MPD2    H213778   3.395   3.818   9.115  0.9648  0.7437 -0.0002
  942MPD2    H313779   3.560   3.820   9.288 -2.7924  1.2149 -0.5965
  942MPD2     N13780   3.620   3.381   9.306  0.4899 -0.2724 -0.2284
  942MPD2    H513781   3.682   3.395   9.385 -0.1375 -0.7412  0.3489
  942MPD2    N113782   3.338   3.579   8.985 -0.0616  0.6022 -0.2142
  942MPD2    H713783   3.326   3.482   8.959  1.8766  0.2397  0.2356
  943MPD2     C13784   1.213   1.505   9.958  0.4568 -0.0144 -0.1411
  943MPD2    C113785   1.340   1.463   9.984 -0.5149 -0.3149  0.2608
  943MPD2    C213786   1.438   1.522   9.903  0.1326  0.0108 -0.1612
  943MPD2    C313787   1.409   1.626   9.814 -0.1873 -0.6595  0.0960
  943MPD2    C413788   1.283   1.671   9.807  0.3883 -0.7785 -0.0820
  943MPD2    C513789   1.184   1.608   9.872 -0.4023 -0.1932 -0.0718
  943MPD2     H13790   1.539   1.483   9.910 -0.1118 -1.1734 -3.4104
  943MPD2    H113791   1.250   1.757   9.750 -1.7928 -2.1424 -0.8641
  943MPD2    H213792   1.137   1.452  10.014  2.3485 -2.9461 -0.3317
  943MPD2    H313793   1.081   1.640   9.872  0.2586  1.9297  0.6059
  943MPD2     N13794   1.507   1.697   9.735  0.0825 -0.3075  0.2416
  943MPD2    H513795   1.480   1.782   9.688  2.6293  0.1860 -0.3306
  943MPD2    N113796   1.366   1.359  10.077  0.0951 -0.4314 -0.0412
  943MPD2    H713797   1.283   1.319  10.119  1.3795  0.8561  3.7108
  944MPD2     C13798   1.185   0.499  11.665 -0.5790  0.1640  0.1415
  944MPD2    C113799   1.175   0.561  11.543 -0.4522 -0.1733 -0.0970
  944MPD2    C213800   1.135   0.696  11.551 -0.0663 -0.1334 -0.3200
  944MPD2    C313801   1.084   0.753  11.667  1.1364 -0.2711 -0.6049
  944MPD2    C413802   1.097   0.690  11.786  0.0012  0.5881 -0.2409
  944MPD2    C513803   1.160   0.564  11.783 -0.2205 -0.0782  0.3381
  944MPD2     H13804   1.134   0.753  11.459  0.8878 -0.9552 -0.8374
  944MPD2    H113805   1.052   0.726  11.878  2.1465 -1.8970  1.7511
  944MPD2    H213806   1.222   0.397  11.669 -0.1237  0.3839  1.6720
  944MPD2    H313807   1.189   0.512  11.874  1.5674  2.5793  1.2676
  944MPD2     N13808   1.016   0.881  11.657  0.6489  0.1836 -0.1899
  944MPD2    H513809   1.016   0.926  11.566  0.1996 -0.0274 -0.2968
  944MPD2    N113810   1.231   0.507  11.433  0.7711 -0.2597  0.3488
  944MPD2    H713811   1.249   0.407  11.430  2.1909  0.0191 -0.6061
    1TCq1    O113812   2.597   2.164  13.194 -0.1531  0.5706 -0.1649
    1TCq1    C113813   2.544   2.249  13.282 -0.1332 -0.0508 -0.7344
    1TCq1    O213814   2.463   2.338  13.260 -0.2871 -0.1284  0.2783
    1TCq1    C213815   2.606   2.221  13.410  0.0404  0.3307 -0.2649
    1TCq1    C313816   2.522   2.236  13.519  0.0546 -1.0113 -0.5900
    1TCq1    C413817   2.566   2.206  13.644 -0.5445  0.5502  0.3493
    1TCq1    C513818   2.703   2.182  13.662 -0.1049  0.4247 -0.2492
    1TCq1    C613819   2.786   2.165  13.552  0.0051 -0.3687  0.0442
    1TCq1    C713820   2.740   2.174  13.426  0.0118  0.4541 -0.1107
    1TCq1    C813821   2.914   2.102  13.573 -0.9807 -0.3281 -0.1374
    1TCq1    O413822   2.957   2.025  13.488  0.0471  0.2749  0.4870
    1TCq1    C913823   2.488   2.208  13.764 -0.0954  0.0344  0.4832
    1TCq1    O513824   2.370   2.234  13.755  0.2019  0.3793 -0.0260
    1TCq1    O613825   2.537   2.158  13.866 -0.4300  0.9475  0.4303
    1TCq1    H113826   2.624   2.087  13.248  0.3435  2.1485  1.8396
    1TCq1    H213827   2.418   2.251  13.494 -0.4613  1.9832  3.3784
    1TCq1    H313828   2.741   2.158  13.761  0.8280 -1.7455 -1.1171
    1TCq1    H413829   2.798   2.140  13.342  1.5187  1.9795  0.3235
    2MPD2     C13830   3.344   2.045  13.853 -0.1486  0.2520  0.3979
    2MPD2    C113831   3.251   2.120  13.925 -0.5204 -0.0733  0.1876
    2MPD2    C213832   3.133   2.151  13.862  0.6666 -0.0632 -0.3265
    2MPD2    C313833   3.102   2.110  13.735 -0.9995 -0.2755 -0.3432
    2MPD2    C413834   3.196   2.031  13.667  0.5947  0.0893  0.3270
    2MPD2    C513835   3.313   2.000  13.726  0.5929 -0.2582  0.3446
    2MPD2     H13836   3.053   2.203  13.914  0.9535  0.6245 -0.5814
    2MPD2    H113837   3.175   1.998  13.566 -1.9601  1.5819  0.3571
    2MPD2    H213838   3.441   2.015  13.890 -0.6913  0.4971  2.0050
    2MPD2    H313839   3.392   1.956  13.666  0.3856  0.7315 -0.6503
    2MPD2     N13840   2.973   2.145  13.694 -0.9806 -0.0304  0.7013
    2MPD2    H513841   2.918   2.195  13.763 -0.0422 -1.0864  2.2031
    2MPD2    N113842   3.279   2.150  14.059  0.4118 -0.3379 -0.1886
    2MPD2    H713843   3.372   2.125  14.092  0.3160 -3.0701 -1.9832
    3TMC2    C113844   3.259   2.240  14.276 -0.7228  0.0776  0.2437
    3TMC2    C213845   3.358   2.152  14.335  0.4404  0.2146 -0.4136
    3TMC2    C313846   3.403   2.187  14.454  0.0619 -0.5076 -0.0100
    3TMC2    C413847   3.224   2.358  14.334 -0.2709 -0.3991 -0.4657
    3TMC2    C513848   3.276   2.389  14.458  0.4139  0.2481 -0.0972
    3TMC2    C613849   3.370   2.307  14.518  0.5222 -0.1731 -0.2699
    3TMC2     C13850   3.196   2.214  14.150  0.4810 -0.2679 -0.1104
    3TMC2     O13851   3.086   2.266  14.127 -0.1515  0.0448  0.6827
    3TMC2     H13852   3.380   2.054  14.294  3.7162  1.3598 -1.4049
    3TMC2    H113853   3.149   2.420  14.287  0.9399 -0.3762 -2.3725
    3TMC2    H213854   3.408   2.342  14.613 -0.9936  0.0002  0.2725
    3TMC2    C713855   3.243   2.519  14.521 -0.6430  0.0271 -0.0117
    3TMC2    C813856   3.525   2.114  14.498 -0.0720  0.6934  0.0021
    3TMC2    O113857   3.248   2.533  14.644  0.0770  0.4424  0.4723
    3TMC2    O213858   3.565   2.006  14.464 -0.2171  0.0530  0.1065
    3TMC2    O513859   3.605   2.200  14.562  0.3063 -0.4436  0.1903
    3TMC2    H513860   3.588   2.296  14.552 -0.1528 -0.7393 -1.7676
    4MPD2     C13861   2.467   3.377  13.464 -0.1140 -1.1460 -0.3802
    4MPD2    C113862   2.589   3.366  13.412 -0.5860  0.3405  0.0641
    4MPD2    C213863   2.693   3.342  13.498  0.2483  0.0383 -0.4452
    4MPD2    C313864   2.666   3.311  13.632  0.2847 -0.2429  0.4656
    4MPD2    C413865   2.537   3.318  13.678  0.0051 -0.9926 -0.0626
    4MPD2    C513866   2.435   3.357  13.594  0.3004  0.1592  0.3295
    4MPD2     H13867   2.796   3.341  13.465  0.3988  2.1391 -0.0329
    4MPD2    H113868   2.510   3.293  13.780  2.5160 -2.1199  0.3135
    4MPD2    H213869   2.389   3.409  13.394  0.1079  0.2727  0.0291
    4MPD2    H313870   2.337   3.355  13.639 -0.6596 -0.5697 -1.7662
    4MPD2     N13871   2.772   3.278  13.715  0.2484 -0.0673  0.0375
    4MPD2    H513872   2.866   3.281  13.675  0.4247  0.5513  0.4874
    4MPD2    N113873   2.598   3.386  13.276  0.2662 -0.4458  0.0987
    4MPD2    H713874   2.509   3.378  13.229 -0.5090  1.6544  1.1739
    5TCq2    C113875   2.771   3.231  13.840  0.6027 -0.0003  0.6380
    5TCq2    O213876   2.682   3.240  13.922  0.3439 -0.4400  0.3660
    5TCq2    C213877   2.895   3.175  13.897 -0.3005 -0.5911 -0.0939
    5TCq2    C313878   3.008   3.150  13.818 -0.8290 -0.0975 -0.8228
    5TCq2    C413879   3.135   3.152  13.866 -0.4280 -0.8211 -0.1360
    5TCq2    C513880   3.152   3.164  14.001  0.0294  0.8088  0.0387
    5TCq2    C613881   3.043   3.182  14.078 -0.4795  0.3691 -0.3602
    5TCq2    C713882   2.917   3.200  14.029 -0.5184 -0.0602  0.1514
    5TCq2    C813883   3.045   3.161  14.215  0.0692  0.4357  0.2561
    5TCq2    O413884   2.983   3.238  14.286  0.0894  0.9496  0.1875
    5TCq2    C913885   3.254   3.113  13.783  0.5711  0.5298  0.5285
    5TCq2    O513886   3.349   3.067  13.845 -0.5712  0.9491 -0.0853
    5TCq2    O613887   3.247   3.110  13.659 -0.2043 -0.4726  0.1199
    5TCq2    H213888   2.999   3.119  13.715 -0.7185  1.0133 -1.1690
    5TCq2    H313889   3.250   3.146  14.044  0.5301  2.1735 -0.5404
    5TCq2    H413890   2.843   3.234  14.101 -0.6539 -0.6514  0.2968
    6MPD1     C13891   2.219   0.356  12.622  0.2959  0.1809  0.7292
    6MPD1    C113892   2.208   0.304  12.747  0.7495  0.5149  0.4680
    6MPD1    C213893   2.267   0.176  12.758 -0.0281  0.2249  0.1595
    6MPD1    C313894   2.311   0.105  12.645 -0.8572  0.6697  0.0126
    6MPD1    C413895   2.328   0.171  12.523 -0.1663  0.7031  0.9252
    6MPD1    C513896   2.273   0.295  12.518 -1.0266 -0.0088  0.2929
    6MPD1     H13897   2.270   0.131  12.856  3.0856  0.2863  0.0976
    6MPD1    H113898   2.362   0.119  12.435  0.7200  2.2838  0.3164
    6MPD1    H213899   2.196   0.460  12.603  3.2894  0.9658  1.4926
    6MPD1    H313900   2.282   0.346  12.423  0.5443 -0.4330  0.2198
    6MPD1     N13901   2.347   4.691  12.649  0.1760 -0.3066 -0.6379
    6MPD1    H513902   2.352   4.649  12.557  0.2367 -0.4468 -0.5702
    6MPD1    N113903   2.206   0.390  12.863  0.6889  0.3143 -0.5683
    6MPD1    H613904   2.179   0.339  12.947  0.4996  0.2870 -0.6462
    6MPD1    H713905   2.147   0.472  12.854 -2.0714 -1.4993  0.8907
    7MPD2     C13906   2.015   3.907  12.795 -1.0884 -0.0441  0.4525
    7MPD2    C113907   2.150   3.928  12.815 -0.0401  0.0237 -0.2768
    7MPD2    C213908   2.231   3.829  12.860 -0.5325  0.2616 -0.0645
    7MPD2    C313909   2.181   3.701  12.885  0.2295  0.3126  0.0274
    7MPD2    C413910   2.047   3.686  12.881 -0.0324  0.0273 -0.2806
    7MPD2    C513911   1.968   3.784  12.826  0.7384  0.6258  0.3306
    7MPD2     H13912   2.338   3.850  12.858 -0.2140 -1.4017 -0.2838
    7MPD2    H113913   2.004   3.588  12.897 -1.3391  0.8632  1.2612
    7MPD2    H213914   1.947   3.989  12.780  0.1125  0.5926 -1.4693
    7MPD2    H313915   1.862   3.764  12.814  1.3367 -2.2441 -0.1252
    7MPD2     N13916   2.271   3.594  12.910 -0.1066 -0.0307 -0.2156
    7MPD2    H513917   2.238   3.500  12.891 -0.4402 -0.2692  1.5717
    7MPD2    N113918   2.225   4.046  12.780  0.1616  0.0705 -0.5995
    7MPD2    H713919   2.327   4.043  12.783  0.0926 -1.1870  0.4733
    8TMC3    C113920   2.492   3.485  12.910 -0.5230 -0.5725 -0.1561
    8TMC3    C213921   2.528   3.467  13.042  0.4503  0.1852  0.6404
    8TMC3    C313922   2.667   3.438  13.064 -0.0036  0.5804 -0.7121
    8TMC3    C413923   2.591   3.496  12.817 -1.0896  1.2815  0.4836
    8TMC3    C513924   2.728   3.472  12.847  0.0719  0.1437  0.5855
    8TMC3    C613925   2.768   3.438  12.973  0.5986 -0.3737 -0.7390
    8TMC3     C13926   2.410   3.612  12.901 -0.5389 -0.0584 -0.0955
    8TMC3     O13927   2.484   3.709  12.924  0.4318 -0.5839  0.4064
    8TMC3     H13928   2.453   3.475  13.120  0.3612 -1.7186  0.7425
    8TMC3    H113929   2.552   3.514  12.717 -2.8235 -1.0461  0.7199
    8TMC3    H213930   2.873   3.435  12.999  0.5940  3.7996 -0.2706
    8TMC3    C713931   2.813   3.574  12.794  0.4576  0.3153  0.0962
    8TMC3    C813932   2.705   3.407  13.193 -0.1072  0.5659 -0.5415
    8TMC3    O113933   2.934   3.551  12.780 -0.3531  0.5558  0.2798
    8TMC3    O213934   2.826   3.406  13.219 -0.2648  0.6668  0.0712
    9TMC3    C113935   2.370   4.473  12.725 -0.6901  0.3096  0.9698
    9TMC3    C213936   2.481   4.442  12.654 -0.2534  0.0925  0.4693
    9TMC3    C313937   2.492   4.311  12.627  0.4003 -0.2991  0.1325
    9TMC3    C413938   2.258   4.389  12.737 -1.0262  0.2836 -0.0363
    9TMC3    C513939   2.274   4.263  12.699 -0.9098  0.8223  0.6033
    9TMC3    C613940   2.387   4.219  12.636  0.5245  0.3204 -0.7164
    9TMC3     C13941   2.351   4.614  12.759 -0.3130  0.1047 -0.3559
    9TMC3     O13942   2.306   4.636  12.868 -0.2918  0.3287  0.3540
    9TMC3     H13943   2.570   4.503  12.665 -0.9577  1.0720  0.7657
    9TMC3    H113944   2.172   4.417  12.796 -0.5621  0.5418  0.5074
    9TMC3    H213945   2.400   4.119  12.596  0.2663  1.2232 -3.0521
    9TMC3    C713946   2.171   4.171  12.748 -0.1275  0.0873 -0.1816
    9TMC3    C813947   2.620   4.254  12.615 -0.2133 -0.6786  0.3057
    9TMC3    O113948   2.066   4.217  12.781  0.5581 -0.9865 -0.0927
    9TMC3    O213949   2.695   4.327  12.558  0.1944  0.3692 -0.1199
   10MPD2     C13950   2.910   3.839  12.698  0.3621 -0.6719 -0.7129
   10MPD2    C113951   2.783   3.809  12.740  0.5648 -0.3597  0.3779
   10MPD2    C213952   2.683   3.908  12.731  1.1042  0.1001  0.3834
   10MPD2    C313953   2.718   4.036  12.679 -0.0693  0.0799  0.3248
   10MPD2    C413954   2.843   4.051  12.632 -0.1213  0.4053 -0.6280
   10MPD2    C513955   2.937   3.961  12.653  0.1504 -1.2209 -0.3420
   10MPD2     H13956   2.583   3.886  12.765  1.0001 -1.0892 -0.6842
   10MPD2    H113957   2.866   4.144  12.582  0.8949 -0.4509 -1.7409
   10MPD2    H213958   2.992   3.769  12.704  1.5536  0.9341  1.6288
   10MPD2    H313959   3.037   3.976  12.614  0.3321  1.4844  1.1945
   10MPD2     N13960   2.619   4.133  12.670  0.8967  0.2629  0.3005
   10MPD2    H513961   2.539   4.123  12.732  0.3833  1.0172 -0.2443
   10MPD2    N113962   2.740   3.685  12.782 -0.2431  0.4311  1.1167
   10MPD2    H713963   2.643   3.685  12.813 -0.7481 -1.4501 -0.5198
   11MPD2     C13964   3.132   2.793  14.572 -0.2346 -0.1086 -0.5780
   11MPD2    C113965   3.157   2.742  14.450 -0.2912  1.1320 -0.0407
   11MPD2    C213966   3.134   2.821  14.337  0.2085 -0.3181  0.3973
   11MPD2    C313967   3.097   2.953  14.355 -0.3854 -0.4552 -0.3581
   11MPD2    C413968   3.093   3.009  14.481 -0.7780 -0.1792 -0.1539
   11MPD2    C513969   3.097   2.925  14.592 -0.0182 -0.5710 -0.7735
   11MPD2     H13970   3.140   2.786  14.235  1.4227 -1.2921  0.8030
   11MPD2    H113971   3.073   3.115  14.492 -0.3328 -0.2119  0.9309
   11MPD2    H213972   3.128   2.723  14.655 -1.0967  0.5446 -0.0671
   11MPD2    H313973   3.061   2.958  14.689 -0.6299  0.4422 -1.3516
   11MPD2     N13974   3.092   3.034  14.236  0.1150  0.3599  0.3129
   11MPD2    H513975   3.109   2.982  14.151 -1.6596 -1.5335  1.1241
   11MPD2    N113976   3.201   2.609  14.421 -0.3688  0.0344  0.1081
   11MPD2    H713977   3.226   2.597  14.323 -1.5900 -1.6044 -0.0087
    1MPD1     C13978   1.278   4.647  17.197 -1.0271 -0.0452 -0.5671
    1MPD1    C113979   1.410   4.664  17.141 -0.0064 -0.3734  0.6972
    1MPD1    C213980   1.490   4.551  17.146 -0.5600  0.3336  0.0353
    1MPD1    C313981   1.444   4.427  17.190  0.1620  0.1781  0.5063
    1MPD1    C413982   1.321   4.418  17.244 -0.4491 -0.2058  0.6051
    1MPD1    C513983   1.233   4.525  17.240 -0.7937 -0.0323  0.1212
    1MPD1     H13984   1.597   4.556  17.128 -0.4229 -1.0821  0.3875
    1MPD1    H113985   1.289   4.326  17.292 -2.6069 -0.1759 -0.7642
    1MPD1    H213986   1.203   0.003  17.195 -1.4424 -0.4915 -2.5563
    1MPD1    H313987   1.129   4.524  17.271 -0.8225  1.4854  0.0721
    1MPD1     N13988   1.533   4.315  17.207  0.4778 -0.1921 -0.1242
    1MPD1    H513989   1.490   4.229  17.237  1.0239 -0.3857  0.0936
    1MPD1    N113990   1.457   0.068  17.115  0.3962 -0.6267 -0.3879
    1MPD1    H613991   1.385   0.120  17.065 -0.9410  0.2438  2.4620
    1MPD1    H713992   1.531   0.053  17.047  1.0979 -2.2043  0.7398
    2MPD1     C13993   1.990   3.641  16.542  0.2583  0.5838 -0.3018
    2MPD1    C113994   1.990   3.578  16.662  0.1716 -0.4557  0.3061
    2MPD1    C213995   1.939   3.642  16.765  0.2682  0.2359  0.0349
    2MPD1    C313996   1.873   3.763  16.755  0.3546 -1.0039 -0.7561
    2MPD1    C413997   1.851   3.815  16.625  0.2470  0.0790  0.0847
    2MPD1    C513998   1.917   3.751  16.520  0.8919 -0.0507  0.3749
    2MPD1     H13999   1.949   3.598  16.864  0.7394 -0.0530 -0.1369
    2MPD1    H114000   1.806   3.909  16.595  1.4587  0.7208  0.2828
    2MPD1    H214001   2.039   3.604  16.452  2.3686  0.2521  0.9736
    2MPD1    H314002   1.920   3.796  16.421 -1.5991  0.4186  0.5007
    2MPD1     N14003   1.828   3.825  16.873  0.1696 -0.2417 -0.8716
    2MPD1    H514004   1.861   3.777  16.956 -1.1418 -0.7961 -0.6718
    2MPD1    N114005   2.054   3.453  16.683  0.2963 -0.0532  0.3281
    2MPD1    H614006   2.002   3.413  16.762  2.2012  0.2251  1.7234
    2MPD1    H714007   2.040   3.382  16.612 -0.6272  2.3620 -1.8909
    3TMC3    C114008   1.716   3.987  17.005  0.4140 -0.6838  0.1850
    3TMC3    C214009   1.732   3.905  17.118 -0.4028 -0.2476 -0.7313
    3TMC3    C314010   1.718   3.965  17.241  0.4947  0.1734  0.8868
    3TMC3    C414011   1.702   4.121  17.022  0.5161 -0.0959  0.1320
    3TMC3    C514012   1.681   4.168  17.143 -0.1023 -0.4318 -0.0919
    3TMC3    C614013   1.693   4.101  17.260 -0.0500  0.3055 -0.3046
    3TMC3     C14014   1.761   3.946  16.874  0.4156 -0.5273  0.3478
    3TMC3     O14015   1.714   4.014  16.784  0.3632  0.0873  0.4685
    3TMC3     H14016   1.733   3.796  17.113 -0.9289 -0.3312  0.8950
    3TMC3    H114017   1.690   4.191  16.940 -1.7186  1.6726  1.9549
    3TMC3    H214018   1.699   4.161  17.350 -1.6643 -4.3465  2.9427
    3TMC3    C714019   1.660   4.309  17.150  0.7809  0.0484  0.3223
    3TMC3    C814020   1.731   3.879  17.352  0.5525  0.2183  0.1001
    3TMC3    O114021   1.721   4.389  17.079 -0.2545  0.5479 -0.1973
    3TMC3    O214022   1.672   3.771  17.355  0.1221  0.3701 -0.3910
    4MPD1     C14023   1.932   3.839   0.139 -0.2814  1.0490 -0.0168
    4MPD1    C114024   2.010   3.935   0.072 -0.1099  0.2853  0.1225
    4MPD1    C214025   1.961   3.967  17.635 -0.1522 -0.5995 -0.6601
    4MPD1    C314026   1.862   3.895  17.567  0.4626 -0.7198 -0.4026
    4MPD1    C414027   1.793   3.797  17.630  0.4804 -0.1496 -0.2694
    4MPD1    C514028   1.838   3.767   0.067 -0.0780 -0.2587  0.9075
    4MPD1     H14029   1.996   4.058  17.588 -0.8205  0.0374  0.0664
    4MPD1    H114030   1.715   3.734  17.589 -1.1207  2.6087 -1.4706
    4MPD1    H214031   1.956   3.788   0.231  1.4352 -0.8761 -1.5498
    4MPD1    H314032   1.793   3.680   0.115 -0.3449  0.0372  1.1989
    4MPD1     N14033   1.825   3.944  17.435  0.4985 -0.4714 -0.0669
    4MPD1    H514034   1.881   4.016  17.390  0.2000 -0.3008 -0.1660
    4MPD1    N114035   2.104   4.007   0.148  0.0222  0.1918 -0.5919
    4MPD1    H614036   2.153   3.946   0.212 -4.2426 -1.3229  1.2000
    4MPD1    H714037   2.167   4.048   0.079 -0.0282  0.8530 -0.2449
    1TCq1    O114038   2.614   3.454  10.228 -0.4213 -0.2345  0.2935
    1TCq1    C114039   2.718   3.529  10.282  0.3871 -0.5316 -0.7066
    1TCq1    O214040   2.835   3.534  10.243 -0.0102  0.4547  0.1270
    1TCq1    C214041   2.691   3.538  10.425  0.0378  0.2124  0.0083
    1TCq1    C314042   2.595   3.461  10.490  0.2265 -0.3051  0.3872
    1TCq1    C414043   2.598   3.465  10.625 -0.4288 -0.1177  0.3037
    1TCq1    C514044   2.655   3.571  10.687 -0.1819  0.4090  0.2977
    1TCq1    C614045   2.743   3.650  10.620  0.1792 -0.3583  0.4614
    1TCq1    C714046   2.773   3.621  10.487 -0.0057  0.0513  0.2323
    1TCq1    C814047   2.824   3.744  10.692  0.4435  0.4661  0.0207
    1TCq1    O414048   2.838   3.720  10.808  0.1840 -0.9272  0.2819
    1TCq1    C914049   2.499   3.385  10.697 -0.2625  0.7604 -0.5251
    1TCq1    O514050   2.475   3.412  10.817 -0.1743  0.4008 -0.2591
    1TCq1    O614051   2.420   3.319  10.626 -0.5424  0.1281  0.0116
    1TCq1    H114052   2.525   3.487  10.254 -0.6392  0.1350 -0.9265
    1TCq1    H214053   2.530   3.389  10.441  0.4512 -0.5231  0.4082
    1TCq1    H314054   2.635   3.588  10.793 -1.9040 -1.5426  0.2806
    1TCq1    H414055   2.855   3.666  10.432 -0.4060  0.1854 -0.2635
    2MPD1     C14056   3.196   4.096  10.720 -0.7719 -0.1848 -0.1473
    2MPD1    C114057   3.138   4.101  10.597  0.0847  0.5417  0.2371
    2MPD1    C214058   3.038   4.012  10.564 -0.7888 -0.4120 -0.1885
    2MPD1    C314059   2.986   3.929  10.661 -0.5679  0.1997 -0.3184
    2MPD1    C414060   3.027   3.935  10.791 -0.3134  0.0910 -1.0855
    2MPD1    C514061   3.130   4.021  10.827 -0.1236 -0.0760 -0.0360
    2MPD1     H14062   2.997   3.989  10.466  1.6000 -1.2898 -0.9633
    2MPD1    H114063   2.994   3.869  10.871  0.4770  1.1119  0.0757
    2MPD1    H214064   3.282   4.157  10.744 -1.6066  0.5402  0.9606
    2MPD1    H314065   3.162   4.015  10.930  1.2812  0.1117 -0.4550
    2MPD1     N14066   2.882   3.841  10.613 -0.3736 -0.2434  0.1781
    2MPD1    H514067   2.847   3.849  10.519  0.8351  0.8076 -0.1859
    2MPD1    N114068   3.192   4.187  10.500 -0.4132 -0.5451 -0.0491
    2MPD1    H614069   3.115   4.206  10.437 -1.8579  0.8996  2.1540
    2MPD1    H714070   3.233   4.272  10.538  3.3876 -1.8742 -1.1210
    1TCq1    O114071   1.883   0.325   2.720  0.1004 -0.1545 -0.1970
    1TCq1    C114072   1.995   0.281   2.659 -0.2889  0.3231  0.6054
    1TCq1    O214073   2.026   0.164   2.653  0.1944 -0.2213  0.4654
    1TCq1    C214074   2.047   0.371   2.558 -0.6513 -0.0198 -0.4810
    1TCq1    C314075   2.036   0.501   2.575  0.0500 -0.0144  0.0009
    1TCq1    C414076   2.105   0.584   2.489  0.2061 -0.0877  0.1124
    1TCq1    C514077   2.205   0.533   2.407  0.1941  1.2285  0.0295
    1TCq1    C614078   2.208   0.400   2.387  0.9448  0.0742  0.2405
    1TCq1    C714079   2.139   0.312   2.470  0.2572  0.2991 -0.1090
    1TCq1    C814080   2.315   0.326   2.309 -0.3557  0.0245 -0.1221
    1TCq1    O414081   2.293   0.209   2.280  0.5143  0.0877 -0.2860
    1TCq1    C914082   2.130   0.718   2.527 -0.5025 -0.1878  0.6580
    1TCq1    O514083   2.043   0.771   2.600 -0.1218  0.2657 -0.2645
    1TCq1    O614084   2.241   0.766   2.492  0.2635  0.2521  0.4170
    1TCq1    H114085   1.859   0.415   2.688 -0.8674 -0.3476 -0.0279
    1TCq1    H214086   1.967   0.544   2.647 -0.9270 -1.7724  0.1211
    1TCq1    H314087   2.255   0.600   2.338 -0.4499  3.7421  2.0157
    1TCq1    H414088   2.149   0.204   2.459  0.6201  0.2507  0.7032
    2MPD1     C14089   2.775   0.273   2.070  0.8496 -0.4797  0.8530
    2MPD1    C114090   2.750   0.408   2.098 -0.4082  0.0084  0.0031
    2MPD1    C214091   2.629   0.450   2.154  0.1079 -0.0573  0.6152
    2MPD1    C314092   2.536   0.362   2.201 -0.8511  0.0917  0.4106
    2MPD1    C414093   2.555   0.229   2.174 -0.0492  1.4281 -0.3015
    2MPD1    C514094   2.670   0.189   2.103 -0.7195  0.1315  0.6562
    2MPD1     H14095   2.622   0.558   2.165 -1.1904  0.2805 -3.3751
    2MPD1    H114096   2.485   0.150   2.197  1.3591  0.5154  0.8312
    2MPD1    H214097   2.868   0.235   2.029  0.9109  0.4529  0.1309
    2MPD1    H314098   2.700   0.088   2.077  0.1164  0.6929 -0.5959
    2MPD1     N14099   2.423   0.404   2.271  0.3081  0.1047 -0.0507
    2MPD1    H514100   2.419   0.504   2.286 -1.3376  0.0494 -0.0897
    2MPD1    N114101   2.850   0.507   2.083  0.2685 -0.3173 -0.8016
    2MPD1    H614102   2.915   0.471   2.013  0.9311 -0.9066  0.1030
    2MPD1    H714103   2.816   0.602   2.073  1.2522  0.4515  2.9399
    1MPD1     C14104   3.300   3.121  12.404 -0.2731  0.0881 -0.3797
    1MPD1    C114105   3.406   3.151  12.313 -0.5158  0.6119 -0.1939
    1MPD1    C214106   3.464   3.276  12.320  0.1103  0.5081 -0.6525
    1MPD1    C314107   3.423   3.360  12.419 -0.0483 -0.3862 -0.1721
    1MPD1    C414108   3.329   3.325  12.511  0.2485  0.8065 -0.4982
    1MPD1    C514109   3.254   3.207  12.498  0.2099 -0.6020 -0.4964
    1MPD1     H14110   3.554   3.298  12.263 -1.7860 -1.8297 -4.6161
    1MPD1    H114111   3.297   3.393  12.589 -3.5770  0.1491 -1.4835
    1MPD1    H214112   3.251   3.024  12.398 -0.6314  0.1870  1.0829
    1MPD1    H314113   3.176   3.185  12.569 -1.1470  0.9274 -1.5135
    1MPD1     N14114   3.478   3.488  12.418  0.1443 -0.3743 -0.5776
    1MPD1    H514115   3.558   3.500  12.357  0.6111  2.2224  0.5589
    1MPD1    N114116   3.451   3.056  12.215 -0.0636  0.2439 -0.5144
    1MPD1    H614117   3.543   3.059  12.172  0.3334 -3.8674  0.0628
    1MPD1    H714118   3.398   2.970  12.204 -0.7954  0.6770 -0.3848
    2MPD1     C14119   4.420   0.243  10.502  0.9655  0.2324 -0.3050
    2MPD1    C114120   4.547   0.196  10.474  0.2582 -0.2732 -0.3882
    2MPD1    C214121   4.583   0.077  10.540 -0.3364  0.2127 -0.0234
    2MPD1    C314122   4.502   0.021  10.639  0.1008 -0.1804  0.3285
    2MPD1    C414123   4.380   0.069  10.668  0.0275 -1.2061  0.1679
    2MPD1    C514124   4.337   0.183  10.597  0.6101 -0.4814 -0.5113
    2MPD1     H14125   4.684   0.042  10.520  0.9393  2.1852  3.0028
    2MPD1    H114126   4.314   0.023  10.741 -1.5468 -0.3363 -0.7113
    2MPD1    H214127   4.367   0.311  10.436  0.4550  1.6859  1.5963
    2MPD1    H314128   4.229   0.194  10.599  0.4548 -2.2688  1.0021
    2MPD1     N14129   4.543   4.626  10.717 -0.2874  0.5340  0.0535
    2MPD1    H514130   4.469   4.582  10.772 -0.1205  0.3299  0.1137
    2MPD1    N114131   4.619   0.249  10.366 -0.1251  0.1203  0.0768
    2MPD1    H614132   4.720   0.240  10.376 -0.1878 -0.8661 -0.1804
    2MPD1    H714133   4.593   0.345  10.343  2.3385  0.3023 -1.8746
    3MPD1     C14134   0.499   3.910  10.628  0.0280  0.3907  0.0147
    3MPD1    C114135   0.443   3.979  10.522 -0.0882  0.8906 -0.2951
    3MPD1    C214136   0.326   4.054  10.545  0.3141  0.0413  0.6879
    3MPD1    C314137   0.252   4.041  10.660 -0.1567  0.3614  0.0708
    3MPD1    C414138   0.306   3.963  10.759 -0.3512  0.5420 -0.5046
    3MPD1    C514139   0.420   3.895  10.740 -0.8404  0.1625  0.9374
    3MPD1     H14140   0.288   4.122  10.469 -1.3258  0.0048  1.4642
    3MPD1    H114141   0.260   3.953  10.857  0.3115 -1.2584 -0.3801
    3MPD1    H214142   0.596   3.862  10.621 -0.8071 -0.8433 -2.7594
    3MPD1    H314143   0.453   3.829  10.820  0.1794 -1.2094 -0.6112
    3MPD1     N14144   0.128   4.112  10.675  0.0174  0.3664  0.6016
    3MPD1    H514145   0.102   4.177  10.602 -0.1898 -0.4462 -0.0493
    3MPD1    N114146   0.515   4.007  10.401 -0.6037  0.7322 -0.1173
    3MPD1    H614147   0.448   4.015  10.325 -1.0482  1.5986  0.3741
    3MPD1    H714148   0.577   3.932  10.370  1.8229  2.4757  0.5450
    4MPD2     C14149   3.482   4.301  12.219  0.0741  0.5801 -0.7663
    4MPD2    C114150   3.584   4.199  12.220  0.0110  0.4009 -0.1068
    4MPD2    C214151   3.674   4.197  12.116 -0.2633 -0.9844 -0.1558
    4MPD2    C314152   3.651   4.273  12.002  0.7931  0.0832 -0.3178
    4MPD2    C414153   3.553   4.371  12.008 -0.0716  0.0830 -0.2843
    4MPD2    C514154   3.478   4.388  12.117  0.0195 -0.1751 -0.2119
    4MPD2     H14155   3.758   4.129  12.106 -0.2807 -1.0941  0.4464
    4MPD2    H114156   3.534   4.434  11.922 -0.7047 -0.1812 -0.3385
    4MPD2    H214157   3.410   4.315  12.298  1.4462 -0.0643  0.6007
    4MPD2    H314158   3.402   4.466  12.122  0.2030  0.1112 -1.7549
    4MPD2     N14159   3.735   4.249  11.893 -0.0511  0.5922  0.8968
    4MPD2    H514160   3.799   4.170  11.890 -1.7931 -0.9601  4.4114
    4MPD2    N114161   3.584   4.097  12.321  0.1224  0.0069 -0.1340
    4MPD2    H714162   3.669   4.043  12.323  0.2710  0.2669  0.5246
    5TMC3    C114163   3.525   3.945  12.484  0.8029 -0.4901 -0.2612
    5TMC3    C214164   3.444   3.837  12.463 -0.0281  0.4894 -0.1713
    5TMC3    C314165   3.502   3.717  12.441 -0.7028 -1.2034  0.0136
    5TMC3    C414166   3.659   3.928  12.491  0.0750  0.1237 -0.2870
    5TMC3    C514167   3.712   3.808  12.452  0.1503 -0.4130 -0.5957
    5TMC3    C614168   3.634   3.696  12.427  0.6055 -0.4074 -0.1893
    5TMC3     C14169   3.479   4.062  12.405 -0.6414 -0.3922 -0.0972
    5TMC3     O14170   3.361   4.087  12.397  0.3014  0.8836  0.6561
    5TMC3     H14171   3.336   3.828  12.467  0.3150 -2.7035  1.6891
    5TMC3    H114172   3.732   4.004  12.517  0.1038  0.6683 -1.9389
    5TMC3    H214173   3.681   3.606  12.387  1.0749 -0.7506  1.1351
    5TMC3    C714174   3.801   3.837  12.342  0.0774 -0.0403  0.1170
    5TMC3    C814175   3.421   3.599  12.476  0.8885 -0.5437  0.2055
    5TMC3    O114176   3.800   3.953  12.304  0.8280 -0.3712  0.8380
    5TMC3    O214177   3.310   3.603  12.515  0.5660  0.1678  0.4074
    6TMC3    C114178   4.657   4.446  10.805 -0.1052 -0.5034  0.1193
    6TMC3    C214179   0.001   4.335  10.765 -0.0973  0.3103  0.2524
    6TMC3    C314180   4.697   4.216  10.822 -0.7201  0.7810  0.7792
    6TMC3    C414181   4.576   4.439  10.917  0.1619 -0.0691 -0.6804
    6TMC3    C514182   4.555   4.320  10.980  0.1771 -0.8273  0.4818
    6TMC3    C614183   4.606   4.204  10.929 -0.6954  0.0597 -0.9234
    6TMC3     C14184   4.659   4.555  10.710  0.1366  0.5052 -0.3438
    6TMC3     O14185   0.037   4.570  10.642  0.5190 -0.3244 -0.1664
    6TMC3     H14186   0.069   4.339  10.681  0.4145 -0.1802  0.6370
    6TMC3    H114187   4.519   4.526  10.948  0.0473 -1.0275  1.8993
    6TMC3    H214188   4.580   4.105  10.965 -1.7809  0.2970 -1.0821
    6TMC3    C714189   4.480   4.299  11.104  0.8303 -0.2803 -0.1177
    6TMC3    C814190   0.049   4.096  10.785  1.1409  0.2538  0.0346
    6TMC3    O114191   4.386   4.374  11.126 -0.8129 -0.2336 -0.8646
    6TMC3    O214192   0.044   4.006  10.868 -0.3777  0.1991 -0.2264
    7MPD2     C14193   4.126   3.709  11.977 -0.6014 -0.6304 -0.5422
    7MPD2    C114194   4.040   3.814  11.986 -0.5717  0.2362 -0.0024
    7MPD2    C214195   3.960   3.827  12.098  0.8740  0.0447 -0.3283
    7MPD2    C314196   3.970   3.739  12.202  0.2688 -0.4480  0.2618
    7MPD2    C414197   4.066   3.640  12.195  0.8399  0.5011  0.5147
    7MPD2    C514198   4.141   3.625  12.078 -0.1302  0.5247 -0.3694
    7MPD2     H14199   3.880   3.899  12.105  1.4248  0.4477  2.0456
    7MPD2    H114200   4.063   3.555  12.262  0.4489 -1.1308 -1.5633
    7MPD2    H214201   4.182   3.696  11.885 -1.8034 -1.0924 -1.2012
    7MPD2    H314202   4.207   3.538  12.072 -0.2176  0.4504 -0.2473
    7MPD2     N14203   3.885   3.734  12.309  0.3053  0.3988  0.0748
    7MPD2    H514204   3.887   3.648  12.362 -0.0079 -0.7055 -1.7300
    7MPD2    N114205   4.029   3.888  11.867 -0.3158  0.1776 -0.4308
    7MPD2    H714206   4.105   3.879  11.801  0.1571 -1.5477  0.3595
    8TMC3    C114207   3.893   4.023  11.708  0.3574  0.7982  0.3150
    8TMC3    C214208   4.015   4.068  11.659  0.1830  0.0596 -0.4177
    8TMC3    C314209   4.029   4.205  11.632 -0.0049  0.5415 -0.5509
    8TMC3    C414210   3.782   4.095  11.703 -0.0770  1.3833 -0.1476
    8TMC3    C514211   3.801   4.229  11.679  0.5562  0.5084 -0.1310
    8TMC3    C614212   3.923   4.285  11.639 -0.3372  0.1377  0.3184
    8TMC3     C14213   3.903   3.934  11.821 -0.5557 -0.5380 -0.0675
    8TMC3     O14214   3.792   3.913  11.876  0.3270  0.8144 -0.4313
    8TMC3     H14215   4.095   3.997  11.640  0.3074 -0.4851  2.0963
    8TMC3    H114216   3.684   4.056  11.727  0.7405  0.4535  1.7044
    8TMC3    H214217   3.920   4.385  11.597  0.7615  0.3689  0.8202
    8TMC3    C714218   3.727   4.313  11.776 -0.1190 -0.6391  0.9345
    8TMC3    C814219   4.137   4.250  11.538  0.2946 -0.0630  0.2264
    8TMC3    O114220   3.683   4.426  11.750  0.1846  0.3256  0.1617
    8TMC3    O214221   4.112   4.332  11.451  0.1204 -0.0011 -0.4366
    9MPD2     C14222   4.455   4.076  11.558 -0.4828  1.3233  0.3901
    9MPD2    C114223   4.365   4.164  11.504  0.0608 -0.1674 -0.1887
    9MPD2    C214224   4.385   4.208  11.375 -0.2307  0.4616  0.3321
    9MPD2    C314225   4.495   4.160  11.305  0.0214  0.0780 -0.7852
    9MPD2    C414226   4.590   4.077  11.366  0.2211  0.1767  0.3158
    9MPD2    C514227   4.571   4.043  11.496 -0.6519 -0.1341 -0.1418
    9MPD2     H14228   4.308   4.264  11.323 -0.9486 -0.5799  0.2804
    9MPD2    H114229   4.684   4.061  11.315  0.0552 -0.3650  0.1831
    9MPD2    H214230   4.444   4.043  11.660 -1.2024  0.9126  0.1831
    9MPD2    H314231   4.648   3.987  11.547 -0.8879 -1.5214 -1.3066
    9MPD2     N14232   4.534   4.200  11.179  0.0344  0.5231  0.0190
    9MPD2    H514233   4.612   4.147  11.142  0.3408  0.1298  1.1985
    9MPD2    N114234   4.251   4.191  11.578 -0.3876  0.1246  0.1813
    9MPD2    H714235   4.249   4.137  11.664 -0.3015  0.2715  0.2773
    1MPD1     C14236   4.186   2.883  16.957  0.4627 -0.7552 -0.0563
    1MPD1    C114237   4.313   2.856  16.916 -0.2358  0.2704  0.1112
    1MPD1    C214238   4.341   2.810  16.789 -0.1207 -0.6387 -0.7193
    1MPD1    C314239   4.235   2.772  16.710 -0.0663 -0.7908 -0.5878
    1MPD1    C414240   4.102   2.790  16.752  0.0562  0.7417 -0.0749
    1MPD1    C514241   4.084   2.845  16.871 -1.2622 -0.0324 -0.7050
    1MPD1     H14242   4.445   2.800  16.760  0.5532 -1.7046  2.0770
    1MPD1    H114243   4.014   2.758  16.697  0.1206  0.6329 -0.1132
    1MPD1    H214244   4.163   2.918  17.057 -1.0912  1.5211 -1.2071
    1MPD1    H314245   3.983   2.829  16.908 -1.2499  0.0293 -0.6445
    1MPD1     N14246   4.245   2.717  16.580 -0.3451  0.3266 -1.0976
    1MPD1    H514247   4.162   2.698  16.526  0.4013 -2.4165 -1.2707
    1MPD1    N114248   4.413   2.890  17.004  0.1181 -0.4882  0.6461
    1MPD1    H614249   4.391   2.880  17.103 -0.5314 -0.7872  0.4738
    1MPD1    H714250   4.483   2.818  16.987  1.3086  0.7429  0.4187
    2MPD1     C14251   0.092   2.227  15.768 -0.6820  0.0777  0.0157
    2MPD1    C114252   4.688   2.163  15.781  0.8153  0.5214 -0.8864
    2MPD1    C214253   4.603   2.211  15.877  0.4017 -0.2332  0.0075
    2MPD1    C314254   4.631   2.323  15.959  0.3018 -0.1963  0.2903
    2MPD1    C414255   0.031   2.388  15.936  0.3832 -0.3906 -0.0213
    2MPD1    C514256   0.121   2.337  15.843 -0.4903  0.5333  0.9868
    2MPD1     H14257   4.513   2.150  15.880  0.8690 -0.8540  1.7110
    2MPD1    H114258   0.070   2.474  15.990 -0.1565  1.3242 -2.3411
    2MPD1    H214259   0.169   2.187  15.702  1.2025 -1.2337  2.9886
    2MPD1    H314260   0.221   2.380  15.841 -1.0996  1.8311 -1.2456
    2MPD1     N14261   4.542   2.371  16.060 -0.7353 -0.5071 -0.1922
    2MPD1    H514262   4.453   2.324  16.070 -0.1412 -1.4075  0.7572
    2MPD1    N114263   4.662   2.038  15.724 -0.0819 -0.0503  0.3034
    2MPD1    H614264   4.722   2.031  15.642 -0.4137 -1.7177  0.1943
    2MPD1    H714265   4.563   2.035  15.698 -0.3223  2.9741  0.8657
    3TCq2    C114266   4.566   2.473  16.152 -0.3820 -0.1898 -0.4421
    3TCq2    O214267   4.667   2.533  16.183 -0.0980 -0.1744 -0.2168
    3TCq2    C214268   4.442   2.519  16.215  0.4808 -0.1025  0.1509
    3TCq2    C314269   4.323   2.525  16.142 -0.0186 -0.3279 -0.2485
    3TCq2    C414270   4.230   2.609  16.184  0.5688  0.0552 -0.0204
    3TCq2    C514271   4.240   2.677  16.303 -0.4174 -0.1565 -0.8078
    3TCq2    C614272   4.351   2.651  16.383 -0.1888 -0.6602  0.0430
    3TCq2    C714273   4.460   2.585  16.331  0.1118  0.3835  0.2718
    3TCq2    C814274   4.369   2.688  16.522 -0.4228 -0.4129  0.4452
    3TCq2    O414275   4.476   2.682  16.572 -0.0703  0.0006 -0.6901
    3TCq2    C914276   4.117   2.638  16.099 -0.0369 -0.0259 -0.2926
    3TCq2    O514277   4.105   2.576  15.993 -0.1102 -0.2645  0.2688
    3TCq2    O614278   4.018   2.711  16.141  0.0391  0.5529  0.1958
    3TCq2    H214279   4.321   2.474  16.047 -0.4102  0.5969 -0.7343
    3TCq2    H314280   4.159   2.738  16.343 -1.9604 -2.6398 -0.1600
    3TCq2    H414281   4.551   2.584  16.389 -0.5887  2.0314  1.4144
    1TCq1    O114282   1.228   1.529  12.616 -0.0928  0.0436  0.8570
    1TCq1    C114283   1.156   1.580  12.716  0.1858  0.1237  0.9015
    1TCq1    O214284   1.049   1.536  12.761  0.2376 -0.0642 -0.3440
    1TCq1    C214285   1.254   1.638  12.806 -0.0777 -0.2214  0.8046
    1TCq1    C314286   1.247   1.583  12.930  0.5211  0.3548 -0.7485
    1TCq1    C414287   1.331   1.638  13.024  0.1925 -1.0098  0.2297
    1TCq1    C514288   1.432   1.729  12.994 -0.2036 -1.0314  0.8629
    1TCq1    C614289   1.435   1.772  12.861 -0.6983  0.1591 -0.4963
    1TCq1    C714290   1.343   1.728  12.761 -0.0968 -0.2263  0.5538
    1TCq1    C814291   1.550   1.837  12.802 -0.6337 -0.4892 -0.3087
    1TCq1    O414292   1.580   1.826  12.682  0.7636  0.4695  0.1059
    1TCq1    C914293   1.307   1.606  13.160 -0.2468 -0.3187  0.5509
    1TCq1    O514294   1.254   1.494  13.186  0.0113 -0.1727 -0.2498
    1TCq1    O614295   1.377   1.664  13.242 -0.0252  0.5516 -0.7951
    1TCq1    H114296   1.325   1.541  12.619  0.1324 -1.6105  0.1605
    1TCq1    H214297   1.175   1.508  12.960 -0.8952  1.4953 -1.3067
    1TCq1    H314298   1.496   1.768  13.072 -0.3969 -3.8686  2.4312
    1TCq1    H414299   1.345   1.770  12.661 -0.3614 -1.1367  0.1733
    2MPD2     C14300   1.823   1.956  12.786  0.4288  0.7510 -0.1728
    2MPD2    C114301   1.751   1.943  12.907 -0.3035 -0.1277 -0.4872
    2MPD2    C214302   1.807   1.981  13.028  0.2622 -0.3060  0.4327
    2MPD2    C314303   1.939   2.023  13.031  0.4505 -0.3422 -0.0206
    2MPD2    C414304   2.014   2.027  12.918  0.1214 -0.2780  0.1517
    2MPD2    C514305   1.953   1.997  12.800  0.8361  0.3812 -0.5123
    2MPD2     H14306   1.745   1.977  13.117  1.8500  0.6587  1.5832
    2MPD2    H114307   2.113   2.071  12.923  0.7329 -1.6237 -0.1762
    2MPD2    H214308   1.795   1.929  12.685  0.2312 -3.4724  1.0482
    2MPD2    H314309   2.022   1.995  12.716  1.2733  0.7357 -0.1639
    2MPD2     N14310   1.984   2.045  13.162  0.4332 -0.2114 -0.6799
    2MPD2    H514311   1.924   2.040  13.244 -0.2222 -0.1300 -1.1558
    2MPD2    N114312   1.621   1.892  12.907  0.2216  0.5342 -0.0805
    2MPD2    H714313   1.572   1.881  12.995  0.7534 -4.8198 -0.4208
    3TCq1    O114314   2.125   2.293  13.713 -0.1296 -0.3643 -0.6820
    3TCq1    C114315   2.045   2.218  13.637  0.1378  0.2565  0.0698
    3TCq1    O214316   1.931   2.244  13.604 -0.4448 -0.0790 -0.0216
    3TCq1    C214317   2.123   2.135  13.547 -0.1161 -0.3870  0.0286
    3TCq1    C314318   2.211   2.037  13.592  0.2514  0.7325 -0.2643
    3TCq1    C414319   2.278   1.968  13.495 -0.1007 -0.1558 -0.1311
    3TCq1    C514320   2.241   1.972  13.363 -0.1223 -0.1052  0.3104
    3TCq1    C614321   2.141   2.057  13.335  0.3498  0.5666 -0.6223
    3TCq1    C714322   2.074   2.133  13.424  0.2871 -0.3464 -0.4939
    3TCq1    C814323   2.115   2.070  13.196 -0.2394  0.3719 -0.3636
    3TCq1    O414324   2.209   2.066  13.122  0.4458 -0.2804 -0.3953
    3TCq1    C914325   2.385   1.877  13.538  0.1019  0.0826 -0.4984
    3TCq1    O514326   2.453   1.825  13.451 -0.6976  0.3961  0.1772
    3TCq1    O614327   2.375   1.844  13.660 -0.6527 -0.4178  0.1589
    3TCq1    H114328   2.220   2.268  13.720  0.2770  1.1805 -0.6217
    3TCq1    H214329   2.232   2.025  13.698  0.4895  0.3234 -0.3566
    3TCq1    H314330   2.296   1.916  13.289  2.3805  1.0971  1.2509
    3TCq1    H414331   1.989   2.196  13.399 -0.2607 -1.9673 -2.7641
    1MPD2     C14332   2.101   3.144  14.900  1.0991  0.3887 -0.4098
    1MPD2    C114333   2.000   3.075  14.956 -0.5844  0.1793  0.0297
    1MPD2    C214334   2.022   2.947  14.996 -0.2337 -0.3588 -0.5463
    1MPD2    C314335   2.139   2.884  14.978 -0.3121 -0.2604 -0.7241
    1MPD2    C414336   2.236   2.947  14.915  0.4157  0.6023  0.2568
    1MPD2    C514337   2.221   3.078  14.881  0.7482 -0.1662  0.0650
    1MPD2     H14338   1.944   2.887  15.042  0.2220 -1.4251 -1.1503
    1MPD2    H114339   2.337   2.907  14.916 -0.1763 -0.8955 -0.5525
    1MPD2    H214340   2.098   3.249  14.872  3.0073 -0.3248 -3.3030
    1MPD2    H314341   2.312   3.125  14.846 -1.4836  2.9512 -1.5117
    1MPD2     N14342   2.135   2.749  15.011  0.4987  0.4747 -0.1274
    1MPD2    H514343   2.044   2.719  15.045  1.3012 -1.1097  0.6062
    1MPD2    N114344   1.886   3.151  14.979 -0.2427  0.2589 -0.5644
    1MPD2    H714345   1.883   3.247  14.946 -1.4039  1.3287  2.6482
    2TMC3    C114346   1.659   3.186  15.035 -0.0337 -0.3638  0.3711
    2TMC3    C214347   1.550   3.135  15.101  0.1452 -0.1718  0.3914
    2TMC3    C314348   1.424   3.136  15.046  0.2952  0.8229 -0.2876
    2TMC3    C414349   1.644   3.251  14.916 -0.1515 -0.1791  0.2198
    2TMC3    C514350   1.512   3.262  14.871  0.2480  0.5312 -0.6700
    2TMC3    C614351   1.400   3.202  14.930  1.1339  0.6060  0.0093
    2TMC3     C14352   1.781   3.112  15.063  0.7660 -0.1221  0.0064
    2TMC3     O14353   1.756   3.012  15.127  0.3124 -0.0163 -0.2146
    2TMC3     H14354   1.565   3.086  15.197  1.3718 -0.7314 -0.0873
    2TMC3    H114355   1.715   3.260  14.835  2.4511 -1.8951  2.3257
    2TMC3    H214356   1.306   3.189  14.878  1.1404 -1.1293  0.4332
    2TMC3    C714357   1.483   3.378  14.781  0.2801 -0.0579 -0.4865
    2TMC3    C814358   1.375   3.003  15.026  0.2571 -0.2084  0.1367
    2TMC3    O114359   1.380   3.379  14.720 -0.3080  0.1288 -0.4698
    2TMC3    O214360   1.268   2.986  14.966  0.3188  0.2006 -0.3455
    3TCq1    O114361   2.086   4.427  14.582  0.2217 -0.1686 -0.0195
    3TCq1    C114362   2.168   4.361  14.672 -0.6890  0.2969 -0.1455
    3TCq1    O214363   2.288   4.328  14.654  0.6258 -0.4539  0.3190
    3TCq1    C214364   2.084   4.275  14.754 -0.4720  0.2305 -0.1470
    3TCq1    C314365   2.139   4.240  14.874 -0.1759  0.9809  0.4076
    3TCq1    C414366   2.075   4.132  14.930 -0.7558 -0.0640  0.5447
    3TCq1    C514367   1.990   4.046  14.863  0.4979 -0.2052 -0.2793
    3TCq1    C614368   1.949   4.088  14.734 -0.2360 -0.1753  0.0130
    3TCq1    C714369   1.995   4.203  14.683 -0.7587  0.1516 -0.3286
    3TCq1    C814370   1.847   4.010  14.670  0.0883 -0.2480  0.3096
    3TCq1    O414371   1.804   4.064  14.568 -0.5318  0.0287  0.0084
    3TCq1    C914372   2.131   4.097  15.062 -0.0341 -0.1441  0.8871
    3TCq1    O514373   2.076   4.005  15.130 -0.0033 -0.3529 -0.3988
    3TCq1    O614374   2.247   4.146  15.081 -0.0832  0.2465  0.2604
    3TCq1    H114375   1.994   4.437  14.615  0.3302  2.0454 -0.4108
    3TCq1    H214376   2.209   4.301  14.928 -1.9342  2.3346  1.1481
    3TCq1    H314377   1.953   3.958  14.915  1.0655  0.1677  0.7548
    3TCq1    H414378   1.945   4.236  14.592 -0.4331 -0.3454 -0.6911
    4MPD2     C14379   1.629   3.837  14.587  0.2028  0.3604 -0.2789
    4MPD2    C114380   1.719   3.796  14.679  0.6541 -0.0807  0.0155
    4MPD2    C214381   1.704   3.677  14.736 -0.0153 -0.0429 -0.4981
    4MPD2    C314382   1.602   3.589  14.712 -0.3581  0.2076  0.3955
    4MPD2    C414383   1.524   3.622  14.601  0.1376  0.1011 -0.3751
    4MPD2    C514384   1.536   3.744  14.534  0.3609 -0.0127  0.4492
    4MPD2     H14385   1.771   3.647  14.816 -1.8806  0.2787  1.1870
    4MPD2    H114386   1.449   3.550  14.569 -0.2634 -0.2508  1.3301
    4MPD2    H214387   1.628   3.939  14.550 -1.6173  0.4456 -0.0150
    4MPD2    H314388   1.465   3.772  14.457  1.7816  2.9395  0.2096
    4MPD2     N14389   1.585   3.472  14.787 -0.4774 -0.0481 -0.5511
    4MPD2    H514390   1.661   3.455  14.851 -0.3868  1.3734 -0.2788
    4MPD2    N114391   1.823   3.879  14.719  0.5833  0.0345 -0.3140
    4MPD2    H714392   1.889   3.848  14.790 -1.2082  0.0842  1.3957
    5TMC2    C114393   1.950   2.464  15.027  0.0989 -0.3450  0.1438
    5TMC2    C214394   1.958   2.387  14.920  0.5134 -0.4097  0.4615
    5TMC2    C314395   2.081   2.379  14.855  1.0701  0.3662  0.7356
    5TMC2    C414396   2.050   2.541  15.069 -0.6035  0.1291 -0.0949
    5TMC2    C514397   2.173   2.535  15.003 -0.5101  0.4703 -0.2771
    5TMC2    C614398   2.192   2.455  14.893  0.5131 -0.4075  0.0038
    5TMC2     C14399   1.830   2.549  15.039  0.4272 -0.9121 -0.7683
    5TMC2     O14400   1.847   2.651  15.099 -0.1853 -0.3517 -0.0791
    5TMC2     H14401   1.867   2.341  14.883  0.9498 -1.4307  0.6702
    5TMC2    H114402   2.046   2.579  15.170 -2.1148  0.1179 -0.1522
    5TMC2    H214403   2.289   2.450  14.845  0.6275 -0.4962  0.2441
    5TMC2    C714404   2.234   2.662  14.998 -0.0375  0.6386  1.0064
    5TMC2    C814405   2.094   2.308  14.728 -1.0305 -0.5337 -0.1829
    5TMC2    O114406   2.348   2.690  14.959  0.2656  0.6322 -0.5373
    5TMC2    O214407   2.008   2.227  14.698 -0.1500 -0.8731  0.8297
    5TMC2    O514408   2.142   2.396  14.637  0.0206 -0.4349  0.1115
    5TMC2    H514409   2.173   2.483  14.670 -1.6266  0.5041 -0.8160
    6MPD2     C14410   1.365   2.718  14.976  0.4004  0.1892  0.1377
    6MPD2    C114411   1.469   2.777  15.031 -0.2428  0.5100 -0.2806
    6MPD2    C214412   1.589   2.710  15.023  0.1856  0.4751 -0.3027
    6MPD2    C314413   1.599   2.576  14.984  0.5945 -0.0877  1.2036
    6MPD2    C414414   1.496   2.525  14.914 -0.0899  1.3130  0.3509
    6MPD2    C514415   1.378   2.594  14.913 -0.4533  0.0778  0.3505
    6MPD2     H14416   1.669   2.756  15.081 -0.5029  1.7380 -0.3651
    6MPD2    H114417   1.502   2.425  14.873  0.3413  1.3164  0.4103
    6MPD2    H214418   1.267   2.763  14.982  0.3027 -0.2614  1.7445
    6MPD2    H314419   1.291   2.545  14.871 -0.7323  1.4380 -0.6452
    6MPD2     N14420   1.715   2.503  14.982 -0.2409 -0.4383 -0.4104
    6MPD2    H514421   1.717   2.413  14.935 -0.7407  0.5318 -2.2874
    6MPD2    N114422   1.469   2.911  15.059 -0.3861 -0.1179  0.2033
    6MPD2    H714423   1.563   2.936  15.089  0.3117 -1.7036 -0.5955
  945NH4     N114424   0.638   4.362  15.690 -0.0022 -0.0674  0.2335
  945NH4     H214425   0.573   4.439  15.714  0.2006 -0.3987  1.8246
  945NH4     H314426   0.685   4.325  15.775  0.0393 -0.6175 -0.0286
  945NH4     H414427   0.709   4.390  15.619  0.0758 -2.5414 -0.6813
  945NH4     H514428   0.582   4.283  15.652  1.1090 -0.7178 -0.0720
  946SOD     NA14429   2.464   0.028   1.272 -0.3999 -0.2161 -0.1213
  947SOD     NA14430   4.262   2.613  12.971 -0.6596  0.2141  0.1449
  948SOD     NA14431   1.418   1.538   4.654  0.1307 -0.1408 -0.0831
  949SOD     NA14432   1.888   2.607  10.112  0.3135  0.4300  0.0537
  950SOD     NA14433   4.162   2.617  15.789  0.3029 -0.1473  0.4585
  951SOD     NA14434   1.203   0.881  11.225  0.1312  0.1319 -0.2481
  952SOD     NA14435   0.008   1.894   0.666 -0.1730 -0.2285  0.2031
  953SOD     NA14436   0.495   2.607  10.412  0.1256  0.1766 -0.4122
  954SOD     NA14437   3.505   2.938  13.788 -0.9414  0.0840  0.0818
  955SOD     NA14438   2.869   2.416  11.483 -0.7456 -0.4166 -0.5380
  956SOD     NA14439   1.521   1.799  13.336  0.0617 -0.3811 -0.2925
  957SOD     NA14440   2.898   4.438  12.522 -0.1606 -0.0446  0.2791
  958SOD     NA14441   0.901   3.147  14.433  0.2811 -0.0083 -0.2374
  959SOD     NA14442   2.704   2.170  11.604 -0.1897  0.0602  0.1430
  960SOD     NA14443   3.313   1.140  10.324  0.0206 -0.4598  0.2051
  961SOD     NA14444   3.326   2.401   2.086 -0.2969 -0.1770  0.0193
  962SOD     NA14445   3.810   2.898   4.691 -0.7925 -0.3766  0.0991
  963SOD     NA14446   4.173   4.006   1.180 -0.3146 -0.2456  0.1248
  964SOD     NA14447   2.764   4.081   2.552 -0.0939  0.1256  0.3851
  965SOD     NA14448   3.517   4.332  13.915 -0.0290  0.2359  0.0005
  966SOD     NA14449   0.946   2.140   0.633  0.5221 -0.1381  0.0156
  967SOD     NA14450   0.960   3.367  10.906  0.2350  0.0406 -0.0143
  968SOD     NA14451   1.714   1.526  10.684  0.3962  0.3368  0.2705
  969SOD     NA14452   2.614   4.179  17.216  0.7034  0.2807 -0.6163
  970SOD     NA14453   1.880   0.950  10.560 -0.0675  0.5354  0.3789
  971SOD     NA14454   0.767   2.475   7.375  0.1718 -0.6305  0.3909
  972SOD     NA14455   2.133   2.249  11.577 -0.0729 -0.3694  0.0920
  973SOD     NA14456   0.011   0.158   4.526 -0.0432  0.2325  0.4459
  974SOD     NA14457   1.744   1.688   8.504 -0.5183 -0.4015  0.2263
  975SOD     NA14458   2.872   0.136  11.710  0.0891  0.1118  0.0932
  976SOD     NA14459   1.289   1.643  13.451  0.8521 -0.1444  0.0661
  977SOD     NA14460   4.062   2.686  13.718 -0.4695  0.1223 -0.4632
  978SOD     NA14461   3.299   2.809   2.520  0.2269 -0.0903  0.2035
  979SOD     NA14462   4.579   3.871   7.166 -0.0403  0.4661 -0.2257
  980SOD     NA14463   2.339   2.084  13.959  0.7548  0.0973 -0.1510
  981SOD     NA14464   0.312   3.973   1.883  0.1527 -0.2862  0.5163
  982SOD     NA14465   2.292   2.548  11.672  0.1601  0.1469 -0.4774
  983SOD     NA14466   3.940   2.900  16.118  0.6128  0.3861  0.0151
  984SOD     NA14467   2.916   4.209  17.103  0.2304 -0.3373 -0.0657
  985SOD     NA14468   0.893   2.369   1.781 -0.0412 -0.0871  0.3530
  986SOD     NA14469   4.454   2.200  16.778 -0.3581 -0.3172  0.7873
  987SOD     NA14470   0.849   1.144  15.234  0.0619  0.3142 -0.2037
  988SOD     NA14471   4.356   1.167   0.422  0.2948 -0.0898 -0.5040
  989SOD     NA14472   1.984   3.225   9.285 -0.0294 -0.1279  0.6787
  990SOD     NA14473   0.609   1.328   8.468  0.3270 -0.3268  0.5222
  991SOD     NA14474   0.763   4.422   2.389 -0.2112 -0.1963 -0.1704
  992SOD     NA14475   0.416   0.926  13.939  0.3598 -0.0505  0.3578
  993SOD     NA14476   3.957   2.112  14.701 -0.2758  0.1217  0.4604
  994SOD     NA14477   2.140   2.886  15.492  0.1643 -0.2157  0.0112
  995SOD     NA14478   4.425   0.320   0.934  0.1967 -0.3147  0.3123
  996SOD     NA14479   2.187   2.187  12.543 -0.0027  0.2710  0.1747
  997SOD     NA14480   3.658   0.360   8.574 -0.3547  0.4070  0.1101
  998SOD     NA14481   3.154   3.201  13.478  0.3968 -0.0292  0.5625
  999SOD     NA14482   2.540   3.313  10.993 -0.1185  0.0158 -0.0028
 1000SOD     NA14483   3.179   2.349  11.319  0.4563 -0.0936 -0.2546
 1001SOD     NA14484   2.659   3.647  14.614 -0.4147  0.5670  0.5666
 1002SOD     NA14485   1.915   4.154  11.218 -0.3524  0.0822 -0.2229
 1003SOD     NA14486   1.766   3.378  10.367  0.4596  0.3528 -0.1579
 1004SOD     NA14487   0.561   3.277   4.666  0.1728 -0.1672  0.5225
 1005SOD     NA14488   3.583   1.762  14.447  0.3947 -0.3355 -0.1629
 1006SOD     NA14489   0.594   2.315   3.086  0.0011 -0.1322  0.0554
 1007SOD     NA14490   1.825   1.219  10.462 -0.2129  0.4154 -0.1074
 1008SOD     NA14491   1.435   3.584  11.315 -0.1065  0.1512  0.0478
 1009SOD     NA14492   3.275   3.078  11.008 -0.3228  0.6468  0.1648
 1010SOD     NA14493   2.172   1.746   0.844  0.3682 -0.1488 -0.0901
 1011SOL     OW14494   3.751   2.439   3.007  0.5031  0.2589  0.3905
 1011SOL    HW114495   3.785   2.524   2.979 -0.6212  0.3382 -0.6918
 1011SOL    HW214496   3.823   2.409   3.064 -1.4671 -0.2215  2.6210
 1012SOL     OW14497   4.047   3.398   1.391 -0.4774 -0.2768  0.3912
 1012SOL    HW114498   4.051   3.410   1.296  0.2226  1.7077  0.6800
 1012SOL    HW214499   3.965   3.350   1.400  0.1045 -1.4817 -0.6868
 1013SOL     OW14500   1.156   3.931   7.727  0.2182  0.3183 -0.2090
 1013SOL    HW114501   1.161   3.966   7.816 -0.0897  0.3444 -0.2012
 1013SOL    HW214502   1.200   3.847   7.740 -2.1573 -1.1987 -1.8700
 1014SOL     OW14503   2.560   4.603   6.282 -0.1986 -0.0626 -0.6276
 1014SOL    HW114504   2.654   4.597   6.298 -0.4041 -1.8552 -0.1173
 1014SOL    HW214505   2.546   4.678   6.224 -0.9764 -0.3818 -0.8488
 1015SOL     OW14506   3.506   3.363   7.431  0.1104 -0.3178  0.1869
 1015SOL    HW114507   3.478   3.441   7.477  0.0974  0.3927 -1.0134
 1015SOL    HW214508   3.426   3.336   7.386  0.7457 -1.4535 -0.2799
 1016SOL     OW14509   3.729   2.259   9.027  0.4072 -1.0583 -0.2301
 1016SOL    HW114510   3.733   2.194   9.097  3.2070 -0.3603  0.2375
 1016SOL    HW214511   3.637   2.286   9.023  1.2468  1.9601  0.9481
 1017SOL     OW14512   4.659   1.071  12.061  0.0498  1.0048  0.0626
 1017SOL    HW114513   4.669   0.982  12.093 -0.1688  1.1717  0.5946
 1017SOL    HW214514   4.577   1.062  12.011 -1.0133  1.0656  1.7971
 1018SOL     OW14515   1.886   3.016  16.276  0.3385 -0.2070 -0.5167
 1018SOL    HW114516   1.817   3.080  16.256 -0.3278 -0.2772  1.5868
 1018SOL    HW214517   1.961   3.048  16.226  3.8692 -0.1437  4.8095
 1019SOL     OW14518   0.699   2.063   4.402  0.4171 -0.2794 -0.4868
 1019SOL    HW114519   0.778   2.018   4.431 -1.0036 -2.6292 -0.1936
 1019SOL    HW214520   0.735   2.145   4.371  1.0792  0.2566  1.7139
 1020SOL     OW14521   2.854   4.348   7.514  0.4290  0.0718 -0.0137
 1020SOL    HW114522   2.793   4.304   7.573 -0.7813  0.7771 -0.7551
 1020SOL    HW214523   2.853   4.436   7.550 -1.7499 -0.1228  0.3603
 1021SOL     OW14524   0.460   2.488   7.212  0.5372  0.0500 -0.7801
 1021SOL    HW114525   0.382   2.439   7.185  0.2224 -0.9289  1.9147
 1021SOL    HW214526   0.475   2.461   7.302  0.7219 -2.2166 -1.4835
 1022SOL     OW14527   3.177   4.715   6.075 -0.1238 -0.2399  0.1311
 1022SOL    HW114528   3.243   0.042   6.026  1.3417 -1.1366  1.1976
 1022SOL    HW214529   3.123   0.066   6.103  0.2178 -0.2890  0.9131
 1023SOL     OW14530   1.544   4.012   3.276 -0.8328  0.2635 -0.9114
 1023SOL    HW114531   1.462   4.036   3.320 -0.8282  0.2005 -0.8692
 1023SOL    HW214532   1.570   4.098   3.242  0.1328  0.4063  0.1892
 1024SOL     OW14533   2.459   2.872   0.274 -0.8300 -0.2089  0.3978
 1024SOL    HW114534   2.426   2.908   0.192  0.2071  0.1525  0.1491
 1024SOL    HW214535   2.415   2.787   0.272  0.1847 -0.7456  0.7966
 1025SOL     OW14536   0.557   4.268   5.577  0.2813 -0.3678 -0.0787
 1025SOL    HW114537   0.532   4.359   5.593 -0.0459 -0.6648  1.0697
 1025SOL    HW214538   0.588   4.271   5.486 -1.0174  0.8274 -0.4830
 1026SOL     OW14539   1.433   0.692   6.124 -0.1885  0.3938 -0.1984
 1026SOL    HW114540   1.473   0.708   6.210 -0.1689 -0.8160  0.0178
 1026SOL    HW214541   1.393   0.609   6.151 -0.9108  0.4218 -1.1824
 1027SOL     OW14542   0.341   3.052   3.018  0.8890 -0.5582 -0.4986
 1027SOL    HW114543   0.279   3.022   2.951  1.2944 -0.2768 -1.0017
 1027SOL    HW214544   0.390   2.971   3.028  0.4010 -1.0288 -1.8068
 1028SOL     OW14545   0.563   3.241  10.722  0.3869 -0.5527  0.1774
 1028SOL    HW114546   0.614   3.321  10.712 -0.8131  0.0174 -1.3443
 1028SOL    HW214547   0.544   3.205  10.635 -0.5225 -1.8650  0.9242
 1029SOL     OW14548   4.488   3.392   2.404  0.1148 -0.3792  0.2322
 1029SOL    HW114549   4.443   3.404   2.488  0.9407  1.9230  0.3573
 1029SOL    HW214550   4.468   3.478   2.366  1.4156  0.7466  2.0645
 1030SOL     OW14551   2.276   3.481  11.103  0.6212 -0.2703  0.1217
 1030SOL    HW114552   2.334   3.408  11.123  2.1589  0.6017 -1.1283
 1030SOL    HW214553   2.307   3.555  11.155  0.8325  1.2133 -2.1226
 1031SOL     OW14554   3.840   1.516   4.500 -0.1913  0.4185  0.5528
 1031SOL    HW114555   3.757   1.546   4.464  0.2984  1.5292  0.3586
 1031SOL    HW214556   3.891   1.597   4.494 -0.1303  0.2801 -0.8756
 1032SOL     OW14557   2.532   2.815   2.561  0.0278  0.5514 -0.6168
 1032SOL    HW114558   2.595   2.757   2.517 -0.7239 -2.0538  1.6864
 1032SOL    HW214559   2.492   2.857   2.485 -0.9761 -0.6041 -0.7491
 1033SOL     OW14560   4.478   4.267   2.567 -0.5248  0.8388 -0.3191
 1033SOL    HW114561   4.399   4.303   2.607 -1.3623 -0.8019 -0.5047
 1033SOL    HW214562   4.498   4.339   2.507  0.2386  0.1571 -0.8869
 1034SOL     OW14563   3.582   1.768   7.653  0.3281  0.7752 -0.2008
 1034SOL    HW114564   3.630   1.687   7.633  1.6037  2.0712 -2.3975
 1034SOL    HW214565   3.495   1.759   7.615 -0.1216  0.5161  0.8825
 1035SOL     OW14566   2.527   1.343  11.478 -0.1868 -0.2127 -0.2996
 1035SOL    HW114567   2.500   1.263  11.434  1.3443 -0.8148 -0.1323
 1035SOL    HW214568   2.514   1.315  11.568  1.1009 -1.6625 -0.5756
 1036SOL     OW14569   0.110   3.390   4.837  0.1315 -0.2314  0.2095
 1036SOL    HW114570   0.016   3.395   4.816  0.6013 -0.4992 -1.9842
 1036SOL    HW214571   0.118   3.310   4.889  1.1159 -1.0213 -1.1769
 1037SOL     OW14572   3.167   1.265  10.445 -0.4864  0.3100 -0.4103
 1037SOL    HW114573   3.149   1.318  10.523 -0.6538  0.3665 -0.4858
 1037SOL    HW214574   3.083   1.243  10.405 -1.2064  2.0799  0.1213
 1038SOL     OW14575   4.209   2.078   1.718 -0.1684  0.0687 -0.0502
 1038SOL    HW114576   4.159   2.138   1.772  0.7338 -1.1371  2.1332
 1038SOL    HW214577   4.296   2.117   1.730 -0.0442 -0.1521 -0.2102
 1039SOL     OW14578   0.273   0.497   5.022 -0.1136 -0.1088  0.7179
 1039SOL    HW114579   0.193   0.550   5.020  0.0033  0.1326  2.3622
 1039SOL    HW214580   0.334   0.556   4.979  1.4227 -0.9484  1.7672
 1040SOL     OW14581   0.879   4.119   6.884  0.0357 -0.4822  0.2675
 1040SOL    HW114582   0.805   4.181   6.879  0.6317  0.1872 -0.2008
 1040SOL    HW214583   0.841   4.068   6.812 -0.3533  1.6896 -1.0825
 1041SOL     OW14584   0.667   2.225  13.092 -0.1207  0.1811 -0.1302
 1041SOL    HW114585   0.759   2.215  13.118 -0.5883 -0.3224  1.3165
 1041SOL    HW214586   0.635   2.143  13.128 -0.0703  0.1902 -0.0638
 1042SOL     OW14587   4.413   1.736  10.481  0.0477 -0.0573  0.2214
 1042SOL    HW114588   4.332   1.687  10.495 -0.7383  0.7104 -1.5429
 1042SOL    HW214589   4.475   1.663  10.485 -1.8408 -1.8095 -2.5035
 1043SOL     OW14590   0.544   1.032   3.626  0.0948  0.5035  0.1449
 1043SOL    HW114591   0.606   0.982   3.574  0.4982 -0.2610  1.3738
 1043SOL    HW214592   0.541   1.101   3.560 -0.2312 -0.0821 -0.4428
 1044SOL     OW14593   3.857   1.841   5.405 -0.0015 -0.1730 -0.6041
 1044SOL    HW114594   3.869   1.761   5.353  1.0533 -1.0459  0.9782
 1044SOL    HW214595   3.929   1.892   5.368  0.2438  0.4307  0.7115
 1045SOL     OW14596   3.836   0.262   4.267  0.5247  0.2379 -0.0234
 1045SOL    HW114597   3.794   0.176   4.277 -1.3054  1.0262 -0.9339
 1045SOL    HW214598   3.893   0.234   4.195  0.5761 -1.1462  0.5641
 1046SOL     OW14599   3.814   2.799   2.043  0.2447  0.4844 -0.1396
 1046SOL    HW114600   3.893   2.853   2.054 -0.0314  0.7979  0.2868
 1046SOL    HW214601   3.823   2.767   1.953 -1.7335 -0.3549 -0.0458
 1047SOL     OW14602   2.987   2.213   3.546  0.4226  0.4420 -0.8698
 1047SOL    HW114603   2.896   2.241   3.539  0.1740 -0.1561  0.0030
 1047SOL    HW214604   3.015   2.217   3.455 -0.1305 -2.2493 -1.1566
 1048SOL     OW14605   0.720   2.935   0.075 -0.4993  0.4055 -0.8653
 1048SOL    HW114606   0.669   2.982   0.142  0.8064  0.6867 -0.0629
 1048SOL    HW214607   0.659   2.947   0.002  1.4328  0.1269 -2.5202
 1049SOL     OW14608   2.893   4.263  14.088 -0.2501  0.0176 -0.5438
 1049SOL    HW114609   2.960   4.275  14.020  2.3268 -0.1940  1.9597
 1049SOL    HW214610   2.822   4.314  14.051  0.6378 -0.9423 -3.6490
 1050SOL     OW14611   1.212   2.315  12.385  0.7074 -0.0169  0.3906
 1050SOL    HW114612   1.155   2.257  12.434 -0.1388  1.3021  0.9674
 1050SOL    HW214613   1.210   2.273  12.299  0.3782 -1.3215  1.0492
 1051SOL     OW14614   4.362   2.654   6.069  0.4690  0.2369  0.3662
 1051SOL    HW114615   4.372   2.559   6.078 -0.2121  0.1840  0.5827
 1051SOL    HW214616   4.286   2.659   6.011  0.8772  3.5250  0.1007
 1052SOL     OW14617   1.621   1.037   3.454 -0.0325  0.0034 -0.1373
 1052SOL    HW114618   1.664   1.049   3.370  0.3628 -1.2970 -0.1170
 1052SOL    HW214619   1.678   0.969   3.489  0.3560  0.4736  0.1541
 1053SOL     OW14620   3.490   2.079   7.100  0.4011  0.3366 -0.2601
 1053SOL    HW114621   3.570   2.103   7.148  0.6433 -3.3599  1.2230
 1053SOL    HW214622   3.525   2.086   7.012  0.6757 -3.1897 -0.4350
 1054SOL     OW14623   2.032   3.879   5.819 -0.2879  0.6208 -0.0092
 1054SOL    HW114624   2.077   3.944   5.766 -0.3267 -0.3228 -1.2086
 1054SOL    HW214625   2.062   3.794   5.784  1.3951  0.1676  2.5830
 1055SOL     OW14626   4.413   2.878   7.056 -0.3997 -0.6236 -0.2813
 1055SOL    HW114627   4.489   2.823   7.074  0.9751  1.5468  0.5199
 1055SOL    HW214628   4.439   2.928   6.979 -1.5883 -0.6446 -0.6936
 1056SOL     OW14629   0.072   2.886   2.623 -0.0911 -0.0498  0.1760
 1056SOL    HW114630   0.080   2.799   2.584 -2.8660 -0.3139  0.2102
 1056SOL    HW214631   0.113   2.943   2.558 -0.9559 -0.1996 -0.5008
 1057SOL     OW14632   3.163   1.172   7.829  0.6308 -0.7768 -0.3440
 1057SOL    HW114633   3.072   1.168   7.860  0.8061 -0.7912  0.1707
 1057SOL    HW214634   3.198   1.221   7.903  0.8942 -1.1152 -0.2442
 1058SOL     OW14635   1.240   0.860   1.537 -0.4139 -0.1312 -0.1664
 1058SOL    HW114636   1.310   0.811   1.495 -0.6835 -1.5651  1.0837
 1058SOL    HW214637   1.258   0.947   1.501 -1.2578  0.1856  0.1803
 1059SOL     OW14638   3.112   2.654  14.902 -0.7513  0.2346 -0.0888
 1059SOL    HW114639   3.034   2.708  14.914 -0.7263 -0.0742  1.4293
 1059SOL    HW214640   3.077   2.564  14.898  0.6992 -0.2839 -0.9909
 1060SOL     OW14641   2.854   0.543   2.924  0.3999 -0.6209  0.2976
 1060SOL    HW114642   2.801   0.562   3.001  0.4582  1.1242 -0.0951
 1060SOL    HW214643   2.805   0.591   2.858  0.8926  0.1493  0.4951
 1061SOL     OW14644   1.801   2.763   8.438  0.5262  0.0780  0.4208
 1061SOL    HW114645   1.826   2.715   8.516 -0.6865 -0.8328  0.2460
 1061SOL    HW214646   1.883   2.760   8.388  0.7589  4.5884  0.5236
 1062SOL     OW14647   3.169   0.148   5.362  0.0822  0.2422  0.1940
 1062SOL    HW114648   3.138   0.058   5.353  1.6401 -0.3810  1.0212
 1062SOL    HW214649   3.109   0.179   5.431 -1.4945  0.4953 -1.3048
 1063SOL     OW14650   0.691   4.096   3.052  0.1126  0.1023 -0.1077
 1063SOL    HW114651   0.765   4.035   3.049  0.5194  0.5886  0.1257
 1063SOL    HW214652   0.682   4.108   3.146 -0.5214 -2.0768  0.1115
 1064SOL     OW14653   3.210   2.861   4.960 -0.5873  0.5805 -0.7545
 1064SOL    HW114654   3.161   2.780   4.976 -1.0953  1.0240 -0.0882
 1064SOL    HW214655   3.147   2.928   4.933  0.5722  1.5671 -1.0355
 1065SOL     OW14656   0.974   3.714   8.065  1.1033  0.2184 -0.1012
 1065SOL    HW114657   0.888   3.752   8.082  1.0021 -0.1782  0.2731
 1065SOL    HW214658   1.017   3.772   8.002  2.5853  0.2462  0.9343
 1066SOL     OW14659   2.099   0.518   8.371 -0.2386 -0.1043 -0.5189
 1066SOL    HW114660   2.128   0.526   8.280  0.8909 -0.8062 -0.2171
 1066SOL    HW214661   2.003   0.514   8.364 -0.1543  0.5344 -1.8962
 1067SOL     OW14662   0.471   2.971   5.823 -0.0900 -0.2151 -0.0079
 1067SOL    HW114663   0.447   2.983   5.731 -1.9282 -0.1807  0.4816
 1067SOL    HW214664   0.472   3.060   5.860 -0.1164 -0.1011 -0.2792
 1068SOL     OW14665   0.235   0.830   5.621 -0.0314  0.1951 -0.5808
 1068SOL    HW114666   0.179   0.800   5.549 -0.1523  1.0987 -0.8715
 1068SOL    HW214667   0.179   0.815   5.696  0.0921  0.9701 -0.3289
 1069SOL     OW14668   1.904   2.219   3.264  0.1685  0.4594 -0.3099
 1069SOL    HW114669   1.937   2.273   3.335  1.0216  0.5253 -0.7418
 1069SOL    HW214670   1.822   2.266   3.253 -1.2884 -1.5763  1.8795
 1070SOL     OW14671   4.419   1.085   7.957 -0.2839 -0.1331 -0.0941
 1070SOL    HW114672   4.513   1.089   7.975 -0.1026  2.8963 -1.6491
 1070SOL    HW214673   4.423   1.112   7.865  0.8018  2.0869  0.5885
 1071SOL     OW14674   2.550   1.136   5.636 -0.1289  0.2538 -0.1759
 1071SOL    HW114675   2.580   1.222   5.664  4.2939 -1.6199  0.7832
 1071SOL    HW214676   2.513   1.153   5.549  0.6635  2.6997 -0.0237
 1072SOL     OW14677   0.180   4.107   2.265  0.5438 -0.1837 -0.0917
 1072SOL    HW114678   0.088   4.123   2.287  0.2541  0.1766 -1.6286
 1072SOL    HW214679   0.197   4.156   2.185  0.1449 -2.0342 -1.2855
 1073SOL     OW14680   0.839   2.584  14.101  0.1137  0.2615 -0.1216
 1073SOL    HW114681   0.883   2.662  14.067 -1.7073  1.0029 -0.7984
 1073SOL    HW214682   0.847   2.530  14.023 -0.8016 -0.8703  0.5670
 1074SOL     OW14683   3.854   0.898   7.621  0.2619 -0.5275 -0.1920
 1074SOL    HW114684   3.790   0.930   7.558 -0.9056  1.7407  2.1510
 1074SOL    HW214685   3.795   0.848   7.677 -0.2136 -0.6128 -0.7672
 1075SOL     OW14686   2.202   3.742  17.302 -0.1680 -0.0990 -0.0336
 1075SOL    HW114687   2.196   3.716  17.395 -1.1540 -1.4508 -0.4672
 1075SOL    HW214688   2.293   3.715  17.291  0.1446  0.6616  0.7134
 1076SOL     OW14689   2.408   2.033   8.856  0.2054 -0.4250 -0.3713
 1076SOL    HW114690   2.431   2.060   8.768 -0.4840 -0.7416 -0.6472
 1076SOL    HW214691   2.454   1.949   8.859 -1.8089 -1.5172 -0.0524
 1077SOL     OW14692   2.653   4.455  10.986 -0.3720 -0.0525  0.5035
 1077SOL    HW114693   2.646   4.440  11.080  1.0816 -2.7792  0.1642
 1077SOL    HW214694   2.739   4.422  10.960 -2.9043 -4.7434 -1.9404
 1078SOL     OW14695   3.783   1.959   7.456  0.2729  0.6430 -0.3384
 1078SOL    HW114696   3.723   1.904   7.506 -1.0342  3.0713  0.7364
 1078SOL    HW214697   3.792   2.033   7.516  1.6060 -0.2354  0.5175
 1079SOL     OW14698   4.228   3.810   2.421 -0.1319  0.1569 -0.0958
 1079SOL    HW114699   4.302   3.866   2.443 -0.0093 -0.2973  0.6448
 1079SOL    HW214700   4.202   3.854   2.340 -1.6814  1.4918  1.1385
 1080SOL     OW14701   4.709   0.708   0.023  0.8918 -0.6715  0.7458
 1080SOL    HW114702   4.697   0.669  17.628 -2.0472  0.9686  0.4230
 1080SOL    HW214703   4.717   0.636   0.086  2.0818 -0.6031  0.6765
 1081SOL     OW14704   2.086   2.481   7.697  0.3791  0.9407  0.2832
 1081SOL    HW114705   2.040   2.558   7.663 -1.2032 -0.0109  0.2769
 1081SOL    HW214706   2.157   2.473   7.634  0.5690  2.8711  0.2508
 1082SOL     OW14707   3.449   4.491   6.096 -0.1269  0.7058  0.4975
 1082SOL    HW114708   3.411   4.557   6.154  1.0691  0.1462  1.9222
 1082SOL    HW214709   3.539   4.482   6.128  0.0976 -1.9233 -0.8999
 1083SOL     OW14710   3.927   1.977   6.983  0.0661 -0.2551  0.6482
 1083SOL    HW114711   3.936   2.065   7.019  0.8376 -0.3669  0.7292
 1083SOL    HW214712   3.956   1.992   6.893 -1.0076 -2.2991 -0.0361
 1084SOL     OW14713   1.594   2.672   6.743 -0.0190  0.0507 -0.1041
 1084SOL    HW114714   1.675   2.722   6.729 -0.9107  2.0268  1.7571
 1084SOL    HW214715   1.547   2.723   6.809  0.2339  2.0486 -1.4830
 1085SOL     OW14716   0.275   1.916   4.326  0.5137  0.5666 -0.2414
 1085SOL    HW114717   0.260   1.911   4.420 -2.0868  1.4078 -0.6150
 1085SOL    HW214718   0.214   1.850   4.292 -0.2012  0.4299  1.3027
 1086SOL     OW14719   0.570   0.278   5.441  0.3639 -0.0150 -0.2359
 1086SOL    HW114720   0.542   0.294   5.350  0.6901 -1.5839 -0.6163
 1086SOL    HW214721   0.624   0.355   5.456 -0.9865  0.7685  0.5883
 1087SOL     OW14722   0.605   0.480   3.294 -0.3469  0.4404 -0.3880
 1087SOL    HW114723   0.684   0.531   3.278 -0.4040  0.8297  0.5614
 1087SOL    HW214724   0.646   0.409   3.343 -0.6673  1.6206  1.6388
 1088SOL     OW14725   4.340   0.196   9.724 -0.3923  0.0646  0.3114
 1088SOL    HW114726   4.431   0.178   9.745  0.0463  0.3949 -1.3755
 1088SOL    HW214727   4.361   0.237   9.641  0.3254  0.3471  0.6322
 1089SOL     OW14728   0.255   0.670   9.785  0.1869 -0.2688  0.0452
 1089SOL    HW114729   0.234   0.756   9.748  0.2303 -1.2163 -2.1844
 1089SOL    HW214730   0.171   0.624   9.778 -0.4919  0.8067  1.0629
 1090SOL     OW14731   1.223   3.704   4.292  0.3757  0.2371  0.1128
 1090SOL    HW114732   1.202   3.660   4.375  4.6570 -1.2826  0.3734
 1090SOL    HW214733   1.179   3.789   4.295  2.2667  1.2321  0.1589
 1091SOL     OW14734   0.861   2.216   2.750 -0.1069 -0.6343  0.6542
 1091SOL    HW114735   0.880   2.291   2.806 -1.5946 -0.7642  1.3314
 1091SOL    HW214736   0.850   2.267   2.670  2.0192 -0.6506  0.3518
 1092SOL     OW14737   1.545   2.919   2.106 -0.2435  0.0694  0.2291
 1092SOL    HW114738   1.617   2.981   2.100  1.2760 -2.0651 -3.2079
 1092SOL    HW214739   1.586   2.860   2.169  1.2877 -0.2477 -1.0741
 1093SOL     OW14740   0.096   1.541   6.505  0.2265  0.0908  0.0728
 1093SOL    HW114741   0.131   1.609   6.563 -1.1691  0.6751  0.2251
 1093SOL    HW214742   0.180   1.507   6.474  0.7106 -0.7820  2.3996
 1094SOL     OW14743   3.298   0.137  10.174  0.4194 -0.2951 -0.1990
 1094SOL    HW114744   3.268   0.200  10.240 -2.2192 -0.6412 -1.0662
 1094SOL    HW214745   3.229   0.148  10.108 -0.6641 -0.0371  0.9895
 1095SOL     OW14746   2.469   4.660   4.004  0.3196  0.0160  0.2391
 1095SOL    HW114747   2.381   4.643   3.968  0.8387  0.1084 -1.0577
 1095SOL    HW214748   2.524   4.602   3.953 -0.5851  0.6843 -1.4921
 1096SOL     OW14749   2.987   4.128   8.832 -0.0803  0.4262 -0.1544
 1096SOL    HW114750   2.899   4.139   8.795 -0.0411  0.8838 -0.1122
 1096SOL    HW214751   3.026   4.106   8.747  0.8001 -1.1206  0.6599
 1097SOL     OW14752   4.281   2.044   7.159  0.0230  0.5239 -0.2683
 1097SOL    HW114753   4.283   2.008   7.070 -1.8786  0.5375 -0.3114
 1097SOL    HW214754   4.207   2.104   7.151 -0.2959  0.2114  0.4003
 1098SOL     OW14755   1.333   1.760   5.172 -0.0324  0.6085  0.0263
 1098SOL    HW114756   1.305   1.783   5.261  1.1891  3.4273 -0.3036
 1098SOL    HW214757   1.414   1.811   5.171  0.5675 -0.3847 -0.8610
 1099SOL     OW14758   4.004   0.619   7.635 -0.0369 -0.2604  0.1451
 1099SOL    HW114759   4.099   0.633   7.628 -0.3487  1.4869 -0.4463
 1099SOL    HW214760   3.970   0.704   7.609 -1.2954 -0.8637 -0.1599
 1100SOL     OW14761   3.312   4.671   0.886  0.0956 -0.1896 -0.7824
 1100SOL    HW114762   3.368   4.595   0.873 -0.4169 -0.9471  1.4740
 1100SOL    HW214763   3.237   4.640   0.834 -2.4393  2.2085  1.4184
 1101SOL     OW14764   0.668   0.363  16.932 -0.3033 -0.3841  0.5280
 1101SOL    HW114765   0.706   0.317  16.857 -0.9672  0.0329 -0.0531
 1101SOL    HW214766   0.599   0.302  16.958  0.3015 -1.0570  0.5532
 1102SOL     OW14767   4.467   2.196   5.872 -0.2794  0.2838  0.0771
 1102SOL    HW114768   4.475   2.105   5.844  0.8051  1.5690 -3.7609
 1102SOL    HW214769   4.422   2.236   5.797  0.4562 -0.6110 -0.8368
 1103SOL     OW14770   3.819   2.483   6.014 -0.0390 -0.2205  0.2788
 1103SOL    HW114771   3.739   2.496   6.065 -1.5862 -1.6855 -1.7845
 1103SOL    HW214772   3.882   2.530   6.070  1.0222 -2.4768  0.9804
 1104SOL     OW14773   2.706   3.920   6.418 -0.1988 -0.2057 -0.0691
 1104SOL    HW114774   2.790   3.964   6.405 -1.3058  2.1479  0.8361
 1104SOL    HW214775   2.706   3.845   6.357 -1.8761 -2.4807  2.7342
 1105SOL     OW14776   3.459   4.081  15.018 -0.2983 -0.7861  0.0647
 1105SOL    HW114777   3.402   4.006  15.004 -0.8387  0.1833 -3.0042
 1105SOL    HW214778   3.417   4.134  14.951 -1.7326 -0.7357  0.9908
 1106SOL     OW14779   3.443   0.114   5.338  0.2585  0.1564  0.3148
 1106SOL    HW114780   3.348   0.115   5.353  0.5022 -3.1843  1.9363
 1106SOL    HW214781   3.467   0.057   5.411 -0.9596 -1.4929 -0.5701
 1107SOL     OW14782   0.513   0.842   4.679 -0.2572 -0.1282 -0.1197
 1107SOL    HW114783   0.608   0.843   4.669 -0.3462  1.1749 -0.8797
 1107SOL    HW214784   0.484   0.927   4.712 -2.3313 -1.3953  1.3289
 1108SOL     OW14785   2.168   2.474  11.051 -0.4472  1.2109 -0.0059
 1108SOL    HW114786   2.180   2.416  11.127  2.8476  2.3925  0.3749
 1108SOL    HW214787   2.105   2.538  11.085 -0.4271  1.3279 -0.1920
 1109SOL     OW14788   4.066   0.267   2.232  0.5101  0.1180  0.4537
 1109SOL    HW114789   4.073   0.316   2.150 -2.2587 -0.2721 -0.0002
 1109SOL    HW214790   4.123   0.329   2.278  1.8885 -1.0554  0.3430
 1110SOL     OW14791   2.681   3.678   6.262 -0.2713 -0.3500 -0.2469
 1110SOL    HW114792   2.760   3.626   6.277 -1.5669 -1.5540  2.1910
 1110SOL    HW214793   2.608   3.624   6.290 -0.5311  1.4178  2.4663
 1111SOL     OW14794   0.326   1.838   1.633 -0.0177 -0.0949  0.2672
 1111SOL    HW114795   0.364   1.754   1.605  1.8763  0.9166 -0.1907
 1111SOL    HW214796   0.350   1.841   1.725 -0.7596 -2.7388  0.5398
 1112SOL     OW14797   2.877   0.869   8.851 -0.3339 -0.1771 -0.0577
 1112SOL    HW114798   2.879   0.959   8.818  1.5160  1.2501  3.9039
 1112SOL    HW214799   2.786   0.870   8.880  0.3177 -1.1731  1.9987
 1113SOL     OW14800   1.344   1.759  10.154 -0.2563 -0.1147  0.2666
 1113SOL    HW114801   1.326   1.692  10.089 -1.3895  0.7395 -0.3035
 1113SOL    HW214802   1.439   1.761  10.167  0.1396  0.3166 -2.6405
 1114SOL     OW14803   1.253   3.938   3.353 -0.1910  0.3069  0.2734
 1114SOL    HW114804   1.263   3.883   3.431 -0.9704 -0.3004 -0.0529
 1114SOL    HW214805   1.269   3.878   3.281 -0.8538  0.3034  0.1339
 1115SOL     OW14806   2.109   3.614   9.618 -0.3799 -0.4159 -0.4470
 1115SOL    HW114807   2.071   3.658   9.694  0.4187  2.5387 -1.7276
 1115SOL    HW214808   2.060   3.533   9.618  1.0432 -1.2954 -2.4273
 1116SOL     OW14809   4.619   4.382   8.410  0.1415  0.1489  0.2223
 1116SOL    HW114810   4.592   4.312   8.469  0.1694  1.1364  1.4196
 1116SOL    HW214811   4.539   4.434   8.404 -1.2004 -2.0599 -0.8082
 1117SOL     OW14812   1.847   3.499  11.776  0.0601 -0.0785  0.1639
 1117SOL    HW114813   1.937   3.479  11.750  0.3913 -1.3228  2.2038
 1117SOL    HW214814   1.865   3.560  11.848 -0.1251 -0.6787  0.7196
 1118SOL     OW14815   3.907   2.073  11.936 -0.3925 -0.1733  0.2604
 1118SOL    HW114816   3.845   2.136  11.899  0.5575  1.0260  0.7087
 1118SOL    HW214817   3.849   2.005  11.970 -1.3132 -0.0074 -0.9876
 1119SOL     OW14818   4.318   0.143  15.078  0.6607  0.1001 -0.0504
 1119SOL    HW114819   4.274   0.104  15.002 -2.2636  2.3956  0.4751
 1119SOL    HW214820   4.343   0.229  15.044 -2.1403  1.2582  0.8389
 1120SOL     OW14821   0.336   2.475   3.563  0.0477 -0.2467  0.1993
 1120SOL    HW114822   0.290   2.414   3.505  0.5285  0.6073 -1.0759
 1120SOL    HW214823   0.282   2.490   3.641 -2.0039  0.9791 -1.4518
 1121SOL     OW14824   3.528   1.415   2.168  0.1158 -0.4094 -0.2676
 1121SOL    HW114825   3.605   1.421   2.111  0.3758 -2.6299 -0.1475
 1121SOL    HW214826   3.511   1.323   2.151 -2.4642  0.3030 -1.5521
 1122SOL     OW14827   2.027   4.412   5.878  0.0714 -0.2209  0.4695
 1122SOL    HW114828   1.951   4.354   5.881  2.2319 -3.1165 -1.3779
 1122SOL    HW214829   1.983   4.477   5.933 -2.4627 -2.2752  0.8548
 1123SOL     OW14830   1.732   2.927   7.352  0.5746  0.3446 -0.1522
 1123SOL    HW114831   1.794   2.999   7.358  3.3163 -1.9654 -0.7919
 1123SOL    HW214832   1.650   2.976   7.360 -0.5506 -1.0506 -3.1727
 1124SOL     OW14833   0.901   2.323   7.481  0.6475  0.0302 -0.0908
 1124SOL    HW114834   0.943   2.238   7.471  0.2513 -0.2170  0.2943
 1124SOL    HW214835   0.899   2.330   7.577 -1.1770  0.9781 -0.1947
 1125SOL     OW14836   1.637   3.517  11.474  0.7995 -0.2843 -0.0019
 1125SOL    HW114837   1.650   3.593  11.531 -0.4126 -0.7200  0.8475
 1125SOL    HW214838   1.634   3.450  11.543 -0.1052  0.3601  0.5836
 1126SOL     OW14839   0.755   0.102   3.673  0.7183 -0.2275 -0.5777
 1126SOL    HW114840   0.841   0.104   3.631  0.1388  1.2210 -1.6934
 1126SOL    HW214841   0.754   0.189   3.714 -0.7232 -0.0804 -0.9401
 1127SOL     OW14842   4.452   3.664  11.550 -0.1854  0.4445  0.1991
 1127SOL    HW114843   4.517   3.628  11.610 -2.0356 -1.1785  1.2222
 1127SOL    HW214844   4.506   3.702  11.481  1.3679 -1.5399  0.3522
 1128SOL     OW14845   4.308   4.256  15.720  0.0106  0.1042  0.1566
 1128SOL    HW114846   4.401   4.246  15.737 -0.4476 -2.6685  1.0885
 1128SOL    HW214847   4.307   4.280  15.627 -0.7220 -1.5494 -0.2778
 1129SOL     OW14848   4.189   2.553   6.496 -0.4660  0.1941  0.2918
 1129SOL    HW114849   4.133   2.487   6.455  1.2015 -0.5625 -0.7662
 1129SOL    HW214850   4.224   2.500   6.568  1.4892  2.0859  0.7332
 1130SOL     OW14851   1.466   1.699   8.050  0.3189  0.4439  0.0635
 1130SOL    HW114852   1.465   1.674   7.958  1.6662  1.1364 -0.1373
 1130SOL    HW214853   1.539   1.645   8.079  0.2750  1.0470  1.2904
 1131SOL     OW14854   1.348   2.876   4.301  0.3800 -0.6478 -0.0264
 1131SOL    HW114855   1.440   2.859   4.281  0.3821 -0.9141  0.2178
 1131SOL    HW214856   1.333   2.948   4.239 -1.3176 -0.3319  0.7705
 1132SOL     OW14857   4.410   1.205   8.217  0.3546  0.3104 -0.2004
 1132SOL    HW114858   4.414   1.299   8.200  3.4689  0.0583 -0.8407
 1132SOL    HW214859   4.354   1.173   8.146  0.2668  0.4310 -0.1867
 1133SOL     OW14860   1.377   2.920   3.131 -0.9716 -0.6310  0.3179
 1133SOL    HW114861   1.415   2.903   3.045  2.3708 -2.1766  2.1069
 1133SOL    HW214862   1.454   2.900   3.185 -0.1113 -0.8131 -0.9753
 1134SOL     OW14863   4.311   4.626  14.805  0.5473 -0.2051 -0.0656
 1134SOL    HW114864   4.366   4.604  14.730 -1.1865  1.0961 -1.7231
 1134SOL    HW214865   4.287   4.714  14.775 -3.9323 -1.3305  0.3239
 1135SOL     OW14866   1.293   2.352  17.486 -0.2755 -0.0855  0.1413
 1135SOL    HW114867   1.361   2.335  17.420  0.7757  2.9817  0.3945
 1135SOL    HW214868   1.327   2.312  17.566  1.0350 -0.5334 -0.6323
 1136SOL     OW14869   4.188   0.909  15.310 -0.6080  0.2349 -0.0378
 1136SOL    HW114870   4.217   0.877  15.396 -0.2301 -0.0359 -0.2666
 1136SOL    HW214871   4.139   0.986  15.340 -0.7831  0.8042 -1.8172
 1137SOL     OW14872   0.521   2.726  13.127  0.3265 -0.2250  0.1657
 1137SOL    HW114873   0.534   2.632  13.141 -0.1759 -0.1280  1.3686
 1137SOL    HW214874   0.561   2.749  13.044  0.9091  0.9926  0.7787
 1138SOL     OW14875   3.668   1.722   4.210  0.0866  0.6251  0.3121
 1138SOL    HW114876   3.665   1.698   4.303 -0.6532 -1.7670 -0.3212
 1138SOL    HW214877   3.599   1.788   4.199  0.7535  1.4422  1.0034
 1139SOL     OW14878   0.790   2.364   4.453 -0.4869 -0.1260  0.1958
 1139SOL    HW114879   0.778   2.332   4.542 -1.0270 -1.2810 -0.2860
 1139SOL    HW214880   0.730   2.439   4.455  1.4301  1.3598  1.4321
 1140SOL     OW14881   3.606   2.909   4.277 -0.0778  0.3256  0.3057
 1140SOL    HW114882   3.582   2.989   4.323 -0.2240 -0.4725  1.6234
 1140SOL    HW214883   3.538   2.851   4.312  1.3435 -1.0450  0.7811
 1141SOL     OW14884   1.796   0.389   7.211  0.0977 -0.0348  0.5869
 1141SOL    HW114885   1.824   0.301   7.237  0.4081 -0.4894 -1.3265
 1141SOL    HW214886   1.862   0.445   7.251 -0.0587  0.0508  0.7274
 1142SOL     OW14887   2.902   2.727  12.657  0.6200 -0.5646 -0.0611
 1142SOL    HW114888   2.854   2.735  12.739  0.1323 -0.8071 -0.3201
 1142SOL    HW214889   2.977   2.675  12.687  0.2932  0.2951  2.2411
 1143SOL     OW14890   1.506   1.528  12.229 -0.3574 -0.7680 -0.0505
 1143SOL    HW114891   1.493   1.610  12.277 -0.8337 -0.4532 -0.7109
 1143SOL    HW214892   1.593   1.500  12.257  0.5942  2.0133 -0.2222
 1144SOL     OW14893   2.794   3.606   4.737  0.1914  0.4148 -0.2807
 1144SOL    HW114894   2.828   3.689   4.703  1.5015  1.3094  3.1522
 1144SOL    HW214895   2.733   3.644   4.801  1.2057  0.6117  0.5738
 1145SOL     OW14896   1.587   1.903   2.669  0.1751 -0.8035  0.1120
 1145SOL    HW114897   1.540   1.895   2.752 -2.9634  1.4038 -1.4554
 1145SOL    HW214898   1.677   1.922   2.697  0.8397 -1.4060 -1.6574
 1146SOL     OW14899   1.207   2.766   3.982 -0.1596 -0.1521 -0.1203
 1146SOL    HW114900   1.300   2.784   3.991  0.4013 -2.6735 -0.9697
 1146SOL    HW214901   1.187   2.792   3.892 -2.1738 -0.7285  0.1554
 1147SOL     OW14902   0.874   0.236   1.479 -0.0460 -0.2803 -0.3645
 1147SOL    HW114903   0.812   0.192   1.537  1.4433  0.5938  1.8632
 1147SOL    HW214904   0.859   0.183   1.400  0.3380 -1.3186  0.2595
 1148SOL     OW14905   3.980   4.501   8.683  0.2069  0.2735  0.2505
 1148SOL    HW114906   4.030   4.580   8.668  0.2808  0.1884  0.0544
 1148SOL    HW214907   3.944   4.519   8.770 -0.7420 -0.4768  0.0130
 1149SOL     OW14908   4.627   4.448   6.286  0.2376  0.4709  0.5722
 1149SOL    HW114909   4.688   4.386   6.326  0.7715  0.5461 -0.1308
 1149SOL    HW214910   4.677   4.466   6.206 -0.7212  0.5993  0.0042
 1150SOL     OW14911   2.544   4.406   2.882  0.6348  0.5016 -0.4116
 1150SOL    HW114912   2.559   4.442   2.794 -2.9284 -3.7981 -2.8016
 1150SOL    HW214913   2.572   4.315   2.876 -1.6663 -0.1980 -0.4860
 1151SOL     OW14914   1.411   1.761   7.111  0.1473  0.1934 -0.3232
 1151SOL    HW114915   1.321   1.773   7.080 -0.3535 -3.2730 -0.1373
 1151SOL    HW214916   1.399   1.790   7.202 -0.9261  1.0128 -0.7280
 1152SOL     OW14917   0.606   0.055   9.445 -0.3863 -0.0659 -0.0960
 1152SOL    HW114918   0.596   0.096   9.530  0.3140  0.3037 -0.1895
 1152SOL    HW214919   0.695   0.085   9.423  0.2139 -1.5766  0.2592
 1153SOL     OW14920   0.214   3.330   6.727 -0.0644  0.1453 -0.2448
 1153SOL    HW114921   0.124   3.306   6.707 -0.0909  1.9286 -2.2550
 1153SOL    HW214922   0.260   3.279   6.661  1.2063 -0.5970  1.2120
 1154SOL     OW14923   1.859   2.428   7.915 -0.6393  0.0622  0.2090
 1154SOL    HW114924   1.878   2.517   7.885  1.6156 -0.8789 -1.1679
 1154SOL    HW214925   1.942   2.384   7.898 -0.5858  0.7414 -1.2864
 1155SOL     OW14926   0.047   0.382   2.686 -0.3307 -0.1145  0.3406
 1155SOL    HW114927   0.029   0.305   2.632  0.8310  0.0934 -0.3441
 1155SOL    HW214928   0.138   0.380   2.714 -0.6494  0.5587  1.4168
 1156SOL     OW14929   1.456   3.922   3.017  0.0738  0.5508  0.1273
 1156SOL    HW114930   1.456   3.972   3.099 -3.1759 -1.2466  1.2410
 1156SOL    HW214931   1.363   3.898   3.010  0.3118 -0.3890  0.1885
 1157SOL     OW14932   4.621   2.808   4.919  0.0092  0.4217 -0.0894
 1157SOL    HW114933   4.603   2.802   5.013  1.7464 -0.1090  0.2041
 1157SOL    HW214934   4.692   2.872   4.913 -0.0800  0.5235 -0.0670
 1158SOL     OW14935   2.214   3.455  14.280 -0.5122 -0.0744 -0.0286
 1158SOL    HW114936   2.175   3.407  14.206 -1.3762 -2.8151  2.2166
 1158SOL    HW214937   2.198   3.388  14.346  0.2389  1.7199  1.9759
 1159SOL     OW14938   2.729   0.354   3.560 -0.4070 -0.1772  0.1739
 1159SOL    HW114939   2.808   0.301   3.565  1.1883  2.0615 -1.2634
 1159SOL    HW214940   2.685   0.308   3.489 -1.6607  2.2917 -0.6606
 1160SOL     OW14941   0.815   1.251  12.463  0.3181 -0.2871 -0.5861
 1160SOL    HW114942   0.910   1.245  12.460  0.3575 -0.3054  0.6620
 1160SOL    HW214943   0.809   1.345  12.481  0.1133 -0.1044 -1.6420
 1161SOL     OW14944   0.646   2.788  16.018  0.0161 -0.4470 -0.2034
 1161SOL    HW114945   0.631   2.742  15.936  0.0175  0.1009 -0.5082
 1161SOL    HW214946   0.679   2.873  15.989  1.0035  0.0149  2.2782
 1162SOL     OW14947   0.676   0.981   2.814 -0.3815 -0.1509 -0.1011
 1162SOL    HW114948   0.739   1.033   2.864  0.6721  0.3727 -1.9649
 1162SOL    HW214949   0.729   0.934   2.750  0.3035  2.4688 -1.4551
 1163SOL     OW14950   3.862   1.822   2.382  0.4740 -0.8731  0.1513
 1163SOL    HW114951   3.889   1.900   2.430  2.8180 -2.0591  0.7355
 1163SOL    HW214952   3.943   1.771   2.383  1.3264  0.4883  0.8256
 1164SOL     OW14953   1.552   0.046  15.604 -0.1978 -0.2817 -0.2762
 1164SOL    HW114954   1.622   4.704  15.596  1.1029  0.9568  1.1288
 1164SOL    HW214955   1.555   0.070  15.696  0.0092  0.6583 -0.5306
 1165SOL     OW14956   2.761   4.256  16.749  0.5859 -0.1351  0.0351
 1165SOL    HW114957   2.795   4.343  16.726 -0.8465  0.7178  1.1346
 1165SOL    HW214958   2.809   4.214  16.678 -0.9423 -1.6608 -0.0935
 1166SOL     OW14959   2.377   3.403  14.842 -0.1407  0.0582 -0.8020
 1166SOL    HW114960   2.370   3.382  14.749  1.9455  1.0726 -1.2028
 1166SOL    HW214961   2.319   3.479  14.844  0.6290  0.6216  0.6504
 1167SOL     OW14962   4.317   3.286   9.256  0.5792  0.0722  0.2810
 1167SOL    HW114963   4.331   3.320   9.168  2.2415 -0.3616  0.3745
 1167SOL    HW214964   4.290   3.195   9.243  0.4326  0.1394  0.1045
 1168SOL     OW14965   0.185   0.834   6.242  0.2751  0.2693 -0.4373
 1168SOL    HW114966   0.250   0.777   6.283 -1.2528 -1.5873 -0.5677
 1168SOL    HW214967   0.219   0.840   6.153  0.2201  1.0815 -0.4032
 1169SOL     OW14968   1.317   3.256   6.590  0.6348 -0.1139 -0.3179
 1169SOL    HW114969   1.270   3.172   6.588 -1.7572  1.1975  0.1555
 1169SOL    HW214970   1.248   3.299   6.539  1.0409 -0.4258 -1.1174
 1170SOL     OW14971   4.130   1.771  17.206  0.3094  0.3974  0.2766
 1170SOL    HW114972   4.067   1.805  17.143 -0.3470  3.0759  2.3827
 1170SOL    HW214973   4.206   1.790  17.150  0.3294  0.2303  0.2470
 1171SOL     OW14974   2.825   2.865   2.825 -0.2753 -0.0213  0.3941
 1171SOL    HW114975   2.859   2.814   2.751 -0.4136  2.7041 -1.5177
 1171SOL    HW214976   2.895   2.929   2.827  0.2707 -0.6572  1.9140
 1172SOL     OW14977   3.320   3.224  10.827 -0.4846  0.3866 -0.0601
 1172SOL    HW114978   3.380   3.297  10.833 -1.9556  1.6742 -1.0103
 1172SOL    HW214979   3.333   3.200  10.735 -0.6988  0.9252 -0.2326
 1173SOL     OW14980   0.653   4.068  11.357  0.3373 -0.1351 -0.7185
 1173SOL    HW114981   0.663   4.162  11.372  1.0191 -0.2449 -0.4654
 1173SOL    HW214982   0.640   4.053  11.263 -1.6098  0.5166 -0.5538
 1174SOL     OW14983   4.107   4.546   4.784 -0.3258 -0.1384  0.1376
 1174SOL    HW114984   4.116   4.531   4.690  0.0829  0.8433  0.0142
 1174SOL    HW214985   4.079   4.638   4.781  0.0391 -0.1378 -2.8028
 1175SOL     OW14986   3.053   0.900  16.886  0.2591  0.0343  0.0242
 1175SOL    HW114987   3.043   0.819  16.937  0.6549  0.3614  0.6315
 1175SOL    HW214988   2.961   0.913  16.864  0.0392 -0.0800  0.8555
 1176SOL     OW14989   3.875   0.811  15.458 -0.0274 -0.5399 -0.4739
 1176SOL    HW114990   3.821   0.888  15.439  0.4498 -0.1748 -0.3279
 1176SOL    HW214991   3.852   0.771  15.374 -1.0593 -0.5253 -0.2041
 1177SOL     OW14992   2.037   3.522  15.978  0.5444  0.7362 -0.1702
 1177SOL    HW114993   2.049   3.432  16.010 -1.5212  0.4307 -0.2574
 1177SOL    HW214994   2.035   3.509  15.883  1.6428  1.8059 -0.3389
 1178SOL     OW14995   4.521   0.454   8.610  0.0656  0.3502 -0.0988
 1178SOL    HW114996   4.522   0.365   8.576  1.1346  0.2356  0.2377
 1178SOL    HW214997   4.447   0.438   8.670  0.0373 -0.5797 -0.3838
 1179SOL     OW14998   3.468   2.316   6.091  0.1129  0.2081 -0.3038
 1179SOL    HW114999   3.561   2.339   6.092  0.2172 -0.0739 -2.3402
 1179SOL    HW215000   3.469   2.234   6.140  1.1281 -0.9282 -2.2112
 1180SOL     OW15001   0.950   2.709   2.130 -0.1406 -0.2546  0.3449
 1180SOL    HW115002   1.013   2.777   2.154 -0.6282  1.0050 -1.9025
 1180SOL    HW215003   1.002   2.640   2.087 -1.3485 -0.0943 -1.3520
 1181SOL     OW15004   4.589   3.356  12.436  0.3629  0.4818  0.2273
 1181SOL    HW115005   4.664   3.403  12.399  0.3813 -2.0700 -3.0731
 1181SOL    HW215006   4.619   3.347  12.526  3.4847  0.4901 -0.8077
 1182SOL     OW15007   3.255   3.276   7.284 -0.3507 -0.3964  0.0530
 1182SOL    HW115008   3.311   3.201   7.265 -1.3135 -1.0820 -0.0853
 1182SOL    HW215009   3.174   3.227   7.273 -1.2440  1.5721 -2.1607
 1183SOL     OW15010   3.787   2.716   7.791  0.0473 -0.2404 -0.0317
 1183SOL    HW115011   3.839   2.666   7.853  1.3349  2.2352  0.9016
 1183SOL    HW215012   3.764   2.789   7.848 -1.7381  0.6090 -1.8363
 1184SOL     OW15013   4.057   3.020   6.191  0.3219  0.1532  0.6062
 1184SOL    HW115014   3.993   2.980   6.131  0.0014  3.1452 -1.0184
 1184SOL    HW215015   4.096   2.942   6.231  1.6162  0.6806  0.3708
 1185SOL     OW15016   4.441   0.517   6.922  0.3505 -0.1084  1.0828
 1185SOL    HW115017   4.418   0.606   6.895  0.4374 -0.3296  0.2796
 1185SOL    HW215018   4.535   0.509   6.905  0.1219 -0.9436  0.2219
 1186SOL     OW15019   0.767   0.037  11.413  0.0883 -0.2551  0.0161
 1186SOL    HW115020   0.854   0.007  11.437  0.7287  0.8592 -0.8996
 1186SOL    HW215021   0.783   0.132  11.415 -1.2979 -0.0266  0.0804
 1187SOL     OW15022   3.787   3.905  14.897 -0.7023  0.3272 -0.8995
 1187SOL    HW115023   3.811   3.830  14.843 -1.4314  0.1824 -1.0207
 1187SOL    HW215024   3.701   3.926  14.861 -0.4895  0.1647 -1.5062
 1188SOL     OW15025   2.831   1.385   4.343  0.1218 -0.3600  0.2613
 1188SOL    HW115026   2.868   1.433   4.418 -0.1678 -0.5841  0.5428
 1188SOL    HW215027   2.779   1.458   4.310  2.1111  0.8757 -0.1621
 1189SOL     OW15028   0.189   2.450   4.906  0.8286 -0.1579 -0.7566
 1189SOL    HW115029   0.121   2.490   4.851  0.0636 -0.0078  0.2971
 1189SOL    HW215030   0.207   2.372   4.854 -0.5777  0.2757 -1.9025
 1190SOL     OW15031   1.884   1.059   2.509 -0.1733 -0.1002  0.1436
 1190SOL    HW115032   1.953   1.028   2.567  1.8706 -1.3476 -3.0003
 1190SOL    HW215033   1.817   1.075   2.576 -0.3065  0.5779 -0.1518
 1191SOL     OW15034   0.058   4.323   8.134 -0.0247 -0.2861  0.1588
 1191SOL    HW115035   0.071   4.408   8.091 -3.9530 -0.6457 -1.7449
 1191SOL    HW215036   0.008   4.352   8.210  0.9901  0.8733  0.3986
 1192SOL     OW15037   1.663   3.886  11.496 -0.0955  0.4309  0.6786
 1192SOL    HW115038   1.673   3.820  11.565 -0.8264  1.2004  1.5183
 1192SOL    HW215039   1.698   3.962  11.543 -2.0225  0.1792  2.4848
 1193SOL     OW15040   0.180   4.722   5.552  0.2617  0.2597  0.0123
 1193SOL    HW115041   0.270   4.710   5.521  0.8485  1.3551  1.2877
 1193SOL    HW215042   0.152   0.065   5.488  1.6908 -0.2576 -1.1372
 1194SOL     OW15043   0.163   0.984   5.167  1.1194  0.1368 -0.5788
 1194SOL    HW115044   0.243   0.952   5.209  1.0012  0.1494 -0.3483
 1194SOL    HW215045   0.176   0.954   5.077 -1.6643  4.0867 -2.3083
 1195SOL     OW15046   1.410   1.123  14.729  0.1029 -0.2981 -0.1812
 1195SOL    HW115047   1.324   1.080  14.728  0.0604 -0.2320  0.9858
 1195SOL    HW215048   1.441   1.104  14.640 -2.1278 -0.8313 -0.8423
 1196SOL     OW15049   0.016   4.176   5.142  0.3322 -0.0931 -0.0969
 1196SOL    HW115050   0.054   4.095   5.108  0.6185 -0.5190  1.2142
 1196SOL    HW215051   0.074   4.243   5.107  0.8570 -0.2859  0.4162
 1197SOL     OW15052   1.067   4.651  11.899  0.7880  0.0107  0.0886
 1197SOL    HW115053   1.038   4.561  11.919  1.6906 -0.2412  0.2388
 1197SOL    HW215054   0.987   4.701  11.884 -0.6651 -2.5057 -0.7058
 1198SOL     OW15055   3.955   2.655   5.659  0.7145 -0.0927 -0.9148
 1198SOL    HW115056   4.013   2.706   5.602  0.2964  0.9050 -0.4549
 1198SOL    HW215057   3.986   2.566   5.641  0.4785 -0.6325  1.3453
 1199SOL     OW15058   0.096   4.361   6.055  0.5882 -0.1526 -0.2285
 1199SOL    HW115059   0.159   4.347   5.985 -2.3478 -1.1584 -2.6522
 1199SOL    HW215060   0.062   4.449   6.038  1.0560  0.3165  1.2390
 1200SOL     OW15061   3.341   2.220   3.529  0.0616 -0.4812 -0.1606
 1200SOL    HW115062   3.437   2.225   3.521  0.2257 -2.0142  0.9855
 1200SOL    HW215063   3.330   2.144   3.472 -1.2840  1.2185 -2.1985
 1201SOL     OW15064   0.372   1.008  15.848 -0.1987 -0.3409 -0.1569
 1201SOL    HW115065   0.287   0.987  15.887 -0.7558  0.6321 -0.8214
 1201SOL    HW215066   0.358   1.100  15.824 -0.9373 -0.4730 -0.2278
 1202SOL     OW15067   0.629   1.941  14.040 -0.4546  0.3226 -0.5202
 1202SOL    HW115068   0.699   1.883  14.009  1.1885  1.8570  0.3686
 1202SOL    HW215069   0.663   2.030  14.035  0.5541 -0.1138 -1.5384
 1203SOL     OW15070   3.080   2.865  16.784  0.3381 -0.1156 -0.3602
 1203SOL    HW115071   3.150   2.805  16.808 -1.7649 -1.3868  2.7352
 1203SOL    HW215072   3.026   2.816  16.722 -0.6388  1.3659 -0.6953
 1204SOL     OW15073   3.602   3.710   6.547 -0.5392 -0.0305  0.0980
 1204SOL    HW115074   3.689   3.669   6.541  1.4191  4.4536 -2.0533
 1204SOL    HW215075   3.605   3.746   6.636  3.5995  0.8449 -0.4064
 1205SOL     OW15076   0.469   0.368   4.304  0.0662  0.1621  0.1072
 1205SOL    HW115077   0.440   0.424   4.232  3.2307  2.0192  0.2833
 1205SOL    HW215078   0.499   0.292   4.255 -0.3461  0.3371 -0.4158
 1206SOL     OW15079   4.655   3.764  11.354 -0.0277 -0.1880 -0.0838
 1206SOL    HW115080   0.023   3.736  11.335  0.2548 -0.3274  1.4644
 1206SOL    HW215081   4.644   3.831  11.287  0.0195  0.5688  0.6568
 1207SOL     OW15082   4.439   0.366  11.297  0.2476  0.0827  0.0142
 1207SOL    HW115083   4.379   0.425  11.341  1.4767  0.9212  0.5495
 1207SOL    HW215084   4.522   0.394  11.335  0.6371 -1.0267 -0.0121
 1208SOL     OW15085   2.476   0.719   2.414  0.5446  0.0834  0.6172
 1208SOL    HW115086   2.392   0.736   2.457  0.7819 -0.3425  1.2416
 1208SOL    HW215087   2.462   0.759   2.328  0.3706  1.0668  1.0959
 1209SOL     OW15088   0.612   2.768   6.437 -0.2299 -0.3500  0.0773
 1209SOL    HW115089   0.695   2.719   6.435 -0.7538 -1.3094  1.2938
 1209SOL    HW215090   0.576   2.754   6.525  1.6501 -1.1047  0.7314
 1210SOL     OW15091   0.169   2.606   7.858  0.4257  0.0407  0.6280
 1210SOL    HW115092   0.212   2.576   7.938 -2.7400 -1.4937  1.7586
 1210SOL    HW215093   0.116   2.677   7.895  1.8779  2.3717 -1.7229
 1211SOL     OW15094   1.964   1.781   6.715 -0.0886  0.1466 -0.0094
 1211SOL    HW115095   2.058   1.790   6.733 -0.2292 -0.4174  0.9981
 1211SOL    HW215096   1.931   1.847   6.775  0.6080  1.1183 -0.6794
 1212SOL     OW15097   2.890   0.470   4.169 -0.3040 -0.0601  0.3489
 1212SOL    HW115098   2.948   0.544   4.155  0.1293 -0.6844 -1.1361
 1212SOL    HW215099   2.853   0.469   4.081 -0.4702 -0.9395  0.4220
 1213SOL     OW15100   3.374   4.527  13.873 -0.0801  0.1707 -0.4645
 1213SOL    HW115101   3.363   4.622  13.871 -0.3101  0.2008  2.3867
 1213SOL    HW215102   3.348   4.508  13.963  0.2359 -1.8844 -0.8117
 1214SOL     OW15103   1.606   1.083   0.173 -0.1571  0.4851 -0.1373
 1214SOL    HW115104   1.634   0.994   0.194 -0.7358  0.4884  0.6702
 1214SOL    HW215105   1.648   1.137   0.240 -0.7665  0.6917  0.0827
 1215SOL     OW15106   0.853   4.080  17.201  0.1479 -0.0419  0.3892
 1215SOL    HW115107   0.759   4.095  17.207 -0.1753 -1.1734 -1.9129
 1215SOL    HW215108   0.858   4.041  17.114  0.5137  2.8841 -0.8851
 1216SOL     OW15109   0.342   1.388   9.048  0.6082 -0.5167  0.0649
 1216SOL    HW115110   0.252   1.378   9.016  0.7223 -0.4147 -0.2836
 1216SOL    HW215111   0.378   1.433   8.971 -3.0598  0.6668 -0.9648
 1217SOL     OW15112   3.368   3.807  17.246  0.3628  0.4735  0.1894
 1217SOL    HW115113   3.312   3.792  17.322  0.9322 -1.5458  0.2258
 1217SOL    HW215114   3.312   3.766  17.179 -0.9454  2.9917 -0.2496
 1218SOL     OW15115   0.941   2.441   2.870 -0.0282 -0.8593 -0.2360
 1218SOL    HW115116   1.034   2.440   2.848 -0.7176  0.6583 -3.1162
 1218SOL    HW215117   0.912   2.525   2.835 -1.2430 -0.8164  0.8881
 1219SOL     OW15118   4.254   2.090   6.236 -0.4187  0.2244 -0.6140
 1219SOL    HW115119   4.272   2.158   6.301 -0.2003 -0.7088  0.3051
 1219SOL    HW215120   4.187   2.136   6.186 -1.4573 -1.8356 -1.1018
 1220SOL     OW15121   2.601   2.618  14.890  0.3001 -0.0118 -0.1996
 1220SOL    HW115122   2.649   2.634  14.971 -1.1974  0.7690  0.5494
 1220SOL    HW215123   2.530   2.683  14.897  0.7621  0.8912 -4.0310
 1221SOL     OW15124   0.621   2.866  10.781 -0.1131  0.1598 -0.2755
 1221SOL    HW115125   0.667   2.942  10.745  1.8183 -0.3667  1.1011
 1221SOL    HW215126   0.687   2.839  10.844 -1.1763  0.0801  0.8112
 1222SOL     OW15127   3.036   3.208   5.277  0.2593  0.5836  0.2905
 1222SOL    HW115128   3.114   3.218   5.331 -0.8721  0.1495  1.9998
 1222SOL    HW215129   3.000   3.296   5.275  0.5031  0.6479 -1.4050
 1223SOL     OW15130   2.148   3.193   9.124  0.1764 -0.0200 -0.1952
 1223SOL    HW115131   2.226   3.247   9.130 -0.3352  0.3455  3.2058
 1223SOL    HW215132   2.153   3.152   9.037  0.8102  1.1123 -0.6835
 1224SOL     OW15133   2.237   2.047  11.353  0.1358  0.1148  0.4273
 1224SOL    HW115134   2.240   1.952  11.345  1.0195  0.1585  0.2887
 1224SOL    HW215135   2.254   2.064  11.446  1.1531  0.1706  0.2240
 1225SOL     OW15136   3.920   1.870   6.254 -0.2263  0.4671  0.3637
 1225SOL    HW115137   3.943   1.904   6.167 -0.5533  0.0203  0.1010
 1225SOL    HW215138   3.996   1.812   6.261 -0.0587  0.7354  0.7407
 1226SOL     OW15139   4.321   4.330  14.199  0.0911  0.0677 -0.0643
 1226SOL    HW115140   4.331   4.373  14.284 -1.3781 -1.9848  1.1461
 1226SOL    HW215141   4.410   4.347  14.168 -0.0647  0.7316 -0.1484
 1227SOL     OW15142   0.444   1.559   1.006  0.4454 -0.1866  0.3177
 1227SOL    HW115143   0.390   1.489   1.044  1.4089 -0.6276  0.8522
 1227SOL    HW215144   0.378   1.623   0.979 -0.6345 -2.2349 -1.9292
 1228SOL     OW15145   2.948   1.148   3.146  0.2312  0.2328 -0.1401
 1228SOL    HW115146   3.035   1.188   3.137 -0.1704  1.1718  0.1966
 1228SOL    HW215147   2.907   1.226   3.182  0.0718  0.9155 -1.7810
 1229SOL     OW15148   0.941   0.617   9.985 -0.4008  0.4717  0.1726
 1229SOL    HW115149   0.942   0.590  10.077  0.8906  0.4609  0.1628
 1229SOL    HW215150   0.872   0.557   9.957  0.4600 -0.2899 -0.3354
 1230SOL     OW15151   3.596   0.583   6.909  0.1200  0.2564 -0.1596
 1230SOL    HW115152   3.641   0.639   6.846 -0.8363  1.6440  0.3941
 1230SOL    HW215153   3.658   0.513   6.931 -1.4873 -1.3186 -0.6828
 1231SOL     OW15154   2.977   4.160   3.410  0.5048 -0.2369 -0.2764
 1231SOL    HW115155   2.964   4.165   3.505 -1.4714 -0.7177 -0.5087
 1231SOL    HW215156   2.940   4.243   3.381 -0.7673 -1.2358 -1.4839
 1232SOL     OW15157   0.665   1.025   8.771 -0.2385  0.4506 -0.1347
 1232SOL    HW115158   0.644   0.964   8.841  1.9170  2.8573  2.6024
 1232SOL    HW215159   0.760   1.033   8.776 -0.2038 -0.0090 -0.1297
 1233SOL     OW15160   2.781   2.431   7.849 -0.1069  0.2325 -0.2174
 1233SOL    HW115161   2.713   2.467   7.906  0.1059  0.5957 -0.1922
 1233SOL    HW215162   2.793   2.506   7.790 -0.5296 -0.8097 -1.6474
 1234SOL     OW15163   3.756   3.841   4.134  0.2198  0.6950 -0.7889
 1234SOL    HW115164   3.715   3.758   4.154  2.1873  0.2427  1.4006
 1234SOL    HW215165   3.763   3.891   4.215 -0.5624 -0.0548 -0.2685
 1235SOL     OW15166   3.368   0.085   4.923  0.1528 -0.1529  0.0239
 1235SOL    HW115167   3.433   0.062   4.988  1.1905 -0.4774 -1.1236
 1235SOL    HW215168   3.373   0.006   4.869  0.8410 -0.7101  0.9175
 1236SOL     OW15169   2.034   1.018  12.714  0.6321 -0.0868  0.2917
 1236SOL    HW115170   2.112   1.072  12.728  0.1724  1.0567 -1.5988
 1236SOL    HW215171   2.059   0.995  12.625 -1.4871 -2.9652  0.4552
 1237SOL     OW15172   0.132   0.022   9.072 -0.4155 -0.2523  0.0584
 1237SOL    HW115173   0.178   0.059   9.148 -1.2457  0.2495  0.3184
 1237SOL    HW215174   0.130   0.098   9.013 -0.2394  1.2586  1.9779
 1238SOL     OW15175   3.098   2.381   2.281  0.0791 -0.2111 -0.2250
 1238SOL    HW115176   3.159   2.451   2.304 -0.1388 -1.0363  2.9610
 1238SOL    HW215177   3.157   2.305   2.280 -1.4077 -1.4205  2.2674
 1239SOL     OW15178   0.262   4.556   3.112  0.6958 -0.4905  0.4825
 1239SOL    HW115179   0.176   4.520   3.136  0.4937  0.5918  1.3998
 1239SOL    HW215180   0.246   4.555   3.018  2.0651 -0.6989  0.2569
 1240SOL     OW15181   2.376   1.133   3.745 -0.0461  0.0650  0.2873
 1240SOL    HW115182   2.389   1.131   3.840  0.2363  1.7467  0.2840
 1240SOL    HW215183   2.446   1.077   3.710 -0.0501 -1.1746  2.2620
 1241SOL     OW15184   3.439   4.577   2.563  0.5375 -0.1471  0.1854
 1241SOL    HW115185   3.500   4.557   2.634  0.9538  2.6472  0.5795
 1241SOL    HW215186   3.414   4.486   2.543 -1.2946  0.4509 -0.2312
 1242SOL     OW15187   3.549   0.282   8.390 -0.5645 -0.1009 -0.1166
 1242SOL    HW115188   3.466   0.321   8.365  0.9107  1.6204 -2.3652
 1242SOL    HW215189   3.536   0.199   8.345  2.3071 -0.4480 -0.3127
 1243SOL     OW15190   0.932   3.293   1.068  0.2299 -0.2613 -0.5306
 1243SOL    HW115191   0.999   3.355   1.038 -1.3653  1.2126 -1.0320
 1243SOL    HW215192   0.953   3.213   1.020  0.8698  1.5197 -3.1993
 1244SOL     OW15193   1.549   3.887   9.316  0.3454 -0.3517  0.0648
 1244SOL    HW115194   1.516   3.951   9.379  0.3253  0.2728 -0.5853
 1244SOL    HW215195   1.641   3.877   9.339  0.0475  1.1439  1.9123
 1245SOL     OW15196   4.400   2.848  11.533  0.0872  0.3392 -0.0660
 1245SOL    HW115197   4.353   2.768  11.558 -1.2050  1.2363  0.3571
 1245SOL    HW215198   4.364   2.906  11.600 -0.2151  1.8326 -1.5152
 1246SOL     OW15199   3.296   0.903  12.712  0.2682  0.0950 -0.1397
 1246SOL    HW115200   3.337   0.983  12.679  2.5813 -0.1936  2.0335
 1246SOL    HW215201   3.262   0.947  12.790 -1.0469 -0.3694 -0.4574
 1247SOL     OW15202   3.389   2.157   9.110  0.4730 -0.4591  0.3666
 1247SOL    HW115203   3.404   2.065   9.129 -1.0447 -0.9109 -0.7093
 1247SOL    HW215204   3.375   2.156   9.015  0.6353 -1.8526  0.3602
 1248SOL     OW15205   0.459   2.193   6.577 -0.5119  0.2321  0.0748
 1248SOL    HW115206   0.398   2.258   6.613 -0.2695  1.1176 -1.1297
 1248SOL    HW215207   0.537   2.247   6.567 -0.8540  0.7395  0.1410
 1249SOL     OW15208   0.501   2.072   3.400  0.0720 -0.7470 -0.6833
 1249SOL    HW115209   0.445   2.060   3.477  2.0638 -0.3508  0.8641
 1249SOL    HW215210   0.542   2.157   3.419 -0.9810 -0.4454  0.2479
 1250SOL     OW15211   0.006   2.692   2.981 -0.4766  0.1369  0.0354
 1250SOL    HW115212   4.658   2.736   3.029  1.5241 -0.0254  3.1008
 1250SOL    HW215213   4.681   2.697   2.898 -0.5606  3.6450  0.2790
 1251SOL     OW15214   1.685   1.533   6.938 -0.1447 -0.8185 -0.3917
 1251SOL    HW115215   1.751   1.495   6.996  1.0662  1.6674 -0.1495
 1251SOL    HW215216   1.686   1.628   6.946  0.1600 -0.9051  0.5920
 1252SOL     OW15217   0.785   1.437   6.330 -0.4992 -0.5283 -0.0046
 1252SOL    HW115218   0.717   1.408   6.390 -1.3182  3.5196  0.9764
 1252SOL    HW215219   0.768   1.527   6.303  2.6230 -0.0713 -0.4853
 1253SOL     OW15220   3.973   4.570  11.769  0.3573  0.0566  0.5421
 1253SOL    HW115221   3.940   4.653  11.804  1.8753  0.2853  1.4128
 1253SOL    HW215222   3.946   4.577  11.677  2.1764  0.3342  0.0461
 1254SOL     OW15223   4.640   4.700   0.125 -0.3458  0.2386  0.7798
 1254SOL    HW115224   4.636   4.630   0.190  0.6806  0.0743  0.6588
 1254SOL    HW215225   4.552   4.694   0.088 -0.2022  2.2129  0.1251
 1255SOL     OW15226   1.609   0.036   6.848  0.2372 -0.1440  0.3065
 1255SOL    HW115227   1.655   0.029   6.932 -0.3549 -0.0684  0.6374
 1255SOL    HW215228   1.527   4.711   6.858 -2.0455  4.3446  2.7092
 1256SOL     OW15229   4.488   1.993  16.655 -0.6843  0.1910 -0.1658
 1256SOL    HW115230   4.550   1.924  16.632  2.4474  2.1950  2.3501
 1256SOL    HW215231   4.418   1.962  16.597  0.2636  0.6296 -1.5359
 1257SOL     OW15232   1.086   0.947  14.307 -0.2445  0.1636  0.4896
 1257SOL    HW115233   1.108   1.031  14.347 -0.2834  0.3292  0.1603
 1257SOL    HW215234   1.133   0.889  14.368 -0.1872 -0.9071 -0.5705
 1258SOL     OW15235   2.299   3.408   1.252  0.4595  0.0976 -0.8423
 1258SOL    HW115236   2.258   3.492   1.232 -2.5595 -0.3984  3.1881
 1258SOL    HW215237   2.390   3.425   1.226  0.1683  0.3176 -1.7236
 1259SOL     OW15238   3.565   0.067   6.991  0.2994 -0.1912 -0.5714
 1259SOL    HW115239   3.494   0.118   6.953 -1.5201 -1.8240  0.6267
 1259SOL    HW215240   3.571   0.105   7.078  0.2889 -0.6295 -0.3767
 1260SOL     OW15241   1.973   2.001   8.729 -0.1761  0.7553  0.4430
 1260SOL    HW115242   2.036   1.975   8.797  0.9408  1.4444 -0.3146
 1260SOL    HW215243   1.903   2.054   8.767 -0.8028  1.1265 -1.2276
 1261SOL     OW15244   2.775   4.578   7.287  0.2737 -0.0400 -0.4040
 1261SOL    HW115245   2.759   4.557   7.195  0.8023  1.5642 -0.8533
 1261SOL    HW215246   2.710   4.523   7.330 -1.8256  3.0883  0.4435
 1262SOL     OW15247   0.271   2.867   3.896 -0.0562  0.8277 -0.2083
 1262SOL    HW115248   0.324   2.788   3.885 -1.7705 -0.1598 -1.3951
 1262SOL    HW215249   0.328   2.933   3.855 -0.2550 -0.7738 -3.0406
 1263SOL     OW15250   0.150   0.238   8.846 -0.1793 -0.4571  0.7053
 1263SOL    HW115251   0.062   0.218   8.815 -0.0637 -0.0217  0.0911
 1263SOL    HW215252   0.174   0.314   8.793 -1.5894 -0.8895 -0.5443
 1264SOL     OW15253   4.519   0.109   0.848 -0.2195  0.7635  0.7651
 1264SOL    HW115254   4.513   0.045   0.777 -2.9074  0.9548  0.8017
 1264SOL    HW215255   4.577   0.063   0.908  0.7796  2.4536  1.0774
 1265SOL     OW15256   2.991   0.642   6.085 -0.1593  0.5279 -0.0592
 1265SOL    HW115257   2.941   0.722   6.106 -0.5212  0.4973 -0.8073
 1265SOL    HW215258   2.971   0.590   6.163 -1.3257 -1.7353 -1.8804
 1266SOL     OW15259   1.299   3.228   3.042  0.2421  0.1690 -0.2122
 1266SOL    HW115260   1.332   3.164   3.106 -1.4283  1.2884  1.7779
 1266SOL    HW215261   1.377   3.253   2.992  1.2399  0.5404  1.5093
 1267SOL     OW15262   1.528   2.777   1.846  0.4059  0.2254  0.0757
 1267SOL    HW115263   1.474   2.700   1.865  1.5039  0.2599  3.2986
 1267SOL    HW215264   1.552   2.806   1.934  3.0837  0.0077 -0.5961
 1268SOL     OW15265   1.902   3.054  10.176  0.2003 -0.5094 -0.5956
 1268SOL    HW115266   1.900   3.041  10.271  0.1651  0.2423 -0.4986
 1268SOL    HW215267   1.813   3.088  10.168  0.6404  0.5467 -0.8784
 1269SOL     OW15268   1.770   1.919  14.077 -0.1558  0.4518 -0.4684
 1269SOL    HW115269   1.801   2.004  14.046  0.7622  0.0568 -0.6358
 1269SOL    HW215270   1.841   1.909  14.140  1.6826  0.0377 -2.5911
 1270SOL     OW15271   3.084   3.670  17.113 -0.2177 -0.0967 -0.1335
 1270SOL    HW115272   3.107   3.586  17.074 -0.5125 -0.6530  0.8848
 1270SOL    HW215273   3.067   3.719  17.033 -1.1171 -0.1119  0.0502
 1271SOL     OW15274   2.973   3.986  17.069 -0.5139  0.9586  0.4885
 1271SOL    HW115275   2.949   3.913  17.013  1.6441 -0.1910  1.0812
 1271SOL    HW215276   3.007   3.941  17.146 -2.5896 -1.7569 -0.1994
 1272SOL     OW15277   3.330   1.076   7.314 -0.1724  0.1689  0.7079
 1272SOL    HW115278   3.270   1.109   7.246  0.2022 -1.0742 -0.2302
 1272SOL    HW215279   3.342   0.988   7.279  0.0818  0.7899 -0.7941
 1273SOL     OW15280   0.531   1.681   7.257 -0.2578 -0.3069 -0.2299
 1273SOL    HW115281   0.485   1.634   7.326 -0.7253  1.3343  0.5779
 1273SOL    HW215282   0.565   1.759   7.300  2.8138 -1.9391  0.2559
 1274SOL     OW15283   0.028   2.771   3.317 -0.0095  0.1208  0.6606
 1274SOL    HW115284   0.087   2.749   3.245 -0.6286  1.7219 -0.3341
 1274SOL    HW215285   4.674   2.808   3.272 -0.7915  0.0620  1.9334
 1275SOL     OW15286   0.173   2.612  12.351 -0.3046 -0.5982 -0.2484
 1275SOL    HW115287   0.200   2.652  12.269 -4.3916 -1.5644 -2.0459
 1275SOL    HW215288   0.224   2.672  12.406 -0.3168 -1.1987  0.4247
 1276SOL     OW15289   2.253   2.866  10.403 -0.4104  0.4952  0.3136
 1276SOL    HW115290   2.243   2.955  10.435 -0.2605  0.3041  0.8957
 1276SOL    HW215291   2.314   2.839  10.472 -1.6341  0.8376  1.5173
 1277SOL     OW15292   3.851   4.113   7.064  0.0850  0.0774 -0.2096
 1277SOL    HW115293   3.908   4.067   7.126  0.8481  1.4486  0.1160
 1277SOL    HW215294   3.904   4.138   6.988 -1.0940  0.2489 -0.9792
 1278SOL     OW15295   3.063   4.636   3.258 -0.4723  0.4883 -0.0595
 1278SOL    HW115296   2.970   4.615   3.254 -0.4198  0.0346  1.3840
 1278SOL    HW215297   3.077   4.685   3.176  1.7444 -0.0708 -0.0248
 1279SOL     OW15298   4.565   3.377  11.811  0.2560  0.0248  0.0167
 1279SOL    HW115299   4.579   3.431  11.889  0.1120 -0.3570  0.3001
 1279SOL    HW215300   4.471   3.367  11.819 -0.0267  1.1657 -1.7951
 1280SOL     OW15301   2.364   1.425   8.954  0.5690 -0.5063 -0.5960
 1280SOL    HW115302   2.453   1.391   8.966  0.5610 -0.2618  0.1338
 1280SOL    HW215303   2.310   1.350   8.980  0.3802 -0.7158 -1.5571
 1281SOL     OW15304   1.287   4.247   6.486 -0.0954  0.1094 -0.0894
 1281SOL    HW115305   1.212   4.190   6.468 -0.5732  0.3821  1.0340
 1281SOL    HW215306   1.321   4.191   6.555  1.2451  1.0268 -0.0144
 1282SOL     OW15307   3.752   4.642   6.838 -0.1282  0.3791  0.0733
 1282SOL    HW115308   3.685   4.679   6.896 -0.8047  0.2584 -0.6380
 1282SOL    HW215309   3.734   4.674   6.750 -1.5660  2.2054  1.0140
 1283SOL     OW15310   0.939   3.031   0.172  0.1068 -0.1987 -0.6269
 1283SOL    HW115311   0.922   3.118   0.135  2.4893  0.8298  0.6973
 1283SOL    HW215312   0.854   2.996   0.145 -0.3085  0.3644 -0.0636
 1284SOL     OW15313   3.931   2.387   5.784 -0.0048 -0.4232  0.6562
 1284SOL    HW115314   3.852   2.376   5.731  0.7261  2.8057 -1.0925
 1284SOL    HW215315   3.890   2.423   5.863 -0.6478 -0.5973  0.3925
 1285SOL     OW15316   2.765   0.531   3.739  0.4628  0.3045 -0.2354
 1285SOL    HW115317   2.788   0.484   3.819 -0.7863  0.3227  0.1403
 1285SOL    HW215318   2.753   0.467   3.669 -1.4034 -1.2726  1.5223
 1286SOL     OW15319   4.303   1.143  12.160 -0.4569  0.0443  0.0280
 1286SOL    HW115320   4.257   1.199  12.098 -1.2400  0.1039  0.6559
 1286SOL    HW215321   4.312   1.062  12.109  2.5309  1.1981 -1.2829
 1287SOL     OW15322   4.316   1.587   1.373  0.3685  0.1700 -0.2880
 1287SOL    HW115323   4.298   1.508   1.322 -2.7068  0.5064  0.2803
 1287SOL    HW215324   4.406   1.572   1.402 -0.0550 -0.1358  0.8497
 1288SOL     OW15325   0.621   4.069   1.041 -0.2983 -0.1213 -0.5899
 1288SOL    HW115326   0.566   3.991   1.029  0.5075 -0.9648  1.2439
 1288SOL    HW215327   0.704   4.040   1.003  0.7297  2.3359 -0.2026
 1289SOL     OW15328   4.568   0.277   5.418  0.0292  0.0559  0.1339
 1289SOL    HW115329   4.559   0.331   5.496  1.3138  0.3350  0.0796
 1289SOL    HW215330   4.546   0.192   5.456 -0.0385  0.0758  0.1400
 1290SOL     OW15331   2.936   2.870   4.147 -0.6544 -0.4745  0.2297
 1290SOL    HW115332   2.852   2.832   4.121 -0.0134 -0.9794 -1.1251
 1290SOL    HW215333   2.897   2.957   4.155 -0.1621 -0.0128 -2.4093
 1291SOL     OW15334   2.330   4.267   0.822  0.1114 -0.1418 -0.5005
 1291SOL    HW115335   2.345   4.210   0.898  0.5736 -1.7050 -1.7514
 1291SOL    HW215336   2.323   4.350   0.870 -3.8954  0.1498 -1.5852
 1292SOL     OW15337   0.142   0.300  14.457 -0.0271  0.3973  0.4971
 1292SOL    HW115338   0.157   0.386  14.496  1.6599 -0.1299  1.0195
 1292SOL    HW215339   0.083   0.327  14.387 -0.8412  0.4427  1.1854
 1293SOL     OW15340   1.213   3.527   6.227  0.4470  0.5193  0.1717
 1293SOL    HW115341   1.211   3.468   6.152 -0.5917  1.9477 -0.9395
 1293SOL    HW215342   1.284   3.590   6.215 -0.5633  1.0535 -3.2117
 1294SOL     OW15343   0.824   0.989   5.126  0.0414  0.6950 -0.0359
 1294SOL    HW115344   0.828   0.894   5.132  0.7067  0.7315  0.0488
 1294SOL    HW215345   0.811   0.999   5.031 -0.0658  1.9729  0.1187
 1295SOL     OW15346   0.224   2.217   8.559  0.2303  0.2621 -0.3085
 1295SOL    HW115347   0.133   2.237   8.584  0.0884  0.7308 -1.1769
 1295SOL    HW215348   0.266   2.302   8.571 -3.4728  1.6558  2.8776
 1296SOL     OW15349   2.699   4.165  16.996  0.1278  0.3578  0.5025
 1296SOL    HW115350   2.699   4.231  16.927  2.1625  1.1163  1.2403
 1296SOL    HW215351   2.666   4.090  16.946  1.7904 -0.2506  0.3216
 1297SOL     OW15352   3.604   2.881   0.867 -0.4485 -0.1497 -0.0774
 1297SOL    HW115353   3.587   2.830   0.787 -0.2925 -0.1318 -0.1232
 1297SOL    HW215354   3.697   2.899   0.848 -0.2866  0.6137  1.5238
 1298SOL     OW15355   3.341   2.048   7.778  0.3508 -0.2971 -0.6396
 1298SOL    HW115356   3.263   2.038   7.723  0.6784  0.4386 -1.2529
 1298SOL    HW215357   3.298   2.022   7.860 -2.9011 -0.7165 -2.4556
 1299SOL     OW15358   1.549   1.735   0.785  0.5115 -0.4527  0.1472
 1299SOL    HW115359   1.536   1.822   0.747 -0.8066 -0.7486 -0.0636
 1299SOL    HW215360   1.619   1.758   0.846 -0.4444  1.8096  0.3688
 1300SOL     OW15361   1.400   3.284   4.787 -0.0737 -0.1522 -0.2801
 1300SOL    HW115362   1.412   3.267   4.693  1.3624 -2.1452  0.2770
 1300SOL    HW215363   1.491   3.307   4.806  0.7554 -4.1884  0.5720
 1301SOL     OW15364   4.083   0.695  15.593 -0.0548  0.6149  0.4635
 1301SOL    HW115365   4.161   0.681  15.539 -1.0676 -0.7977 -0.6503
 1301SOL    HW215366   4.032   0.757  15.541 -2.6402 -1.2425  0.7440
 1302SOL     OW15367   4.616   3.855  17.654  0.3363 -0.2267  0.8832
 1302SOL    HW115368   4.541   3.796  17.664  0.3298 -0.4866 -0.7963
 1302SOL    HW215369   4.677   3.798  17.608 -0.4247  0.5952 -1.1366
 1303SOL     OW15370   3.660   0.165   4.652 -0.5882  0.5128 -0.0449
 1303SOL    HW115371   3.727   0.233   4.643  0.4535 -0.2382  1.9831
 1303SOL    HW215372   3.603   0.215   4.711 -1.8875 -1.5281  0.4079
 1304SOL     OW15373   4.659   2.312   4.997 -0.1353  0.3290  0.0988
 1304SOL    HW115374   4.652   2.262   4.915  1.8335  0.9821 -0.4772
 1304SOL    HW215375   4.569   2.338   5.013 -0.1346 -0.4811  1.3975
 1305SOL     OW15376   4.389   1.383   6.510  0.1459  0.2195 -0.2700
 1305SOL    HW115377   4.442   1.326   6.566  0.1678  1.5383  1.0659
 1305SOL    HW215378   4.425   1.471   6.520  0.4507  0.0554  0.0911
 1306SOL     OW15379   4.450   3.928   4.700 -0.2368  0.0175 -0.3460
 1306SOL    HW115380   4.534   3.942   4.656  1.7162 -4.8379  1.8204
 1306SOL    HW215381   4.464   3.846   4.746 -1.0358 -0.5493 -1.1273
 1307SOL     OW15382   1.393   3.354  11.683  0.4090  0.1305  0.0623
 1307SOL    HW115383   1.487   3.348  11.661  0.2330 -0.5027 -0.5444
 1307SOL    HW215384   1.385   3.278  11.741 -0.3586  2.1521  2.5614
 1308SOL     OW15385   4.361   0.141   2.560 -0.4274 -0.1122 -0.3649
 1308SOL    HW115386   4.344   0.123   2.653  1.2309 -0.1357 -0.0662
 1308SOL    HW215387   4.334   0.232   2.545 -2.2946 -0.6231 -0.0912
 1309SOL     OW15388   3.149   3.353   6.697 -0.0960 -0.9105 -0.0072
 1309SOL    HW115389   3.237   3.380   6.723 -0.0610  1.5641 -2.7462
 1309SOL    HW215390   3.168   3.261   6.716 -1.0898 -1.3648 -1.2171
 1310SOL     OW15391   2.025   0.526   2.930 -0.1041 -0.2595 -0.5470
 1310SOL    HW115392   1.937   0.559   2.910 -1.6696 -3.5723  0.9718
 1310SOL    HW215393   2.091   0.589   2.900 -1.5199  1.7427  0.4922
 1311SOL     OW15394   2.699   1.963  13.923  0.9315 -0.4088 -0.7852
 1311SOL    HW115395   2.683   1.903  13.851 -1.7227  0.0916 -0.5894
 1311SOL    HW215396   2.643   2.037  13.897  0.3276 -0.4191  0.5056
 1312SOL     OW15397   1.662   3.851   3.575 -0.0594  0.4664 -0.1841
 1312SOL    HW115398   1.597   3.920   3.563  0.4392  0.7324 -1.3263
 1312SOL    HW215399   1.606   3.777   3.597 -0.2928  0.6526 -0.1499
 1313SOL     OW15400   0.522   3.042   3.806 -0.6624  0.6200 -1.1642
 1313SOL    HW115401   0.499   3.106   3.738  0.9602  3.6435  1.1224
 1313SOL    HW215402   0.570   2.973   3.760 -0.2162  0.3850 -0.3435
 1314SOL     OW15403   2.991   0.675  16.976 -0.3365  0.1561 -0.1455
 1314SOL    HW115404   2.980   0.623  16.897 -1.0612 -0.4203  0.3312
 1314SOL    HW215405   3.021   0.612  17.041 -0.9928  0.2800  0.2851
 1315SOL     OW15406   0.471   1.638  14.075 -0.6220  0.0323  0.0891
 1315SOL    HW115407   0.391   1.680  14.106  0.0840  0.6982  1.0262
 1315SOL    HW215408   0.529   1.650  14.151 -0.7071  0.7679  0.0389
 1316SOL     OW15409   1.141   2.481  10.678  0.0690  0.5021 -0.1558
 1316SOL    HW115410   1.141   2.558  10.621 -2.0560 -0.1042 -0.9850
 1316SOL    HW215411   1.171   2.524  10.758  2.7021 -2.5326  0.4838
 1317SOL     OW15412   3.622   4.347   5.246  0.1168 -0.0483 -0.2546
 1317SOL    HW115413   3.624   4.362   5.340 -1.6037 -1.2320 -0.0450
 1317SOL    HW215414   3.708   4.309   5.228 -0.3984  0.2535 -3.3661
 1318SOL     OW15415   1.620   4.001  11.870  0.3328 -0.6792 -0.3992
 1318SOL    HW115416   1.565   3.997  11.948  0.9080 -2.0076 -0.0628
 1318SOL    HW215417   1.553   4.007  11.801 -1.7313  0.6473  1.7259
 1319SOL     OW15418   1.479   1.526  12.582 -0.0188  0.4446  0.2346
 1319SOL    HW115419   1.498   1.458  12.518 -0.7275  1.1048 -0.6907
 1319SOL    HW215420   1.563   1.552  12.619 -0.8176  0.3672  2.1461
 1320SOL     OW15421   1.217   0.101   3.789  0.1761  0.2741 -0.3345
 1320SOL    HW115422   1.172   0.091   3.873  0.6204  0.7495 -0.0461
 1320SOL    HW215423   1.218   0.192   3.761  2.5022 -0.0978 -1.4539
 1321SOL     OW15424   1.363   0.091   5.291 -0.1509 -0.5738 -0.5680
 1321SOL    HW115425   1.315   0.019   5.333  0.7492 -0.0833  1.2782
 1321SOL    HW215426   1.335   0.172   5.333 -1.5864 -1.3939  0.0763
 1322SOL     OW15427   4.406   0.663  14.927  0.2045 -0.0308 -0.4055
 1322SOL    HW115428   4.491   0.702  14.908  0.9021 -0.8217  1.0068
 1322SOL    HW215429   4.359   0.731  14.974  1.7763  1.8286 -1.5501
 1323SOL     OW15430   3.873   0.123   2.422 -0.1766  0.0091  0.1745
 1323SOL    HW115431   3.821   0.124   2.343  0.2612 -1.2001 -0.1341
 1323SOL    HW215432   3.846   0.200   2.473 -1.3584  0.6567 -1.4429
 1324SOL     OW15433   4.432   1.332   0.292 -0.6104  0.0155  0.1673
 1324SOL    HW115434   4.422   1.427   0.287 -0.2285 -0.1358 -3.5514
 1324SOL    HW215435   4.412   1.312   0.200 -0.8044  0.7188  0.0571
 1325SOL     OW15436   4.400   4.645   1.126  0.0072  0.2411  0.4231
 1325SOL    HW115437   4.440   4.697   1.056 -1.8257 -0.1744 -0.9205
 1325SOL    HW215438   4.371   4.716   1.183 -0.7291  0.5780 -0.3734
 1326SOL     OW15439   0.204   2.378   7.223 -0.3035 -0.1948  0.1854
 1326SOL    HW115440   0.231   2.389   7.314 -1.7463  1.1862  0.4510
 1326SOL    HW215441   0.111   2.398   7.229 -0.3908  0.3635 -3.0049
 1327SOL     OW15442   2.944   2.143  14.500 -0.4615  0.3226 -0.1782
 1327SOL    HW115443   2.944   2.239  14.494  0.1172  0.3189 -0.2875
 1327SOL    HW215444   2.933   2.120  14.407 -0.6469 -0.4222  0.0271
 1328SOL     OW15445   1.424   3.485  15.569 -0.1740  0.0746 -0.1396
 1328SOL    HW115446   1.404   3.544  15.496  2.5265  0.8434 -0.2572
 1328SOL    HW215447   1.382   3.404  15.539  0.5423 -0.4317  0.2186
 1329SOL     OW15448   1.728   2.895   6.778  0.0979 -0.4730  0.2102
 1329SOL    HW115449   1.813   2.940   6.777  0.7688 -1.7880 -1.7955
 1329SOL    HW215450   1.708   2.870   6.868 -0.3298  0.0732  0.2656
 1330SOL     OW15451   2.215   0.351   8.909 -0.0836 -0.1735  0.7341
 1330SOL    HW115452   2.234   0.343   8.815  0.1655  1.1386  0.6798
 1330SOL    HW215453   2.296   0.391   8.938 -0.6212  0.0927  1.8474
 1331SOL     OW15454   3.525   0.252   3.523  0.1068  0.2304 -0.0882
 1331SOL    HW115455   3.508   0.340   3.489 -2.9237  0.4397  2.0014
 1331SOL    HW215456   3.615   0.262   3.555  0.3790 -2.8286  0.1109
 1332SOL     OW15457   1.113   2.816   1.877  0.5679 -0.2720  0.6925
 1332SOL    HW115458   1.146   2.857   1.957  1.9751  0.6269 -0.3556
 1332SOL    HW215459   1.197   2.779   1.852 -0.6079 -0.8939 -2.3633
 1333SOL     OW15460   1.287   4.462   0.643 -0.0846 -0.0569 -0.1994
 1333SOL    HW115461   1.218   4.496   0.699  0.8300 -0.1006  0.9508
 1333SOL    HW215462   1.325   4.389   0.691  0.0105  0.8294  1.0626
 1334SOL     OW15463   2.374   1.355   4.594  0.1435  0.1621  0.0477
 1334SOL    HW115464   2.455   1.403   4.614  0.5533 -0.0987 -0.9572
 1334SOL    HW215465   2.362   1.293   4.665  1.8496 -0.5230 -0.2513
 1335SOL     OW15466   0.835   0.321   9.241 -0.2685 -0.1012 -0.4366
 1335SOL    HW115467   0.904   0.342   9.304 -0.4248  3.8228 -1.6111
 1335SOL    HW215468   0.759   0.368   9.274  1.7422  1.7041  1.6304
 1336SOL     OW15469   0.448   2.759   6.135  0.1070  0.3264 -0.2507
 1336SOL    HW115470   0.472   2.724   6.049 -1.6632  2.4472 -1.6181
 1336SOL    HW215471   0.424   2.680   6.183 -0.5157 -0.6016 -2.0877
 1337SOL     OW15472   4.575   3.364  17.436  0.3898 -0.2606 -0.5705
 1337SOL    HW115473   4.559   3.388  17.345  0.6466  1.3146 -0.2008
 1337SOL    HW215474   4.586   3.269  17.434 -0.4561 -0.3535 -0.8315
 1338SOL     OW15475   1.842   3.177   0.775 -0.4220  0.0084 -0.1155
 1338SOL    HW115476   1.832   3.125   0.855  1.4400  2.7892  1.8971
 1338SOL    HW215477   1.937   3.180   0.768 -0.3189 -1.8426  0.4672
 1339SOL     OW15478   1.549   1.395   4.789 -0.0430 -0.0846 -0.4910
 1339SOL    HW115479   1.638   1.428   4.800 -0.1094 -0.0345 -0.0828
 1339SOL    HW215480   1.569   1.316   4.739  2.4333  0.5216 -0.4368
 1340SOL     OW15481   0.401   2.674   9.914  0.5540  0.4800  0.6310
 1340SOL    HW115482   0.485   2.719   9.905 -0.6090  2.2959 -1.1246
 1340SOL    HW215483   0.404   2.636   9.826  1.4008 -0.3828  1.0275
 1341SOL     OW15484   0.449   3.718   5.793  0.0294  0.0270 -0.2916
 1341SOL    HW115485   0.516   3.754   5.735 -0.3907  1.6255  0.2140
 1341SOL    HW215486   0.508   3.665   5.847  0.7139 -2.0452 -3.0713
 1342SOL     OW15487   4.489   3.407   9.003  0.3504 -0.0979  0.6813
 1342SOL    HW115488   4.441   3.415   8.921 -0.2292  1.9389  1.1960
 1342SOL    HW215489   4.455   3.475   9.062  1.8146 -1.0168  2.5758
 1343SOL     OW15490   2.211   4.149   0.609 -0.3299  0.1054  0.1186
 1343SOL    HW115491   2.270   4.204   0.661 -0.5458  0.4688 -0.0168
 1343SOL    HW215492   2.263   4.070   0.600 -1.3076 -0.6205  0.7342
 1344SOL     OW15493   1.611   4.277   3.119  0.2650 -0.0089  0.2872
 1344SOL    HW115494   1.640   4.366   3.141  0.5195  0.6358 -2.5954
 1344SOL    HW215495   1.523   4.299   3.088  1.1223  1.6253 -1.0004
 1345SOL     OW15496   4.338   1.612   9.246 -0.3296 -0.4942 -0.2510
 1345SOL    HW115497   4.304   1.702   9.243  0.1213 -0.2921  1.0163
 1345SOL    HW215498   4.353   1.603   9.152 -1.3753 -1.6305 -0.3162
 1346SOL     OW15499   4.213   1.459   6.312 -0.1217 -0.8035  0.0507
 1346SOL    HW115500   4.157   1.524   6.354 -1.1327  0.0990 -2.6802
 1346SOL    HW215501   4.270   1.428   6.382  0.5556 -1.9158 -0.9864
 1347SOL     OW15502   2.384   3.615   6.190  0.4081  0.0208  0.0948
 1347SOL    HW115503   2.345   3.697   6.222 -0.0631 -0.0945 -0.1765
 1347SOL    HW215504   2.346   3.591   6.106 -0.0322 -0.3200  0.3847
 1348SOL     OW15505   2.026   0.719   5.477  0.3554 -0.5185 -0.7969
 1348SOL    HW115506   2.059   0.680   5.396  2.3767 -1.3375  0.4067
 1348SOL    HW215507   2.060   0.654   5.538  3.8262  0.6143 -1.4703
 1349SOL     OW15508   2.809   2.840   4.888 -0.4616 -0.0550  0.4861
 1349SOL    HW115509   2.804   2.933   4.910  0.4238 -0.1357  1.0497
 1349SOL    HW215510   2.715   2.825   4.876 -0.2793 -1.8428  1.2109
 1350SOL     OW15511   0.803   3.759  15.437  0.2895  0.0688 -0.0359
 1350SOL    HW115512   0.793   3.709  15.518 -2.7803  1.8347  0.6904
 1350SOL    HW215513   0.864   3.704  15.387 -1.0219 -2.5039  1.2075
 1351SOL     OW15514   1.284   0.337   2.778 -0.9243  0.1824 -0.1176
 1351SOL    HW115515   1.372   0.328   2.741 -0.6305 -1.5041  0.9854
 1351SOL    HW215516   1.279   0.269   2.845 -1.3946  1.5231  1.2038
 1352SOL     OW15517   4.192   1.964   9.563 -0.2975  0.1347  0.1740
 1352SOL    HW115518   4.280   1.960   9.525  1.4247  0.8557  4.1243
 1352SOL    HW215519   4.168   1.872   9.571 -0.2372  0.1084  0.0523
 1353SOL     OW15520   0.091   4.530  10.368  0.2980  0.2438 -0.8934
 1353SOL    HW115521   0.016   4.471  10.365  0.0840  0.5953 -2.4664
 1353SOL    HW215522   0.073   4.574  10.451 -0.4903  1.0097 -1.4736
 1354SOL     OW15523   0.529   3.720   9.373  0.5279 -0.0835  0.0125
 1354SOL    HW115524   0.559   3.635   9.340 -2.2198 -1.3359  0.7045
 1354SOL    HW215525   0.440   3.696   9.398  2.1618 -2.1132  3.8992
 1355SOL     OW15526   1.761   0.050   7.769 -0.5110  0.7427 -0.2184
 1355SOL    HW115527   1.730   4.691   7.808 -1.4960  1.1949 -0.0688
 1355SOL    HW215528   1.712   0.113   7.823 -2.5696 -2.8402  2.0668
 1356SOL     OW15529   3.404   0.451   7.821  0.3511  0.2234  0.0362
 1356SOL    HW115530   3.329   0.510   7.812  0.6844  0.7752  0.8685
 1356SOL    HW215531   3.374   0.381   7.764 -0.6462  1.3586 -0.8344
 1357SOL     OW15532   1.735   3.196   7.661 -0.3909 -0.8320 -0.0054
 1357SOL    HW115533   1.671   3.153   7.718 -1.4932  1.0061  0.1501
 1357SOL    HW215534   1.685   3.250   7.600  0.1981  0.5257  0.7223
 1358SOL     OW15535   3.310   1.133  11.525 -0.5245  0.2354  0.1097
 1358SOL    HW115536   3.340   1.169  11.442 -2.5499  0.6242 -0.4539
 1358SOL    HW215537   3.243   1.194  11.556  1.1791  2.4196 -0.5178
 1359SOL     OW15538   0.823   1.611   7.512 -0.3874 -0.5835  0.0251
 1359SOL    HW115539   0.883   1.586   7.582 -0.9388 -0.9212  0.3807
 1359SOL    HW215540   0.785   1.524   7.496 -0.3683 -0.4323 -0.7999
 1360SOL     OW15541   1.455   4.267   7.480 -0.3259 -0.4497 -0.2348
 1360SOL    HW115542   1.404   4.347   7.471  0.5236  0.1634  0.4233
 1360SOL    HW215543   1.468   4.268   7.575  1.3751  1.2800 -0.4991
 1361SOL     OW15544   4.103   1.166   5.134 -0.4254 -0.3338  0.1133
 1361SOL    HW115545   4.060   1.180   5.050  0.1806 -1.2877 -0.3626
 1361SOL    HW215546   4.178   1.116   5.103  0.6628  1.1375  0.3917
 1362SOL     OW15547   0.829   3.650   8.448  0.1500 -0.2807 -0.1025
 1362SOL    HW115548   0.920   3.679   8.441 -0.2167  0.9849  0.3686
 1362SOL    HW215549   0.785   3.734   8.437  0.6987 -0.2721 -2.3482
 1363SOL     OW15550   0.792   1.197   8.455  0.7799 -0.2352 -0.6998
 1363SOL    HW115551   0.851   1.152   8.515 -0.6924 -1.0206  0.1340
 1363SOL    HW215552   0.856   1.236   8.394 -0.6215  0.0417 -1.9849
 1364SOL     OW15553   1.225   0.192  13.118 -0.3279  0.5296  0.3942
 1364SOL    HW115554   1.283   0.223  13.048 -2.6660  0.5366 -1.5431
 1364SOL    HW215555   1.271   0.111  13.138  1.5481  2.0007  1.9826
 1365SOL     OW15556   2.171   4.504   6.560 -0.0368 -0.4506 -0.0691
 1365SOL    HW115557   2.234   4.483   6.491  0.7231  0.0930  0.4482
 1365SOL    HW215558   2.087   4.496   6.517  0.2248 -1.9579 -0.2941
 1366SOL     OW15559   0.627   4.394   4.975  0.7911 -1.0388 -0.1678
 1366SOL    HW115560   0.670   4.445   4.907 -0.0634  0.3075  0.2895
 1366SOL    HW215561   0.567   4.458   5.015 -1.1287 -0.8397 -3.3878
 1367SOL     OW15562   3.682   0.543  12.966 -0.1742 -0.2487  0.2321
 1367SOL    HW115563   3.777   0.540  12.954 -0.1337  0.5513  0.3070
 1367SOL    HW215564   3.669   0.453  12.995  2.3219 -1.1782 -1.4965
 1368SOL     OW15565   2.402   1.484   2.236  0.3291 -0.0150  0.3986
 1368SOL    HW115566   2.342   1.457   2.167 -0.4702  2.0444  0.2969
 1368SOL    HW215567   2.441   1.557   2.189  1.1051 -2.1101 -2.1839
 1369SOL     OW15568   4.719   1.734   6.299 -0.2741 -0.1381 -0.1361
 1369SOL    HW115569   0.034   1.820   6.320  2.5763 -1.3996  0.0068
 1369SOL    HW215570   0.062   1.681   6.344 -2.1814 -2.2363  0.1810
 1370SOL     OW15571   3.288   4.141   2.902  0.5382  0.5070 -0.1618
 1370SOL    HW115572   3.256   4.079   2.836 -0.7875  0.7124  0.2997
 1370SOL    HW215573   3.256   4.225   2.870  0.0244  0.3289 -0.1100
 1371SOL     OW15574   1.981   3.459   2.780 -0.3603 -0.4514 -0.1057
 1371SOL    HW115575   1.987   3.511   2.860  1.6742 -0.6007 -0.1663
 1371SOL    HW215576   1.952   3.525   2.717 -0.2665 -1.4125 -1.1567
 1372SOL     OW15577   1.342   0.896   5.620  0.0935 -0.3232  0.2727
 1372SOL    HW115578   1.373   0.936   5.538 -0.4238 -0.7340 -0.1273
 1372SOL    HW215579   1.423   0.895   5.670  0.7849  0.0032 -0.8389
 1373SOL     OW15580   3.070   3.500   3.831  0.0678  0.5690 -0.5652
 1373SOL    HW115581   3.142   3.491   3.769 -0.2424 -0.8070 -0.7117
 1373SOL    HW215582   3.002   3.518   3.766 -0.4009  1.0255  0.0466
 1374SOL     OW15583   2.262   3.846  10.202 -0.2527  0.8688 -0.3605
 1374SOL    HW115584   2.349   3.807  10.210 -0.9438 -0.2122  1.7917
 1374SOL    HW215585   2.273   3.919  10.263 -0.2242  1.7295 -1.4006
 1375SOL     OW15586   0.065   0.823  14.740  0.1212 -0.6062 -0.7117
 1375SOL    HW115587   0.152   0.785  14.753  0.3949 -0.5114 -2.3213
 1375SOL    HW215588   0.027   0.827  14.828  1.2979 -0.5570 -0.2124
 1376SOL     OW15589   2.373   1.224   0.444 -0.2249  0.2366 -0.4330
 1376SOL    HW115590   2.430   1.228   0.521  0.5367  1.2684 -1.0497
 1376SOL    HW215591   2.304   1.286   0.463  0.6795  0.7422  1.1739
 1377SOL     OW15592   0.283   0.663   6.428  0.0050  0.1981  0.2327
 1377SOL    HW115593   0.232   0.611   6.490  0.7984  0.6321  1.2391
 1377SOL    HW215594   0.338   0.598   6.384  1.0516  1.4764 -0.3407
 1378SOL     OW15595   2.544   0.089   3.160 -0.1838 -0.0817  0.1391
 1378SOL    HW115596   2.505   0.127   3.081  1.9092  1.4232 -0.1827
 1378SOL    HW215597   2.592   0.011   3.128  2.9019  2.9135 -2.5670
 1379SOL     OW15598   1.101   4.535   0.839 -0.0734 -0.2956  0.7407
 1379SOL    HW115599   1.015   4.573   0.822  0.3984  0.0033 -0.9889
 1379SOL    HW215600   1.074   4.444   0.851 -0.9153  0.1057  1.8323
 1380SOL     OW15601   1.907   0.890   4.284  0.1394  0.1197 -0.1674
 1380SOL    HW115602   1.910   0.950   4.209 -0.0331  1.2926  0.7687
 1380SOL    HW215603   1.964   0.819   4.255  0.3772  0.1899  0.1333
 1381SOL     OW15604   2.038   1.608   4.274 -0.2236  0.5471 -0.0515
 1381SOL    HW115605   1.993   1.580   4.194 -0.7220 -1.6628  1.0100
 1381SOL    HW215606   2.128   1.580   4.258  0.1667  0.6309  1.9939
 1382SOL     OW15607   0.843   0.036   2.098 -0.4313  0.1309 -0.1770
 1382SOL    HW115608   0.908   0.072   2.037  1.1793 -1.0606  0.8515
 1382SOL    HW215609   0.765   0.014   2.046  0.2517 -1.9558 -0.2985
 1383SOL     OW15610   0.063   0.876   1.893 -0.2756  0.6058 -0.2630
 1383SOL    HW115611   0.004   0.909   1.960  0.0021  0.1336  0.2143
 1383SOL    HW215612   0.024   0.793   1.864  2.1263 -0.3542 -0.8137
 1384SOL     OW15613   4.475   1.453   9.755  0.3373  0.2057  0.3002
 1384SOL    HW115614   4.518   1.512   9.817 -0.6004  0.5543  0.6305
 1384SOL    HW215615   4.547   1.394   9.737 -0.4795 -1.1960  1.6700
 1385SOL     OW15616   4.444   4.296  11.899  0.0346 -0.3394  0.7747
 1385SOL    HW115617   4.516   4.355  11.876  2.4832 -3.9915 -0.8086
 1385SOL    HW215618   4.370   4.358  11.891 -2.8562 -3.7050  1.4286
 1386SOL     OW15619   1.183   2.918  11.064 -0.3092  0.7176  0.0048
 1386SOL    HW115620   1.269   2.886  11.035 -0.9007  1.7839 -2.9308
 1386SOL    HW215621   1.149   2.841  11.109 -1.0633 -0.0888 -1.9546
 1387SOL     OW15622   2.818   4.364   6.557  0.1455 -0.1731  0.0197
 1387SOL    HW115623   2.895   4.308   6.550  1.5695  1.8821 -0.9746
 1387SOL    HW215624   2.843   4.441   6.506 -1.2287  1.3975  1.7162
 1388SOL     OW15625   2.486   0.923   6.471  0.0026  0.3400  0.3512
 1388SOL    HW115626   2.467   0.857   6.405 -1.3987  0.3622  0.7259
 1388SOL    HW215627   2.534   0.874   6.537 -0.4239 -1.0531 -0.3652
 1389SOL     OW15628   3.504   2.799   2.936  0.1218  0.4182 -0.0422
 1389SOL    HW115629   3.567   2.777   3.005  1.9148  0.2583 -1.7450
 1389SOL    HW215630   3.518   2.889   2.908  0.0866  0.3642 -0.2330
 1390SOL     OW15631   3.843   1.056  13.212  0.1831 -0.7237 -0.1445
 1390SOL    HW115632   3.828   1.146  13.183  0.8623 -0.1723  1.1845
 1390SOL    HW215633   3.929   1.035  13.175  0.5901  1.4817 -0.4636
 1391SOL     OW15634   0.023   2.023   6.561  0.2415  0.3717 -0.0603
 1391SOL    HW115635   4.681   1.968   6.606 -1.3689  3.0048  0.8735
 1391SOL    HW215636   4.699   2.107   6.556  0.8539  0.5865 -2.2000
 1392SOL     OW15637   3.862   3.074   0.790 -0.0359 -0.2875  0.0464
 1392SOL    HW115638   3.876   3.018   0.867 -0.1228 -1.2886 -0.6602
 1392SOL    HW215639   3.936   3.043   0.739  1.2146  1.6233  0.6997
 1393SOL     OW15640   0.762   1.811  10.004 -0.0597  0.0052  0.1950
 1393SOL    HW115641   0.812   1.787  10.082  1.0513 -1.4679 -0.9770
 1393SOL    HW215642   0.793   1.888   9.956 -0.2993  1.5995  2.6034
 1394SOL     OW15643   2.227   0.769  12.638 -0.2151  0.3683 -0.3720
 1394SOL    HW115644   2.202   0.834  12.572 -2.3827 -0.5795 -0.4654
 1394SOL    HW215645   2.145   0.756  12.686 -0.6463 -2.6826 -1.9634
 1395SOL     OW15646   3.960   0.468  15.640  0.7535  0.5268  1.3561
 1395SOL    HW115647   4.013   0.546  15.623  1.4259 -0.7186 -2.3016
 1395SOL    HW215648   4.023   0.396  15.634 -0.8774 -0.5703 -2.6514
 1396SOL     OW15649   2.595   0.271   6.306  0.0630  0.3600  0.1217
 1396SOL    HW115650   2.651   0.222   6.366  0.1202 -0.8015 -0.9022
 1396SOL    HW215651   2.515   0.274   6.359 -0.6263  2.4843 -1.0187
 1397SOL     OW15652   4.098   2.710   8.472  0.0897 -0.2499  0.2998
 1397SOL    HW115653   4.057   2.784   8.426 -0.0472 -2.1048 -2.5748
 1397SOL    HW215654   4.106   2.749   8.559  1.6690 -2.6931  1.2230
 1398SOL     OW15655   3.395   3.100   3.589  0.2818 -0.4782 -0.6177
 1398SOL    HW115656   3.473   3.152   3.570 -0.6746  0.6631 -1.4671
 1398SOL    HW215657   3.362   3.155   3.660 -1.1664 -2.7008  0.4293
 1399SOL     OW15658   0.591   2.020   2.465  0.0505  0.6917 -0.0989
 1399SOL    HW115659   0.570   2.113   2.465  2.1984  1.1796  0.4823
 1399SOL    HW215660   0.601   1.997   2.373  0.9409 -4.3493  1.2562
 1400SOL     OW15661   2.237   4.600  13.495  0.0286  0.3175 -0.2558
 1400SOL    HW115662   2.171   4.537  13.465 -0.8416  1.3721 -0.5652
 1400SOL    HW215663   2.221   4.600  13.589 -0.7233  1.1950 -0.3856
 1401SOL     OW15664   0.018   1.381   3.147 -0.4493 -0.1195 -0.0938
 1401SOL    HW115665   0.093   1.406   3.093  0.4830  1.9115  2.1237
 1401SOL    HW215666   4.709   1.299   3.108 -0.9539 -0.2662  0.6087
 1402SOL     OW15667   1.628   4.358  10.170  0.3039  0.5118  0.6523
 1402SOL    HW115668   1.629   4.452  10.186 -0.5922  0.5906  0.2389
 1402SOL    HW215669   1.710   4.350  10.120  0.4958 -2.2730  1.4376
 1403SOL     OW15670   2.329   1.061  17.657  0.6922  0.3720 -0.3404
 1403SOL    HW115671   2.241   1.099  17.659  0.9733  1.0307 -0.3912
 1403SOL    HW215672   2.363   1.051   0.054  0.5196 -0.4301 -0.3703
 1404SOL     OW15673   2.407   1.743   8.849 -0.2768  0.1055 -0.6103
 1404SOL    HW115674   2.489   1.693   8.847 -0.0260  0.4067  3.2555
 1404SOL    HW215675   2.352   1.683   8.899  0.6847 -0.3738 -0.1383
 1405SOL     OW15676   1.993   4.155  17.322  0.4715 -0.0199 -0.3724
 1405SOL    HW115677   2.041   4.179  17.401 -2.3466  1.1828  0.9836
 1405SOL    HW215678   2.016   4.230  17.267  0.7204 -0.0861 -0.3580
 1406SOL     OW15679   4.224   0.184  11.175 -0.9113 -0.5645  0.3599
 1406SOL    HW115680   4.293   0.226  11.226 -0.2559  0.5185 -1.4266
 1406SOL    HW215681   4.164   0.258  11.165  3.0343  2.5752  0.2987
 1407SOL     OW15682   0.964   3.574  15.334 -0.2839 -0.4445  0.1959
 1407SOL    HW115683   1.055   3.601  15.341  0.0865 -0.3796 -4.5076
 1407SOL    HW215684   0.972   3.482  15.307  0.4698  0.0515 -1.3049
 1408SOL     OW15685   2.832   0.076   9.021 -0.2354 -0.3661  0.5741
 1408SOL    HW115686   2.837   0.153   8.965  1.2415  0.0963  1.3266
 1408SOL    HW215687   2.856   0.118   9.103  2.4525  1.9817 -1.4036
 1409SOL     OW15688   3.160   0.014   5.075  0.1221  0.2868 -0.4487
 1409SOL    HW115689   3.221   0.029   5.003  0.7188  0.2931  0.0585
 1409SOL    HW215690   3.159   0.102   5.114  0.8029  1.5544 -3.2727
 1410SOL     OW15691   1.766   0.136  10.927  0.3181 -0.0080 -0.2322
 1410SOL    HW115692   1.736   0.216  10.883  1.0706  0.3034 -0.1736
 1410SOL    HW215693   1.695   0.113  10.987 -0.2895  0.2843 -0.8357
 1411SOL     OW15694   0.497   2.171  10.564 -0.2844 -0.1773 -0.4947
 1411SOL    HW115695   0.449   2.129  10.635  1.3266 -0.9859  0.1237
 1411SOL    HW215696   0.587   2.177  10.597 -0.3558  0.7567 -0.4612
 1412SOL     OW15697   0.765   1.044  13.007 -1.0455 -0.0868 -0.1764
 1412SOL    HW115698   0.769   1.036  12.912 -2.2231 -4.4690  0.1638
 1412SOL    HW215699   0.716   0.965  13.030  1.0680 -1.2922  0.1556
 1413SOL     OW15700   3.474   1.393   3.824  0.1027 -0.6866  0.0922
 1413SOL    HW115701   3.468   1.413   3.918 -2.0945 -2.4421  0.3433
 1413SOL    HW215702   3.380   1.391   3.804  0.3902 -1.3796 -1.1807
 1414SOL     OW15703   1.101   0.199  12.763  0.0379 -0.1171 -0.1798
 1414SOL    HW115704   1.091   0.231  12.673 -1.5108  0.3013  0.1397
 1414SOL    HW215705   1.076   0.271  12.821 -0.4784 -0.5889  0.1828
 1415SOL     OW15706   3.110   3.754  11.105  0.3456 -0.3948 -0.1972
 1415SOL    HW115707   3.077   3.665  11.093  1.2450 -0.9348  1.2458
 1415SOL    HW215708   3.057   3.776  11.182  0.9256  0.8003 -0.1436
 1416SOL     OW15709   3.570   3.497  17.681  0.4703 -0.2648  0.0177
 1416SOL    HW115710   3.578   3.592  17.675 -2.8199  0.0643  0.5533
 1416SOL    HW215711   3.508   3.475  17.611  1.2948  1.1991 -1.1637
 1417SOL     OW15712   3.955   0.528  12.943  0.1581  0.3025 -0.2845
 1417SOL    HW115713   3.968   0.606  12.890  0.7038  0.2683 -0.2011
 1417SOL    HW215714   4.046   0.500  12.934  0.1553  0.7479 -1.7010
 1418SOL     OW15715   2.534   3.955   5.565  0.1931  0.1314  0.4051
 1418SOL    HW115716   2.474   3.941   5.638 -0.8726  0.8362 -0.3228
 1418SOL    HW215717   2.522   4.048   5.546 -0.1197  0.0643  0.2767
 1419SOL     OW15718   1.955   1.812  14.654 -0.2957 -0.5242  0.2110
 1419SOL    HW115719   1.880   1.872  14.651 -1.6622 -2.0561  3.7017
 1419SOL    HW215720   1.976   1.812  14.561  0.1213 -1.2541  0.3108
 1420SOL     OW15721   0.406   0.034   9.732  0.5048  0.2174 -0.1392
 1420SOL    HW115722   0.318   0.019   9.696  0.2112  1.3756  0.0995
 1420SOL    HW215723   0.387   0.116   9.778 -2.0938 -0.7319  0.5026
 1421SOL     OW15724   3.527   4.122   8.163 -0.2703  0.8053 -0.4783
 1421SOL    HW115725   3.562   4.210   8.177 -2.6037  1.4743  1.1851
 1421SOL    HW215726   3.559   4.093   8.077  0.7382  3.2116 -0.9159
 1422SOL     OW15727   3.570   2.878  14.724 -0.3028  0.8428 -0.3673
 1422SOL    HW115728   3.529   2.792  14.733 -0.4903  0.9886  0.1687
 1422SOL    HW215729   3.649   2.863  14.776 -0.3918  1.7191  0.0185
 1423SOL     OW15730   2.455   1.239   6.208 -0.2929 -0.2959  0.3982
 1423SOL    HW115731   2.434   1.148   6.188  1.5457 -0.5260 -0.4448
 1423SOL    HW215732   2.489   1.274   6.125 -1.7871 -3.1792 -1.4331
 1424SOL     OW15733   0.476   3.651  17.607 -0.2738 -0.0492  0.2530
 1424SOL    HW115734   0.421   3.721  17.642  0.2829  1.0090 -0.9846
 1424SOL    HW215735   0.430   3.588  17.662  2.3612  2.1684  5.0370
 1425SOL     OW15736   4.306   1.388  10.004 -0.0797  0.2468  0.0570
 1425SOL    HW115737   4.215   1.362   9.985  0.6993 -1.0505 -1.8433
 1425SOL    HW215738   4.335   1.421   9.919  0.1262 -1.8665 -0.7015
 1426SOL     OW15739   2.839   0.848  14.705 -0.4592  0.2854 -0.4338
 1426SOL    HW115740   2.860   0.903  14.780 -2.4444  2.9702 -1.8448
 1426SOL    HW215741   2.757   0.799  14.713 -1.2321  1.6770 -0.0272
 1427SOL     OW15742   4.113   2.726   8.757 -0.3066  0.5285  0.0567
 1427SOL    HW115743   4.140   2.803   8.806 -2.8904  2.2047 -1.1709
 1427SOL    HW215744   4.025   2.714   8.795 -1.2068 -0.1205 -2.1916
 1428SOL     OW15745   4.434   2.509  13.371 -0.2616  0.8196  0.4685
 1428SOL    HW115746   4.517   2.552  13.348  0.4768 -0.7529  0.2479
 1428SOL    HW215747   4.463   2.419  13.381 -0.3728  0.7143 -0.1558
 1429SOL     OW15748   2.863   3.701   6.046  0.5064 -0.3257 -0.4879
 1429SOL    HW115749   2.795   3.762   6.016 -0.5042 -0.5132  1.4500
 1429SOL    HW215750   2.894   3.654   5.969 -1.5399 -2.1014 -0.2239
 1430SOL     OW15751   3.418   1.859  17.190 -0.3332 -0.1121  0.1525
 1430SOL    HW115752   3.383   1.924  17.129 -1.7548 -0.2544  0.8132
 1430SOL    HW215753   3.358   1.794  17.154 -0.7067 -0.1237  0.7974
 1431SOL     OW15754   4.261   3.833  14.834 -0.4242 -0.0540  0.7481
 1431SOL    HW115755   4.184   3.886  14.854  0.0217  1.5119 -1.6969
 1431SOL    HW215756   4.233   3.742  14.844  0.0610 -0.1915  0.8490
 1432SOL     OW15757   0.947   3.656   0.823  0.0388 -0.0327 -0.4365
 1432SOL    HW115758   1.025   3.606   0.799  1.5714  2.7654 -1.2659
 1432SOL    HW215759   0.910   3.600   0.891  1.8353 -0.9552 -0.2205
 1433SOL     OW15760   4.301   2.390   6.956 -0.6259 -0.8875  0.2438
 1433SOL    HW115761   4.323   2.484   6.956  1.0128 -1.2716  1.5478
 1433SOL    HW215762   4.388   2.356   6.980  0.1368  1.0586  0.2674
 1434SOL     OW15763   0.747   3.256   4.218  0.1398  0.2593 -0.1105
 1434SOL    HW115764   0.759   3.163   4.234  0.9123  0.5380  0.9229
 1434SOL    HW215765   0.677   3.257   4.153  1.0606  1.1334 -1.0974
 1435SOL     OW15766   0.856   0.221   2.297  0.6069  0.1144 -0.4295
 1435SOL    HW115767   0.762   0.206   2.312  0.6470 -0.6616 -0.9824
 1435SOL    HW215768   0.863   0.162   2.222  1.7657  0.7173 -0.7886
 1436SOL     OW15769   2.176   3.440   6.467  0.7126 -0.1095 -0.3764
 1436SOL    HW115770   2.270   3.420   6.464  0.2371 -1.9838 -2.1555
 1436SOL    HW215771   2.156   3.392   6.547 -1.5633  0.7682 -0.4407
 1437SOL     OW15772   4.389   3.458   6.379 -0.4350 -0.5128  0.7736
 1437SOL    HW115773   4.396   3.510   6.299 -0.9263  1.4085  1.9780
 1437SOL    HW215774   4.415   3.374   6.342  0.0255  0.2458 -0.6379
 1438SOL     OW15775   0.527   3.327   7.238  0.0658  0.0315 -0.3956
 1438SOL    HW115776   0.504   3.276   7.161 -0.0762  0.5318 -0.6813
 1438SOL    HW215777   0.607   3.285   7.271 -1.6919 -4.4615 -1.8021
 1439SOL     OW15778   0.672   3.129  14.434  0.0360  0.2366 -0.5565
 1439SOL    HW115779   0.632   3.084  14.509  0.2724  0.1237 -0.4978
 1439SOL    HW215780   0.595   3.144  14.379  0.7898  0.1623 -1.6395
 1440SOL     OW15781   4.718   1.426   2.532  0.1865 -0.2995 -0.0337
 1440SOL    HW115782   4.688   1.336   2.545 -1.2306 -0.0323 -1.4285
 1440SOL    HW215783   4.651   1.468   2.587  0.8216  0.2003  0.3581
 1441SOL     OW15784   0.445   1.661   3.885 -0.3042 -0.0183  0.0599
 1441SOL    HW115785   0.517   1.605   3.915  0.0665  0.2905 -0.2579
 1441SOL    HW215786   0.496   1.738   3.861  0.3827 -0.0447  1.3858
 1442SOL     OW15787   1.775   1.887   2.455 -0.1456  0.2881  0.5962
 1442SOL    HW115788   1.705   1.840   2.499 -0.3102  0.0886  0.1136
 1442SOL    HW215789   1.814   1.925   2.534  0.5226 -0.5352  0.6548
 1443SOL     OW15790   4.642   4.377   6.947  0.0754 -0.5649  0.3803
 1443SOL    HW115791   4.669   4.334   6.866  0.5322 -2.7260  1.6793
 1443SOL    HW215792   0.005   4.417   6.964 -0.3091  0.3891  0.0974
 1444SOL     OW15793   1.351   3.179   5.335 -0.4581 -0.9694 -0.5006
 1444SOL    HW115794   1.394   3.227   5.264 -1.3832 -0.6109 -0.8191
 1444SOL    HW215795   1.424   3.119   5.351  0.3124  0.4526  1.4467
 1445SOL     OW15796   2.824   3.431   6.176  0.5887 -0.5088 -0.7218
 1445SOL    HW115797   2.843   3.508   6.122 -1.6992  0.2479 -0.4763
 1445SOL    HW215798   2.864   3.361   6.125 -0.3053 -2.2891  1.0498
 1446SOL     OW15799   2.615   1.907   7.450 -0.5547  0.1383 -0.3919
 1446SOL    HW115800   2.605   1.812   7.457  0.1941  0.1009  0.2894
 1446SOL    HW215801   2.531   1.943   7.424 -0.5703 -0.5375 -1.2742
 1447SOL     OW15802   0.452   2.148   0.658  0.1429 -0.1657 -0.2035
 1447SOL    HW115803   0.447   2.220   0.721 -2.9748 -1.2074  0.7617
 1447SOL    HW215804   0.462   2.068   0.710 -1.7838  0.5202  1.2378
 1448SOL     OW15805   1.968   0.751   8.483 -0.1135  0.2801 -0.0924
 1448SOL    HW115806   2.013   0.784   8.561 -0.1833 -0.2574  0.1756
 1448SOL    HW215807   1.942   0.664   8.512  1.0278  0.1804  0.6323
 1449SOL     OW15808   3.126   4.212   1.639  0.1610 -0.3921  1.0189
 1449SOL    HW115809   3.069   4.138   1.658 -1.8434  0.5246 -1.4535
 1449SOL    HW215810   3.071   4.252   1.572  0.1324 -0.9943  0.6798
 1450SOL     OW15811   1.614   2.378   9.314  0.0465 -0.2682 -0.0168
 1450SOL    HW115812   1.579   2.416   9.395  0.7581 -0.3059  0.3033
 1450SOL    HW215813   1.582   2.443   9.251  0.1808 -0.8170 -0.6433
 1451SOL     OW15814   1.946   1.778   3.622 -0.0240  0.1392 -0.0245
 1451SOL    HW115815   1.889   1.798   3.547  0.8581  0.8311 -0.5105
 1451SOL    HW215816   1.879   1.795   3.688  0.3909  1.4600  0.0489
 1452SOL     OW15817   0.129   3.098   7.291  0.2109 -0.0600  0.7861
 1452SOL    HW115818   0.149   3.186   7.324  0.1803 -0.7119  2.5938
 1452SOL    HW215819   0.217   3.083   7.257 -0.3352 -4.1595  1.1709
 1453SOL     OW15820   2.235   3.928   2.634 -0.4557  0.1916 -0.5678
 1453SOL    HW115821   2.181   3.904   2.710  1.1396  0.0044  0.5128
 1453SOL    HW215822   2.277   3.843   2.623 -0.2804  0.1683  0.2538
 1454SOL     OW15823   2.334   0.148   4.596  0.0751  0.0440  1.1853
 1454SOL    HW115824   2.256   0.105   4.631  0.9191 -0.4822  2.4154
 1454SOL    HW215825   2.344   0.226   4.651  2.6826  1.4854 -1.3395
 1455SOL     OW15826   2.148   3.989   7.835 -0.3584  0.2963 -0.1325
 1455SOL    HW115827   2.127   4.077   7.805 -0.5262 -0.3854 -2.0134
 1455SOL    HW215828   2.078   3.968   7.897  0.1249  3.3345  1.4744
 1456SOL     OW15829   3.143   4.297  16.671  0.7875 -0.3052 -0.4138
 1456SOL    HW115830   3.169   4.375  16.622 -0.4836  2.0583  2.6634
 1456SOL    HW215831   3.198   4.234  16.623  0.6743 -0.3337 -0.5065
 1457SOL     OW15832   0.365   2.410  10.445 -0.4617 -0.3201 -0.4605
 1457SOL    HW115833   0.368   2.324  10.489 -0.1326  0.2130  0.5728
 1457SOL    HW215834   0.284   2.411  10.396 -1.1021 -0.0499  0.5996
 1458SOL     OW15835   0.347   4.480   5.135  0.1808  0.7219  0.3820
 1458SOL    HW115836   0.309   4.418   5.198  0.1098 -0.8343 -1.1677
 1458SOL    HW215837   0.296   4.560   5.148 -1.3876  0.0579 -1.4941
 1459SOL     OW15838   0.066   3.420   8.933  0.2758  0.2657 -0.7064
 1459SOL    HW115839   4.704   3.460   8.953 -0.2425 -0.9503 -0.4543
 1459SOL    HW215840   0.122   3.450   9.005  0.8289  0.9592 -1.4305
 1460SOL     OW15841   3.755   1.402   6.094 -0.1176 -0.1161 -0.0901
 1460SOL    HW115842   3.667   1.412   6.130  0.7190  0.4939  1.7796
 1460SOL    HW215843   3.800   1.399   6.178  1.2337 -2.1200 -0.8803
 1461SOL     OW15844   4.529   3.297   2.834 -0.0939 -0.5104  0.4660
 1461SOL    HW115845   4.558   3.206   2.838  0.5760 -0.3077  0.2356
 1461SOL    HW215846   4.603   3.354   2.858 -0.2818 -1.8362  4.1094
 1462SOL     OW15847   2.627   4.105   9.753  0.3563  0.0234  0.2010
 1462SOL    HW115848   2.692   4.176   9.752  0.4015 -0.0407 -1.4856
 1462SOL    HW215849   2.635   4.060   9.669 -0.8020  0.0235  0.0848
 1463SOL     OW15850   0.637   0.603  12.969  0.1506  0.1367  0.0802
 1463SOL    HW115851   0.703   0.652  12.920  0.6558 -0.2592  0.3634
 1463SOL    HW215852   0.611   0.673  13.028  0.7636 -2.0406  2.9206
 1464SOL     OW15853   3.316   0.166  16.149  0.4879 -0.2071 -0.7693
 1464SOL    HW115854   3.322   0.259  16.172 -1.8245 -0.3060  0.2148
 1464SOL    HW215855   3.265   0.175  16.068 -1.4574  1.1783  0.6106
 1465SOL     OW15856   0.719   2.625   8.194  0.3491 -0.4721 -0.3890
 1465SOL    HW115857   0.627   2.602   8.205  0.5960 -0.8779  0.7878
 1465SOL    HW215858   0.761   2.559   8.249 -0.0025  1.2894  1.9935
 1466SOL     OW15859   2.530   0.102   8.425  0.3055 -0.3722  0.6161
 1466SOL    HW115860   2.501   0.164   8.491 -0.7803  0.8803 -1.0202
 1466SOL    HW215861   2.615   0.136   8.395  0.6935 -2.3916 -0.5878
 1467SOL     OW15862   1.898   2.691   5.370 -0.4959  0.6757 -0.7468
 1467SOL    HW115863   1.819   2.636   5.370  1.3378 -1.9433  3.2062
 1467SOL    HW215864   1.966   2.636   5.406 -2.2862 -1.1591 -0.1877
 1468SOL     OW15865   1.941   1.614   7.536  0.4439 -0.7634  0.3056
 1468SOL    HW115866   1.950   1.551   7.465  1.9634 -2.1241  1.7117
 1468SOL    HW215867   2.025   1.608   7.581 -0.5601 -0.6803  2.2094
 1469SOL     OW15868   0.988   0.770   6.115 -0.5524 -0.5662 -0.1537
 1469SOL    HW115869   1.009   0.853   6.071 -0.3980 -1.3713 -1.6279
 1469SOL    HW215870   0.900   0.788   6.146  0.1607  3.2990 -0.3938
 1470SOL     OW15871   0.638   0.471   4.027 -0.0142 -0.5450  0.3317
 1470SOL    HW115872   0.631   0.518   3.944 -0.4026  1.0742  1.3019
 1470SOL    HW215873   0.551   0.470   4.066  0.4665  1.3404  1.4232
 1471SOL     OW15874   2.983   2.758   1.620  0.0876 -0.6672 -0.3791
 1471SOL    HW115875   3.016   2.825   1.681 -3.1713  0.1089  0.5027
 1471SOL    HW215876   3.064   2.725   1.580 -0.2505 -1.0727 -0.7167
 1472SOL     OW15877   3.612   4.382   2.340 -0.3876  0.6270 -0.0124
 1472SOL    HW115878   3.590   4.350   2.253  1.0704  1.3409 -0.6476
 1472SOL    HW215879   3.659   4.457   2.304  0.7074 -0.2857 -0.4736
 1473SOL     OW15880   2.221   1.300   5.813 -0.6923  0.1619 -0.4369
 1473SOL    HW115881   2.133   1.283   5.848 -0.3546  0.9392  0.7828
 1473SOL    HW215882   2.186   1.288   5.725 -2.6066  0.8182  0.2121
 1474SOL     OW15883   4.448   2.286   4.200  0.1491  0.1850 -0.1390
 1474SOL    HW115884   4.508   2.335   4.145  0.4578  0.6670  0.6192
 1474SOL    HW215885   4.492   2.296   4.285 -0.6087 -0.2185  0.2992
 1475SOL     OW15886   1.856   2.241  12.517  0.4429  0.1930 -0.1662
 1475SOL    HW115887   1.900   2.311  12.470  1.6733 -0.1310  0.4986
 1475SOL    HW215888   1.858   2.258  12.611 -0.6688  0.8914 -0.2649
 1476SOL     OW15889   4.663   3.583   8.203 -0.3250  0.0168  0.3584
 1476SOL    HW115890   4.709   3.665   8.188  0.1912 -0.2102  0.6928
 1476SOL    HW215891   4.722   3.525   8.154  0.5725  1.1049  0.1582
 1477SOL     OW15892   3.481   1.903   3.630 -0.1584  0.1104 -0.6207
 1477SOL    HW115893   3.391   1.913   3.661  0.4407  0.7566  0.9348
 1477SOL    HW215894   3.528   1.935   3.707  0.3720  1.3236 -1.4492
 1478SOL     OW15895   0.557   1.467   6.932 -0.1376 -0.4253  0.3172
 1478SOL    HW115896   0.520   1.555   6.924 -0.0214 -0.4396 -0.3181
 1478SOL    HW215897   0.500   1.428   6.999 -2.0951  1.9634  0.0392
 1479SOL     OW15898   2.695   0.814   7.347  0.1745  0.1472  0.2300
 1479SOL    HW115899   2.700   0.777   7.435 -0.6157 -1.1204 -0.2474
 1479SOL    HW215900   2.604   0.808   7.317 -0.0855 -0.0129  1.0391
 1480SOL     OW15901   3.563   1.443   6.540  0.2304 -0.3303  0.6358
 1480SOL    HW115902   3.468   1.442   6.540  0.2286 -0.2642  0.4379
 1480SOL    HW215903   3.578   1.392   6.619  1.8401 -2.2605 -0.9215
 1481SOL     OW15904   0.155   1.654   7.342 -0.3945  0.1931 -0.1085
 1481SOL    HW115905   0.171   1.595   7.415 -1.1427  0.5629  0.3590
 1481SOL    HW215906   0.062   1.679   7.343 -0.7308 -1.1121  0.3848
 1482SOL     OW15907   2.122   3.023   5.404 -0.1822 -0.5362 -0.6090
 1482SOL    HW115908   2.140   3.108   5.445  0.5220 -0.8339 -0.2889
 1482SOL    HW215909   2.060   2.982   5.464 -0.0813  0.3753  0.1185
 1483SOL     OW15910   2.569   2.091   5.205 -0.1158 -0.2977  0.1531
 1483SOL    HW115911   2.540   2.077   5.115 -0.9997 -0.3221  0.4404
 1483SOL    HW215912   2.486   2.115   5.247  0.3513  1.6998 -0.0639
 1484SOL     OW15913   0.354   2.784  10.469 -0.1425  0.0488 -0.3717
 1484SOL    HW115914   0.363   2.873  10.501 -2.2151 -0.2469  1.0791
 1484SOL    HW215915   0.263   2.766  10.493 -0.1761 -0.4424 -0.8644
 1485SOL     OW15916   4.263   1.840  12.936 -0.2327 -0.3382 -0.0915
 1485SOL    HW115917   4.260   1.746  12.950  2.6583 -0.3300  0.6164
 1485SOL    HW215918   4.356   1.854  12.956  0.0986 -2.2640 -0.2920
 1486SOL     OW15919   0.581   1.282   1.703  0.5789  0.3277 -0.3098
 1486SOL    HW115920   0.663   1.251   1.664  0.5127 -0.1915 -0.0435
 1486SOL    HW215921   0.613   1.300   1.792 -3.1353  0.9396  0.9091
 1487SOL     OW15922   3.994   2.102   4.194 -0.0437 -0.8257 -0.0931
 1487SOL    HW115923   3.934   2.060   4.254 -0.3648 -0.3504 -0.0834
 1487SOL    HW215924   3.996   2.041   4.119 -1.4209 -0.8682 -0.0823
 1488SOL     OW15925   3.135   1.824   6.141 -0.2280 -0.3908  0.1429
 1488SOL    HW115926   3.157   1.767   6.067  0.1416  0.3410 -0.3088
 1488SOL    HW215927   3.219   1.834   6.185  0.0676 -1.4661 -0.1750
 1489SOL     OW15928   0.341   1.269   1.045 -0.6734 -0.6191  0.2922
 1489SOL    HW115929   0.395   1.282   1.123 -0.7266  1.6819 -0.0759
 1489SOL    HW215930   0.360   1.179   1.018 -1.0100  0.3599 -3.2079
 1490SOL     OW15931   0.032   0.572   0.990  0.1070  0.5513 -0.5938
 1490SOL    HW115932   4.715   0.650   0.951 -0.0321  0.6270 -0.3028
 1490SOL    HW215933   4.675   0.529   1.024 -1.0603  1.5942 -1.9813
 1491SOL     OW15934   3.471   2.535  10.008  0.3571 -0.2281  0.3557
 1491SOL    HW115935   3.400   2.526   9.944 -0.3997  1.2858  0.9737
 1491SOL    HW215936   3.545   2.490   9.967  2.4723  2.1789  1.4752
 1492SOL     OW15937   2.169   3.278  10.254 -0.0331  0.1598  0.1120
 1492SOL    HW115938   2.204   3.309  10.337  1.1662  0.2670 -0.4430
 1492SOL    HW215939   2.075   3.273  10.272 -0.0049  0.2890  0.2899
 1493SOL     OW15940   1.356   2.563   0.579 -0.0349 -0.2048 -0.2036
 1493SOL    HW115941   1.387   2.654   0.579 -1.6805  0.3532 -1.0424
 1493SOL    HW215942   1.274   2.566   0.530  1.3344  2.4800 -2.3634
 1494SOL     OW15943   2.749   3.952   0.102  0.0711 -0.4254  0.2043
 1494SOL    HW115944   2.765   3.997   0.185 -0.0823  1.2899 -0.6922
 1494SOL    HW215945   2.722   3.861   0.112 -0.0158 -0.2726  1.3178
 1495SOL     OW15946   0.660   2.713  16.746 -0.2729 -0.1072  0.0597
 1495SOL    HW115947   0.646   2.680  16.835 -1.7670 -1.0482 -0.5242
 1495SOL    HW215948   0.601   2.789  16.741  0.0564  0.0813 -1.0258
 1496SOL     OW15949   4.722   3.893   5.719 -0.1284  0.1638  0.2662
 1496SOL    HW115950   0.030   3.965   5.774  0.3263  1.1133 -1.2151
 1496SOL    HW215951   0.067   3.828   5.741  1.6729  2.1945  0.7344
 1497SOL     OW15952   4.044   1.302   9.938  0.0940 -0.1553 -0.7335
 1497SOL    HW115953   3.968   1.244   9.950  0.5420 -0.7729 -0.8765
 1497SOL    HW215954   3.999   1.356   9.873  1.6590 -0.8340 -2.3897
 1498SOL     OW15955   2.691   3.777   3.792 -0.3368 -0.2050 -0.6955
 1498SOL    HW115956   2.703   3.716   3.864 -0.9846  1.3458  0.7359
 1498SOL    HW215957   2.731   3.849   3.841  2.2723 -1.0147 -1.6187
 1499SOL     OW15958   0.430   4.506   2.124 -0.3188  0.2098  0.1381
 1499SOL    HW115959   0.447   4.419   2.161 -0.0135 -0.0013 -0.4887
 1499SOL    HW215960   0.409   4.494   2.031 -1.2183 -0.3034  0.4119
 1500SOL     OW15961   2.644   1.687   7.188 -0.1423  0.1760 -0.3145
 1500SOL    HW115962   2.659   1.781   7.203 -0.1070  0.3571 -1.4845
 1500SOL    HW215963   2.649   1.657   7.279 -2.9761 -0.8620 -0.5229
 1501SOL     OW15964   2.272   2.183   2.216 -0.4918 -0.5104 -0.6684
 1501SOL    HW115965   2.267   2.250   2.284 -0.8195 -1.9389  0.7090
 1501SOL    HW215966   2.274   2.229   2.132 -1.6613  0.7858  0.0068
 1502SOL     OW15967   3.848   0.721   8.462  0.1145 -0.1816  0.0128
 1502SOL    HW115968   3.821   0.630   8.452  0.1321 -0.3591  1.7087
 1502SOL    HW215969   3.795   0.758   8.391 -0.5564  0.3637  0.8039
 1503SOL     OW15970   2.539   3.158  10.262 -0.5840  0.1728  0.6655
 1503SOL    HW115971   2.532   3.203  10.177  0.7022  2.7964  1.9574
 1503SOL    HW215972   2.632   3.161  10.283 -1.1271  0.5320  3.0081
 1504SOL     OW15973   1.744   2.160   8.389  0.3771  0.0759 -0.6611
 1504SOL    HW115974   1.733   2.068   8.367  0.6555 -0.6125  2.0686
 1504SOL    HW215975   1.659   2.194   8.418  0.1350  0.9404 -2.4023
 1505SOL     OW15976   1.779   0.653   7.726 -0.0579  0.1736 -0.6365
 1505SOL    HW115977   1.719   0.679   7.657 -0.0296  1.5434 -0.1565
 1505SOL    HW215978   1.828   0.578   7.694 -0.3406  0.3086 -1.3744
 1506SOL     OW15979   0.653   4.419   2.581 -0.1676  0.3011  0.2108
 1506SOL    HW115980   0.664   4.499   2.633  0.7420  0.4118 -0.1566
 1506SOL    HW215981   0.584   4.376   2.633  1.2843  1.2257  2.9106
 1507SOL     OW15982   2.743   0.498  14.561 -0.7353 -0.2062 -0.5519
 1507SOL    HW115983   2.670   0.468  14.507 -1.0276 -1.5061  0.5808
 1507SOL    HW215984   2.772   0.429  14.621 -0.8494 -0.4464 -0.7730
 1508SOL     OW15985   0.279   1.819   5.580 -0.8305  0.7332  0.1243
 1508SOL    HW115986   0.253   1.837   5.489 -0.3398  0.5371 -0.0590
 1508SOL    HW215987   0.350   1.757   5.564 -1.9397 -0.1517 -1.4166
 1509SOL     OW15988   1.152   2.622   3.268  0.6085  0.7165 -0.2771
 1509SOL    HW115989   1.143   2.544   3.322 -0.3893  1.1006  0.1070
 1509SOL    HW215990   1.072   2.613   3.216  0.2179  0.8078  0.3169
 1510SOL     OW15991   3.196   4.587   4.084  0.0017  0.1265  0.3192
 1510SOL    HW115992   3.116   4.539   4.108  0.1598 -0.0257  0.5401
 1510SOL    HW215993   3.232   4.539   4.009 -0.4287  0.1576  0.0925
 1511SOL     OW15994   0.773   3.480   1.179  0.5797 -0.6653 -0.0306
 1511SOL    HW115995   0.788   3.479   1.273  0.3203 -1.1223  0.0082
 1511SOL    HW215996   0.834   3.415   1.143  2.0416  1.6226 -1.6797
 1512SOL     OW15997   0.598   4.164  13.302 -0.3446 -0.0884  0.2703
 1512SOL    HW115998   0.546   4.083  13.296 -0.1666 -0.1356 -0.5848
 1512SOL    HW215999   0.656   4.163  13.226 -0.1966 -1.8689  0.4075
 1513SOL     OW16000   1.356   3.699  14.927  0.1406 -0.6197  0.1484
 1513SOL    HW116001   1.405   3.708  15.008  0.0733 -0.5844  0.1853
 1513SOL    HW216002   1.408   3.761  14.877 -0.1883  0.3611  1.0158
 1514SOL     OW16003   0.500   4.303  10.403 -0.0093 -0.0864 -0.1871
 1514SOL    HW116004   0.584   4.300  10.358 -0.8413  0.4428 -1.7824
 1514SOL    HW216005   0.442   4.283  10.329  1.3473 -0.4196 -1.1456
 1515SOL     OW16006   0.032   0.776   2.803  0.6602  0.1015  0.1742
 1515SOL    HW116007   0.028   0.859   2.850  0.0930  0.8505 -1.1665
 1515SOL    HW216008   0.119   0.748   2.829  0.9357 -1.6262 -2.5564
 1516SOL     OW16009   4.092   3.096   6.780 -0.3020  0.6102 -0.2601
 1516SOL    HW116010   4.026   3.152   6.820 -0.5834  0.6982 -0.8463
 1516SOL    HW216011   4.082   3.027   6.846  2.3007 -0.0342 -0.5346
 1517SOL     OW16012   2.933   3.795  16.890 -0.3705  0.6415  0.2802
 1517SOL    HW116013   2.870   3.722  16.889  2.5291 -1.8592  0.1758
 1517SOL    HW216014   2.940   3.825  16.799 -1.1712  1.1005  0.3691
 1518SOL     OW16015   3.587   1.826   2.399  0.4562  0.4134 -0.1450
 1518SOL    HW116016   3.580   1.896   2.334  1.1872  0.6799  0.0593
 1518SOL    HW216017   3.680   1.803   2.393  0.1793 -0.9453  0.6916
 1519SOL     OW16018   4.022   1.728   4.413  0.2135  0.0352 -0.1980
 1519SOL    HW116019   4.079   1.765   4.346  1.1531  1.1477  1.1994
 1519SOL    HW216020   4.093   1.696   4.469 -0.1733  0.8816  0.7866
 1520SOL     OW16021   1.731   2.171   3.538 -0.5323  0.7099  0.0621
 1520SOL    HW116022   1.714   2.191   3.630 -1.8094 -1.1472  0.2193
 1520SOL    HW216023   1.827   2.174   3.534 -0.5183 -2.5632 -1.6864
 1521SOL     OW16024   3.211   0.648   7.789 -0.5728  0.0535  0.0407
 1521SOL    HW116025   3.226   0.683   7.701 -1.1610  0.5977  0.1569
 1521SOL    HW216026   3.133   0.697   7.814  0.4183  1.2221  0.8479
 1522SOL     OW16027   3.009   1.777   6.983  0.1228  0.3600 -0.9159
 1522SOL    HW116028   3.002   1.859   7.032  1.6186 -0.6369  0.9486
 1522SOL    HW216029   3.053   1.723   7.048 -0.6156 -0.0158 -0.7334
 1523SOL     OW16030   0.497   0.243   6.699  0.3042  0.0426 -0.2380
 1523SOL    HW116031   0.440   0.191   6.756  1.7114 -2.4700 -1.1161
 1523SOL    HW216032   0.514   0.169   6.640  1.0341  0.4001 -0.4740
 1524SOL     OW16033   1.166   1.254   3.111 -0.3195 -0.1526 -0.5636
 1524SOL    HW116034   1.200   1.210   3.189  1.1958 -2.4133 -2.4814
 1524SOL    HW216035   1.122   1.176   3.075  0.2950 -0.6563 -0.2329
 1525SOL     OW16036   2.677   2.448  16.868  0.1475 -0.2526  0.4717
 1525SOL    HW116037   2.604   2.444  16.930  0.7347 -2.3404  1.0148
 1525SOL    HW216038   2.685   2.354  16.858  1.0588 -0.0746 -0.4546
 1526SOL     OW16039   0.094   3.348  10.185 -0.0808 -0.3201 -0.5111
 1526SOL    HW116040   0.058   3.307  10.264 -0.9982  2.0448  0.3081
 1526SOL    HW216041   0.138   3.271  10.149  2.5702  0.3612  1.2859
 1527SOL     OW16042   4.049   1.571   6.114  0.0359 -0.0138 -0.9416
 1527SOL    HW116043   4.106   1.509   6.159 -1.2887 -1.0884 -0.7295
 1527SOL    HW216044   4.096   1.652   6.136  0.8712 -0.1918 -2.1017
 1528SOL     OW16045   1.102   0.988  16.335 -0.1735  0.1530 -0.1192
 1528SOL    HW116046   1.194   1.013  16.344 -0.0494  0.1303 -1.2859
 1528SOL    HW216047   1.089   0.964  16.426 -0.5901  1.5357  0.1731
 1529SOL     OW16048   3.150   1.135   7.129 -0.7395 -0.1609  0.1884
 1529SOL    HW116049   3.128   1.211   7.075 -0.3650 -1.5562 -1.9262
 1529SOL    HW216050   3.110   1.063   7.081 -1.7741  0.6729 -0.1981
 1530SOL     OW16051   1.582   0.235   2.887 -0.4570 -0.4907 -0.3259
 1530SOL    HW116052   1.558   0.301   2.822 -1.0480  0.4329  0.8147
 1530SOL    HW216053   1.652   0.193   2.837  0.1299  1.5448 -1.2034
 1531SOL     OW16054   0.524   0.871   4.346 -0.1749 -0.0023 -0.3560
 1531SOL    HW116055   0.495   0.780   4.343 -2.5194  0.6810  1.3921
 1531SOL    HW216056   0.459   0.920   4.396  0.1931  0.1556 -0.0354
 1532SOL     OW16057   2.877   1.943   4.863 -0.0106 -0.2236  0.1693
 1532SOL    HW116058   2.838   1.961   4.948 -1.2304  3.0959 -1.0812
 1532SOL    HW216059   2.829   1.999   4.802  0.4734 -1.7145 -1.5798
 1533SOL     OW16060   1.260   2.772   7.222 -0.2602 -0.2171  0.8308
 1533SOL    HW116061   1.259   2.680   7.196  0.9711 -0.5964  2.1238
 1533SOL    HW216062   1.238   2.748   7.313 -1.3781  0.4502  0.7431
 1534SOL     OW16063   1.139   2.252  13.258  0.1192 -0.2636  0.3320
 1534SOL    HW116064   1.190   2.190  13.310  1.7916  0.3332 -0.5842
 1534SOL    HW216065   1.172   2.239  13.169 -0.4537 -0.1551  0.1087
 1535SOL     OW16066   0.624   4.084   9.656  0.2065 -0.1502  0.3294
 1535SOL    HW116067   0.533   4.062   9.679 -0.9908  1.3126 -3.0900
 1535SOL    HW216068   0.649   3.997   9.624 -1.9429 -0.5230 -0.3248
 1536SOL     OW16069   3.740   0.526  14.138  0.9885 -0.4699  0.0924
 1536SOL    HW116070   3.744   0.620  14.117  1.4513 -0.6661 -0.6937
 1536SOL    HW216071   3.826   0.508  14.177  1.8563  0.5993 -1.3300
 1537SOL     OW16072   0.064   2.094   8.160 -0.4159 -0.3820 -0.5360
 1537SOL    HW116073   0.089   2.186   8.167 -0.9018 -0.3065  0.2897
 1537SOL    HW216074   0.077   2.067   8.251 -2.1573 -1.2691 -0.5446
 1538SOL     OW16075   4.010   1.798   1.693  0.5696  0.8384 -0.3697
 1538SOL    HW116076   3.989   1.785   1.601 -2.0235 -2.6947  0.7292
 1538SOL    HW216077   3.925   1.777   1.733  1.6028 -1.1025  0.7730
 1539SOL     OW16078   1.358   4.262   5.952 -0.6267  0.0284 -0.3116
 1539SOL    HW116079   1.298   4.262   6.028 -1.8639  2.5276 -1.2793
 1539SOL    HW216080   1.432   4.286   6.007 -1.1310  0.4480  0.1962
 1540SOL     OW16081   3.961   0.483   2.921  0.4167 -0.1859  0.7880
 1540SOL    HW116082   4.008   0.541   2.861 -0.4193  1.2046  1.4617
 1540SOL    HW216083   3.876   0.526   2.931  1.8292  2.5512  0.8634
 1541SOL     OW16084   2.558   4.144  16.588  0.6193  0.2348 -0.3011
 1541SOL    HW116085   2.628   4.182  16.535 -0.2627  1.9202 -0.2516
 1541SOL    HW216086   2.503   4.108  16.518 -0.7627 -2.7464  2.3264
 1542SOL     OW16087   4.680   3.152  13.010 -0.7392 -0.0422  0.1973
 1542SOL    HW116088   4.629   3.139  13.090 -2.8293 -1.2807 -1.3217
 1542SOL    HW216089   0.044   3.140  13.047 -0.5275 -0.6912 -0.5180
 1543SOL     OW16090   1.933   1.132   9.893 -0.2925  0.0035 -0.4119
 1543SOL    HW116091   1.870   1.067   9.860 -0.2798 -0.2400  0.0385
 1543SOL    HW216092   1.883   1.209   9.865 -1.5543 -1.1939 -1.4874
 1544SOL     OW16093   3.814   2.721   1.780 -0.1335  0.2062  0.0351
 1544SOL    HW116094   3.844   2.657   1.716  0.8592 -1.3426  2.0645
 1544SOL    HW216095   3.850   2.793   1.729 -0.6635  1.1981  1.0643
 1545SOL     OW16096   1.107   2.715  10.532  0.0433 -0.2302 -1.0647
 1545SOL    HW116097   1.056   2.727  10.452 -2.3502  2.4310  0.8082
 1545SOL    HW216098   1.196   2.704  10.499 -0.0182  0.1108 -1.3459
 1546SOL     OW16099   4.095   3.528   7.847 -0.4718 -0.5413  0.0334
 1546SOL    HW116100   4.170   3.483   7.887  0.7211 -1.1509 -2.8812
 1546SOL    HW216101   4.048   3.547   7.928  0.8123 -1.2226  0.9305
 1547SOL     OW16102   2.966   2.222   2.650 -0.2526 -0.7580 -0.3337
 1547SOL    HW116103   2.883   2.212   2.697  0.0866  0.0272  0.4152
 1547SOL    HW216104   2.970   2.131   2.620  1.1138 -1.0007  0.5954
 1548SOL     OW16105   0.323   3.021   7.511 -0.3566 -0.2523  0.0921
 1548SOL    HW116106   0.259   3.011   7.582  0.4957  1.1742  1.0728
 1548SOL    HW216107   0.306   3.108   7.474  1.0964  0.0531  0.1029
 1549SOL     OW16108   1.523   0.189   0.845 -0.1106  0.3721  0.4774
 1549SOL    HW116109   1.515   0.226   0.758  0.0805  1.0813  0.7597
 1549SOL    HW216110   1.610   0.213   0.878 -0.1198 -0.6984  1.3026
 1550SOL     OW16111   3.246   3.746   9.825 -0.5410 -0.0747 -0.7024
 1550SOL    HW116112   3.190   3.696   9.766 -2.1106 -1.7282  2.1794
 1550SOL    HW216113   3.186   3.772   9.895 -0.7146  0.1184 -0.9230
 1551SOL     OW16114   1.153   1.849   4.610  0.4132  0.2461  0.3905
 1551SOL    HW116115   1.194   1.784   4.553 -0.4357  1.0580 -1.1469
 1551SOL    HW216116   1.214   1.846   4.683 -0.6131  0.4971  1.2468
 1552SOL     OW16117   3.883   3.440  12.409 -0.5628 -0.5297  0.2967
 1552SOL    HW116118   3.890   3.346  12.393 -0.1209 -0.2023 -1.4527
 1552SOL    HW216119   3.870   3.435  12.504 -1.3205  0.5915  0.2417
 1553SOL     OW16120   3.056   0.124  13.045  0.1459 -0.4644 -0.7500
 1553SOL    HW116121   3.075   0.180  13.121  2.4846 -0.0965 -1.6103
 1553SOL    HW216122   3.141   0.120  13.002  0.5300 -1.4254  0.1174
 1554SOL     OW16123   3.858   4.251   1.680  0.1301 -0.0074  0.0999
 1554SOL    HW116124   3.942   4.279   1.717  0.5371 -1.1695  0.0508
 1554SOL    HW216125   3.818   4.338   1.683  1.1164  0.5632 -3.2845
 1555SOL     OW16126   1.758   1.582   7.741  0.4828 -0.8462 -0.1497
 1555SOL    HW116127   1.752   1.672   7.774  1.0504 -0.7316 -0.3650
 1555SOL    HW216128   1.839   1.585   7.690  0.2079 -0.2252 -0.5546
 1556SOL     OW16129   0.814   3.877   0.758  0.2345 -0.4351  0.2970
 1556SOL    HW116130   0.840   3.925   0.836  2.6948 -0.9865 -0.1734
 1556SOL    HW216131   0.857   3.793   0.774  1.0962 -0.0606 -0.0674
 1557SOL     OW16132   2.070   4.112   7.573  0.1801 -0.4868  0.2622
 1557SOL    HW116133   2.028   4.137   7.491  2.5099 -1.2504 -1.1737
 1557SOL    HW216134   2.108   4.027   7.548  1.9871 -0.1993  2.0919
 1558SOL     OW16135   1.193   1.900   4.024 -0.4654  0.2171 -0.2014
 1558SOL    HW116136   1.105   1.931   4.003 -0.7855 -1.0301 -0.6813
 1558SOL    HW216137   1.216   1.842   3.952  0.9002 -0.8854  1.1103
 1559SOL     OW16138   0.353   1.738   7.836 -0.2112  0.0470 -0.3123
 1559SOL    HW116139   0.340   1.644   7.840 -0.9725  0.2510  2.4876
 1559SOL    HW216140   0.277   1.765   7.784  0.1436  1.0383 -0.3162
 1560SOL     OW16141   2.587   0.424   7.310  0.1641  0.1046 -0.4900
 1560SOL    HW116142   2.664   0.432   7.253  1.2206 -0.9989  0.7955
 1560SOL    HW216143   2.527   0.377   7.253 -0.4282  0.1094  0.1410
 1561SOL     OW16144   4.545   0.517  10.316  0.1126 -0.4198 -0.2708
 1561SOL    HW116145   4.592   0.592  10.279 -0.1522 -0.2659 -0.2909
 1561SOL    HW216146   4.469   0.545  10.367  0.9910 -1.7793  1.7860
 1562SOL     OW16147   0.780   0.992   7.443 -0.0804 -0.2034 -0.6998
 1562SOL    HW116148   0.748   1.037   7.365  2.6525 -0.8630 -2.1994
 1562SOL    HW216149   0.696   0.968   7.484  0.1172 -0.1320 -0.2595
 1563SOL     OW16150   2.112   3.134  15.485  0.2958  0.2036  0.1683
 1563SOL    HW116151   2.137   3.172  15.401 -0.9109  0.8470  0.0956
 1563SOL    HW216152   2.040   3.194  15.509 -2.3480 -3.3234  1.0639
 1564SOL     OW16153   3.208   0.457  16.350  0.1700 -0.2545  0.5405
 1564SOL    HW116154   3.151   0.530  16.374 -1.3121 -0.6507 -1.7847
 1564SOL    HW216155   3.147   0.408  16.295 -1.6648  0.5869  1.8429
 1565SOL     OW16156   4.266   3.246   6.639  0.0514 -0.1365  0.2201
 1565SOL    HW116157   4.279   3.171   6.580  1.3180  0.7716 -0.6724
 1565SOL    HW216158   4.221   3.207   6.714  0.9547 -0.3691  0.6398
 1566SOL     OW16159   1.948   3.624   6.721  0.5139 -0.3941 -0.5489
 1566SOL    HW116160   1.961   3.703   6.668 -2.7054  0.2563 -0.3533
 1566SOL    HW216161   1.855   3.609   6.701  0.2720 -1.2032  1.2090
 1567SOL     OW16162   4.010   1.526   2.626 -0.1265 -0.2313  0.4091
 1567SOL    HW116163   3.992   1.600   2.685  1.9515  1.7359 -1.3923
 1567SOL    HW216164   3.992   1.564   2.539  0.9766 -1.3850 -0.3128
 1568SOL     OW16165   1.585   1.773   6.622  0.1654  0.3425 -0.0216
 1568SOL    HW116166   1.627   1.687   6.617  1.6261  1.1217 -1.4132
 1568SOL    HW216167   1.594   1.808   6.533  1.5441  0.1558  0.0471
 1569SOL     OW16168   3.396   1.048   5.536  0.3820 -0.1987 -0.2796
 1569SOL    HW116169   3.321   1.065   5.592 -0.0304 -0.7678 -0.6600
 1569SOL    HW216170   3.417   0.960   5.568 -1.7384 -0.1753  1.1762
 1570SOL     OW16171   3.361   4.661   3.221 -0.4807 -0.0629  0.1950
 1570SOL    HW116172   3.397   4.691   3.137  0.3999  0.7663  0.8688
 1570SOL    HW216173   3.266   4.658   3.213 -0.6336 -0.5017  2.2916
 1571SOL     OW16174   2.305   3.743  10.498 -0.6201  0.0799 -0.0100
 1571SOL    HW116175   2.333   3.692  10.574 -2.9705  0.3792  1.0319
 1571SOL    HW216176   2.277   3.679  10.433 -0.7731 -0.6363  0.7628
 1572SOL     OW16177   1.937   3.166   1.689  0.0103 -0.2148 -0.2399
 1572SOL    HW116178   1.844   3.164   1.666  0.0012  0.2963 -0.2498
 1572SOL    HW216179   1.964   3.258   1.678  2.1223 -0.7519  0.3936
 1573SOL     OW16180   0.649   4.065  12.271 -0.2953  0.5492  0.5839
 1573SOL    HW116181   0.597   3.994  12.234  1.4218 -0.2978 -0.2320
 1573SOL    HW216182   0.733   4.021  12.259 -1.2671 -0.4451 -2.7570
 1574SOL     OW16183   1.991   4.227  10.994 -0.4311 -0.3078  0.0639
 1574SOL    HW116184   1.918   4.261  10.942  1.2530  2.8316 -0.2439
 1574SOL    HW216185   2.056   4.209  10.926  0.9568 -1.4844  1.6694
 1575SOL     OW16186   3.305   1.928   1.504  0.3095  0.0819 -0.7127
 1575SOL    HW116187   3.224   1.901   1.546 -0.3260 -0.0454 -2.0286
 1575SOL    HW216188   3.308   1.874   1.425 -2.0615 -1.7501  0.4333
 1576SOL     OW16189   2.386   3.715   1.434  0.2294 -0.4068 -0.3756
 1576SOL    HW116190   2.421   3.773   1.502  0.0429  0.8749 -1.3674
 1576SOL    HW216191   2.447   3.641   1.436 -0.9934 -1.4017 -0.2309
 1577SOL     OW16192   2.231   4.288  11.145 -0.1179  0.5470 -0.0265
 1577SOL    HW116193   2.155   4.311  11.199 -0.8034 -1.3314 -0.1840
 1577SOL    HW216194   2.221   4.341  11.066 -0.8023 -0.8087 -0.8621
 1578SOL     OW16195   1.088   4.658   8.362  0.1326 -0.0936 -0.1027
 1578SOL    HW116196   1.002   4.643   8.322  0.2508  0.8266 -0.7092
 1578SOL    HW216197   1.086   4.599   8.437 -2.0868  0.3054  0.1637
 1579SOL     OW16198   4.405   2.360   8.827 -0.5969 -0.4124 -0.2923
 1579SOL    HW116199   4.383   2.275   8.789 -0.5698  0.0575 -1.3513
 1579SOL    HW216200   4.338   2.415   8.787  1.0203  0.4561 -1.7551
 1580SOL     OW16201   0.247   1.261   5.667 -0.1351 -0.8128 -0.3601
 1580SOL    HW116202   0.294   1.278   5.749  2.3402 -0.2592 -1.9189
 1580SOL    HW216203   0.164   1.218   5.688 -0.5662  1.3963  2.6365
 1581SOL     OW16204   0.659   0.896   8.507  0.0036 -0.3982  0.1074
 1581SOL    HW116205   0.664   0.932   8.596  0.1061  0.0393 -0.0762
 1581SOL    HW216206   0.568   0.918   8.487  0.2082 -0.0038 -0.3665
 1582SOL     OW16207   3.212   2.917   2.337  0.0557 -0.3574 -0.3092
 1582SOL    HW116208   3.217   2.997   2.286 -0.6095  0.1235  0.3757
 1582SOL    HW216209   3.131   2.875   2.307  0.7140 -2.6675  1.1348
 1583SOL     OW16210   2.131   2.863   0.219  0.5055 -0.4217 -0.6664
 1583SOL    HW116211   2.161   2.954   0.221 -0.4443 -0.0902 -1.5934
 1583SOL    HW216212   2.056   2.867   0.160  0.7709  1.9878 -0.8526
 1584SOL     OW16213   1.287   3.806   3.574 -0.0135  0.6243 -0.3598
 1584SOL    HW116214   1.364   3.785   3.626 -0.3402  2.3331  0.8150
 1584SOL    HW216215   1.217   3.753   3.613  0.3103 -0.2268 -0.9304
 1585SOL     OW16216   3.356   2.624  15.575  0.1504 -0.0375  0.6080
 1585SOL    HW116217   3.419   2.627  15.503 -0.7055 -0.8467 -0.1633
 1585SOL    HW216218   3.277   2.663  15.537  0.8068 -1.3845 -2.1230
 1586SOL     OW16219   4.287   2.544   4.222 -0.0406  0.2205 -0.0035
 1586SOL    HW116220   4.300   2.587   4.307  1.8977 -1.1469  0.3807
 1586SOL    HW216221   4.340   2.465   4.231 -3.1732 -1.9386 -0.4128
 1587SOL     OW16222   2.718   1.609  10.038  0.9887 -0.0880 -0.6410
 1587SOL    HW116223   2.685   1.519  10.031  0.5609 -0.1070  1.9212
 1587SOL    HW216224   2.812   1.595  10.030  1.4150  1.9045  1.0674
 1588SOL     OW16225   2.217   2.429   9.463  0.0245  0.2112  0.0693
 1588SOL    HW116226   2.289   2.373   9.433  1.1898  1.1933  1.0067
 1588SOL    HW216227   2.177   2.353   9.505 -0.6149  0.3353 -0.3247
 1589SOL     OW16228   4.024   1.109   7.391 -0.0279  0.1104  0.1300
 1589SOL    HW116229   3.957   1.047   7.423 -1.1235  0.8034 -0.8147
 1589SOL    HW216230   4.010   1.180   7.454  2.7785 -0.4272  1.3659
 1590SOL     OW16231   3.166   3.172  12.051  0.1781  0.0862 -0.3199
 1590SOL    HW116232   3.106   3.097  12.057 -1.0161  0.8609 -2.6915
 1590SOL    HW216233   3.249   3.126  12.038  0.8462  1.6048 -1.3433
 1591SOL     OW16234   2.060   4.432   5.213  0.0550  0.9146 -0.2166
 1591SOL    HW116235   2.054   4.493   5.140  0.6284  0.7912 -0.3687
 1591SOL    HW216236   2.136   4.468   5.258 -0.7056 -0.0114  1.8184
 1592SOL     OW16237   1.639   1.750   1.662 -0.2530 -0.0888 -0.0422
 1592SOL    HW116238   1.592   1.733   1.744 -0.4527 -3.0474 -0.7397
 1592SOL    HW216239   1.717   1.695   1.672 -0.5825 -0.2000  1.9896
 1593SOL     OW16240   1.382   3.518  11.929 -0.0459  0.5341 -0.0343
 1593SOL    HW116241   1.347   3.460  11.862  1.5789  2.1996 -2.3188
 1593SOL    HW216242   1.463   3.468  11.943 -1.2485 -1.1107  1.0123
 1594SOL     OW16243   0.222   0.607  15.133  0.0570 -0.2963 -0.8460
 1594SOL    HW116244   0.237   0.519  15.099 -1.6339 -0.7069 -0.5369
 1594SOL    HW216245   0.128   0.614  15.113 -0.5677  0.0189  2.1438
 1595SOL     OW16246   2.266   3.817  11.935 -0.0947  0.1923 -0.1751
 1595SOL    HW116247   2.281   3.877  11.862 -1.0024  0.6314 -0.0025
 1595SOL    HW216248   2.316   3.859  12.005  1.7964  0.0300 -1.4440
 1596SOL     OW16249   2.403   3.982   7.963  0.0281  0.0532 -0.3511
 1596SOL    HW116250   2.416   4.077   7.968  0.5122 -0.0314 -0.0668
 1596SOL    HW216251   2.309   3.976   7.944  0.1201  1.6121 -1.3664
 1597SOL     OW16252   1.787   4.417   0.262  0.5069  0.0083  0.0599
 1597SOL    HW116253   1.826   4.331   0.246  1.7487  0.1795  2.0814
 1597SOL    HW216254   1.840   4.451   0.335 -0.7083  1.0190  0.4668
 1598SOL     OW16255   3.304   0.986   7.601 -0.2496 -0.3345  0.7287
 1598SOL    HW116256   3.268   1.001   7.514  0.1295  2.8418  1.1340
 1598SOL    HW216257   3.262   1.051   7.658 -0.5599  0.3135 -0.2386
 1599SOL     OW16258   0.272   3.277   1.166 -0.6473 -0.0672 -0.2735
 1599SOL    HW116259   0.324   3.223   1.224 -1.3991  0.9684  1.3541
 1599SOL    HW216260   0.339   3.291   1.099  0.7307  2.1525  1.5576
 1600SOL     OW16261   2.749   0.717  11.880  0.5064  0.4193  0.2806
 1600SOL    HW116262   2.712   0.785  11.936  0.6658 -0.3703  1.3639
 1600SOL    HW216263   2.728   0.634  11.924  2.1594  0.6787  1.5772
 1601SOL     OW16264   3.132   2.239   8.251 -0.0797 -0.9418 -0.4622
 1601SOL    HW116265   3.198   2.308   8.254  0.1923 -1.2153 -0.2632
 1601SOL    HW216266   3.155   2.188   8.328 -0.3541  0.9178  0.8606
 1602SOL     OW16267   4.496   1.127   6.026 -0.6952  0.1476  0.0563
 1602SOL    HW116268   4.456   1.141   6.112 -1.2405 -3.0269  0.3194
 1602SOL    HW216269   4.554   1.202   6.038 -1.0764  0.2366  1.3626
 1603SOL     OW16270   0.102   3.112   9.059  0.3511 -0.1375 -0.1079
 1603SOL    HW116271   0.127   3.161   9.138 -0.6866 -4.2426  2.7573
 1603SOL    HW216272   0.107   3.187   8.999  0.8030  0.6176  0.8644
 1604SOL     OW16273   1.086   3.035   5.102  0.1767  0.0487 -0.0841
 1604SOL    HW116274   1.129   3.107   5.056 -0.9403  1.6932  1.4381
 1604SOL    HW216275   1.131   2.962   5.059 -2.0623 -0.6016 -1.3425
 1605SOL     OW16276   3.623   2.710  14.090  0.6676 -0.1919  0.0808
 1605SOL    HW116277   3.548   2.703  14.032  1.0352 -0.4562 -0.3687
 1605SOL    HW216278   3.641   2.616  14.089 -4.8620 -1.2354  1.1177
 1606SOL     OW16279   4.081   2.207   7.057 -0.1428 -0.6442 -0.0027
 1606SOL    HW116280   4.106   2.249   6.975  3.8098 -0.6028  1.2412
 1606SOL    HW216281   4.028   2.279   7.091 -1.5631 -3.0200  2.7999
 1607SOL     OW16282   0.368   2.172   0.144  0.5257 -0.0825  0.5029
 1607SOL    HW116283   0.364   2.175   0.240 -0.2237 -1.6897  0.5275
 1607SOL    HW216284   0.456   2.208   0.135  0.1329  0.5329 -0.8675
 1608SOL     OW16285   1.445   1.807  12.311  0.6601  0.4390  0.0179
 1608SOL    HW116286   1.532   1.838  12.337 -0.2143  2.2701  0.7846
 1608SOL    HW216287   1.384   1.865  12.357 -0.4681 -0.4892 -0.2944
 1609SOL     OW16288   3.623   3.174   4.380 -0.3693  0.3534  0.5368
 1609SOL    HW116289   3.624   3.269   4.391  0.1627  0.4785 -0.6040
 1609SOL    HW216290   3.665   3.160   4.295  0.3207  1.3962  0.7072
 1610SOL     OW16291   1.056   3.092   2.940  0.0154 -0.6467  0.4297
 1610SOL    HW116292   0.977   3.147   2.934  1.7428  2.0651  2.3655
 1610SOL    HW216293   1.114   3.145   2.995  1.4304 -2.2575  0.4712
 1611SOL     OW16294   0.604   2.922  14.611 -0.0383 -0.1611 -0.2655
 1611SOL    HW116295   0.602   2.940  14.705  1.4433  0.1566 -0.2876
 1611SOL    HW216296   0.690   2.881  14.598  0.7485  1.7541 -1.0873
 1612SOL     OW16297   4.661   2.562   6.771 -0.1227  0.1672 -0.6389
 1612SOL    HW116298   4.571   2.588   6.789  0.9504  2.1535  1.8732
 1612SOL    HW216299   4.661   2.568   6.675 -1.7632  0.6801 -0.6060
 1613SOL     OW16300   2.526   3.308   7.754  0.0432 -0.3278 -0.6059
 1613SOL    HW116301   2.454   3.290   7.815 -0.4550 -0.8180 -1.3323
 1613SOL    HW216302   2.469   3.351   7.690 -0.9439 -1.6770 -0.6470
 1614SOL     OW16303   3.271   4.124   0.306 -0.4880 -0.4789  0.1154
 1614SOL    HW116304   3.323   4.054   0.266 -0.6249 -0.2854 -0.3919
 1614SOL    HW216305   3.253   4.090   0.394  0.2679 -2.1009 -0.3457
 1615SOL     OW16306   0.219   4.244  11.458 -0.0633  0.1454  0.6082
 1615SOL    HW116307   0.245   4.194  11.381 -2.3237  2.1899 -1.4828
 1615SOL    HW216308   0.203   4.326  11.412  1.2572 -2.4119 -4.3229
 1616SOL     OW16309   3.297   2.204   2.203  0.5016  0.1605 -0.0782
 1616SOL    HW116310   3.312   2.120   2.161 -0.0726  1.0799 -2.1094
 1616SOL    HW216311   3.328   2.185   2.292 -0.6628 -2.8555 -0.3435
 1617SOL     OW16312   1.761   3.977   6.167 -0.4889  0.5561 -0.1199
 1617SOL    HW116313   1.731   3.988   6.077  0.3020 -1.9159 -0.6717
 1617SOL    HW216314   1.851   4.009   6.165 -0.2772  0.0154  0.8605
 1618SOL     OW16315   2.806   4.379   4.491 -0.1532 -0.3371  0.1835
 1618SOL    HW116316   2.796   4.473   4.503  0.0080  0.0755 -2.7464
 1618SOL    HW216317   2.734   4.356   4.432  0.5167 -2.0379  0.0347
 1619SOL     OW16318   2.680   0.451  14.921  0.3298 -0.4665 -0.1064
 1619SOL    HW116319   2.709   0.411  15.003  0.6403  0.2694  0.1358
 1619SOL    HW216320   2.749   0.414  14.866  0.2446 -0.8170  0.0193
 1620SOL     OW16321   2.931   3.745  14.914 -0.2427 -0.4457 -0.4575
 1620SOL    HW116322   2.912   3.746  14.821 -0.1294 -1.2190 -0.4872
 1620SOL    HW216323   2.870   3.819  14.925 -2.8796 -2.5420 -0.9596
 1621SOL     OW16324   1.474   2.143   5.945 -0.3388 -0.1192 -0.5623
 1621SOL    HW116325   1.486   2.065   5.890  1.5015 -0.7620  0.7658
 1621SOL    HW216326   1.452   2.213   5.883  0.8778  0.8294  0.0811
 1622SOL     OW16327   2.813   3.879   6.790 -0.2325  0.1314 -0.7283
 1622SOL    HW116328   2.909   3.882   6.799 -0.2834  1.0278 -0.3827
 1622SOL    HW216329   2.805   3.804   6.849 -1.0947  1.1033  0.3889
 1623SOL     OW16330   2.077   2.256   7.861 -0.0721  0.7278  0.0621
 1623SOL    HW116331   2.080   2.274   7.767 -2.2695  0.3257 -0.0943
 1623SOL    HW216332   2.132   2.180   7.878 -1.4294 -0.1155  0.7075
 1624SOL     OW16333   1.281   1.337   3.683 -0.0483 -0.3305  0.1580
 1624SOL    HW116334   1.293   1.242   3.689  2.7277 -0.0382 -0.7976
 1624SOL    HW216335   1.360   1.365   3.637  0.1386 -0.1585  0.5833
 1625SOL     OW16336   2.717   3.360   3.793  0.1954 -0.6537  0.0263
 1625SOL    HW116337   2.795   3.320   3.752  1.6277  0.5938  1.5506
 1625SOL    HW216338   2.736   3.452   3.774 -0.1494  0.0775  3.2785
 1626SOL     OW16339   0.371   4.634   8.367  0.0394  0.0445  0.0900
 1626SOL    HW116340   0.296   4.576   8.383 -0.4375  0.6729  0.1748
 1626SOL    HW216341   0.401   4.643   8.458 -0.2082 -0.9019  0.2626
 1627SOL     OW16342   0.398   3.328   5.516  0.0853 -0.4264  0.2256
 1627SOL    HW116343   0.320   3.355   5.565  0.5889  2.2082 -0.3938
 1627SOL    HW216344   0.368   3.368   5.435 -1.0779 -1.2531  0.2460
 1628SOL     OW16345   4.156   1.551   8.455 -0.1130  0.1884  0.7676
 1628SOL    HW116346   4.178   1.640   8.482 -0.4422  0.8904 -1.2825
 1628SOL    HW216347   4.227   1.528   8.396 -0.3829 -3.4223  1.8294
 1629SOL     OW16348   0.300   3.292   7.448 -0.0351  0.5690  0.1066
 1629SOL    HW116349   0.350   3.320   7.372  0.4017 -2.0404 -0.5600
 1629SOL    HW216350   0.226   3.353   7.449 -0.5829 -0.0711 -2.0765
 1630SOL     OW16351   3.802   1.669   8.136 -0.4818 -0.2258 -0.2390
 1630SOL    HW116352   3.770   1.666   8.046 -0.3188 -0.1863 -0.2977
 1630SOL    HW216353   3.734   1.607   8.163 -1.8645  2.0827  1.5985
 1631SOL     OW16354   4.289   2.033   2.025 -0.5696  0.3133  0.3707
 1631SOL    HW116355   4.379   2.029   2.056 -0.8539  2.6286  1.5012
 1631SOL    HW216356   4.289   2.017   1.930  1.1147 -1.0021  0.6048
 1632SOL     OW16357   4.676   3.091   0.123 -0.1278  0.3146 -0.7339
 1632SOL    HW116358   4.595   3.094   0.173 -0.0183  0.9443 -0.5937
 1632SOL    HW216359   4.643   3.062   0.038  1.2183  1.3655 -1.6209
 1633SOL     OW16360   4.231   1.317   2.651 -0.0784 -0.0931  0.0016
 1633SOL    HW116361   4.177   1.238   2.639 -3.4263  2.1707  0.1118
 1633SOL    HW216362   4.164   1.385   2.644 -1.0348 -1.2654 -2.4174
 1634SOL     OW16363   3.962   4.466  16.183 -0.2851  0.1293 -0.2318
 1634SOL    HW116364   3.937   4.376  16.204  1.5496 -0.1754  0.6170
 1634SOL    HW216365   3.894   4.521  16.221  1.2522  2.3499 -0.6755
 1635SOL     OW16366   3.869   0.223   3.045 -0.7062 -0.8284  0.7035
 1635SOL    HW116367   3.919   0.225   2.964  0.6357  3.4229  1.6629
 1635SOL    HW216368   3.836   0.312   3.035  2.3164  0.2761  0.5178
 1636SOL     OW16369   2.957   1.530   5.198 -0.0714  0.1449 -0.2915
 1636SOL    HW116370   3.017   1.462   5.167  1.0241  1.1700 -0.4525
 1636SOL    HW216371   2.913   1.495   5.275 -2.6758 -2.0560 -2.7879
 1637SOL     OW16372   0.553   1.618   4.922 -0.1749  0.3775 -0.2741
 1637SOL    HW116373   0.546   1.706   4.885 -0.0516 -0.9922 -3.4918
 1637SOL    HW216374   0.460   1.606   4.941  0.3221 -1.8490  0.7476
 1638SOL     OW16375   0.167   2.350   0.773  0.1814 -0.4967 -0.2188
 1638SOL    HW116376   0.249   2.324   0.815  1.0762  0.4461 -1.3460
 1638SOL    HW216377   0.147   2.422   0.833  1.5763 -1.6690  1.6505
 1639SOL     OW16378   2.167   1.197   6.184 -0.1789 -0.5964  0.6046
 1639SOL    HW116379   2.227   1.267   6.157  1.5187 -1.9018  0.9863
 1639SOL    HW216380   2.227   1.149   6.241 -1.8350 -4.0839 -0.5825
 1640SOL     OW16381   3.538   3.943   1.355  0.1645  0.0189  0.0012
 1640SOL    HW116382   3.587   3.882   1.410 -0.1233  0.3688  0.6423
 1640SOL    HW216383   3.450   3.905   1.361  0.7747 -1.6809 -1.9965
 1641SOL     OW16384   0.132   2.846   2.131  0.2138  0.3012 -0.2280
 1641SOL    HW116385   0.149   2.797   2.050  0.4991  0.4419 -0.2565
 1641SOL    HW216386   0.111   2.935   2.101  1.5936  0.8473  0.4374
 1642SOL     OW16387   1.095   1.085  11.479 -0.1036  0.0785 -0.5233
 1642SOL    HW116388   1.172   1.122  11.521 -0.1728  2.0118 -2.0829
 1642SOL    HW216389   1.119   1.097  11.387 -1.8641 -0.1149 -1.0126
 1643SOL     OW16390   2.376   1.735   4.518 -0.3834 -0.1371  0.0940
 1643SOL    HW116391   2.301   1.794   4.515  0.1125  0.4251 -1.3772
 1643SOL    HW216392   2.443   1.802   4.528 -1.4338  0.7175  1.4591
 1644SOL     OW16393   2.896   4.538   2.597  0.4371  0.2446  0.8500
 1644SOL    HW116394   2.862   4.555   2.685 -1.5468 -1.6395  0.4433
 1644SOL    HW216395   2.955   4.613   2.589  1.7928 -0.9730 -0.4522
 1645SOL     OW16396   1.508   1.680   2.158  0.5084 -0.0108  0.3826
 1645SOL    HW116397   1.540   1.766   2.187 -0.0807 -0.7705  3.2729
 1645SOL    HW216398   1.423   1.671   2.202 -0.8578  2.3506 -1.8105
 1646SOL     OW16399   3.258   3.965   6.112 -0.3367  0.0724 -0.8889
 1646SOL    HW116400   3.214   3.925   6.187  1.6094  0.7094  0.5915
 1646SOL    HW216401   3.236   3.901   6.045 -1.6815 -0.7964  0.3789
 1647SOL     OW16402   3.108   3.619   4.072 -0.1667 -0.1789 -0.4237
 1647SOL    HW116403   3.089   3.574   3.989 -2.2372  0.8279 -0.4883
 1647SOL    HW216404   3.029   3.594   4.120  0.2570 -1.0083 -0.1457
 1648SOL     OW16405   2.426   2.875  10.653 -0.4198 -0.5969  0.4075
 1648SOL    HW116406   2.433   2.962  10.613 -1.2491  0.2415  2.0760
 1648SOL    HW216407   2.487   2.827  10.597 -0.6271 -0.8886  0.4282
 1649SOL     OW16408   4.670   4.006   0.175 -0.1117  0.8109  0.1260
 1649SOL    HW116409   4.662   3.940   0.107 -2.0186  2.2988 -1.0846
 1649SOL    HW216410   4.667   4.074   0.108 -0.6753  0.2558 -0.4057
 1650SOL     OW16411   1.940   2.241   2.305  0.5769 -0.4340 -0.4644
 1650SOL    HW116412   1.963   2.160   2.259 -0.2926 -0.7227 -0.3914
 1650SOL    HW216413   2.023   2.275   2.340 -0.2280  1.1811 -0.1236
 1651SOL     OW16414   3.149   2.740  15.843  0.7979 -0.2014 -0.0968
 1651SOL    HW116415   3.243   2.737  15.859  1.5600  1.4484 -4.2852
 1651SOL    HW216416   3.143   2.681  15.769  0.0531 -0.8207  0.4512
 1652SOL     OW16417   3.053   0.956  15.097  0.1815 -0.0670 -0.1968
 1652SOL    HW116418   3.143   0.973  15.126  0.8624 -1.0219 -1.7309
 1652SOL    HW216419   3.067   0.889  15.030  1.0079  1.1162 -1.1997
 1653SOL     OW16420   3.781   0.313   2.565  0.2909  0.0547  0.1690
 1653SOL    HW116421   3.734   0.391   2.595  0.8193 -0.0634  1.2959
 1653SOL    HW216422   3.720   0.243   2.590  0.1067  0.5551  1.1179
 1654SOL     OW16423   3.328   2.801   7.828 -0.4722  0.4990  0.1345
 1654SOL    HW116424   3.363   2.872   7.883 -0.4709 -0.1623  0.9872
 1654SOL    HW216425   3.233   2.804   7.835 -0.5417 -0.7754 -0.4044
 1655SOL     OW16426   2.164   4.469  10.901  0.2408  0.5568 -0.8737
 1655SOL    HW116427   2.192   4.550  10.945 -0.2632 -0.7895  1.8786
 1655SOL    HW216428   2.081   4.498  10.861 -0.4220 -0.7215 -0.4039
 1656SOL     OW16429   4.187   2.799   8.086  0.5239 -0.2432 -0.2426
 1656SOL    HW116430   4.097   2.799   8.118 -0.0971 -1.1525 -1.9839
 1656SOL    HW216431   4.194   2.887   8.049  1.5521 -0.6664 -1.0875
 1657SOL     OW16432   3.912   4.660   2.873 -0.0847 -0.0938  0.4989
 1657SOL    HW116433   3.934   4.644   2.781  1.2124  3.1679  0.2419
 1657SOL    HW216434   3.910   0.033   2.882 -0.6059 -0.1013  0.4615
 1658SOL     OW16435   2.925   1.669   2.990  0.1224  0.3185 -0.0408
 1658SOL    HW116436   2.946   1.759   2.964  1.2639 -0.0642 -0.4599
 1658SOL    HW216437   2.969   1.668   3.075 -0.7875 -0.9691  0.4042
 1659SOL     OW16438   1.019   1.952  12.919 -0.0982 -0.5250  0.0119
 1659SOL    HW116439   1.087   1.945  12.987  0.8496 -0.8557 -0.9706
 1659SOL    HW216440   0.971   2.028  12.952  0.6960 -0.0598  0.0991
 1660SOL     OW16441   3.416   4.122   4.316 -0.5243  0.4183 -0.3351
 1660SOL    HW116442   3.482   4.112   4.247 -1.4303  2.2054 -1.4688
 1660SOL    HW216443   3.385   4.032   4.311 -2.1746  0.9591  0.1256
 1661SOL     OW16444   0.156   1.310   2.201  0.5865  0.1099 -0.0531
 1661SOL    HW116445   0.163   1.330   2.108 -2.7371 -0.1155 -0.3350
 1661SOL    HW216446   0.064   1.287   2.209  1.1771 -1.5338  2.1806
 1662SOL     OW16447   3.589   1.246   7.671 -0.0080  0.2739  0.7805
 1662SOL    HW116448   3.595   1.153   7.693  0.9418  0.7151  2.3403
 1662SOL    HW216449   3.535   1.245   7.592  0.6647 -1.6587  0.3367
 1663SOL     OW16450   4.134   1.665  17.669 -0.0131 -0.0027 -0.6454
 1663SOL    HW116451   4.059   1.722  17.650 -0.2492 -0.2324 -0.4070
 1663SOL    HW216452   4.196   1.736  17.682 -0.2918 -0.2432  2.0349
 1664SOL     OW16453   3.710   2.061  15.051 -0.2909 -0.4776  0.1846
 1664SOL    HW116454   3.614   2.066  15.046 -0.3154  0.8705  2.0196
 1664SOL    HW216455   3.729   2.056  14.957  0.7301 -1.5289  0.4455
 1665SOL     OW16456   2.299   3.670   3.405 -0.2328  0.4427  0.8031
 1665SOL    HW116457   2.219   3.652   3.455 -1.2264 -1.1188 -1.3752
 1665SOL    HW216458   2.277   3.608   3.335  0.4068  1.3340 -0.1775
 1666SOL     OW16459   0.582   3.881   5.605 -0.1641 -0.4911 -0.0393
 1666SOL    HW116460   0.587   3.828   5.526  1.5329 -0.2517 -0.1092
 1666SOL    HW216461   0.634   3.955   5.573  0.2855 -0.4007  0.8867
 1667SOL     OW16462   2.992   2.245   4.734  0.7992 -0.5680 -0.2671
 1667SOL    HW116463   3.056   2.174   4.731 -0.6901 -2.0831  3.8195
 1667SOL    HW216464   2.910   2.198   4.751  0.1766  0.9243  0.8942
 1668SOL     OW16465   2.184   2.409   2.320  0.0058 -0.3642 -0.1036
 1668SOL    HW116466   2.168   2.498   2.288  2.1144  0.0386 -0.0530
 1668SOL    HW216467   2.207   2.436   2.409  1.0830 -0.4204 -0.3628
 1669SOL     OW16468   3.854   3.525   3.445  0.3235  0.4096 -0.3335
 1669SOL    HW116469   3.775   3.542   3.394 -1.2962 -1.6737  1.4660
 1669SOL    HW216470   3.916   3.558   3.380  1.1173 -3.6194 -1.6177
 1670SOL     OW16471   4.162   0.123   5.960  0.1301  0.3959 -0.4454
 1670SOL    HW116472   4.245   0.118   5.912  0.0937  0.3974 -0.5077
 1670SOL    HW216473   4.116   0.193   5.913  0.3378  0.5058 -0.4882
 1671SOL     OW16474   2.325   2.156   5.295 -0.2875  0.3715  0.1703
 1671SOL    HW116475   2.273   2.219   5.245 -1.9582 -1.0169  0.1963
 1671SOL    HW216476   2.257   2.100   5.332 -1.0946  1.6713  0.6485
 1672SOL     OW16477   2.615   2.872  15.196 -0.0625 -0.3734  0.1930
 1672SOL    HW116478   2.681   2.807  15.172  0.7628  0.1674  1.0291
 1672SOL    HW216479   2.663   2.949  15.225  2.9661 -1.1472 -2.7714
 1673SOL     OW16480   2.568   2.331   1.225 -0.0897  0.0487  0.0718
 1673SOL    HW116481   2.529   2.296   1.305 -0.8343  0.7553  0.0262
 1673SOL    HW216482   2.650   2.374   1.250  0.6220 -0.5046 -1.3172
 1674SOL     OW16483   1.472   1.505   6.011  0.1181  0.1855  0.4704
 1674SOL    HW116484   1.563   1.483   5.991  0.1068  0.7091 -0.1684
 1674SOL    HW216485   1.472   1.445   6.085  0.5788 -2.4317 -1.6307
 1675SOL     OW16486   2.366   4.369   3.932  0.1650  0.4548  0.0618
 1675SOL    HW116487   2.458   4.366   3.904 -0.7982 -0.2952 -2.9947
 1675SOL    HW216488   2.320   4.328   3.859 -0.4347 -1.0450  1.2740
 1676SOL     OW16489   0.863   0.670   8.883  0.0742 -0.3851 -0.0176
 1676SOL    HW116490   0.878   0.644   8.792  0.0442 -2.7447  0.6344
 1676SOL    HW216491   0.831   0.589   8.924  0.4590 -1.0067 -0.9412
 1677SOL     OW16492   3.137   4.033   7.607 -0.3615  0.2830  0.2686
 1677SOL    HW116493   3.232   4.034   7.609 -0.3771  2.0674 -0.1904
 1677SOL    HW216494   3.111   4.045   7.698  0.5477 -2.1268  0.8630
 1678SOL     OW16495   3.711   2.060   9.227  0.2054  0.6530  0.4751
 1678SOL    HW116496   3.805   2.044   9.232  0.5122  1.7112 -1.6891
 1678SOL    HW216497   3.670   1.974   9.230 -1.5750  1.4025 -2.0128
 1679SOL     OW16498   0.873   3.706   5.824  0.1501 -0.5010  0.4332
 1679SOL    HW116499   0.816   3.639   5.863 -0.0898 -0.4266  0.2136
 1679SOL    HW216500   0.955   3.662   5.845  0.2315 -0.3358  0.4588
 1680SOL     OW16501   2.953   1.761  11.912 -0.4078 -0.6309  0.3914
 1680SOL    HW116502   2.931   1.854  11.905 -2.4748 -1.2851 -1.8572
 1680SOL    HW216503   2.960   1.750  12.007  1.3820  0.4402  0.3806
 1681SOL     OW16504   0.588   1.709   5.774 -0.6785 -0.4560  0.0556
 1681SOL    HW116505   0.640   1.684   5.698  0.8142  0.8844  0.6224
 1681SOL    HW216506   0.641   1.788   5.790  0.2669 -0.6435 -2.1230
 1682SOL     OW16507   4.660   1.374   6.200  0.1860  0.5449 -0.1920
 1682SOL    HW116508   4.582   1.405   6.153  0.0871  1.0139  0.2866
 1682SOL    HW216509   4.713   1.347   6.125  1.4451  1.4340  0.3796
 1683SOL     OW16510   0.762   0.089   5.763  0.4445 -0.0594  0.3977
 1683SOL    HW116511   0.681   0.063   5.721 -0.3057  0.3160  1.6233
 1683SOL    HW216512   0.761   0.033   5.841 -1.0927  0.3893  0.6797
 1684SOL     OW16513   0.833   0.998  15.388 -0.2683 -0.2025  0.1035
 1684SOL    HW116514   0.786   0.915  15.383  0.2760 -0.4524 -0.7654
 1684SOL    HW216515   0.888   0.982  15.465  1.0271 -1.4432 -1.0964
 1685SOL     OW16516   1.583   2.937   3.318  0.1375  0.4254  0.0303
 1685SOL    HW116517   1.608   2.899   3.402  1.8478  1.0327 -0.1837
 1685SOL    HW216518   1.662   2.982   3.286  0.8733 -1.2976 -0.5556
 1686SOL     OW16519   0.992   4.385  11.859 -0.3791  0.1690  0.0122
 1686SOL    HW116520   0.932   4.350  11.925 -0.8836  1.7557  0.4029
 1686SOL    HW216521   1.053   4.313  11.846 -1.9294 -1.0268 -0.6270
 1687SOL     OW16522   1.200   2.073   1.180  0.3702  0.5038  0.0088
 1687SOL    HW116523   1.152   2.029   1.250  0.7811  0.5486  0.3207
 1687SOL    HW216524   1.293   2.051   1.185  0.2320 -0.0748  0.0349
 1688SOL     OW16525   1.461   3.804   9.661 -0.2045  0.0213 -0.0324
 1688SOL    HW116526   1.499   3.869   9.719  0.5907 -1.5507  1.1853
 1688SOL    HW216527   1.439   3.863   9.588 -0.1656 -0.0737 -0.1207
 1689SOL     OW16528   0.520   3.981   2.216  0.1802 -0.6751  0.2414
 1689SOL    HW116529   0.559   3.912   2.268  0.9406  0.0680  0.6528
 1689SOL    HW216530   0.600   4.034   2.217  0.8355 -1.6274 -1.8145
 1690SOL     OW16531   0.661   3.527   4.212 -0.2430 -0.6245  0.2149
 1690SOL    HW116532   0.612   3.539   4.293 -1.8485  0.4537 -0.9029
 1690SOL    HW216533   0.712   3.447   4.225  0.5691 -0.3625 -1.3008
 1691SOL     OW16534   4.018   3.269   5.457  0.3126  0.1890 -0.0046
 1691SOL    HW116535   3.990   3.220   5.535 -1.2611 -0.7552 -1.1828
 1691SOL    HW216536   4.090   3.315   5.501 -0.9880 -0.7537  3.1231
 1692SOL     OW16537   2.619   4.055   7.254 -0.4283 -0.1376 -0.6939
 1692SOL    HW116538   2.547   4.118   7.244  0.4679  0.8645 -0.7885
 1692SOL    HW216539   2.685   4.111   7.214 -0.7460  0.8605  0.1931
 1693SOL     OW16540   4.240   1.247   4.171 -0.2431  0.4125 -0.0575
 1693SOL    HW116541   4.300   1.320   4.157 -0.0518 -0.0217 -1.4969
 1693SOL    HW216542   4.161   1.300   4.157 -0.2848 -0.5497 -3.4030
 1694SOL     OW16543   3.244   4.550   5.508 -0.1380 -0.1955  0.4419
 1694SOL    HW116544   3.297   4.630   5.517  1.4653 -1.0700 -1.1667
 1694SOL    HW216545   3.183   4.574   5.438  0.0252 -2.3129 -0.4065
 1695SOL     OW16546   1.878   0.262   6.358 -0.8057  0.6741  0.5215
 1695SOL    HW116547   1.926   0.256   6.440 -0.5587  0.3833  0.3559
 1695SOL    HW216548   1.791   0.228   6.378 -0.6592 -0.0055  0.0027
 1696SOL     OW16549   3.554   2.815   5.274  0.3160 -0.6390 -0.1448
 1696SOL    HW116550   3.521   2.853   5.192  1.2347  1.2785  0.3733
 1696SOL    HW216551   3.491   2.852   5.336  0.8739  0.1963 -0.0781
 1697SOL     OW16552   3.915   2.032  16.762 -0.0335  0.1095 -0.0125
 1697SOL    HW116553   3.954   2.080  16.835  1.1041  1.0220 -1.2228
 1697SOL    HW216554   3.931   1.939  16.778 -0.1752  0.3233  1.3420
 1698SOL     OW16555   0.025   0.402   2.057 -0.2152 -0.2875  0.1633
 1698SOL    HW116556   0.034   0.419   2.151 -0.4562  2.1313 -0.2502
 1698SOL    HW216557   4.654   0.409   2.035  0.3603 -0.0383 -2.2387
 1699SOL     OW16558   3.041   1.669   2.608  0.6020  0.1434 -0.6294
 1699SOL    HW116559   3.069   1.578   2.617 -0.4918 -0.1961 -0.5865
 1699SOL    HW216560   2.971   1.654   2.545  1.3264 -2.6036 -0.7450
 1700SOL     OW16561   4.701   4.148   4.705  0.3620 -0.8387  0.1855
 1700SOL    HW116562   0.014   4.064   4.675  0.5631 -0.9967  0.8748
 1700SOL    HW216563   0.041   4.206   4.662 -0.1961 -0.3136  0.0703
 1701SOL     OW16564   3.851   0.174  10.890 -0.0926 -0.1354  0.5326
 1701SOL    HW116565   3.854   0.079  10.895 -2.0318 -0.1597  1.5414
 1701SOL    HW216566   3.758   0.187  10.912 -0.5481 -0.0051 -1.4377
 1702SOL     OW16567   0.629   4.658  13.341 -0.1318  0.5700 -0.2782
 1702SOL    HW116568   0.632   4.566  13.368  0.3650  0.4669 -0.6977
 1702SOL    HW216569   0.701   4.685  13.399 -0.2190  1.5757 -0.6397
 1703SOL     OW16570   2.334   3.439   7.574  0.5905 -0.3313 -0.0795
 1703SOL    HW116571   2.240   3.423   7.562  0.7612 -1.5117  0.1331
 1703SOL    HW216572   2.342   3.533   7.590 -1.7522 -0.4088  1.4873
 1704SOL     OW16573   1.509   4.267   5.706  0.3362  0.3129  0.2146
 1704SOL    HW116574   1.459   4.245   5.785 -0.1866 -0.7894 -0.4205
 1704SOL    HW216575   1.531   4.360   5.712 -0.6787  0.5539  0.2721
 1705SOL     OW16576   2.147   2.504  10.789 -0.4971  0.0345  0.2210
 1705SOL    HW116577   2.070   2.561  10.781 -0.3993  0.0241 -0.6936
 1705SOL    HW216578   2.145   2.482  10.883 -1.2251 -2.6869 -0.4331
 1706SOL     OW16579   2.558   1.256   1.580 -0.5406 -0.1675 -0.8794
 1706SOL    HW116580   2.596   1.283   1.496 -1.5703  0.8928 -1.0006
 1706SOL    HW216581   2.612   1.179   1.597 -1.5760 -0.2933  1.7563
 1707SOL     OW16582   2.384   0.730   8.330 -0.1136  0.2282  0.7022
 1707SOL    HW116583   2.431   0.704   8.251 -0.5416 -3.2615  1.6116
 1707SOL    HW216584   2.339   0.809   8.299 -2.0740 -1.4776 -0.7884
 1708SOL     OW16585   4.670   2.979  16.819  0.1224  0.3382  0.5232
 1708SOL    HW116586   4.662   3.039  16.893 -0.4329 -0.0785  0.8014
 1708SOL    HW216587   4.636   2.904  16.868 -0.0193 -0.8132 -1.3627
 1709SOL     OW16588   2.850   0.750   7.744 -0.2239 -0.3611  0.3750
 1709SOL    HW116589   2.901   0.695   7.684 -1.0228  1.5764 -2.0643
 1709SOL    HW216590   2.900   0.830   7.761 -0.5821 -0.1620  0.4998
 1710SOL     OW16591   4.511   4.013   6.286 -0.4822  0.3495  0.2915
 1710SOL    HW116592   4.522   4.015   6.191  0.0325  2.0143  0.3780
 1710SOL    HW216593   4.416   4.027   6.290 -0.4697  0.3812  0.4780
 1711SOL     OW16594   3.551   1.217  12.310  0.1526  0.4785 -0.1725
 1711SOL    HW116595   3.601   1.244  12.387 -1.1729  2.7261 -0.1262
 1711SOL    HW216596   3.566   1.280  12.240  2.0201 -0.6035 -0.7669
 1712SOL     OW16597   4.567   0.792   8.067  0.0340 -0.1944  0.0264
 1712SOL    HW116598   4.528   0.788   7.980  0.9154 -0.3723 -0.3606
 1712SOL    HW216599   4.492   0.799   8.126 -1.8782 -0.9363 -2.3256
 1713SOL     OW16600   2.845   2.575   2.125 -0.0388 -0.8292 -0.2368
 1713SOL    HW116601   2.871   2.588   2.034  1.8600  1.0263  0.5713
 1713SOL    HW216602   2.761   2.620   2.122 -0.6081 -2.0081 -2.0212
 1714SOL     OW16603   1.494   4.336   1.943 -0.3209 -0.1676  0.0388
 1714SOL    HW116604   1.461   4.356   2.030 -1.6075 -0.3735 -0.3891
 1714SOL    HW216605   1.515   4.242   1.949  0.0826 -0.0855 -0.0937
 1715SOL     OW16606   0.447   0.041   8.627 -1.0118 -0.1640  0.1016
 1715SOL    HW116607   0.434   0.022   8.720 -1.2338 -0.0481  0.0947
 1715SOL    HW216608   0.406   0.126   8.612  0.3020  0.2041 -1.4073
 1716SOL     OW16609   2.036   2.094   1.772 -0.2004 -0.2085  0.8974
 1716SOL    HW116610   2.121   2.058   1.749  0.3832  0.1531  2.5182
 1716SOL    HW216611   2.048   2.105   1.867  2.6169  0.5433  0.4486
 1717SOL     OW16612   0.001   1.012   2.930  0.4069 -0.1562 -0.0086
 1717SOL    HW116613   4.686   1.068   2.862  0.2128 -0.6897 -0.3410
 1717SOL    HW216614   0.095   1.031   2.933  0.3103  0.1931  0.8717
 1718SOL     OW16615   2.615   3.432   2.527  0.2612  0.2810  0.2848
 1718SOL    HW116616   2.559   3.458   2.454  2.9997  0.4986 -1.7272
 1718SOL    HW216617   2.644   3.345   2.498  1.1948  0.7136 -0.0691
 1719SOL     OW16618   1.560   4.202   8.227 -0.1530 -0.0183 -0.0583
 1719SOL    HW116619   1.605   4.247   8.156 -0.1943  0.3562  0.1508
 1719SOL    HW216620   1.469   4.221   8.205 -0.2319  0.0802  0.3388
 1720SOL     OW16621   4.118   3.633   7.282  0.4912 -0.4931 -0.5821
 1720SOL    HW116622   4.027   3.630   7.253  0.1876  0.2519  0.3048
 1720SOL    HW216623   4.143   3.558   7.228  0.3529  0.5872 -2.1302
 1721SOL     OW16624   2.869   2.772  13.648  1.1188  0.5650  0.1035
 1721SOL    HW116625   2.818   2.786  13.728 -0.3072  1.3108 -0.9252
 1721SOL    HW216626   2.949   2.822  13.659  0.5370  0.9806  2.2937
 1722SOL     OW16627   2.017   2.090   8.476  0.3167  0.2195 -0.2756
 1722SOL    HW116628   1.997   2.028   8.546  1.1216 -0.7823 -0.9425
 1722SOL    HW216629   1.927   2.123   8.475  0.4589  0.6155 -0.2418
 1723SOL     OW16630   3.075   4.463   7.350  0.3512  0.4710  0.0235
 1723SOL    HW116631   3.006   4.450   7.415  1.0605 -0.4180  0.5963
 1723SOL    HW216632   3.138   4.392   7.365  1.9300  1.3643 -2.4268
 1724SOL     OW16633   3.633   3.794   7.207  0.3622 -0.6630  0.0749
 1724SOL    HW116634   3.668   3.708   7.183  1.2765  0.1385 -1.4598
 1724SOL    HW216635   3.589   3.828   7.129  0.3634 -1.4282 -0.2573
 1725SOL     OW16636   1.133   2.302   0.877  0.2540  0.0984 -0.4183
 1725SOL    HW116637   1.060   2.250   0.844 -0.8649  0.0253  2.2229
 1725SOL    HW216638   1.194   2.239   0.838  0.3934 -0.7236  1.1431
 1726SOL     OW16639   3.028   3.310  11.831 -0.3631  0.3333 -0.0043
 1726SOL    HW116640   3.087   3.267  11.894  1.1776  2.1096 -0.2318
 1726SOL    HW216641   2.945   3.323  11.876 -0.7912 -0.8290 -0.4727
 1727SOL     OW16642   1.878   4.402  10.090  0.1211  0.0276 -0.6577
 1727SOL    HW116643   1.920   4.410  10.004 -0.9749 -1.0527 -1.3140
 1727SOL    HW216644   1.896   4.491  10.120 -1.1485  0.3590 -0.8664
 1728SOL     OW16645   4.438   1.072   7.182 -0.0268  0.2557 -0.2330
 1728SOL    HW116646   4.351   1.031   7.178 -0.7773  1.7700  0.3116
 1728SOL    HW216647   4.488   0.996   7.210 -0.9210 -1.2856 -2.8279
 1729SOL     OW16648   2.651   2.751   9.239 -0.0259  0.3765  0.4062
 1729SOL    HW116649   2.626   2.816   9.304 -0.3507 -0.4084  1.0727
 1729SOL    HW216650   2.618   2.672   9.283  1.0365 -0.9842 -1.2073
 1730SOL     OW16651   4.641   1.295  15.849  0.3827 -0.0011  0.6768
 1730SOL    HW116652   4.697   1.361  15.888  0.1955  0.9589 -0.6586
 1730SOL    HW216653   4.587   1.281  15.927  1.4983  0.1353  1.4657
 1731SOL     OW16654   4.128   4.669   6.206  0.0840 -0.3543 -0.8856
 1731SOL    HW116655   4.181   0.024   6.230 -2.2459  0.7924  0.5395
 1731SOL    HW216656   4.205   4.617   6.183 -0.5963 -0.6142 -2.5569
 1732SOL     OW16657   3.956   4.631  13.554  0.1953  0.0043 -0.1674
 1732SOL    HW116658   3.914   4.697  13.610 -2.2400 -0.0303 -1.9311
 1732SOL    HW216659   3.885   4.580  13.513 -0.4479  0.7058  0.0841
 1733SOL     OW16660   0.748   2.513  16.165  0.5295  0.3340  0.0187
 1733SOL    HW116661   0.679   2.534  16.227  0.1320 -2.0423  0.3850
 1733SOL    HW216662   0.734   2.579  16.098  1.6348  1.6624  1.0864
 1734SOL     OW16663   1.170   3.374  10.415  0.2462 -0.6462  0.3298
 1734SOL    HW116664   1.144   3.461  10.445  1.0338 -0.3057  0.0253
 1734SOL    HW216665   1.091   3.344  10.369 -0.4189 -1.7594  2.2075
 1735SOL     OW16666   4.180   0.129  13.479 -1.1568 -0.1090  0.3004
 1735SOL    HW116667   4.162   0.125  13.386 -2.2939  1.1407  0.4686
 1735SOL    HW216668   4.127   0.202  13.510  0.7485  0.9378  1.0798
 1736SOL     OW16669   0.238   3.570   5.110 -0.2218 -0.0616  0.2670
 1736SOL    HW116670   0.282   3.587   5.027  0.1376  0.0059  0.4706
 1736SOL    HW216671   0.239   3.659   5.146 -1.8831  0.1310 -0.1704
 1737SOL     OW16672   3.352   4.048  17.557  0.4957  0.1002  0.3702
 1737SOL    HW116673   3.417   4.006  17.613 -0.2783 -0.5886  0.7345
 1737SOL    HW216674   3.367   4.134  17.597  1.6381 -0.3176  0.8460
 1738SOL     OW16675   4.479   2.149   8.442  0.1309 -0.7875  0.1704
 1738SOL    HW116676   4.402   2.142   8.497  2.0433 -2.6737  2.5956
 1738SOL    HW216677   4.550   2.153   8.506  0.7849  1.9747 -0.6923
 1739SOL     OW16678   4.489   1.764   4.441  0.2768  0.1765 -0.2442
 1739SOL    HW116679   4.494   1.852   4.479  1.1107  0.6076 -1.3547
 1739SOL    HW216680   4.437   1.779   4.362  1.6936 -0.7721 -1.3575
 1740SOL     OW16681   1.285   1.661   2.341  0.3151  0.1204 -0.8696
 1740SOL    HW116682   1.300   1.568   2.327  1.6084  0.5029 -2.0424
 1740SOL    HW216683   1.309   1.661   2.434  0.4495  2.0427 -0.9038
 1741SOL     OW16684   1.455   4.038   9.505 -0.8991 -0.3495 -0.0350
 1741SOL    HW116685   1.490   4.126   9.521 -0.5689 -0.6618  0.9548
 1741SOL    HW216686   1.362   4.060   9.499 -0.2734  2.0007 -1.2121
 1742SOL     OW16687   0.447   3.935   3.872 -0.2518 -0.2434  0.4407
 1742SOL    HW116688   0.520   3.934   3.933 -0.5764 -1.4150  0.8082
 1742SOL    HW216689   0.492   3.941   3.787 -0.6409 -2.5625  0.0611
 1743SOL     OW16690   3.179   3.102   7.603  0.3415 -0.1508 -0.8399
 1743SOL    HW116691   3.271   3.126   7.597 -0.1889  2.2756  0.4460
 1743SOL    HW216692   3.132   3.184   7.623  1.5509  0.8613 -2.1620
 1744SOL     OW16693   3.435   3.794   2.860 -0.3341 -0.1436  1.1468
 1744SOL    HW116694   3.482   3.869   2.896 -1.3101  1.0803 -0.1898
 1744SOL    HW216695   3.495   3.766   2.791 -1.9375 -3.1276  0.9399
 1745SOL     OW16696   2.678   1.335   9.876  0.9647  0.7413  0.4349
 1745SOL    HW116697   2.673   1.241   9.857 -1.8702  0.8406  0.6346
 1745SOL    HW216698   2.672   1.330   9.971  2.0622 -0.1797  0.4592
 1746SOL     OW16699   3.196   2.110   8.476  0.3385  0.5960  0.3684
 1746SOL    HW116700   3.200   2.032   8.532  0.9036  1.1922  1.1549
 1746SOL    HW216701   3.280   2.146   8.503  0.0979  1.9887 -0.7940
 1747SOL     OW16702   1.284   4.439   0.367 -0.0134  0.7634 -0.8380
 1747SOL    HW116703   1.379   4.426   0.370 -0.2604 -0.0988  3.2361
 1747SOL    HW216704   1.263   4.490   0.445  0.5635 -0.0151 -0.1836
 1748SOL     OW16705   4.139   4.303   6.290  0.0578 -0.4821 -0.2080
 1748SOL    HW116706   4.087   4.286   6.368  0.8894 -1.0270  0.2289
 1748SOL    HW216707   4.214   4.338   6.338 -1.0283  1.1077  0.3229
 1749SOL     OW16708   2.832   2.976   1.134 -0.1298  0.4749 -0.4860
 1749SOL    HW116709   2.776   3.002   1.206  1.3625  0.0665  0.8351
 1749SOL    HW216710   2.910   2.939   1.177  0.5954  2.7279  0.1585
 1750SOL     OW16711   0.475   3.335   6.282  0.3337  0.2144 -0.0864
 1750SOL    HW116712   0.518   3.259   6.243 -2.1753 -0.2058 -2.0442
 1750SOL    HW216713   0.551   3.392   6.280  0.2605  0.3267  0.5677
 1751SOL     OW16714   4.703   0.502   6.852 -0.2953  0.2464 -0.3346
 1751SOL    HW116715   0.022   0.566   6.910  0.5253  0.8251 -1.5610
 1751SOL    HW216716   0.042   0.504   6.778  0.9240 -2.2503  0.5932
 1752SOL     OW16717   0.863   3.185   6.673 -0.0164 -0.4587  0.5236
 1752SOL    HW116718   0.864   3.278   6.696  0.8693 -0.3840  0.1978
 1752SOL    HW216719   0.931   3.145   6.728 -0.1514 -0.6484  0.5507
 1753SOL     OW16720   3.140   1.884  14.259 -0.4963  0.1157 -0.3011
 1753SOL    HW116721   3.164   1.826  14.186  1.7368  1.6534 -0.7953
 1753SOL    HW216722   3.052   1.909  14.232 -0.4112  0.7943  0.0577
 1754SOL     OW16723   1.939   1.049   0.498  0.2147  0.2571  0.5184
 1754SOL    HW116724   1.951   0.997   0.418 -0.1427  1.4314 -0.2965
 1754SOL    HW216725   1.994   1.123   0.473 -1.1328  1.0923  0.0644
 1755SOL     OW16726   0.099   1.714   4.212 -0.2883 -0.4217  0.7993
 1755SOL    HW116727   0.174   1.655   4.226  0.4454  0.4325  0.4737
 1755SOL    HW216728   0.093   1.697   4.118  1.3461  1.3602  0.3760
 1756SOL     OW16729   1.352   4.353  16.805 -0.5728 -0.9343 -0.4574
 1756SOL    HW116730   1.440   4.385  16.789 -0.5124 -0.3688  0.9858
 1756SOL    HW216731   1.307   4.437  16.799  3.6635  1.3610  0.0084
 1757SOL     OW16732   2.136   3.070   6.109 -0.2490  0.6431 -0.2777
 1757SOL    HW116733   2.064   3.011   6.131  1.4276 -0.8794  1.1216
 1757SOL    HW216734   2.179   3.091   6.192 -3.3207  1.8620  0.9934
 1758SOL     OW16735   4.164   3.743   3.948 -0.4696 -0.0905 -0.2694
 1758SOL    HW116736   4.157   3.655   3.912 -3.4031  0.8294 -2.0254
 1758SOL    HW216737   4.258   3.753   3.965 -0.6822  0.4922  0.5620
 1759SOL     OW16738   0.139   4.717   4.623 -0.6162 -0.5492  0.3889
 1759SOL    HW116739   0.122   4.688   4.712  1.6163  0.4804  1.1380
 1759SOL    HW216740   0.203   4.649   4.599 -0.2621  0.5035 -1.6737
 1760SOL     OW16741   4.395   3.606   7.911  0.5193  0.1737 -0.1247
 1760SOL    HW116742   4.377   3.536   7.974 -0.7359  1.0544  0.4998
 1760SOL    HW216743   4.489   3.618   7.925  0.6166 -0.1530 -0.4870
 1761SOL     OW16744   3.642   1.432   8.134 -0.0474 -0.4012 -0.0473
 1761SOL    HW116745   3.629   1.367   8.064 -1.0058 -0.0741 -0.1679
 1761SOL    HW216746   3.703   1.375   8.181 -2.5190 -2.7710  0.2901
 1762SOL     OW16747   3.719   1.430  14.152  0.2050 -0.0964  0.5147
 1762SOL    HW116748   3.696   1.516  14.187 -0.0603  0.0655 -0.0490
 1762SOL    HW216749   3.633   1.397  14.125  1.2866 -2.1867 -0.4236
 1763SOL     OW16750   2.694   4.597   5.150 -0.2618  0.1380  0.5362
 1763SOL    HW116751   2.671   4.597   5.243  2.3882  0.9258  1.1907
 1763SOL    HW216752   2.782   4.564   5.169 -0.2835 -0.6089 -0.6435
 1764SOL     OW16753   0.558   4.266   4.700 -0.3765  0.4188  0.1360
 1764SOL    HW116754   0.640   4.268   4.650 -0.8692 -0.6379 -0.7315
 1764SOL    HW216755   0.573   4.342   4.756 -2.7983  0.3816  0.8381
 1765SOL     OW16756   0.397   2.765   9.055  0.1557 -0.4621  0.4100
 1765SOL    HW116757   0.346   2.802   9.128  1.5610  0.0192  1.1422
 1765SOL    HW216758   0.326   2.748   8.993 -0.9933 -0.8736  1.8194
 1766SOL     OW16759   1.262   2.244   4.485  0.1351 -0.4682  0.3342
 1766SOL    HW116760   1.287   2.156   4.458  0.9368 -0.4183  0.9117
 1766SOL    HW216761   1.315   2.311   4.442 -1.6912  1.2595  0.7699
 1767SOL     OW16762   1.677   3.611   5.259  0.5436 -1.1070  0.1103
 1767SOL    HW116763   1.745   3.679   5.261 -2.3656  1.8353  0.4357
 1767SOL    HW216764   1.710   3.541   5.314 -1.6178 -0.2729  2.4684
 1768SOL     OW16765   2.016   1.144  10.545  0.7782 -0.4194  0.2869
 1768SOL    HW116766   2.102   1.170  10.513  0.2506 -1.4301 -1.9938
 1768SOL    HW216767   2.023   1.170  10.636  0.0164  1.6449 -0.2520
 1769SOL     OW16768   2.417   3.212  16.331  0.2006  0.1107  0.0680
 1769SOL    HW116769   2.467   3.283  16.372  1.1763 -0.4899 -0.0764
 1769SOL    HW216770   2.368   3.265  16.269  0.6889  1.1277  0.5549
 1770SOL     OW16771   4.511   4.475   3.574  0.0899  0.3402  0.0138
 1770SOL    HW116772   4.558   4.426   3.506 -0.2947  0.3265 -0.2454
 1770SOL    HW216773   4.578   4.496   3.638 -1.1759  1.3575  0.9960
 1771SOL     OW16774   0.472   0.614   4.878  0.3506 -0.5205 -0.2508
 1771SOL    HW116775   0.476   0.692   4.823  0.0013  0.4131  1.0281
 1771SOL    HW216776   0.554   0.572   4.852  1.5758  1.3523  0.6196
 1772SOL     OW16777   0.218   3.236   4.405 -0.2641  0.6731 -0.3547
 1772SOL    HW116778   0.125   3.251   4.423  0.2363  3.3017  0.0586
 1772SOL    HW216779   0.203   3.242   4.311  0.8494 -1.0586 -0.6462
 1773SOL     OW16780   0.432   4.011  13.049 -0.0635  0.5460  0.2778
 1773SOL    HW116781   0.343   4.016  13.012 -0.6504 -1.6577  1.3684
 1773SOL    HW216782   0.473   4.095  13.029  0.2237  0.1905 -0.6319
 1774SOL     OW16783   0.678   3.202   1.022  0.6942 -0.2027  0.0558
 1774SOL    HW116784   0.684   3.116   0.981 -0.2354  0.7022 -1.9722
 1774SOL    HW216785   0.762   3.248   1.022 -0.2222  1.4803  1.2346
 1775SOL     OW16786   0.973   1.142  11.123  0.0982  0.3854  0.1626
 1775SOL    HW116787   1.061   1.173  11.104  0.4036  0.8463  2.3321
 1775SOL    HW216788   0.933   1.223  11.156 -0.0586  0.2384  0.3304
 1776SOL     OW16789   3.121   3.583   9.621 -0.1269  0.1564 -0.0712
 1776SOL    HW116790   3.148   3.492   9.616 -1.4064 -0.1326 -1.3602
 1776SOL    HW216791   3.191   3.640   9.589 -0.2479 -1.2730 -2.8563
 1777SOL     OW16792   1.771   0.365   3.860 -0.1470 -0.1478 -0.2019
 1777SOL    HW116793   1.838   0.392   3.798  0.0615  0.4989  0.3074
 1777SOL    HW216794   1.825   0.310   3.917  1.4553  0.3042 -1.3097
 1778SOL     OW16795   3.988   1.767  16.337 -0.2959 -0.3534  0.7426
 1778SOL    HW116796   3.944   1.816  16.407  2.6638  1.2944  1.4582
 1778SOL    HW216797   4.001   1.839  16.274 -2.9989 -0.2834  0.2512
 1779SOL     OW16798   0.333   0.668   8.501 -0.1248  0.1273  1.0305
 1779SOL    HW116799   0.369   0.613   8.570 -0.5741 -1.4870 -0.0369
 1779SOL    HW216800   0.370   0.755   8.519 -0.2834  0.1906  1.0560
 1780SOL     OW16801   4.259   3.856   5.932  0.4730 -0.3507 -0.1749
 1780SOL    HW116802   4.200   3.832   6.004  0.3016  0.5078 -0.0239
 1780SOL    HW216803   4.209   3.923   5.884 -0.7378  0.6651  2.5095
 1781SOL     OW16804   0.247   4.090   1.688  0.1465 -0.5398 -0.1860
 1781SOL    HW116805   0.230   4.183   1.700 -0.6987 -1.1715  3.3375
 1781SOL    HW216806   0.328   4.085   1.637  1.0762  1.0124  1.1518
 1782SOL     OW16807   4.220   3.072  13.697  0.1973 -0.2599  0.8082
 1782SOL    HW116808   4.305   3.117  13.703 -1.4449  2.5345  2.9745
 1782SOL    HW216809   4.245   3.023  13.619  0.1832  1.1647 -0.0892
 1783SOL     OW16810   2.302   0.558   4.367  0.0478 -0.0941 -0.0000
 1783SOL    HW116811   2.396   0.546   4.381 -0.0287 -0.4893  0.1650
 1783SOL    HW216812   2.297   0.582   4.274  0.0379  0.6671  0.1977
 1784SOL     OW16813   4.466   4.630   6.909 -0.0838  0.3120  0.1953
 1784SOL    HW116814   4.510   4.562   6.959  1.0521 -0.2086 -1.5301
 1784SOL    HW216815   4.392   4.584   6.869  0.7203  0.4787 -1.4683
 1785SOL     OW16816   2.676   1.447  16.770  0.1408  0.0495  0.9051
 1785SOL    HW116817   2.582   1.458  16.754  0.1128  0.0095  1.0498
 1785SOL    HW216818   2.676   1.357  16.802 -0.7785 -0.1086  0.4539
 1786SOL     OW16819   3.997   1.008   3.619 -0.5112  0.6276 -0.0026
 1786SOL    HW116820   3.966   1.095   3.644 -1.4237  1.4884 -4.1138
 1786SOL    HW216821   4.057   1.017   3.545  1.4454  0.0775  1.5236
 1787SOL     OW16822   4.651   0.742  10.217 -0.1649 -0.1213  0.1460
 1787SOL    HW116823   4.617   0.827  10.190  1.2606 -0.0659 -1.4887
 1787SOL    HW216824   0.021   0.766  10.230  0.0793 -1.2651  0.5782
 1788SOL     OW16825   2.498   1.392   8.648 -0.0610  0.0331 -0.4304
 1788SOL    HW116826   2.523   1.305   8.678  0.3676  0.3994  0.2478
 1788SOL    HW216827   2.402   1.381   8.644 -0.3636  1.7650  2.3536
 1789SOL     OW16828   4.263   2.203   0.739 -0.7854 -0.0847  0.1107
 1789SOL    HW116829   4.233   2.162   0.658  0.9576 -0.1350 -0.4891
 1789SOL    HW216830   4.331   2.142   0.764  0.0038  0.2424 -1.2323
 1790SOL     OW16831   4.332   1.208  16.179 -0.0040 -0.2542  0.7224
 1790SOL    HW116832   4.419   1.235  16.150 -0.0565 -0.7766  0.0855
 1790SOL    HW216833   4.289   1.281  16.134  0.4822  0.7566  1.9005
 1791SOL     OW16834   0.636   1.246  13.297 -0.2081 -0.1652 -0.3808
 1791SOL    HW116835   0.659   1.311  13.230  2.1979  0.0486  0.6449
 1791SOL    HW216836   0.716   1.193  13.300 -1.0457 -1.3906  0.4182
 1792SOL     OW16837   1.038   0.125   1.905  0.4356 -0.0020 -0.2333
 1792SOL    HW116838   1.071   0.192   1.964  0.6535 -1.0898  0.8873
 1792SOL    HW216839   1.056   0.168   1.822  1.3539 -0.7996 -0.4494
 1793SOL     OW16840   4.361   3.282   8.785  0.2045  0.4112 -0.0172
 1793SOL    HW116841   4.335   3.317   8.699 -0.0159 -0.7055 -0.4100
 1793SOL    HW216842   4.301   3.211   8.809 -0.2852  0.6065 -0.6414
 1794SOL     OW16843   0.189   1.377   4.424  0.1623 -0.1963  0.4576
 1794SOL    HW116844   0.219   1.417   4.342  0.0666  2.3422  1.6570
 1794SOL    HW216845   0.119   1.436   4.453  0.0923 -0.1284  0.1481
 1795SOL     OW16846   3.280   4.373  13.654 -0.3888  0.0342 -0.2848
 1795SOL    HW116847   3.328   4.421  13.722 -1.1072 -0.6214  0.6872
 1795SOL    HW216848   3.286   4.445  13.592 -1.5840 -1.0796 -1.6923
 1796SOL     OW16849   2.835   0.297  17.188  0.3384 -0.0422  0.0532
 1796SOL    HW116850   2.870   0.377  17.148  1.1682 -0.1487  0.5598
 1796SOL    HW216851   2.917   0.261  17.220  1.4689  0.5772 -2.1522
 1797SOL     OW16852   1.178   0.507   3.053  0.1932 -0.5872  0.1552
 1797SOL    HW116853   1.115   0.443   3.020 -1.3319  1.2058 -0.4190
 1797SOL    HW216854   1.125   0.586   3.061  0.3972 -0.4314 -0.0522
 1798SOL     OW16855   0.563   0.453   6.042 -0.0310  0.0636 -0.3941
 1798SOL    HW116856   0.574   0.436   5.949  1.0253  1.2096 -0.4874
 1798SOL    HW216857   0.529   0.543   6.045 -0.8721 -0.2352 -1.5091
 1799SOL     OW16858   3.958   3.963   3.302 -0.0513  0.1116 -1.1793
 1799SOL    HW116859   4.026   4.001   3.356 -1.2978  0.9024 -0.1662
 1799SOL    HW216860   3.893   4.033   3.297  1.0772  1.1582 -1.1194
 1800SOL     OW16861   0.253   1.153   2.861  0.6331 -0.1432  0.3418
 1800SOL    HW116862   0.231   1.235   2.816  0.3106  0.2417  1.1948
 1800SOL    HW216863   0.315   1.128   2.792  1.0918  0.6201  0.4799
 1801SOL     OW16864   0.912   1.961   1.915 -0.1990 -0.5845  0.1246
 1801SOL    HW116865   0.887   1.980   1.825 -0.4413 -0.3370  0.2444
 1801SOL    HW216866   0.839   1.901   1.931 -0.8434  0.6196  1.6824
 1802SOL     OW16867   0.231   2.034   7.462 -0.0913 -0.2600 -0.1631
 1802SOL    HW116868   0.286   2.101   7.502 -0.0521  0.9502 -2.2790
 1802SOL    HW216869   0.148   2.081   7.458 -0.2583 -0.5571 -0.2589
 1803SOL     OW16870   2.040   3.450   7.575  0.0513 -0.1307  0.4686
 1803SOL    HW116871   2.038   3.545   7.563  1.4567 -0.5151 -2.5354
 1803SOL    HW216872   1.995   3.416   7.497  1.7670 -0.9189 -0.1692
 1804SOL     OW16873   2.013   0.538   9.176 -0.3116 -0.1717  0.4605
 1804SOL    HW116874   2.024   0.485   9.255  1.9202 -0.8734 -0.3159
 1804SOL    HW216875   2.096   0.556   9.131  1.7272 -1.1221  3.8382
 1805SOL     OW16876   4.069   2.667   1.275 -0.4738 -0.4509 -0.9137
 1805SOL    HW116877   4.088   2.587   1.324 -0.0741  0.0434 -0.2648
 1805SOL    HW216878   4.112   2.734   1.329  0.4174 -2.4860  0.8722
 1806SOL     OW16879   4.439   4.615   6.464  0.4774 -0.0998  0.0968
 1806SOL    HW116880   4.496   4.573   6.400  0.5059 -0.3827  0.3067
 1806SOL    HW216881   4.515   4.642   6.517 -0.3119 -0.8770  1.6327
 1807SOL     OW16882   4.307   1.422   3.665 -0.1004  0.1465  0.1411
 1807SOL    HW116883   4.344   1.387   3.584 -0.6917 -0.7397  0.2402
 1807SOL    HW216884   4.223   1.462   3.639 -0.5967 -1.2300 -0.3910
 1808SOL     OW16885   2.642   2.095   2.198  0.1476  0.0233 -0.2928
 1808SOL    HW116886   2.707   2.162   2.222  1.3293 -1.5274  0.8048
 1808SOL    HW216887   2.579   2.148   2.148 -0.8423 -1.9934 -1.1518
 1809SOL     OW16888   3.474   3.541   5.986 -0.3132  0.1964  0.2005
 1809SOL    HW116889   3.469   3.570   6.078  3.2051  0.4872  0.3007
 1809SOL    HW216890   3.398   3.487   5.967  0.6514 -1.0201 -0.2622
 1810SOL     OW16891   3.162   0.464   7.434 -0.4709 -0.3531 -0.4351
 1810SOL    HW116892   3.212   0.391   7.398  2.4718  1.9521 -1.0701
 1810SOL    HW216893   3.080   0.416   7.438 -1.1480  0.7884 -0.3738
 1811SOL     OW16894   3.646   3.283   3.241 -0.3962  0.7287 -0.2439
 1811SOL    HW116895   3.629   3.199   3.199  0.6780  0.6534 -0.5390
 1811SOL    HW216896   3.583   3.340   3.199 -1.1326  0.1815  0.1153
 1812SOL     OW16897   0.821   2.029   7.725 -0.0475 -0.1568  0.7526
 1812SOL    HW116898   0.732   1.997   7.736 -0.1190 -0.1938  0.0646
 1812SOL    HW216899   0.874   1.949   7.729  1.4660  0.9993  4.1321
 1813SOL     OW16900   2.207   4.185   6.331  0.4886 -0.1289 -0.5850
 1813SOL    HW116901   2.237   4.159   6.418  2.6920 -0.0630 -1.3418
 1813SOL    HW216902   2.293   4.218   6.305  0.4633 -0.5333 -1.1858
 1814SOL     OW16903   0.776   2.077   8.358 -0.6222 -0.8714  0.0087
 1814SOL    HW116904   0.682   2.072   8.375 -0.7679 -0.8127 -0.7609
 1814SOL    HW216905   0.795   1.986   8.382  1.4843 -0.2876  0.4793
 1815SOL     OW16906   3.663   1.847  14.111 -0.2366 -0.0316 -0.2510
 1815SOL    HW116907   3.688   1.787  14.182 -0.8097  0.3655  0.2931
 1815SOL    HW216908   3.606   1.792  14.057 -2.3675 -0.1045  2.0718
 1816SOL     OW16909   4.466   4.391   6.694 -0.3805 -0.5664  0.3685
 1816SOL    HW116910   4.535   4.335   6.658 -2.4017 -1.2583 -2.3765
 1816SOL    HW216911   4.474   4.463   6.632  0.9547  1.1743  2.5277
 1817SOL     OW16912   2.779   3.811   0.515  0.0122 -0.3280 -0.2872
 1817SOL    HW116913   2.825   3.791   0.433  2.7189 -1.0327  1.3870
 1817SOL    HW216914   2.705   3.756   0.492 -0.8299  0.9351 -0.5747
 1818SOL     OW16915   0.670   4.447   6.622 -0.1431  0.3961 -0.1796
 1818SOL    HW116916   0.708   4.376   6.571 -0.6851  0.5478 -0.8031
 1818SOL    HW216917   0.605   4.488   6.565 -0.3001 -0.5834 -0.7032
 1819SOL     OW16918   3.877   4.190   4.991  0.2378 -0.0112  0.3874
 1819SOL    HW116919   3.841   4.165   5.076  2.1940  1.4848  1.6576
 1819SOL    HW216920   3.870   4.285   5.000 -1.0727 -0.2250  1.7021
 1820SOL     OW16921   1.927   4.361   8.310  0.0087  0.3771 -0.0269
 1820SOL    HW116922   1.859   4.346   8.376 -0.5379  1.6750 -0.2843
 1820SOL    HW216923   2.000   4.379   8.370 -1.0862  0.5557  1.2601
 1821SOL     OW16924   4.042   2.509  14.802  0.3136 -0.7741 -0.4254
 1821SOL    HW116925   3.986   2.432  14.788 -2.2357  1.1524 -0.8948
 1821SOL    HW216926   4.103   2.478  14.868 -0.3994  1.0767  1.0865
 1822SOL     OW16927   0.669   2.368   6.512  0.0482 -0.2971  0.8622
 1822SOL    HW116928   0.763   2.361   6.495  0.3371  1.7955  1.6081
 1822SOL    HW216929   0.665   2.416   6.595  0.9270 -0.6107  1.0778
 1823SOL     OW16930   1.331   2.637   1.980  0.2599 -0.0307 -0.2676
 1823SOL    HW116931   1.357   2.643   2.071 -0.9751 -0.1394  0.0991
 1823SOL    HW216932   1.245   2.597   1.997 -0.8265  3.6303  2.7831
 1824SOL     OW16933   2.570   3.962  17.190 -0.1885  0.7399 -0.2820
 1824SOL    HW116934   2.590   3.881  17.237  0.7965 -0.8696 -3.4370
 1824SOL    HW216935   2.523   3.932  17.112 -0.6425 -0.3939  0.4255
 1825SOL     OW16936   2.601   1.024   3.637  0.0996  0.2816 -0.0867
 1825SOL    HW116937   2.634   1.055   3.553  1.6081 -0.8884  0.0761
 1825SOL    HW216938   2.605   0.929   3.626 -0.0579  0.3080 -0.3867
 1826SOL     OW16939   4.234   2.288   7.879  0.7665 -0.4285 -0.0665
 1826SOL    HW116940   4.138   2.284   7.872  0.6680 -1.4312  1.6434
 1826SOL    HW216941   4.251   2.381   7.866  0.5401 -0.3282  0.3435
 1827SOL     OW16942   2.309   3.934   3.125  0.6759  0.3140  0.1521
 1827SOL    HW116943   2.341   3.958   3.212  1.2319 -0.0987  0.0612
 1827SOL    HW216944   2.218   3.929   3.153  0.0274  0.0688 -2.0639
 1828SOL     OW16945   1.173   2.353   4.730  0.1088  0.5107  0.0351
 1828SOL    HW116946   1.250   2.402   4.761  0.6917 -0.2409 -0.2389
 1828SOL    HW216947   1.205   2.341   4.641  0.3527  0.2330  0.1600
 1829SOL     OW16948   3.626   4.392   3.624 -0.3334 -0.1623  0.1824
 1829SOL    HW116949   3.680   4.314   3.630 -1.6819 -1.2130 -1.3201
 1829SOL    HW216950   3.635   4.411   3.530 -0.7819 -0.3367  0.1017
 1830SOL     OW16951   4.364   2.728  11.235 -0.1240 -0.0999 -0.5618
 1830SOL    HW116952   4.439   2.669  11.225 -1.1609 -1.4183 -0.6103
 1830SOL    HW216953   4.395   2.777  11.311 -1.1625  0.1491 -0.2990
 1831SOL     OW16954   0.395   1.618   1.859  0.2870  0.0215 -0.4995
 1831SOL    HW116955   0.443   1.668   1.925  1.7998  1.9263 -2.9810
 1831SOL    HW216956   0.309   1.606   1.898 -0.2525  0.1656 -1.6455
 1832SOL     OW16957   0.050   1.562   5.172  0.4034  0.0827 -0.2934
 1832SOL    HW116958   0.025   1.472   5.195 -1.3532  1.0440  1.6243
 1832SOL    HW216959   0.032   1.596   5.260  1.8016 -0.5777  0.2475
 1833SOL     OW16960   0.536   1.587   3.370 -0.3916 -0.2883  0.4860
 1833SOL    HW116961   0.629   1.584   3.394  0.3672 -0.0393 -2.3964
 1833SOL    HW216962   0.534   1.581   3.275 -3.0705  1.9174  0.4105
 1834SOL     OW16963   1.184   1.216   1.734 -0.0134  0.2454  0.2784
 1834SOL    HW116964   1.131   1.136   1.737  1.1406 -0.5387 -0.0574
 1834SOL    HW216965   1.214   1.215   1.643  1.1408  0.6123  0.6591
 1835SOL     OW16966   2.752   4.084   5.106 -0.1019 -0.0088 -0.4302
 1835SOL    HW116967   2.757   4.174   5.073  0.7052  0.8674  2.0744
 1835SOL    HW216968   2.845   4.060   5.102  0.2424  0.9921  1.8323
 1836SOL     OW16969   1.053   2.322   6.169 -0.1209 -0.8967 -0.0163
 1836SOL    HW116970   1.137   2.368   6.177 -0.3609 -0.8037  1.8966
 1836SOL    HW216971   1.075   2.252   6.230 -0.3426  0.7851  2.0270
 1837SOL     OW16972   3.255   1.712  17.343  0.1259 -0.2836 -0.5903
 1837SOL    HW116973   3.325   1.775  17.329 -0.9879  0.7409 -1.6574
 1837SOL    HW216974   3.309   1.635  17.360  2.6681  0.9989 -2.8946
 1838SOL     OW16975   2.140   3.822  14.021 -0.2188  0.3336  0.4413
 1838SOL    HW116976   2.082   3.754  14.056  2.1992 -0.8636  2.1512
 1838SOL    HW216977   2.090   3.824  13.939 -2.4096 -1.2996  1.7224
 1839SOL     OW16978   1.757   0.748  17.648 -0.3031 -0.0366 -0.3084
 1839SOL    HW116979   1.672   0.787  17.631 -0.1686  0.1049 -0.6554
 1839SOL    HW216980   1.770   0.705  17.563  1.5934  1.3327 -0.7305
 1840SOL     OW16981   2.195   0.159  11.191 -0.2092  0.2800  0.1294
 1840SOL    HW116982   2.218   0.180  11.281 -0.5256  0.1880  0.2310
 1840SOL    HW216983   2.102   0.180  11.199 -0.9150 -2.0600 -2.0019
 1841SOL     OW16984   1.054   0.047   9.956 -0.0482 -0.2267  0.4017
 1841SOL    HW116985   1.020   0.014  10.039 -0.3811 -2.0500 -0.4534
 1841SOL    HW216986   1.006   0.129   9.943  1.2133  0.9025  3.0227
 1842SOL     OW16987   3.903   1.752  11.771  0.1331  0.2699 -0.5427
 1842SOL    HW116988   3.944   1.679  11.724 -0.6310  1.0800 -2.4831
 1842SOL    HW216989   3.823   1.710  11.801  0.9856  0.3186  1.8118
 1843SOL     OW16990   0.142   1.089   4.033 -0.1216  0.0403  0.3072
 1843SOL    HW116991   0.188   1.070   3.951 -1.8584  0.7313 -0.8188
 1843SOL    HW216992   0.062   1.131   4.000 -0.9033 -1.9252 -0.3201
 1844SOL     OW16993   1.980   1.666   8.105  0.0426  0.0239 -0.4891
 1844SOL    HW116994   1.983   1.596   8.171  0.4205  0.1795 -0.3422
 1844SOL    HW216995   2.067   1.660   8.067 -0.4932  1.6922 -1.9804
 1845SOL     OW16996   0.900   4.333   8.388  0.2258  0.4700 -0.4740
 1845SOL    HW116997   0.903   4.243   8.356  1.0665  0.1370  0.5325
 1845SOL    HW216998   0.976   4.328   8.446  0.6584  0.5640 -1.0210
 1846SOL     OW16999   1.856   2.758   2.465 -0.1843  0.3378 -0.1648
 1846SOL    HW117000   1.914   2.827   2.433  2.2346 -0.1287  3.2038
 1846SOL    HW217001   1.916   2.709   2.522 -0.5585 -1.8283 -1.6391
 1847SOL     OW17002   4.360   3.301  16.228 -0.1867  0.1256  0.6123
 1847SOL    HW117003   4.273   3.328  16.199 -1.2152 -0.3219  3.2366
 1847SOL    HW217004   4.384   3.377  16.281  0.8733  0.2685 -0.0772
 1848SOL     OW17005   3.254   2.182  11.188 -0.1472  0.0661 -0.1222
 1848SOL    HW117006   3.319   2.122  11.223  1.7599  1.0239 -2.0323
 1848SOL    HW217007   3.213   2.126  11.122 -0.5390 -1.4628  1.4283
 1849SOL     OW17008   3.510   2.928   1.146  0.0221  0.0725 -0.0610
 1849SOL    HW117009   3.463   2.847   1.165 -0.3331 -0.1145 -1.7734
 1849SOL    HW217010   3.510   2.911   1.052  1.2111 -1.0450  0.1426
 1850SOL     OW17011   3.679   4.224   6.171  0.3022 -0.4447 -0.5410
 1850SOL    HW117012   3.586   4.200   6.167  0.2025  0.0066 -0.9126
 1850SOL    HW217013   3.674   4.291   6.239 -1.4550 -2.4582  1.2820
 1851SOL     OW17014   3.191   1.808   3.380 -0.3657 -0.1751 -0.0975
 1851SOL    HW117015   3.140   1.862   3.440  1.2335  1.2062  0.0156
 1851SOL    HW217016   3.258   1.874   3.363 -0.1652 -0.0951  1.0050
 1852SOL     OW17017   2.303   2.930   6.787  0.2833  0.4801 -0.3564
 1852SOL    HW117018   2.333   2.863   6.726 -0.7800  0.0658 -0.4221
 1852SOL    HW217019   2.367   2.939   6.858  1.0302  1.1351 -1.1134
 1853SOL     OW17020   2.888   0.957  16.559 -0.3230  0.3153  0.0208
 1853SOL    HW117021   2.867   0.992  16.645  0.1659  4.3886 -1.5147
 1853SOL    HW217022   2.892   0.866  16.588  2.0639  0.1059 -0.9349
 1854SOL     OW17023   2.650   2.972   6.254 -0.5608  0.0339  0.1094
 1854SOL    HW117024   2.689   3.060   6.255  0.1951 -0.2777 -2.4404
 1854SOL    HW217025   2.562   2.989   6.286  0.3138  1.2072  1.8842
 1855SOL     OW17026   3.781   3.784   1.424  0.0703 -0.0444  0.2819
 1855SOL    HW117027   3.792   3.863   1.477  2.5621 -0.0322 -0.2444
 1855SOL    HW217028   3.860   3.740   1.456 -1.1455 -1.9765  0.6037
 1856SOL     OW17029   2.570   3.417   1.449 -0.6081  0.0463 -0.0880
 1856SOL    HW117030   2.574   3.459   1.363 -1.4387  1.0145  0.3373
 1856SOL    HW217031   2.569   3.323   1.434 -1.4822  0.0307  0.0593
 1857SOL     OW17032   3.466   2.953   0.601  0.1404 -0.0999  0.0380
 1857SOL    HW117033   3.532   3.007   0.646 -0.1383  1.0857 -0.9553
 1857SOL    HW217034   3.397   2.956   0.666  1.6611 -1.2250  1.7025
 1858SOL     OW17035   0.189   3.917   3.650 -0.3824  0.0649 -0.1246
 1858SOL    HW117036   0.231   3.894   3.567  0.1260  0.9616 -0.1115
 1858SOL    HW217037   0.154   4.002   3.625 -0.4084  0.7437  2.1949
 1859SOL     OW17038   4.057   0.095   9.311  0.2895 -0.2631 -0.5995
 1859SOL    HW117039   3.975   0.109   9.359  1.1654  0.1020  0.7879
 1859SOL    HW217040   4.034   0.092   9.219  0.1615 -5.4067 -0.4191
 1860SOL     OW17041   3.916   2.404   7.157 -0.9864 -0.5545  0.1837
 1860SOL    HW117042   3.838   2.384   7.210 -2.1613  0.9383 -0.9802
 1860SOL    HW217043   3.971   2.427   7.232 -0.1073 -0.2124 -0.5746
 1861SOL     OW17044   3.899   0.069   4.750  0.3525  0.0370 -0.0177
 1861SOL    HW117045   3.814   0.089   4.711  1.4392  1.6120 -1.5938
 1861SOL    HW217046   3.873   0.080   4.842  0.2011 -0.2900 -0.0217
 1862SOL     OW17047   0.095   0.014   6.238  0.7760  0.1557 -0.2553
 1862SOL    HW117048   0.118   4.662   6.293  0.4194  0.8319  0.8069
 1862SOL    HW217049   0.072   4.693   6.156 -0.1941  0.9539 -0.4138
 1863SOL     OW17050   1.427   3.938   3.972 -0.1702  0.2242  0.2271
 1863SOL    HW117051   1.455   4.029   3.960 -1.8279  0.8288  1.0380
 1863SOL    HW217052   1.337   3.946   3.940 -0.0939  2.0256  0.4292
 1864SOL     OW17053   4.298   1.318   2.131 -0.0177  0.5969  0.2065
 1864SOL    HW117054   4.354   1.243   2.113 -0.8874  0.5653 -2.3692
 1864SOL    HW217055   4.219   1.312   2.077  0.1966  0.5620 -0.1018
 1865SOL     OW17056   1.092   0.012   6.688  0.2406  1.0448  0.1029
 1865SOL    HW117057   1.187   0.008   6.680  0.1023 -2.6280  0.0321
 1865SOL    HW217058   1.084   0.019   6.783 -1.0380  2.3739 -0.1057
 1866SOL     OW17059   2.914   3.828   7.783  0.1678 -0.1251 -0.6713
 1866SOL    HW117060   2.937   3.898   7.845 -0.9152 -0.5742  0.2348
 1866SOL    HW217061   2.820   3.819   7.799  0.5888 -0.9696  1.3073
 1867SOL     OW17062   1.991   3.381   7.324 -0.3534  0.1893  0.3142
 1867SOL    HW117063   1.943   3.418   7.249 -0.9086 -0.1068  0.5201
 1867SOL    HW217064   2.078   3.387   7.284 -0.8835  0.1644 -0.8607
 1868SOL     OW17065   2.058   3.630  15.363  0.0020  0.2287 -0.3814
 1868SOL    HW117066   2.076   3.722  15.346  0.9575  0.2798  0.8810
 1868SOL    HW217067   2.018   3.643  15.449 -0.8260 -0.1391 -0.7058
 1869SOL     OW17068   3.981   4.644   2.553 -0.3088 -0.1111  0.1034
 1869SOL    HW117069   3.950   4.721   2.505  0.6811 -1.8911 -3.4268
 1869SOL    HW217070   3.897   4.599   2.563  0.3870 -1.3080  0.5954
 1870SOL     OW17071   3.385   4.176   1.604  0.0140  0.2186 -0.1879
 1870SOL    HW117072   3.292   4.198   1.609  0.2659  0.2258  4.9450
 1870SOL    HW217073   3.393   4.130   1.688  2.9868  0.8718 -0.1195
 1871SOL     OW17074   0.258   0.954   7.950  0.1131  0.0207  0.2081
 1871SOL    HW117075   0.336   0.900   7.938 -0.7725 -1.0309 -0.8257
 1871SOL    HW217076   0.203   0.901   8.008 -0.4787 -0.2418 -0.5817
 1872SOL     OW17077   0.413   3.845   6.696 -0.1870 -0.3038 -0.2984
 1872SOL    HW117078   0.344   3.779   6.699  2.4080 -3.0410 -1.1482
 1872SOL    HW217079   0.374   3.903   6.631  2.0148  0.7841 -0.6279
 1873SOL     OW17080   0.305   0.999   8.723  0.2013  0.4787 -0.3130
 1873SOL    HW117081   0.331   0.953   8.802  0.9457  0.0876 -0.7937
 1873SOL    HW217082   0.211   1.002   8.743  0.5498  0.8960  1.2509
 1874SOL     OW17083   3.784   1.739   9.651 -0.2505 -0.0718 -0.1102
 1874SOL    HW117084   3.770   1.834   9.647  0.1858  0.0548  1.6473
 1874SOL    HW217085   3.695   1.704   9.651 -0.6539  0.9569 -1.3706
 1875SOL     OW17086   1.310   4.374  15.754 -0.0706 -0.0733  0.0468
 1875SOL    HW117087   1.220   4.343  15.740 -0.5894  1.8328 -0.9586
 1875SOL    HW217088   1.301   4.445  15.690 -3.8392  0.1021  0.7296
 1876SOL     OW17089   3.075   2.521   3.575  1.0440  0.7981  0.5763
 1876SOL    HW117090   3.003   2.550   3.630 -1.0357 -2.7352 -0.2660
 1876SOL    HW217091   3.039   2.444   3.531  2.0007 -0.1408  1.4401
 1877SOL     OW17092   3.463   3.929  10.094  0.2617 -0.3008  0.3873
 1877SOL    HW117093   3.389   3.897  10.146 -0.8304 -1.5452 -1.9389
 1877SOL    HW217094   3.501   3.986  10.160 -1.0835 -0.2341  1.0970
 1878SOL     OW17095   4.713   0.870  10.566 -0.6113  0.5596 -0.1036
 1878SOL    HW117096   4.689   0.949  10.517 -1.9579  1.0698  1.3695
 1878SOL    HW217097   4.625   0.840  10.591 -0.3080 -0.8747 -0.7876
 1879SOL     OW17098   2.410   0.943   9.881  0.2048  0.0558 -0.5793
 1879SOL    HW117099   2.319   0.964   9.903  0.1162 -0.4595 -0.4439
 1879SOL    HW217100   2.445   0.964   9.968 -0.0182  3.0704 -1.2127
 1880SOL     OW17101   3.798   3.810   4.940 -0.5542 -0.2352 -0.8239
 1880SOL    HW117102   3.754   3.761   4.870 -0.3545  1.6489 -2.2830
 1880SOL    HW217103   3.823   3.734   4.993 -0.6351  1.2386  1.3222
 1881SOL     OW17104   2.739   4.291   9.037 -0.3377  0.4009 -0.3140
 1881SOL    HW117105   2.759   4.249   8.953 -1.6700  1.3050 -1.0869
 1881SOL    HW217106   2.789   4.373   9.029  0.4154 -0.0421 -0.1418
 1882SOL     OW17107   3.950   1.695   5.124 -0.1020 -0.7620  0.3465
 1882SOL    HW117108   4.018   1.709   5.058 -0.9746 -3.0903 -1.0503
 1882SOL    HW217109   3.978   1.611   5.160 -0.9516 -1.0308  0.3724
 1883SOL     OW17110   0.467   3.165   6.048 -0.3323  0.2787  0.0919
 1883SOL    HW117111   0.539   3.226   6.029  0.7211 -0.4495  1.6863
 1883SOL    HW217112   0.516   3.098   6.097 -0.2479  0.5948  0.4371
 1884SOL     OW17113   3.176   2.702   4.138  0.0932 -0.1873  0.5181
 1884SOL    HW117114   3.220   2.712   4.053 -0.2932 -1.0365  0.2249
 1884SOL    HW217115   3.099   2.756   4.123 -1.5609 -1.7253  3.5807
 1885SOL     OW17116   0.282   3.389   5.287  0.2285  0.0689 -0.7676
 1885SOL    HW117117   0.263   3.453   5.218  3.3009  0.2123 -1.4778
 1885SOL    HW217118   0.279   3.314   5.229  0.1015  0.2780 -1.0315
 1886SOL     OW17119   2.693   4.675   5.660  0.4419 -0.3257 -0.3233
 1886SOL    HW117120   2.651   0.039   5.654 -0.8065 -0.8174  1.5829
 1886SOL    HW217121   2.626   4.617   5.695 -0.2336  0.9143  0.4467
 1887SOL     OW17122   3.946   3.190   4.424 -0.1034  0.2668 -0.3516
 1887SOL    HW117123   3.998   3.226   4.495  2.9447  0.5999 -2.7697
 1887SOL    HW217124   3.905   3.269   4.390  1.3365  0.2484 -2.1478
 1888SOL     OW17125   0.537   4.004  16.875 -0.4224  0.1874 -0.5689
 1888SOL    HW117126   0.496   3.926  16.837 -0.9892 -0.1028  0.6433
 1888SOL    HW217127   0.581   4.030  16.794  0.0597  1.3840  0.0861
 1889SOL     OW17128   4.666   0.324   1.801  0.1152  0.0016  0.5838
 1889SOL    HW117129   4.624   0.238   1.797  0.9098 -0.3081 -1.3031
 1889SOL    HW217130   4.717   0.302   1.879  0.6775 -3.8427 -0.8388
 1890SOL     OW17131   2.163   3.021   2.592  0.2957  0.0522  0.1265
 1890SOL    HW117132   2.074   3.014   2.626 -0.5086  3.2413 -1.3434
 1890SOL    HW217133   2.186   3.111   2.611 -0.3658 -0.0749  1.4982
 1891SOL     OW17134   4.051   1.504  10.791 -0.3184 -0.4068 -0.1043
 1891SOL    HW117135   3.967   1.468  10.817  0.4397 -2.0561  0.0459
 1891SOL    HW217136   4.106   1.440  10.835 -0.6846  0.8649  2.1699
 1892SOL     OW17137   0.679   4.305   6.854  0.3964 -0.4199 -0.0644
 1892SOL    HW117138   0.695   4.375   6.917  0.2961 -0.9708  0.5730
 1892SOL    HW217139   0.669   4.347   6.769  1.3928  0.8607  0.4436
 1893SOL     OW17140   0.543   2.060   5.120 -0.2592  0.3712  0.0825
 1893SOL    HW117141   0.492   2.035   5.198  0.0970  1.2542  0.6010
 1893SOL    HW217142   0.595   1.981   5.108 -0.5988  0.1378  0.1442
 1894SOL     OW17143   3.754   4.501  13.385  0.0462  0.2450 -0.1046
 1894SOL    HW117144   3.678   4.546  13.422  0.0420 -0.3423  0.6054
 1894SOL    HW217145   3.722   4.413  13.406 -0.1909  0.3431 -0.0511
 1895SOL     OW17146   3.035   1.711  16.223 -0.7016 -0.0186  0.7206
 1895SOL    HW117147   2.945   1.689  16.247 -1.1289  0.4368 -0.4618
 1895SOL    HW217148   3.051   1.795  16.267  0.5323  0.7249 -1.1709
 1896SOL     OW17149   4.464   0.016   4.531 -0.1455  0.5655 -0.6040
 1896SOL    HW117150   4.415   0.064   4.464 -0.4044  1.9780  0.6008
 1896SOL    HW217151   4.414   0.042   4.609 -1.1584  1.6013 -1.6024
 1897SOL     OW17152   2.542   2.886   9.433 -0.3659  0.3681  0.1845
 1897SOL    HW117153   2.473   2.953   9.436  0.5897  1.2898  1.3373
 1897SOL    HW217154   2.534   2.834   9.513  0.3328  1.3418  0.8963
 1898SOL     OW17155   0.871   0.119   8.658 -0.1924  0.2460  0.1470
 1898SOL    HW117156   0.897   0.182   8.725  1.5996 -1.4170  1.0290
 1898SOL    HW217157   0.853   0.045   8.715  1.2693 -0.2939 -0.0920
 1899SOL     OW17158   2.012   3.704   8.622  0.4176 -0.7823  0.0505
 1899SOL    HW117159   2.073   3.774   8.599  0.3134 -0.1424  1.6844
 1899SOL    HW217160   1.949   3.717   8.552 -0.3504  0.1278  0.9142
 1900SOL     OW17161   0.261   0.529  13.920 -0.8139  0.3092  0.6137
 1900SOL    HW117162   0.348   0.542  13.882 -1.4086  1.2092 -0.4419
 1900SOL    HW217163   0.208   0.585  13.863 -1.3070 -0.4371  0.3464
 1901SOL     OW17164   0.824   4.603   8.005 -0.3365  0.4480 -0.2957
 1901SOL    HW117165   0.732   4.616   7.981 -0.5297 -0.9794 -0.3155
 1901SOL    HW217166   0.807   4.602   8.100 -1.0539  0.1321 -0.4225
 1902SOL     OW17167   4.403   2.015  13.167  0.1769 -0.6633 -0.1721
 1902SOL    HW117168   4.392   1.940  13.225  0.5932 -0.4603  0.1757
 1902SOL    HW217169   4.462   1.994  13.095 -1.6598 -2.7751 -1.0407
 1903SOL     OW17170   3.900   2.640  15.847  0.0849 -0.5134  0.0601
 1903SOL    HW117171   3.961   2.608  15.913  1.4160  0.7776 -0.5350
 1903SOL    HW217172   3.882   2.727  15.881  0.1215 -0.2233 -0.6702
 1904SOL     OW17173   1.407   0.483   2.210 -0.5989  0.4186  0.5460
 1904SOL    HW117174   1.344   0.467   2.281 -2.7367 -1.8576 -1.9098
 1904SOL    HW217175   1.366   0.562   2.174  1.1811  2.3147  2.6254
 1905SOL     OW17176   2.738   2.516   6.975  0.1339 -0.4017  0.2145
 1905SOL    HW117177   2.780   2.531   6.890 -0.8176 -2.2859 -0.5869
 1905SOL    HW217178   2.649   2.533   6.945  0.6760  1.4906 -0.3245
 1906SOL     OW17179   2.186   0.220   3.328  0.1173 -0.1090 -0.2752
 1906SOL    HW117180   2.106   0.220   3.276  1.2830  0.6429 -2.0419
 1906SOL    HW217181   2.254   0.248   3.267 -0.1738 -0.0817 -0.5852
 1907SOL     OW17182   0.668   0.817   5.501 -0.4464  0.1697  0.8939
 1907SOL    HW117183   0.618   0.759   5.559 -0.4097 -0.3214  0.4299
 1907SOL    HW217184   0.623   0.899   5.522  3.0150  1.6522  2.5287
 1908SOL     OW17185   3.645   2.378   8.010  0.2840  0.1879  0.0956
 1908SOL    HW117186   3.565   2.423   8.037  0.7837  1.1981 -0.1121
 1908SOL    HW217187   3.702   2.434   8.062  2.4925 -1.4743 -0.5445
 1909SOL     OW17188   1.641   2.143   3.798  0.4160  0.7028  0.4209
 1909SOL    HW117189   1.562   2.096   3.823  1.3346 -1.1707 -0.1486
 1909SOL    HW217190   1.711   2.079   3.813  1.5239  1.5199 -1.2708
 1910SOL     OW17191   1.066   1.815   7.425 -0.1570  0.0859  0.5227
 1910SOL    HW117192   1.042   1.798   7.516  2.3528 -3.2168  0.5832
 1910SOL    HW217193   1.011   1.754   7.376 -0.4567  1.5944 -1.0311
 1911SOL     OW17194   0.023   4.621   6.003  0.4853  1.0032 -0.4507
 1911SOL    HW117195   0.049   4.647   5.915 -0.8558 -0.5347 -1.3022
 1911SOL    HW217196   4.654   4.649   6.008  0.7758  1.5730  1.5228
 1912SOL     OW17197   3.830   3.093   2.367 -0.1517  0.7619  0.0317
 1912SOL    HW117198   3.758   3.079   2.429  0.6097 -0.4676  0.6448
 1912SOL    HW217199   3.797   3.046   2.290 -1.9875 -0.2075  1.4053
 1913SOL     OW17200   3.586   2.204   4.768 -0.3189  0.1221  0.4058
 1913SOL    HW117201   3.580   2.292   4.804 -1.8902  0.8704 -1.7683
 1913SOL    HW217202   3.656   2.173   4.827  1.0322  0.4478 -1.0168
 1914SOL     OW17203   4.358   1.584  12.983 -0.1507  0.3051 -0.2554
 1914SOL    HW117204   4.382   1.546  12.899  1.5596  0.9066 -0.0490
 1914SOL    HW217205   4.439   1.565  13.031  0.9111  2.2410 -1.2773
 1915SOL     OW17206   3.701   4.129   6.734  0.1994 -0.0215 -0.1100
 1915SOL    HW117207   3.708   4.059   6.799 -2.0557 -0.2235 -0.0860
 1915SOL    HW217208   3.725   4.089   6.651  1.3357  1.1457 -0.3517
 1916SOL     OW17209   1.727   1.276   9.519  0.2778 -0.1878  0.2126
 1916SOL    HW117210   1.783   1.212   9.474  1.2863  1.2593 -0.5848
 1916SOL    HW217211   1.712   1.240   9.606 -1.1427 -0.6006 -0.2112
 1917SOL     OW17212   3.316   2.052   5.382 -0.3622 -0.7027 -0.0409
 1917SOL    HW117213   3.239   1.998   5.363 -1.9702  1.2123  1.0451
 1917SOL    HW217214   3.371   2.018   5.312 -0.3944  0.7919 -0.7794
 1918SOL     OW17215   3.557   1.941   1.666  0.5483  0.1512  0.2234
 1918SOL    HW117216   3.536   2.025   1.707  0.2520  0.9737 -1.6459
 1918SOL    HW217217   3.483   1.932   1.607  0.6541 -0.3486  0.1722
 1919SOL     OW17218   2.759   0.181   6.499  0.0216 -0.0657 -0.7690
 1919SOL    HW117219   2.851   0.156   6.496  0.7763  2.4151  1.2411
 1919SOL    HW217220   2.744   0.195   6.593  1.9298 -0.8836 -0.3315
 1920SOL     OW17221   1.048   1.626   8.821  0.2906 -0.4613 -0.0392
 1920SOL    HW117222   1.140   1.632   8.848  0.4182  1.4046 -0.8434
 1920SOL    HW217223   0.996   1.628   8.901 -0.3324  0.9377 -0.4770
 1921SOL     OW17224   3.042   1.635   9.722  0.3055  0.0530  0.3437
 1921SOL    HW117225   3.000   1.550   9.720  1.6677 -0.6400  1.6754
 1921SOL    HW217226   3.017   1.660   9.811 -1.1867 -0.2797  0.0136
 1922SOL     OW17227   2.729   3.866   5.783  0.0817  0.0332 -0.7205
 1922SOL    HW117228   2.672   3.845   5.709 -0.0491 -0.5283 -0.4599
 1922SOL    HW217229   2.668   3.848   5.854 -0.6645 -0.6687 -1.5348
 1923SOL     OW17230   0.470   4.483  15.301  0.2364 -0.0180 -0.1942
 1923SOL    HW117231   0.438   4.521  15.383  3.4925  1.1851  0.5292
 1923SOL    HW217232   0.441   4.393  15.314 -1.2446  0.3263 -1.2410
 1924SOL     OW17233   0.369   4.068   3.089  0.2862  0.0799  0.5816
 1924SOL    HW117234   0.332   4.134   3.148 -0.0223  2.0001 -1.7667
 1924SOL    HW217235   0.335   4.104   3.008  0.5332 -2.0536 -0.4709
 1925SOL     OW17236   3.991   4.662   7.971 -0.2857  0.0661 -0.2190
 1925SOL    HW117237   3.929   4.591   7.955 -0.5705  0.4568 -0.8033
 1925SOL    HW217238   3.970   0.002   7.902  0.2907  1.6589  1.0261
 1926SOL     OW17239   1.083   4.679   0.193 -0.2637  0.1381 -0.3396
 1926SOL    HW117240   1.012   4.719   0.243  1.0114 -0.3359  1.8662
 1926SOL    HW217241   1.055   0.005   0.115 -0.1780  2.5006  1.0820
 1927SOL     OW17242   3.786   2.540   5.333  0.3453 -0.4929  0.9492
 1927SOL    HW117243   3.722   2.562   5.400  0.6954  1.0943  0.7661
 1927SOL    HW217244   3.849   2.612   5.341 -0.7843  0.6955 -0.6549
 1928SOL     OW17245   0.927   2.432   6.584 -0.1331  0.1609 -0.4003
 1928SOL    HW117246   0.906   2.523   6.606 -3.4724 -0.7452  0.1633
 1928SOL    HW217247   0.989   2.410   6.653  1.2953  1.9411 -1.1092
 1929SOL     OW17248   3.451   0.660   2.408  0.0738 -0.6754  0.1621
 1929SOL    HW117249   3.424   0.601   2.337 -0.0868 -0.5556  0.1203
 1929SOL    HW217250   3.441   0.600   2.481  0.0667 -0.8947 -0.0197
 1930SOL     OW17251   3.665   0.983  12.404  0.5253 -0.1265  0.0158
 1930SOL    HW117252   3.621   1.063  12.377 -1.0052 -0.9863 -0.0676
 1930SOL    HW217253   3.647   0.975  12.498 -1.5132  1.6023 -0.2497
 1931SOL     OW17254   2.931   2.772   0.169 -0.6374  0.1380 -0.0450
 1931SOL    HW117255   2.846   2.733   0.150 -0.0351 -2.4019  2.5216
 1931SOL    HW217256   2.964   2.728   0.247  2.2712  1.1253 -0.7123
 1932SOL     OW17257   4.636   4.353   2.969  0.3134 -0.1503 -0.3644
 1932SOL    HW117258   4.575   4.422   2.992  2.4634  1.4847  0.4256
 1932SOL    HW217259   4.574   4.280   2.970 -1.3451  1.2451 -1.2506
 1933SOL     OW17260   0.675   3.838   7.180  0.0552  0.4548 -0.2583
 1933SOL    HW117261   0.644   3.771   7.241  0.0424  1.0200  0.3605
 1933SOL    HW217262   0.766   3.808   7.177 -1.0703 -2.8174 -1.7952
 1934SOL     OW17263   0.198   0.161   2.389  0.0611  0.1653 -0.4619
 1934SOL    HW117264   0.120   0.149   2.443  0.3246  1.1905  0.1474
 1934SOL    HW217265   0.216   0.074   2.353 -1.3277 -0.6420  0.7963
 1935SOL     OW17266   0.442   3.608  17.324 -0.1039 -0.4395  0.5781
 1935SOL    HW117267   0.536   3.626  17.325 -0.7602  2.9167  2.3539
 1935SOL    HW217268   0.425   3.625  17.417 -1.6504  0.0690  0.1937
 1936SOL     OW17269   3.480   0.468   1.775 -0.5132 -0.1704  0.0752
 1936SOL    HW117270   3.539   0.520   1.720  2.0002 -0.9536  2.0403
 1936SOL    HW217271   3.453   0.530   1.843 -1.0279 -1.4484  1.0365
 1937SOL     OW17272   4.172   4.323   8.065  0.6484 -0.4352  0.0014
 1937SOL    HW117273   4.252   4.271   8.074  0.0961 -1.2115  0.3726
 1937SOL    HW217274   4.132   4.282   7.987  0.9445 -2.2795  0.8077
 1938SOL     OW17275   3.382   3.378   5.701  0.4910 -0.0244  0.3444
 1938SOL    HW117276   3.437   3.351   5.628 -0.9311  2.2905 -1.5875
 1938SOL    HW217277   3.384   3.307   5.765 -2.2703 -1.6501 -1.4096
 1939SOL     OW17278   4.142   1.391   4.861  0.0153  0.1433 -0.4796
 1939SOL    HW117279   4.114   1.300   4.849  0.2087  0.2793 -2.0127
 1939SOL    HW217280   4.060   1.440   4.859  1.3045  2.3146  0.7458
 1940SOL     OW17281   3.715   3.543   4.532  0.1594 -0.4354  0.2751
 1940SOL    HW117282   3.631   3.503   4.556  0.8720 -2.5641 -0.7628
 1940SOL    HW217283   3.727   3.598   4.609  0.8749 -0.1849 -0.0112
 1941SOL     OW17284   3.420   4.080   6.644 -0.1324 -0.0225 -0.5828
 1941SOL    HW117285   3.431   4.172   6.619 -0.7039 -0.0270 -0.8556
 1941SOL    HW217286   3.507   4.062   6.679 -1.0093 -2.3699  0.3364
 1942SOL     OW17287   2.325   2.805   8.659 -0.4248 -0.4520  0.0360
 1942SOL    HW117288   2.352   2.734   8.717 -1.4360 -0.2415  0.7816
 1942SOL    HW217289   2.379   2.881   8.679  2.0715 -2.4987  1.0171
 1943SOL     OW17290   4.279   3.719   5.410 -0.1684  0.4247  0.4084
 1943SOL    HW117291   4.291   3.682   5.497  0.9188  0.9285  0.4713
 1943SOL    HW217292   4.342   3.789   5.425 -1.3174  1.4953  0.2080
 1944SOL     OW17293   1.042   0.980   7.338 -0.2074  0.8633 -0.0188
 1944SOL    HW117294   0.954   0.986   7.375 -0.4766 -1.0927 -0.3181
 1944SOL    HW217295   1.053   1.074   7.329  1.3653  0.7974  1.2597
 1945SOL     OW17296   0.678   1.551  14.532 -0.1847  0.0635  0.5362
 1945SOL    HW117297   0.636   1.480  14.580  1.1990 -1.7615 -0.9391
 1945SOL    HW217298   0.771   1.548  14.556  0.3737 -0.2660 -1.7039
 1946SOL     OW17299   2.430   4.705  13.091  0.6090 -0.4581  0.1029
 1946SOL    HW117300   2.443   0.077  13.096  0.7176 -0.3882 -1.3834
 1946SOL    HW217301   2.387   4.695  13.005  1.9654 -0.9288 -0.5143
 1947SOL     OW17302   2.320   2.813   7.557  0.1555  0.0693  0.0018
 1947SOL    HW117303   2.310   2.784   7.466  0.1975  1.0424 -0.3164
 1947SOL    HW217304   2.230   2.801   7.587 -0.4421  3.6036 -0.3512
 1948SOL     OW17305   2.049   3.583   2.036 -0.3708 -0.2022  0.2495
 1948SOL    HW117306   1.970   3.630   2.009 -0.3011 -0.2541 -0.0507
 1948SOL    HW217307   2.115   3.626   1.982 -0.6644  1.5223  1.2358
 1949SOL     OW17308   1.250   1.981   2.738 -0.7151 -0.1342  0.3959
 1949SOL    HW117309   1.317   2.027   2.789 -1.6218  0.1756  1.2981
 1949SOL    HW217310   1.170   2.002   2.787 -1.1181  0.1354 -0.3767
 1950SOL     OW17311   0.842   2.688   2.798 -0.2305  0.0701 -0.0307
 1950SOL    HW117312   0.923   2.719   2.757 -1.0321  1.9128 -0.2418
 1950SOL    HW217313   0.786   2.669   2.723  0.3578 -0.6119 -0.2978
 1951SOL     OW17314   2.355   3.495   8.447  0.3263 -0.1113  0.0582
 1951SOL    HW117315   2.288   3.474   8.382 -0.4611  0.7612  0.5837
 1951SOL    HW217316   2.301   3.514   8.524  1.2315 -0.9949  0.9123
 1952SOL     OW17317   1.845   0.063   4.951 -0.2083 -0.1615 -0.0000
 1952SOL    HW117318   1.870   0.154   4.971 -0.6984  0.3267 -1.6295
 1952SOL    HW217319   1.833   0.072   4.857 -0.7338 -1.1549 -0.0217
 1953SOL     OW17320   3.948   4.200  12.530  0.0842 -0.1009 -0.2804
 1953SOL    HW117321   4.026   4.241  12.568  1.4854 -1.4409 -1.6812
 1953SOL    HW217322   3.968   4.200  12.436  0.4118 -1.3185 -0.2218
 1954SOL     OW17323   0.646   3.778   0.158  0.3832 -0.2494  0.2041
 1954SOL    HW117324   0.648   3.838   0.233  2.7980 -0.8803  0.6377
 1954SOL    HW217325   0.583   3.713   0.191 -2.3259  3.0718  1.5045
 1955SOL     OW17326   2.688   4.544   3.047  0.4188  0.2873 -0.0964
 1955SOL    HW117327   2.705   4.612   2.982 -0.6138  0.8346  0.2024
 1955SOL    HW217328   2.641   4.478   2.997  1.1168 -0.8788  0.7844
 1956SOL     OW17329   0.944   0.316   4.330  0.6021  0.4375 -0.0333
 1956SOL    HW117330   0.937   0.374   4.254  0.3337  0.2642 -0.1416
 1956SOL    HW217331   0.941   0.384   4.398 -2.7090  1.5054 -1.2151
 1957SOL     OW17332   0.801   3.983   7.467 -0.5242  0.2440 -0.0831
 1957SOL    HW117333   0.847   4.001   7.385  0.4075  2.4328  0.9007
 1957SOL    HW217334   0.782   3.890   7.463 -0.0407  0.1657 -0.6215
 1958SOL     OW17335   3.645   2.026   4.451  0.3285  0.4841 -0.2911
 1958SOL    HW117336   3.612   1.980   4.373  1.5397  1.1575 -1.2075
 1958SOL    HW217337   3.739   2.009   4.443  0.4048  0.3022  0.9960
 1959SOL     OW17338   3.995   3.475   8.617  0.1822 -0.5643  0.5017
 1959SOL    HW117339   3.932   3.545   8.637 -1.2424 -1.1588 -1.8886
 1959SOL    HW217340   4.067   3.500   8.676 -1.5420  0.2482  2.2840
 1960SOL     OW17341   3.608   0.349   4.923 -0.2720 -0.5966  0.6199
 1960SOL    HW117342   3.647   0.262   4.933  0.3480 -0.1240  2.4918
 1960SOL    HW217343   3.560   0.356   5.006 -2.2477  0.5007 -0.6308
 1961SOL     OW17344   4.294   4.176   5.859  0.4700  0.0809 -0.8394
 1961SOL    HW117345   4.223   4.145   5.803 -1.5468  0.6652  1.4447
 1961SOL    HW217346   4.251   4.241   5.915  0.7367  0.2213 -0.7947
 1962SOL     OW17347   3.809   2.641   5.062  0.1835 -0.2979  0.0371
 1962SOL    HW117348   3.785   2.616   5.151  3.9705 -3.6575  0.1574
 1962SOL    HW217349   3.828   2.558   5.018 -0.9550 -1.4706  1.7939
 1963SOL     OW17350   0.355   2.450   0.276 -0.3682  0.7199  0.2042
 1963SOL    HW117351   0.315   2.414   0.355  0.3350 -0.2790  0.1126
 1963SOL    HW217352   0.298   2.415   0.207  0.3752 -1.4833  0.7172
 1964SOL     OW17353   2.451   3.302   3.681  0.3303 -0.0540 -0.0392
 1964SOL    HW117354   2.534   3.337   3.712 -0.3739 -0.2289  2.0982
 1964SOL    HW217355   2.482   3.293   3.591  1.2177 -0.4845  0.3098
 1965SOL     OW17356   4.029   0.088  14.895 -0.1565  0.1585 -0.3382
 1965SOL    HW117357   4.088   0.118  14.825 -1.2098 -0.2600 -1.4056
 1965SOL    HW217358   4.029   4.717  14.874 -0.3999 -0.2654  1.5426
 1966SOL     OW17359   3.896   2.555   4.231  0.1803 -0.1511 -0.1102
 1966SOL    HW117360   3.851   2.628   4.187 -1.5046 -1.2706 -0.2204
 1966SOL    HW217361   3.886   2.578   4.324 -2.1203 -3.8168  0.5364
 1967SOL     OW17362   4.277   3.809  11.700 -0.0785  0.3061 -0.4191
 1967SOL    HW117363   4.363   3.820  11.740  0.0465 -2.2299 -0.0018
 1967SOL    HW217364   4.314   3.766  11.623  0.9563  1.3447 -0.4982
 1968SOL     OW17365   1.627   1.603   9.293 -0.5871 -0.6936  0.7808
 1968SOL    HW117366   1.716   1.611   9.328 -0.6286 -0.3190  0.8005
 1968SOL    HW217367   1.619   1.511   9.316 -1.3611 -0.4411  1.5203
 1969SOL     OW17368   3.003   2.255   3.896  0.0024 -0.3123 -0.3044
 1969SOL    HW117369   3.087   2.273   3.937 -0.5974  0.6827  0.4775
 1969SOL    HW217370   3.020   2.241   3.803 -2.6107  3.3797 -1.3215
 1970SOL     OW17371   1.807   4.184   8.875 -0.2922  0.1874  0.5724
 1970SOL    HW117372   1.753   4.182   8.954 -0.0530  0.5217  0.7480
 1970SOL    HW217373   1.854   4.266   8.890  0.5103  0.1099 -1.4894
 1971SOL     OW17374   2.614   1.978  16.770  0.2294 -0.2222 -0.4739
 1971SOL    HW117375   2.633   1.966  16.677  1.6290 -0.5943 -0.1313
 1971SOL    HW217376   2.545   1.914  16.787 -0.9676  1.2122  0.1262
 1972SOL     OW17377   3.138   1.450   3.592  0.2678  0.3460  0.0141
 1972SOL    HW117378   3.154   1.401   3.673  0.7431  0.2130 -0.1611
 1972SOL    HW217379   3.209   1.514   3.590  0.4618  0.1135 -0.5462
 1973SOL     OW17380   2.660   4.682  16.966  0.5436 -0.4371 -0.2626
 1973SOL    HW117381   2.604   4.604  16.975  0.2224 -0.0587  1.0230
 1973SOL    HW217382   2.709   4.681  17.048  0.8608  0.6052 -0.4390
 1974SOL     OW17383   0.591   3.519   8.577  0.4148  0.2014  0.0257
 1974SOL    HW117384   0.657   3.546   8.512  0.4861  0.8590  0.3668
 1974SOL    HW217385   0.631   3.444   8.620  1.3098  0.0028 -1.1290
 1975SOL     OW17386   2.426   2.062   8.592 -0.4436  0.6728 -0.3528
 1975SOL    HW117387   2.352   2.002   8.592 -1.5621  2.0689  1.4756
 1975SOL    HW217388   2.410   2.100   8.505 -1.2405  0.8186 -0.1416
 1976SOL     OW17389   1.192   3.419  16.985 -0.4056 -0.5840 -0.2702
 1976SOL    HW117390   1.178   3.504  17.026  0.2387 -0.4702 -0.2956
 1976SOL    HW217391   1.147   3.357  17.042  0.1609  0.0130  0.8209
 1977SOL     OW17392   1.737   3.467   3.840 -0.4363 -0.0141  0.0122
 1977SOL    HW117393   1.739   3.446   3.933  2.5396 -0.2316 -0.1067
 1977SOL    HW217394   1.689   3.550   3.844 -0.6513 -0.1558  0.3642
 1978SOL     OW17395   4.597   4.213   6.465  0.3042  0.1701  0.3340
 1978SOL    HW117396   4.585   4.130   6.420 -0.4644  0.8526 -0.7165
 1978SOL    HW217397   4.691   4.219   6.448  0.6455 -0.1379  2.1126
 1979SOL     OW17398   2.885   3.955   3.258  0.2024 -0.3020 -0.5354
 1979SOL    HW117399   2.954   3.899   3.222  2.9517  0.2309  3.8595
 1979SOL    HW217400   2.932   3.999   3.329 -0.9665 -0.9800  0.6450
 1980SOL     OW17401   3.004   4.713   2.327  0.7005 -0.2331 -0.5515
 1980SOL    HW117402   3.093   4.706   2.360  0.8923 -0.3178 -1.0924
 1980SOL    HW217403   3.015   0.008   2.234 -0.0391  0.1831 -0.5677
 1981SOL     OW17404   3.299   4.068   8.924 -0.1992  0.5530 -0.4639
 1981SOL    HW117405   3.309   3.978   8.956  1.4986  1.1783  0.7927
 1981SOL    HW217406   3.288   4.048   8.831  0.6140 -1.6969 -0.0721
 1982SOL     OW17407   0.577   2.344   8.409  0.0418  0.1149  0.2965
 1982SOL    HW117408   0.540   2.399   8.478 -1.9593 -0.3624 -0.4014
 1982SOL    HW217409   0.495   2.321   8.364 -1.4059  0.0825  2.9579
 1983SOL     OW17410   1.186   1.464   8.155 -0.3695  0.8767  0.3201
 1983SOL    HW117411   1.104   1.505   8.183  0.4758  2.1619  0.9504
 1983SOL    HW217412   1.246   1.538   8.167  2.4339 -1.4986  0.7742
 1984SOL     OW17413   1.201   4.176   4.050  0.1070 -0.0582  0.3899
 1984SOL    HW117414   1.206   4.099   3.993  1.7547  1.1655 -1.1250
 1984SOL    HW217415   1.159   4.243   3.996 -0.9482 -1.0952 -0.0784
 1985SOL     OW17416   0.533   2.987   7.677  0.9735  0.1397  0.3376
 1985SOL    HW117417   0.450   2.985   7.629  1.4469 -0.2468 -0.4609
 1985SOL    HW217418   0.589   3.049   7.630  1.0969 -1.0313 -1.0387
 1986SOL     OW17419   2.673   1.260   3.798  0.5514 -0.3720  0.3300
 1986SOL    HW117420   2.740   1.276   3.865 -1.3288  1.1501  1.8403
 1986SOL    HW217421   2.683   1.171   3.766 -1.5795 -1.0925  1.6797
 1987SOL     OW17422   1.047   1.012  14.034  0.1490 -0.5834  0.0004
 1987SOL    HW117423   1.058   0.992  14.127 -2.1553 -1.6902  0.0386
 1987SOL    HW217424   0.999   1.094  14.035  2.1929  0.6285 -0.7637
 1988SOL     OW17425   3.517   0.160   5.853 -0.0231  0.8019 -0.1636
 1988SOL    HW117426   3.445   0.216   5.825 -0.3588  1.4039  1.8647
 1988SOL    HW217427   3.588   0.221   5.837 -0.3792  0.4433 -2.9764
 1989SOL     OW17428   1.942   4.098   6.857 -0.2809 -0.5437  0.2837
 1989SOL    HW117429   2.027   4.133   6.831 -0.0256 -0.9708  0.5278
 1989SOL    HW217430   1.897   4.174   6.821  1.4377  0.1340 -0.4323
 1990SOL     OW17431   3.299   3.814   1.341  0.0972  0.6799  0.3679
 1990SOL    HW117432   3.204   3.823   1.347 -0.0330  1.2503 -2.6998
 1990SOL    HW217433   3.300   3.839   1.249  2.2260  1.0578  0.5046
 1991SOL     OW17434   2.380   1.393  16.772 -0.2651 -0.3279 -0.0154
 1991SOL    HW117435   2.354   1.375  16.682  0.7461  1.5780 -0.6960
 1991SOL    HW217436   2.375   1.488  16.773 -0.7064 -0.3587  1.0484
 1992SOL     OW17437   1.385   3.226  10.465 -0.2710 -0.2926 -0.6399
 1992SOL    HW117438   1.303   3.273  10.446  1.0715  1.6488 -1.6597
 1992SOL    HW217439   1.386   3.232  10.561  1.9635  1.8165 -0.7977
 1993SOL     OW17440   1.502   0.867   3.778 -0.1930  0.0034 -0.5681
 1993SOL    HW117441   1.544   0.900   3.857 -1.6660  0.5099  0.0022
 1993SOL    HW217442   1.569   0.876   3.711 -0.1569  2.6283 -0.1561
 1994SOL     OW17443   2.490   0.445  12.730  0.1432  0.5744 -0.1944
 1994SOL    HW117444   2.458   0.527  12.693 -1.4898  0.3510  0.6930
 1994SOL    HW217445   2.408   0.422  12.774  0.0823  0.9638 -0.1028
 1995SOL     OW17446   1.209   2.274   7.635  0.3443 -0.3819  0.3744
 1995SOL    HW117447   1.142   2.209   7.613 -0.0391 -1.1345  3.7994
 1995SOL    HW217448   1.159   2.347   7.671  3.9700  0.1567  4.3221
 1996SOL     OW17449   3.106   2.608   5.036  0.5946  0.5067 -0.5086
 1996SOL    HW117450   3.123   2.650   5.120 -0.7015 -0.3098  0.1572
 1996SOL    HW217451   3.126   2.515   5.049 -2.5396  0.0706  1.3175
 1997SOL     OW17452   2.541   0.939   7.889  0.2567  0.4543 -0.4683
 1997SOL    HW117453   2.528   0.856   7.844  0.9014  1.1906 -2.0357
 1997SOL    HW217454   2.519   0.993   7.813 -0.1313 -0.4517 -0.9921
 1998SOL     OW17455   0.486   1.510   8.800 -0.1561 -0.4972 -0.2028
 1998SOL    HW117456   0.529   1.588   8.835 -1.9912  0.7782 -0.8231
 1998SOL    HW217457   0.432   1.542   8.728 -0.6269  0.0291  0.3810
 1999SOL     OW17458   4.312   0.243   1.952  0.1243 -0.6314 -0.2423
 1999SOL    HW117459   4.240   0.298   1.983 -0.2656  0.4484 -3.0843
 1999SOL    HW217460   4.376   0.313   1.935  1.1836 -1.3685  0.7499
 2000SOL     OW17461   4.620   4.679  15.023 -0.3640  0.7092 -0.3813
 2000SOL    HW117462   4.625   4.585  15.038 -0.5016  0.6685 -0.5984
 2000SOL    HW217463   4.587   4.707  15.108  0.1958  1.2361 -0.3367
 2001SOL     OW17464   1.421   1.688   0.382 -0.2536 -0.1859 -0.0124
 2001SOL    HW117465   1.473   1.611   0.402 -0.3734 -0.0437  0.8478
 2001SOL    HW217466   1.332   1.657   0.402  0.2837 -0.3481  2.1343
 2002SOL     OW17467   2.982   1.440   8.386 -0.0561 -0.3022 -0.1559
 2002SOL    HW117468   3.034   1.360   8.384 -0.1850 -0.3997  0.4232
 2002SOL    HW217469   3.050   1.496   8.425 -1.9146  1.8862 -0.0688
 2003SOL     OW17470   4.207   0.734   3.670  0.0676  0.4737 -0.6169
 2003SOL    HW117471   4.238   0.688   3.592 -0.9730  0.6701 -1.1382
 2003SOL    HW217472   4.243   0.823   3.663  0.0087  0.3885 -1.8633
 2004SOL     OW17473   3.127   2.004   7.600 -0.2798  0.0640  0.4371
 2004SOL    HW117474   3.076   1.998   7.519 -0.0119  0.6546  0.2276
 2004SOL    HW217475   3.063   1.976   7.665 -0.3209  1.4248  0.9814
 2005SOL     OW17476   0.894   1.921  15.940 -0.2404  0.0392 -0.1321
 2005SOL    HW117477   0.986   1.945  15.953 -0.0925 -0.1210 -0.8474
 2005SOL    HW217478   0.907   1.832  15.908 -1.4108  0.7117 -2.5362
 2006SOL     OW17479   2.159   3.218   1.009  0.5143 -0.3452  0.4821
 2006SOL    HW117480   2.191   3.276   1.078  0.8659  0.9216 -0.7546
 2006SOL    HW217481   2.230   3.159   0.983  1.1473  0.2433  0.8730
 2007SOL     OW17482   0.757   2.039  16.211 -0.4954  0.1848  0.0747
 2007SOL    HW117483   0.814   1.977  16.256 -0.4825 -1.2153 -1.8831
 2007SOL    HW217484   0.783   2.119  16.257 -2.1434  0.1947  1.0074
 2008SOL     OW17485   3.133   3.274   0.390 -0.1895 -0.2817  0.5759
 2008SOL    HW117486   3.219   3.232   0.399  0.4216  0.3379 -2.2344
 2008SOL    HW217487   3.163   3.346   0.335 -0.1694 -0.8210 -0.1254
 2009SOL     OW17488   4.557   3.141   7.567  0.3064  0.5823  0.1727
 2009SOL    HW117489   4.645   3.180   7.569  0.1984  0.8972 -1.4254
 2009SOL    HW217490   4.506   3.183   7.636 -0.7896 -0.2006 -0.1722
 2010SOL     OW17491   4.062   1.793   0.531  0.3328 -0.6281  0.1288
 2010SOL    HW117492   3.999   1.760   0.596 -1.8853  1.5916 -0.9206
 2010SOL    HW217493   4.071   1.716   0.474 -1.2954  1.0428 -2.3586
 2011SOL     OW17494   2.205   2.104  10.059 -0.3258 -0.4083 -0.0252
 2011SOL    HW117495   2.290   2.115  10.015  0.1581 -0.4572  0.8827
 2011SOL    HW217496   2.218   2.012  10.086 -1.8102 -0.7617 -0.5417
 2012SOL     OW17497   2.617   0.738   6.644  0.1834  0.5149  0.2162
 2012SOL    HW117498   2.688   0.675   6.653  0.0246  0.4054  0.7116
 2012SOL    HW217499   2.547   0.675   6.630 -0.1522  1.0338 -0.4747
 2013SOL     OW17500   0.534   2.532   9.426  0.1212  0.6911  0.2176
 2013SOL    HW117501   0.584   2.595   9.375 -0.0210  0.9982  0.4534
 2013SOL    HW217502   0.582   2.455   9.396 -0.6635  0.5574 -0.6794
 2014SOL     OW17503   0.214   1.700   0.911 -0.1310  0.1181 -0.3229
 2014SOL    HW117504   0.167   1.757   0.971 -1.5785 -0.1000 -1.2418
 2014SOL    HW217505   0.213   1.753   0.832  0.2489  1.2117  0.4119
 2015SOL     OW17506   2.886   4.714  17.156 -0.2487 -0.2603 -0.1993
 2015SOL    HW117507   2.963   4.657  17.163  0.4454  0.7136  0.0626
 2015SOL    HW217508   2.912   0.072  17.201  2.1898  0.1165 -2.3459
 2016SOL     OW17509   0.148   4.132  11.156 -0.3293 -0.3190  0.2691
 2016SOL    HW117510   0.201   4.060  11.190 -0.1388 -0.2170  0.1890
 2016SOL    HW217511   0.218   4.177  11.108 -0.5882 -0.4039 -0.1866
 2017SOL     OW17512   3.723   3.506  16.521  0.0131  0.1215  0.0193
 2017SOL    HW117513   3.735   3.417  16.489  4.3979  1.3857 -1.8359
 2017SOL    HW217514   3.631   3.519  16.500 -0.3270  0.0895  1.4719
 2018SOL     OW17515   0.002   3.877   3.299 -0.2482  0.5601  0.3450
 2018SOL    HW117516   0.096   3.875   3.315 -0.7373 -1.4720  2.9225
 2018SOL    HW217517   4.695   3.795   3.338  0.5429  0.4962  0.7982
 2019SOL     OW17518   3.122   4.079  15.152 -0.4117  0.0124  1.2808
 2019SOL    HW117519   3.144   3.992  15.119 -1.0464 -0.3418  1.7987
 2019SOL    HW217520   3.099   4.116  15.067 -1.3086 -2.5707  0.4272
 2020SOL     OW17521   0.805   2.968   3.431 -0.0388  0.3620  0.7284
 2020SOL    HW117522   0.719   3.003   3.408 -0.1672 -0.2051  0.3574
 2020SOL    HW217523   0.855   3.047   3.410  0.3043 -0.0088  0.1693
 2021SOL     OW17524   3.953   4.436   2.237  0.5087  0.3087 -0.3939
 2021SOL    HW117525   3.981   4.517   2.194  0.3115 -0.2636 -1.5984
 2021SOL    HW217526   4.006   4.445   2.316  2.3994 -1.2385 -1.4814
 2022SOL     OW17527   0.247   2.551   5.580  0.1830 -0.2969 -0.3742
 2022SOL    HW117528   0.249   2.599   5.663  4.2641 -0.8948 -0.1356
 2022SOL    HW217529   0.336   2.564   5.548 -0.4370  0.6467 -1.6603
 2023SOL     OW17530   1.394   0.264  12.924 -0.7624 -0.4594 -0.4772
 2023SOL    HW117531   1.386   0.327  12.853 -3.6020  0.9927  1.1459
 2023SOL    HW217532   1.421   0.183  12.881 -0.2443  0.4244 -1.8082
 2024SOL     OW17533   3.308   2.866  14.894  0.2860  0.2044  0.0482
 2024SOL    HW117534   3.222   2.832  14.919  1.1629 -1.8061  0.2961
 2024SOL    HW217535   3.331   2.799  14.829 -1.0913 -0.1354 -0.1020
 2025SOL     OW17536   2.968   2.947   0.494  0.4394 -0.1624  0.0621
 2025SOL    HW117537   3.003   3.026   0.536 -0.3496 -0.5053  1.3833
 2025SOL    HW217538   2.912   2.989   0.429 -1.5700 -2.3892  0.3702
 2026SOL     OW17539   4.248   1.231   3.851 -0.4624  0.3137 -0.0842
 2026SOL    HW117540   4.183   1.287   3.892 -0.3484  0.0502  0.4587
 2026SOL    HW217541   4.276   1.279   3.773 -1.8013  1.9581  0.4588
 2027SOL     OW17542   1.198   1.417  10.399 -0.3588  0.1355 -0.2769
 2027SOL    HW117543   1.291   1.432  10.411 -0.1472  0.4801 -2.4262
 2027SOL    HW217544   1.189   1.361  10.476 -0.2677  0.2804 -0.1600
 2028SOL     OW17545   1.022   2.043   5.797  0.3664 -0.3194 -0.0993
 2028SOL    HW117546   1.047   2.132   5.819  1.5284 -1.1229  1.8265
 2028SOL    HW217547   1.059   2.032   5.709  1.6556 -0.4533  0.4638
 2029SOL     OW17548   4.664   3.435   3.644 -0.1490 -0.0574 -0.0946
 2029SOL    HW117549   4.665   3.343   3.620  0.8838 -0.4893  1.5991
 2029SOL    HW217550   4.705   3.435   3.731 -1.9019  1.4679  0.7448
 2030SOL     OW17551   2.531   0.304   3.778  0.2865 -0.0755 -0.0138
 2030SOL    HW117552   2.437   0.293   3.788  0.3807  1.1401  2.1781
 2030SOL    HW217553   2.534   0.338   3.688  0.7027 -1.2399 -0.4390
 2031SOL     OW17554   3.259   4.722   7.848  0.0817  0.0291  0.1323
 2031SOL    HW117555   3.176   0.026   7.887  0.0790 -0.4490  0.4411
 2031SOL    HW217556   3.308   4.699   7.927  1.2444 -0.6649 -0.7807
 2032SOL     OW17557   3.181   0.120  12.520 -0.4636 -0.4777  0.3755
 2032SOL    HW117558   3.264   0.132  12.565 -0.9736  1.2915  0.8422
 2032SOL    HW217559   3.122   0.110  12.594 -1.1269  1.8068  0.1675
 2033SOL     OW17560   2.082   3.448   9.308  0.0876  0.2533  0.1020
 2033SOL    HW117561   2.080   3.517   9.374  0.0717 -0.4705  0.8616
 2033SOL    HW217562   2.150   3.478   9.247 -0.1580 -1.7306 -1.1538
 2034SOL     OW17563   4.343   0.422   7.908  0.0296  0.0363 -0.0478
 2034SOL    HW117564   4.280   0.481   7.948 -0.1642 -0.8826  0.9902
 2034SOL    HW217565   4.321   0.336   7.943 -1.6311  1.0910  1.5021
 2035SOL     OW17566   2.069   0.494   0.282 -0.3687 -0.2390 -0.1073
 2035SOL    HW117567   1.983   0.507   0.242 -0.9698 -2.4262  0.4915
 2035SOL    HW217568   2.039   0.479   0.372  0.7134 -0.4272  0.2171
 2036SOL     OW17569   0.303   1.253  15.782  0.0863 -0.1843 -0.4891
 2036SOL    HW117570   0.313   1.307  15.861 -1.5326 -2.3064  1.1554
 2036SOL    HW217571   0.318   1.325  15.720 -1.5036  0.8916  0.3621
 2037SOL     OW17572   0.950   3.959   3.079  0.3168  0.2877 -0.2898
 2037SOL    HW117573   0.973   4.000   3.162  1.0909  3.8743 -2.2492
 2037SOL    HW217574   1.030   3.932   3.034  1.8333  1.1452  1.9289
 2038SOL     OW17575   1.209   3.340   3.356 -0.2640  0.1158  0.4379
 2038SOL    HW117576   1.253   3.261   3.388  1.0765  0.7120  0.0603
 2038SOL    HW217577   1.243   3.337   3.267  0.9510  0.2540  0.8952
 2039SOL     OW17578   0.304   2.519  11.602  0.3153  0.1168  0.2132
 2039SOL    HW117579   0.381   2.475  11.565 -1.3079 -1.6946 -0.9473
 2039SOL    HW217580   0.337   2.608  11.617  2.2940 -0.3676 -1.2809
 2040SOL     OW17581   1.596   0.765   5.049  0.4563 -0.5044 -0.4334
 2040SOL    HW117582   1.664   0.818   5.090  1.7666 -0.5011 -2.6535
 2040SOL    HW217583   1.554   0.834   4.998 -0.8392 -0.0600  1.2128
 2041SOL     OW17584   4.640   2.320  16.786  0.7121 -0.2694 -0.3475
 2041SOL    HW117585   0.013   2.309  16.786  0.6769 -0.6073 -0.8639
 2041SOL    HW217586   4.643   2.414  16.765 -1.1638  0.1063  1.0548
 2042SOL     OW17587   1.508   3.450   0.861 -0.0313  0.5653  0.0351
 2042SOL    HW117588   1.597   3.480   0.879  0.0252 -0.0595  0.7785
 2042SOL    HW217589   1.475   3.391   0.928 -0.8359 -0.6274 -1.4046
 2043SOL     OW17590   1.706   3.660   7.475 -0.5315  0.5445  0.4239
 2043SOL    HW117591   1.727   3.577   7.432 -1.9755  0.2038  0.3822
 2043SOL    HW217592   1.772   3.666   7.544 -0.6401  0.1461  0.5628
 2044SOL     OW17593   0.233   3.258   4.093 -0.4837 -0.6901  0.0114
 2044SOL    HW117594   0.217   3.269   3.999  2.2607 -0.4266 -0.4249
 2044SOL    HW217595   0.227   3.348   4.126  0.0266 -0.9263  0.7449
 2045SOL     OW17596   3.517   1.146   4.740 -0.0234  0.2788 -0.1799
 2045SOL    HW117597   3.486   1.205   4.672 -3.1043 -1.0381  0.1064
 2045SOL    HW217598   3.610   1.172   4.745  0.3683 -1.5513  2.1631
 2046SOL     OW17599   4.325   4.709   2.075  0.3298 -0.1494  0.2652
 2046SOL    HW117600   4.292   0.043   2.145  1.2348  1.0162 -0.2525
 2046SOL    HW217601   4.339   0.046   2.001  2.1599 -1.2446 -0.2572
 2047SOL     OW17602   2.548   2.411   4.332 -0.2325 -0.5716  0.4083
 2047SOL    HW117603   2.482   2.479   4.344  0.1555  0.4970 -3.5518
 2047SOL    HW217604   2.627   2.462   4.356 -1.0879 -0.2589  2.6019
 2048SOL     OW17605   1.323   3.114   4.175 -0.0508  0.0381 -0.0894
 2048SOL    HW117606   1.353   3.132   4.265  0.5094 -0.5883 -0.1522
 2048SOL    HW217607   1.272   3.192   4.153 -0.3198  0.5143  2.2209
 2049SOL     OW17608   0.853   1.274  14.126  0.1930  0.2897  0.6869
 2049SOL    HW117609   0.852   1.368  14.138  1.9541  0.5922 -1.5353
 2049SOL    HW217610   0.827   1.248  14.215 -0.1050  0.2267  0.5851
 2050SOL     OW17611   4.282   1.604   0.946 -0.1379  0.4807 -0.4347
 2050SOL    HW117612   4.250   1.580   0.859 -1.7796  1.0827  0.0141
 2050SOL    HW217613   4.219   1.670   0.976  1.1729  0.3698  2.6277
 2051SOL     OW17614   1.280   4.484   5.000 -0.5758 -0.5906  0.3010
 2051SOL    HW117615   1.239   4.458   5.082 -1.4107 -0.5980 -0.1174
 2051SOL    HW217616   1.229   4.430   4.939 -1.5024  1.4297 -0.7212
 2052SOL     OW17617   2.922   4.376   4.742  0.2451  0.3496  0.3256
 2052SOL    HW117618   2.894   4.393   4.652 -0.0817 -3.1330 -0.2170
 2052SOL    HW217619   3.014   4.402   4.739  0.1357  0.4708 -2.1254
 2053SOL     OW17620   4.183   1.288   0.913 -0.1672  0.0315  0.0169
 2053SOL    HW117621   4.124   1.357   0.941 -0.7976  0.5388 -2.5583
 2053SOL    HW217622   4.124   1.244   0.852 -0.1706  0.7480 -0.4892
 2054SOL     OW17623   2.809   2.843   3.839 -0.3193 -0.0321  0.9875
 2054SOL    HW117624   2.758   2.839   3.919 -1.2395  1.4042  0.4713
 2054SOL    HW217625   2.744   2.895   3.791 -0.1779 -0.7515  0.0102
 2055SOL     OW17626   2.118   3.648   1.136 -0.0437 -0.3232 -0.4255
 2055SOL    HW117627   2.090   3.668   1.047  1.1556 -1.2267 -1.0193
 2055SOL    HW217628   2.035   3.623   1.176 -1.4273  0.3737 -2.8625
 2056SOL     OW17629   0.511   2.994   4.312  0.3913  0.0224 -0.9918
 2056SOL    HW117630   0.508   3.017   4.219  1.3493  0.5779 -0.8890
 2056SOL    HW217631   0.605   2.989   4.327  0.1891 -1.9612 -0.4145
 2057SOL     OW17632   2.623   1.485   4.650 -0.2412 -0.2776  0.5671
 2057SOL    HW117633   2.651   1.576   4.654  0.1377 -0.3989  0.7076
 2057SOL    HW217634   2.702   1.445   4.612 -1.4987 -1.6572 -0.5983
 2058SOL     OW17635   0.935   3.794   7.242  0.4023  0.4612  0.1071
 2058SOL    HW117636   0.976   3.708   7.235  1.0091  0.7974 -0.4327
 2058SOL    HW217637   0.980   3.812   7.325  0.1682 -0.1633  0.3663
 2059SOL     OW17638   3.418   4.083  10.371 -0.1364  0.1783 -0.3291
 2059SOL    HW117639   3.338   4.094  10.422 -0.9657 -0.9634 -1.3981
 2059SOL    HW217640   3.414   4.151  10.304 -1.2400 -0.9356 -1.3872
 2060SOL     OW17641   2.530   3.359  15.885  0.5119 -0.4315 -0.5674
 2060SOL    HW117642   2.561   3.356  15.976  0.4304 -1.4774 -0.5779
 2060SOL    HW217643   2.442   3.396  15.892  0.0670 -1.8667  1.4460
 2061SOL     OW17644   2.286   0.763   8.792 -0.3943 -0.3641  0.0639
 2061SOL    HW117645   2.272   0.716   8.710  0.5956  0.4465 -0.5650
 2061SOL    HW217646   2.372   0.730   8.819  0.1785 -1.1603 -2.7324
 2062SOL     OW17647   4.108   3.804   9.909  0.1482  0.2591  0.2822
 2062SOL    HW117648   4.167   3.825   9.836 -0.1650  0.8556  0.2021
 2062SOL    HW217649   4.167   3.770   9.976 -0.2410 -2.1133 -0.5981
 2063SOL     OW17650   3.969   2.483  13.665  0.5182 -0.6039 -0.0666
 2063SOL    HW117651   3.903   2.471  13.597 -0.4847  1.3956  0.5523
 2063SOL    HW217652   3.964   2.395  13.702  1.5970 -0.6517 -0.0418
 2064SOL     OW17653   1.772   3.567   2.212  0.0512 -0.6915 -0.6514
 2064SOL    HW117654   1.770   3.477   2.182 -1.2814 -0.9639  0.2561
 2064SOL    HW217655   1.865   3.589   2.203  0.0014  0.7404  2.2760
 2065SOL     OW17656   3.961   2.191  14.252 -0.4014  0.2586 -0.3889
 2065SOL    HW117657   3.941   2.126  14.320  1.7540 -2.0499 -1.9561
 2065SOL    HW217658   4.034   2.146  14.211 -1.1176 -2.1135  0.9273
 2066SOL     OW17659   1.093   1.466   2.835 -0.0566  0.2894  0.3355
 2066SOL    HW117660   1.102   1.524   2.759  1.9890 -0.5259 -0.0477
 2066SOL    HW217661   1.040   1.398   2.793  3.2516 -1.1310 -1.5544
 2067SOL     OW17662   3.437   4.717   5.608  0.4869 -0.0217 -0.3413
 2067SOL    HW117663   3.373   4.704   5.678 -0.2842  2.2434 -0.6099
 2067SOL    HW217664   3.481   0.068   5.651 -3.0418  1.9964 -0.1247
 2068SOL     OW17665   3.398   4.317  17.650 -0.3720 -0.0022 -0.1054
 2068SOL    HW117666   3.387   4.353   0.047  2.1954  1.0817 -0.2389
 2068SOL    HW217667   3.493   4.307  17.643 -0.4429 -0.3388 -0.5587
 2069SOL     OW17668   1.056   0.995   1.825  0.1447  0.4195  0.2094
 2069SOL    HW117669   0.969   0.956   1.812  1.5310 -2.3166 -0.8976
 2069SOL    HW217670   1.062   0.992   1.920 -3.2857  3.2074  0.5152
 2070SOL     OW17671   2.464   2.612   8.421  0.0077  0.0356  0.3842
 2070SOL    HW117672   2.417   2.629   8.339 -0.2887 -1.6082  0.2222
 2070SOL    HW217673   2.485   2.700   8.454  1.6756  0.1457 -0.9357
 2071SOL     OW17674   2.276   0.666   4.108  0.2509  0.5260 -0.8815
 2071SOL    HW117675   2.240   0.747   4.072  0.3011  0.2139 -1.6210
 2071SOL    HW217676   2.369   0.688   4.100  0.5776 -0.8181 -0.8236
 2072SOL     OW17677   0.743   2.701   1.717 -0.1513 -0.3005 -0.0706
 2072SOL    HW117678   0.778   2.627   1.667  1.3525  0.8366 -0.7005
 2072SOL    HW217679   0.672   2.663   1.768 -2.1272 -0.8450 -3.1713
 2073SOL     OW17680   0.584   1.763   8.883 -0.0721 -0.0991 -0.4064
 2073SOL    HW117681   0.658   1.805   8.926 -0.3088  1.6083 -1.6588
 2073SOL    HW217682   0.507   1.768   8.940 -0.0899  0.8539 -0.5253
 2074SOL     OW17683   4.091   1.853  13.284  0.7300  0.2371  0.1294
 2074SOL    HW117684   4.089   1.802  13.203 -0.5458  0.7046 -0.1389
 2074SOL    HW217685   4.164   1.812  13.329  0.9782 -1.0739 -1.5093
 2075SOL     OW17686   4.281   2.857   7.301  0.0110  0.3143  0.5485
 2075SOL    HW117687   4.338   2.905   7.362 -1.9463  2.5260  0.6537
 2075SOL    HW217688   4.341   2.858   7.227 -1.0471  1.6521 -0.2854
 2076SOL     OW17689   1.590   0.794   9.048 -0.4332  0.2662  0.3492
 2076SOL    HW117690   1.652   0.731   9.084 -1.5812  0.0911  2.0289
 2076SOL    HW217691   1.522   0.778   9.114  1.0458 -2.6824  1.1396
 2077SOL     OW17692   2.158   1.934   8.913  0.0272 -0.8151 -0.7229
 2077SOL    HW117693   2.250   1.910   8.904 -0.3741 -2.9351  0.8434
 2077SOL    HW217694   2.173   2.021   8.949 -0.3110 -1.4819  1.0235
 2078SOL     OW17695   4.566   0.293   4.427 -0.1597  0.2457  0.0601
 2078SOL    HW117696   4.550   0.382   4.459  0.2521  0.1069  0.6710
 2078SOL    HW217697   4.477   0.270   4.399 -1.2396  0.4163  3.3123
 2079SOL     OW17698   4.254   4.355   3.594  0.3497  0.6277  0.5968
 2079SOL    HW117699   4.201   4.426   3.557  1.8420  0.9523 -0.9612
 2079SOL    HW217700   4.343   4.390   3.587  1.2310 -1.3885  1.8473
 2080SOL     OW17701   2.622   0.522   4.976  0.0075 -0.0646 -0.2050
 2080SOL    HW117702   2.612   0.428   4.968 -1.2158  0.1335 -1.0228
 2080SOL    HW217703   2.716   0.538   4.970 -0.2619  1.0974 -1.3429
 2081SOL     OW17704   2.036   2.459   6.590  0.1537 -0.1393  0.1557
 2081SOL    HW117705   2.131   2.463   6.601  0.1150  1.5912 -0.0663
 2081SOL    HW217706   2.022   2.549   6.559 -0.9805 -1.1678 -2.3140
 2082SOL     OW17707   1.435   2.539   3.313 -0.3754 -0.3664  0.1093
 2082SOL    HW117708   1.492   2.610   3.284  0.5071 -0.8829  0.6042
 2082SOL    HW217709   1.363   2.593   3.347 -0.7387 -2.2485  2.3228
 2083SOL     OW17710   0.020   3.133   4.993 -0.2546  0.6336  0.5612
 2083SOL    HW117711   0.039   3.041   5.011  1.9006  1.0104  0.1764
 2083SOL    HW217712   4.655   3.124   4.955  0.2643  2.4459 -1.0122
 2084SOL     OW17713   4.102   4.546   3.491  0.3986  1.0775  0.6511
 2084SOL    HW117714   4.020   4.580   3.456  1.3204  1.7091 -0.8450
 2084SOL    HW217715   4.163   4.544   3.418 -0.0087 -1.6180  0.3751
 2085SOL     OW17716   2.993   3.054   0.814  0.7782 -0.7702  0.0120
 2085SOL    HW117717   3.040   3.108   0.750 -1.8942  2.1972  0.5887
 2085SOL    HW217718   2.913   3.105   0.824 -0.1363 -2.0836 -0.6180
 2086SOL     OW17719   4.397   2.760  17.546  0.3160 -0.0316 -0.6187
 2086SOL    HW117720   4.342   2.693  17.585 -0.5137 -0.1920 -2.0631
 2086SOL    HW217721   4.464   2.779  17.612 -1.0508  1.0943  0.4398
 2087SOL     OW17722   1.920   3.754   8.191  0.0325 -0.0474 -0.5117
 2087SOL    HW117723   1.909   3.816   8.263  1.8978  0.6959 -0.8566
 2087SOL    HW217724   1.892   3.808   8.117  1.0014  0.4912 -0.5010
 2088SOL     OW17725   0.254   0.116   3.032 -0.3775 -0.0647  0.0262
 2088SOL    HW117726   0.341   0.082   3.008  0.1145  1.3005 -0.1086
 2088SOL    HW217727   0.198   0.058   2.980 -1.2564 -1.1869  2.2557
 2089SOL     OW17728   1.902   4.659   5.663  0.2390  0.1902 -0.4373
 2089SOL    HW117729   1.928   0.005   5.725 -0.7102  0.8667 -0.7695
 2089SOL    HW217730   1.980   4.668   5.609  0.7629 -2.8122 -0.1562
 2090SOL     OW17731   3.473   4.302   5.016  0.0870 -0.4868  0.1824
 2090SOL    HW117732   3.529   4.327   5.089 -1.0826 -2.7213  1.8521
 2090SOL    HW217733   3.448   4.388   4.982  2.1381  0.5773  1.3811
 2091SOL     OW17734   2.002   4.114  10.539  0.2647  0.7164  0.1738
 2091SOL    HW117735   1.980   4.178  10.471  0.4798  1.3041  0.6615
 2091SOL    HW217736   2.043   4.171  10.603 -0.0547  0.7108  0.3847
 2092SOL     OW17737   1.897   4.436   4.033 -0.2387  0.2887 -0.1356
 2092SOL    HW117738   1.892   4.342   4.019  0.9803  0.4424 -1.5105
 2092SOL    HW217739   1.941   4.465   3.954  0.8329 -0.3807  0.2179
 2093SOL     OW17740   3.205   3.803   3.295 -0.5258 -0.7337  0.0568
 2093SOL    HW117741   3.228   3.867   3.362  0.6755  0.7262 -1.7357
 2093SOL    HW217742   3.159   3.736   3.346  0.1486 -1.5686 -0.4280
 2094SOL     OW17743   1.320   1.481   5.512  0.1800 -0.1087 -0.5665
 2094SOL    HW117744   1.305   1.451   5.422 -0.4448 -0.8281 -0.2285
 2094SOL    HW217745   1.323   1.397   5.557  0.2402  0.9362  1.3626
 2095SOL     OW17746   4.044   0.657  13.614  0.2107  0.6818 -0.1385
 2095SOL    HW117747   4.018   0.657  13.522 -1.1853 -0.5354  0.2593
 2095SOL    HW217748   4.080   0.745  13.622  0.7883  0.3453  0.8922
 2096SOL     OW17749   1.488   2.535   8.577 -0.0800  0.1597  0.0738
 2096SOL    HW117750   1.514   2.534   8.669 -0.5530 -2.1374  0.1830
 2096SOL    HW217751   1.501   2.628   8.558  0.9649  0.3274  1.5956
 2097SOL     OW17752   2.987   0.664   3.659  0.0033  0.0968 -0.5107
 2097SOL    HW117753   3.048   0.590   3.660 -0.0824  0.0378  0.0490
 2097SOL    HW217754   2.904   0.618   3.675 -0.6176  0.8703 -1.5596
 2098SOL     OW17755   0.692   2.841   9.002 -0.1480  0.1412  0.4313
 2098SOL    HW117756   0.617   2.850   9.061  0.9768 -1.5688  2.1218
 2098SOL    HW217757   0.647   2.831   8.918  0.2235 -0.0401  0.2520
 2099SOL     OW17758   0.203   2.366   0.048 -0.0113  0.5405 -0.3620
 2099SOL    HW117759   0.254   2.287   0.066  0.0891  0.8746  0.8160
 2099SOL    HW217760   0.115   2.329   0.037  0.8069 -1.3288 -0.5283
 2100SOL     OW17761   0.935   3.511   9.759 -0.2664  0.0356  0.2122
 2100SOL    HW117762   0.923   3.571   9.686 -3.8419 -0.7605  0.1329
 2100SOL    HW217763   0.928   3.432   9.707  0.6116  0.9682 -1.3081
 2101SOL     OW17764   0.826   3.820  12.477  0.2112 -0.0423 -0.0972
 2101SOL    HW117765   0.865   3.879  12.541 -0.7372  0.0875  0.3676
 2101SOL    HW217766   0.901   3.783  12.431 -0.0601  1.6396 -1.9065
 2102SOL     OW17767   2.517   1.162  11.738  0.1871  0.9719  0.1689
 2102SOL    HW117768   2.594   1.112  11.763 -0.7743 -0.3085  0.6061
 2102SOL    HW217769   2.453   1.120  11.797 -0.4375 -3.8469 -3.8692
 2103SOL     OW17770   3.001   1.667  10.061 -0.2272  0.3682 -0.5047
 2103SOL    HW117771   3.054   1.746  10.073  0.5749 -0.3226  0.4677
 2103SOL    HW217772   3.066   1.597  10.062 -0.0365  0.5531  0.1088
 2104SOL     OW17773   3.521   2.760   4.901  0.3111  0.5997 -0.0062
 2104SOL    HW117774   3.457   2.797   4.962  1.5352 -0.9032  2.1479
 2104SOL    HW217775   3.481   2.777   4.815  0.2235 -1.0653 -0.2994
 2105SOL     OW17776   3.083   1.370   2.636 -0.0684  0.2452  0.4556
 2105SOL    HW117777   3.155   1.398   2.579 -0.3072  2.7636  1.3775
 2105SOL    HW217778   3.072   1.279   2.610  0.9507 -0.1450  1.4114
 2106SOL     OW17779   2.208   0.375   9.334 -0.3980 -0.1566 -0.1074
 2106SOL    HW117780   2.232   0.374   9.426 -1.1423 -2.8288  0.0704
 2106SOL    HW217781   2.246   0.460   9.312 -0.5986 -0.3105 -1.0553
 2107SOL     OW17782   0.000   2.586   4.366  0.5479  0.5101  0.0800
 2107SOL    HW117783   4.697   2.524   4.434 -0.6893  1.1304  0.1788
 2107SOL    HW217784   0.095   2.573   4.363  0.8348  1.9349  2.7468
 2108SOL     OW17785   2.835   3.266   8.053 -0.5492 -0.3140  0.0205
 2108SOL    HW117786   2.810   3.173   8.051  2.4704 -1.1188 -1.0357
 2108SOL    HW217787   2.758   3.316   8.081 -1.2029 -1.7377  0.8105
 2109SOL     OW17788   1.939   0.059   2.983  0.5577  0.1793 -1.0603
 2109SOL    HW117789   2.031   0.050   2.958  0.9570 -0.5668  0.6820
 2109SOL    HW217790   1.955   0.115   3.058  1.8107  0.9371 -1.9090
 2110SOL     OW17791   2.082   1.496  11.976 -0.5880 -0.4743 -0.0130
 2110SOL    HW117792   2.168   1.480  12.013 -0.4156  1.5088  0.4653
 2110SOL    HW217793   2.047   1.556  12.042  2.2236  0.0503  0.9923
 2111SOL     OW17794   4.132   3.384   7.452  0.0769  0.2554 -0.3418
 2111SOL    HW117795   4.080   3.445   7.400 -1.1541 -2.4186 -2.2718
 2111SOL    HW217796   4.139   3.429   7.536  1.9420 -1.1238  0.2494
 2112SOL     OW17797   3.692   2.593   2.634  0.7993  0.3559  0.1813
 2112SOL    HW117798   3.730   2.637   2.710 -1.1771  0.6958  0.9988
 2112SOL    HW217799   3.717   2.504   2.656 -0.5340 -0.2137 -0.6292
 2113SOL     OW17800   1.455   3.541   8.581  0.1095 -0.1290 -0.0923
 2113SOL    HW117801   1.528   3.578   8.631 -1.4038  2.3484  0.3156
 2113SOL    HW217802   1.375   3.564   8.629  0.4108  1.4440 -0.3156
 2114SOL     OW17803   4.331   3.776   2.101 -0.2203  0.2908  0.1685
 2114SOL    HW117804   4.381   3.772   2.019 -0.8359 -0.0632 -0.1837
 2114SOL    HW217805   4.306   3.868   2.097 -0.7589  0.1927  1.3458
 2115SOL     OW17806   2.812   4.184   9.298 -0.2621 -0.4653 -0.5966
 2115SOL    HW117807   2.897   4.213   9.264  0.6162 -0.6642  1.4373
 2115SOL    HW217808   2.756   4.220   9.229  1.6338  2.1586 -0.7703
 2116SOL     OW17809   0.978   4.251   9.094 -0.8582 -0.1360 -0.3459
 2116SOL    HW117810   1.039   4.279   9.162 -0.0419 -0.7362 -0.8356
 2116SOL    HW217811   0.983   4.157   9.108  0.3897 -0.0675 -0.3726
 2117SOL     OW17812   3.709   0.420  12.481 -0.0407 -0.4935 -0.2781
 2117SOL    HW117813   3.626   0.457  12.513  0.6969  0.5662  0.3939
 2117SOL    HW217814   3.696   0.327  12.501 -1.8127 -0.0426  0.7049
 2118SOL     OW17815   3.167   2.749   5.315 -0.1307 -0.1522  1.1686
 2118SOL    HW117816   3.151   2.676   5.376 -0.5443  0.7044  2.0839
 2118SOL    HW217817   3.227   2.804   5.365  0.5979  1.2405 -1.2649
 2119SOL     OW17818   3.282   4.689   2.368  0.3268  0.3731 -0.4151
 2119SOL    HW117819   3.300   0.061   2.371  0.3898  0.3946 -1.4150
 2119SOL    HW217820   3.335   4.668   2.445  0.0198 -0.2293 -0.3746
 2120SOL     OW17821   4.001   1.184  10.579  0.0810  0.6805 -0.6513
 2120SOL    HW117822   4.062   1.248  10.615  0.9981 -1.1042  0.9187
 2120SOL    HW217823   3.986   1.136  10.660 -1.2361  1.7571 -0.2459
 2121SOL     OW17824   3.392   4.340   5.615 -0.0788  0.7856 -0.6346
 2121SOL    HW117825   3.368   4.286   5.540  0.5394 -0.0809 -0.2023
 2121SOL    HW217826   3.336   4.411   5.584  2.2725  3.3769  1.0074
 2122SOL     OW17827   3.308   1.646   3.634  0.1203 -0.1404  0.0895
 2122SOL    HW117828   3.300   1.702   3.556 -1.9183 -0.4998  0.0336
 2122SOL    HW217829   3.283   1.704   3.706  1.4011  1.5302 -0.8221
 2123SOL     OW17830   2.845   2.739   8.115 -0.8079 -0.7613 -0.0085
 2123SOL    HW117831   2.836   2.810   8.179 -0.1316  0.1886 -0.9657
 2123SOL    HW217832   2.754   2.735   8.089 -0.3999  0.9798 -1.6704
 2124SOL     OW17833   4.522   2.212  11.249  0.7438 -0.0058 -0.1433
 2124SOL    HW117834   4.531   2.299  11.290 -0.0914  0.4178 -0.8628
 2124SOL    HW217835   4.480   2.232  11.165 -1.1369 -2.1018  0.2999
 2125SOL     OW17836   4.710   1.369   3.450  0.0185  0.0592 -0.1879
 2125SOL    HW117837   4.690   1.411   3.366  0.0309 -2.4647 -1.4586
 2125SOL    HW217838   0.079   1.347   3.435 -0.7751 -1.3244 -2.8768
 2126SOL     OW17839   4.707   4.179  11.972  0.3812  0.2758 -0.2444
 2126SOL    HW117840   4.615   4.161  11.951  0.3964  1.2548 -1.1057
 2126SOL    HW217841   0.004   4.208  11.883  2.4346 -1.6232 -0.4135
 2127SOL     OW17842   1.580   4.647  10.581 -0.0015 -0.3904  0.0077
 2127SOL    HW117843   1.570   4.554  10.562  0.9517 -0.8110  1.5176
 2127SOL    HW217844   1.578   4.640  10.677 -1.4512  1.7488  0.1398
 2128SOL     OW17845   2.340   1.028  11.884 -0.9254  0.0933 -1.2914
 2128SOL    HW117846   2.353   0.934  11.879 -1.7995  0.0675 -2.7635
 2128SOL    HW217847   2.271   1.032  11.950  0.8232  0.7214  0.5334
 2129SOL     OW17848   2.524   2.715   0.661 -0.2670  0.3177  0.5671
 2129SOL    HW117849   2.598   2.672   0.618 -1.1527 -0.3496 -0.2802
 2129SOL    HW217850   2.524   2.804   0.624 -1.1386 -0.2157 -0.6787
 2130SOL     OW17851   4.653   2.458   8.066  0.1547 -0.1033  0.0884
 2130SOL    HW117852   0.022   2.430   8.075 -0.6979 -2.8415  0.0519
 2130SOL    HW217853   4.603   2.406   8.129  2.1108 -2.4211 -0.3177
 2131SOL     OW17854   2.208   3.351  10.860  0.5272  0.1525  0.9252
 2131SOL    HW117855   2.193   3.406  10.936 -0.0485  0.6732  0.4342
 2131SOL    HW217856   2.302   3.354  10.843  0.3468  0.8765  0.0464
 2132SOL     OW17857   3.063   0.776  17.439  0.2823  0.0744 -0.3302
 2132SOL    HW117858   3.092   0.826  17.363  0.1228 -2.0754 -1.8121
 2132SOL    HW217859   3.129   0.802  17.503 -1.0074 -0.3035  1.1501
 2133SOL     OW17860   2.584   2.418   6.532  0.3084 -0.2246  0.0699
 2133SOL    HW117861   2.666   2.375   6.509  0.6552 -0.1562  1.1721
 2133SOL    HW217862   2.566   2.483   6.464 -0.4684  0.2547  0.7172
 2134SOL     OW17863   3.083   1.217  13.042  0.4318 -0.7268  0.0240
 2134SOL    HW117864   3.005   1.256  13.082  0.8470 -1.7545  1.8792
 2134SOL    HW217865   3.120   1.291  12.995 -0.9311  0.1181  0.2607
 2135SOL     OW17866   4.529   0.269  15.459  0.4317  0.4412 -0.3705
 2135SOL    HW117867   4.616   0.300  15.482 -0.1319 -0.0498  2.4445
 2135SOL    HW217868   4.492   0.238  15.542 -1.8270  0.5968 -1.2939
 2136SOL     OW17869   3.206   0.388  12.709  0.2882  0.0151  0.5087
 2136SOL    HW117870   3.119   0.350  12.719  0.0997 -0.0712 -1.4762
 2136SOL    HW217871   3.196   0.475  12.746  0.6063 -0.9317  2.8437
 2137SOL     OW17872   2.397   2.528   2.499  0.1300  0.2878  0.0541
 2137SOL    HW117873   2.346   2.605   2.524 -1.8166 -1.1983  0.7096
 2137SOL    HW217874   2.484   2.567   2.500 -0.0046  0.4915  2.2440
 2138SOL     OW17875   1.037   1.346   4.697  0.4380 -0.5789  0.4473
 2138SOL    HW117876   0.955   1.298   4.685 -0.2895  0.7950 -0.0557
 2138SOL    HW217877   1.017   1.374   4.786  3.0099  2.1733  0.1544
 2139SOL     OW17878   1.640   3.715  10.771  0.1666 -0.0338  0.3132
 2139SOL    HW117879   1.687   3.753  10.697  4.2689 -1.1392  2.3574
 2139SOL    HW217880   1.718   3.674  10.809  0.6196 -2.6090 -3.4161
 2140SOL     OW17881   1.355   3.472   3.851 -0.1980  0.0796  0.5183
 2140SOL    HW117882   1.309   3.412   3.911  2.2065 -1.7979  0.4684
 2140SOL    HW217883   1.292   3.513   3.792 -1.8494  1.0296  2.9148
 2141SOL     OW17884   0.903   0.296  11.400 -0.0240 -0.6713 -0.5106
 2141SOL    HW117885   0.905   0.345  11.482 -1.3350 -0.7348 -0.4299
 2141SOL    HW217886   0.841   0.355  11.356  0.7536  0.9868  0.6176
 2142SOL     OW17887   2.809   1.584  17.165 -0.1437  0.3375 -0.2236
 2142SOL    HW117888   2.881   1.633  17.205 -0.4540  0.1471  0.5636
 2142SOL    HW217889   2.787   1.631  17.084 -0.8243 -0.5739 -0.5740
 2143SOL     OW17890   1.367   0.733   9.193  0.0025 -0.1100 -0.5963
 2143SOL    HW117891   1.321   0.816   9.189 -0.3248 -0.2320  0.5622
 2143SOL    HW217892   1.375   0.721   9.288  1.2459 -2.3219 -0.9733
 2144SOL     OW17893   4.109   1.769   5.685 -0.1495 -0.6416  0.0636
 2144SOL    HW117894   4.115   1.699   5.750 -0.2908  0.5381  1.3416
 2144SOL    HW217895   4.050   1.735   5.618 -1.0216  0.1544  0.4243
 2145SOL     OW17896   0.406   0.083   2.710 -0.2319 -0.5207 -0.2740
 2145SOL    HW117897   0.451   0.094   2.794  1.3603 -1.4969 -1.0048
 2145SOL    HW217898   0.382   4.713   2.715 -1.7974 -0.0574  0.6853
 2146SOL     OW17899   0.991   0.959  13.635  0.3920  0.3172 -0.4786
 2146SOL    HW117900   0.963   0.885  13.581  2.3981 -1.1795  0.5222
 2146SOL    HW217901   0.916   0.983  13.689 -0.1175  2.3805 -2.1003
 2147SOL     OW17902   4.013   3.009   3.109  0.3747  0.0015 -0.5526
 2147SOL    HW117903   3.970   3.075   3.163 -0.3341 -1.4471  0.6464
 2147SOL    HW217904   4.070   2.959   3.168  3.3426  3.3304 -0.5932
 2148SOL     OW17905   2.517   4.036   6.253 -0.4575  0.2528  0.5230
 2148SOL    HW117906   2.571   4.020   6.177 -1.2829  0.4417 -0.1039
 2148SOL    HW217907   2.559   3.985   6.322 -2.7939 -1.0279  1.0276
 2149SOL     OW17908   4.591   3.670   7.039 -0.6150  0.0668 -0.2109
 2149SOL    HW117909   4.651   3.609   6.996 -0.2814 -0.7920  1.4587
 2149SOL    HW217910   4.586   3.604   7.108 -2.1344  1.5289  1.0648
 2150SOL     OW17911   4.166   2.718  11.078  0.1810  0.2095 -0.1609
 2150SOL    HW117912   4.185   2.632  11.040 -0.7682  0.1221 -0.4410
 2150SOL    HW217913   4.241   2.732  11.136  0.5934  0.4964 -0.7605
 2151SOL     OW17914   2.440   1.874   2.986  0.3138  0.7465 -0.2723
 2151SOL    HW117915   2.356   1.921   2.981 -0.9699 -1.6123 -0.6965
 2151SOL    HW217916   2.472   1.894   2.898  1.3375 -0.5677 -0.1855
 2152SOL     OW17917   2.928   2.795  16.321  0.0988 -0.0853  0.3955
 2152SOL    HW117918   3.018   2.779  16.292  0.9176  1.6501  1.9336
 2152SOL    HW217919   2.933   2.773  16.414  0.0812 -0.7424  0.2351
 2153SOL     OW17920   3.307   4.653  10.848  0.2022  0.2289  0.3474
 2153SOL    HW117921   3.396   4.626  10.824 -0.4144 -1.4423 -0.0428
 2153SOL    HW217922   3.268   4.569  10.872 -1.3664  1.3096  1.5327
 2154SOL     OW17923   2.666   0.216  11.766 -0.3525 -0.0027 -0.2892
 2154SOL    HW117924   2.607   0.151  11.804  1.8064 -1.4103  0.6689
 2154SOL    HW217925   2.621   0.233  11.683  0.4169  0.8538 -0.5227
 2155SOL     OW17926   0.515   0.588   3.525 -0.0243 -0.2370 -0.3107
 2155SOL    HW117927   0.544   0.522   3.463  2.1363  0.6959 -0.2906
 2155SOL    HW217928   0.486   0.666   3.478  1.9874  1.1896  0.8309
 2156SOL     OW17929   1.481   0.518   5.275  0.1516 -1.0023 -0.0324
 2156SOL    HW117930   1.505   0.608   5.298 -1.7481 -0.5036 -0.0574
 2156SOL    HW217931   1.570   0.482   5.267 -0.5015 -2.5782 -0.0984
 2157SOL     OW17932   3.308   0.018   8.813 -0.2682 -0.2979 -0.2584
 2157SOL    HW117933   3.296   0.113   8.816  2.6025  0.0614 -0.0612
 2157SOL    HW217934   3.389   0.008   8.864  1.3185  1.9250 -2.3257
 2158SOL     OW17935   1.701   2.819   8.026  0.3103 -0.7626  0.2194
 2158SOL    HW117936   1.665   2.762   8.094 -0.7040 -1.0885 -0.5848
 2158SOL    HW217937   1.795   2.815   8.044  0.4751  0.1606 -0.4571
 2159SOL     OW17938   0.362   1.263   4.104  0.0759 -0.0650  0.1245
 2159SOL    HW117939   0.367   1.328   4.033  0.0928 -2.5341 -2.1229
 2159SOL    HW217940   0.273   1.234   4.083 -0.1135  0.0505  0.7787
 2160SOL     OW17941   1.629   4.231   2.300  0.0946 -0.3868  0.1313
 2160SOL    HW117942   1.576   4.152   2.288  1.8924 -1.7717  1.2871
 2160SOL    HW217943   1.566   4.300   2.280  0.8048  0.2634  0.1565
 2161SOL     OW17944   1.934   0.094   0.047 -0.3269  0.3378  0.3596
 2161SOL    HW117945   2.006   0.138   0.093  0.0790  0.4014 -0.3291
 2161SOL    HW217946   1.972   0.006   0.046 -3.9742 -1.2565  1.6183
 2162SOL     OW17947   2.719   1.736   0.747 -0.1295  0.3506 -0.3383
 2162SOL    HW117948   2.719   1.651   0.791 -0.4727 -0.4763 -1.9353
 2162SOL    HW217949   2.686   1.721   0.659 -0.0764  0.3326 -0.3556
 2163SOL     OW17950   4.099   2.781  12.952 -0.0294 -0.4549 -0.2814
 2163SOL    HW117951   4.091   2.839  13.028 -3.1241 -1.0784 -0.1155
 2163SOL    HW217952   4.188   2.803  12.925 -0.1111 -1.2326 -1.1736
 2164SOL     OW17953   0.302   0.689   6.733  0.0962 -0.4160 -0.1078
 2164SOL    HW117954   0.355   0.641   6.671  2.9470  0.7611  1.4071
 2164SOL    HW217955   0.317   0.637   6.812  1.8680 -0.2752 -0.3697
 2165SOL     OW17956   0.394   3.069   5.588  0.3602  0.2284  0.4040
 2165SOL    HW117957   0.440   3.147   5.556 -2.3447  1.4708 -0.4841
 2165SOL    HW217958   0.336   3.040   5.518  0.0226 -1.1510  1.2626
 2166SOL     OW17959   1.939   4.199  13.036  0.4786  0.3443 -0.2162
 2166SOL    HW117960   1.995   4.267  13.072  0.8750 -0.2347  0.2698
 2166SOL    HW217961   1.999   4.164  12.969 -1.1834 -2.8969  0.0067
 2167SOL     OW17962   0.083   1.318   1.902  0.4019  0.3212 -0.2222
 2167SOL    HW117963   0.110   1.258   1.832  0.1375  0.8501 -0.7727
 2167SOL    HW217964   4.712   1.332   1.885  0.2672  0.2492  0.4740
 2168SOL     OW17965   3.317   4.445  12.902  0.1429  0.4330 -0.6673
 2168SOL    HW117966   3.386   4.418  12.962 -0.1187 -0.3191 -0.7000
 2168SOL    HW217967   3.256   4.469  12.972  1.7503  0.0347  0.8453
 2169SOL     OW17968   0.345   1.266   6.015 -0.0590  0.3914 -0.0777
 2169SOL    HW117969   0.364   1.353   5.979 -0.8660 -0.0598 -1.5934
 2169SOL    HW217970   0.408   1.217   5.962  0.5922  0.4771  0.6148
 2170SOL     OW17971   0.303   3.932   5.588 -0.1622  0.4836 -0.2407
 2170SOL    HW117972   0.396   3.926   5.612  0.4684  2.3581 -2.2154
 2170SOL    HW217973   0.290   3.842   5.559  1.2338  0.3425 -0.4431
 2171SOL     OW17974   0.730   0.803  11.183  0.0596 -0.1904 -0.1009
 2171SOL    HW117975   0.683   0.821  11.102 -2.2777  0.9894  1.5131
 2171SOL    HW217976   0.680   0.846  11.253 -1.5172 -0.9538 -0.7816
 2172SOL     OW17977   1.231   1.532   0.548 -0.7282  0.3259 -0.2437
 2172SOL    HW117978   1.240   1.449   0.595  0.0665  0.7881  0.4102
 2172SOL    HW217979   1.138   1.526   0.527 -0.7677  0.6685 -0.1676
 2173SOL     OW17980   4.092   3.646   1.987 -0.0199  0.2637 -0.3929
 2173SOL    HW117981   4.104   3.703   1.911  0.7505 -0.9116 -1.1562
 2173SOL    HW217982   4.176   3.649   2.032 -0.5150 -0.9778  0.6203
 2174SOL     OW17983   3.852   3.804   6.385  0.2782  0.0970 -0.0353
 2174SOL    HW117984   3.929   3.795   6.328 -0.1933 -0.0045 -0.6577
 2174SOL    HW217985   3.845   3.721   6.433  0.0122  0.4762  0.5685
 2175SOL     OW17986   3.002   1.682   8.679 -0.0111 -0.5770 -0.1776
 2175SOL    HW117987   3.017   1.741   8.752 -1.5717  1.6615 -1.6357
 2175SOL    HW217988   2.933   1.729   8.632  0.7660 -1.3098 -2.0586
 2176SOL     OW17989   4.367   0.848  16.626 -0.4837  0.2508 -0.1156
 2176SOL    HW117990   4.314   0.797  16.565 -0.3505 -0.5025  0.4065
 2176SOL    HW217991   4.407   0.911  16.566  0.1987 -0.4276 -0.3643
 2177SOL     OW17992   1.929   0.610   8.866 -0.2893 -0.1474  0.0929
 2177SOL    HW117993   1.983   0.681   8.901 -1.3520  0.6694  0.0995
 2177SOL    HW217994   1.851   0.607   8.921 -0.0870 -0.1758  0.3761
 2178SOL     OW17995   0.352   3.682  13.943  0.3761 -0.5024  0.0106
 2178SOL    HW117996   0.270   3.687  13.894 -0.2883 -1.5139  1.0344
 2178SOL    HW217997   0.366   3.776  13.959  2.0354 -0.3309 -2.3817
 2179SOL     OW17998   2.450   3.409   3.152  0.0807 -0.0852  0.4082
 2179SOL    HW117999   2.524   3.468   3.168  0.4456 -0.6174  0.7010
 2179SOL    HW218000   2.477   3.376   3.067 -1.0967 -0.2769  0.1106
 2180SOL     OW18001   0.885   1.376  12.905 -0.2072  0.0018 -0.4777
 2180SOL    HW118002   0.944   1.430  12.851  0.1694  0.6772  0.6226
 2180SOL    HW218003   0.892   1.299  12.848 -0.8350  1.7420 -2.9254
 2181SOL     OW18004   1.035   0.398   4.042 -1.0452 -0.3502 -0.1142
 2181SOL    HW118005   1.130   0.401   4.052 -1.1398 -0.9612  0.9689
 2181SOL    HW218006   1.012   0.490   4.039  0.0756 -0.1614 -3.4791
 2182SOL     OW18007   0.493   1.019   6.923 -0.1878 -0.2218 -0.0653
 2182SOL    HW118008   0.513   1.086   6.858  2.4285 -1.3200 -0.4068
 2182SOL    HW218009   0.411   0.988   6.885 -1.4630  1.2195  1.5063
 2183SOL     OW18010   1.330   1.116   6.755  0.2214  0.1018  0.1683
 2183SOL    HW118011   1.277   1.039   6.776  1.2257 -0.9786 -1.3198
 2183SOL    HW218012   1.352   1.155   6.840 -0.5489  0.4955  0.1867
 2184SOL     OW18013   0.367   3.060  15.991 -0.1542 -0.4192  0.2196
 2184SOL    HW118014   0.348   3.015  16.073 -2.7894 -0.0091 -0.1591
 2184SOL    HW218015   0.279   3.095  15.976  0.0574 -0.0029 -0.0479
 2185SOL     OW18016   3.458   1.566  10.051 -0.6746 -0.3340 -0.1226
 2185SOL    HW118017   3.408   1.634  10.006  0.5943  1.1483  0.7249
 2185SOL    HW218018   3.543   1.581  10.009 -1.3239  0.0120 -1.3314
 2186SOL     OW18019   0.907   0.311  13.108 -0.2807  0.3960 -0.3364
 2186SOL    HW118020   0.832   0.330  13.052 -0.3689 -0.1357 -0.3925
 2186SOL    HW218021   0.953   0.395  13.104 -0.3571  0.6047  2.9210
 2187SOL     OW18022   1.258   2.416   5.666  0.3358 -0.8415  0.3149
 2187SOL    HW118023   1.304   2.405   5.582  1.2424  1.4995  0.4954
 2187SOL    HW218024   1.221   2.503   5.654  1.1745 -0.7846 -1.8401
 2188SOL     OW18025   2.521   3.302   7.433 -0.0031 -0.1841  0.0557
 2188SOL    HW118026   2.460   3.263   7.371  1.4461 -2.4422  0.0291
 2188SOL    HW218027   2.457   3.316   7.503  1.2225 -1.3517  1.4128
 2189SOL     OW18028   3.685   1.704  16.692 -0.3995  0.8108  0.6761
 2189SOL    HW118029   3.604   1.752  16.708 -1.6533 -0.6800 -1.2014
 2189SOL    HW218030   3.714   1.744  16.610  1.8685 -0.1810  1.0100
 2190SOL     OW18031   0.627   2.353   2.599 -0.3658 -0.4166  0.2779
 2190SOL    HW118032   0.718   2.356   2.569 -0.4828 -0.8688 -0.1308
 2190SOL    HW218033   0.604   2.433   2.553  0.2711 -0.5705 -0.3023
 2191SOL     OW18034   0.395   1.378   9.478 -0.1547  0.8899  1.0064
 2191SOL    HW118035   0.488   1.362   9.490  0.3367  2.4226 -0.8328
 2191SOL    HW218036   0.370   1.323   9.404 -0.1185  1.4917  0.5459
 2192SOL     OW18037   0.964   1.305   2.647 -0.8404  0.0543  0.2673
 2192SOL    HW118038   0.965   1.324   2.553 -0.5037 -1.3244 -0.0107
 2192SOL    HW218039   1.005   1.218   2.641  1.6778  1.3419 -1.5498
 2193SOL     OW18040   2.425   2.498   4.013 -0.4095 -0.3253 -0.2600
 2193SOL    HW118041   2.361   2.494   4.084 -0.0812 -0.8678 -0.0005
 2193SOL    HW218042   2.403   2.579   3.966  1.7127  0.3935  0.0148
 2194SOL     OW18043   1.307   3.160   8.797  0.3832 -0.0966  0.0999
 2194SOL    HW118044   1.241   3.121   8.740 -0.5436  1.3555  0.1578
 2194SOL    HW218045   1.390   3.135   8.758  0.7325 -0.1252  0.8709
 2195SOL     OW18046   0.591   4.537   9.110  0.4384 -0.3147 -0.3077
 2195SOL    HW118047   0.659   4.485   9.154  0.1276 -0.4330  0.0355
 2195SOL    HW218048   0.525   4.468   9.104 -0.3911  0.7055 -3.1492
 2196SOL     OW18049   3.409   3.557   8.034  0.5847 -0.7758  0.6207
 2196SOL    HW118050   3.485   3.587   8.084  0.6803  2.3860 -1.4504
 2196SOL    HW218051   3.446   3.522   7.953  2.4153  0.2381  1.0349
 2197SOL     OW18052   2.801   4.251   5.512 -0.4962  0.3207 -0.1710
 2197SOL    HW118053   2.736   4.235   5.580 -0.2421 -0.7232 -0.1743
 2197SOL    HW218054   2.813   4.163   5.475 -0.7017 -0.4668  1.6795
 2198SOL     OW18055   0.953   1.333   5.783  0.3333  0.4252 -0.4465
 2198SOL    HW118056   1.016   1.341   5.854 -0.3251 -0.4856  0.2538
 2198SOL    HW218057   0.987   1.255   5.739 -1.8827 -0.6484 -0.2512
 2199SOL     OW18058   0.771   3.621  16.016 -0.0490 -0.1232 -0.0634
 2199SOL    HW118059   0.860   3.625  16.051  0.2251  0.8266 -0.8745
 2199SOL    HW218060   0.790   3.578  15.932 -0.4196 -0.5159  0.0538
 2200SOL     OW18061   1.902   0.128   7.264 -0.1591  0.0388 -0.1513
 2200SOL    HW118062   1.964   0.089   7.203  0.2503  1.0005 -0.3460
 2200SOL    HW218063   1.929   0.079   7.341  1.5679  3.5696  1.5137
 2201SOL     OW18064   0.562   4.683   6.823  0.1455  0.1374  0.4104
 2201SOL    HW118065   0.621   0.018   6.872  0.3172 -0.3861  0.8146
 2201SOL    HW218066   0.617   4.630   6.765 -1.3690 -0.9424 -0.0424
 2202SOL     OW18067   0.904   3.868   4.142  0.4310 -0.2036 -0.3522
 2202SOL    HW118068   0.864   3.885   4.227  2.5099 -0.0020  0.5847
 2202SOL    HW218069   0.995   3.879   4.169 -0.2055  2.3741  0.6801
 2203SOL     OW18070   3.008   2.326   8.848 -0.0334 -0.3738 -0.0811
 2203SOL    HW118071   2.965   2.410   8.864 -1.8375 -1.4904  0.8892
 2203SOL    HW218072   2.980   2.312   8.758  3.4688  3.2581 -1.7322
 2204SOL     OW18073   2.416   0.207   8.082  0.2180 -0.3450 -0.0373
 2204SOL    HW118074   2.449   0.281   8.030 -2.4527  0.7462 -0.1889
 2204SOL    HW218075   2.402   0.247   8.168  1.6496  4.6375 -2.1113
 2205SOL     OW18076   3.425   1.656   2.215 -0.2062 -0.2543  0.0842
 2205SOL    HW118077   3.470   1.677   2.297  0.5981 -2.6994  0.2636
 2205SOL    HW218078   3.467   1.571   2.199 -2.4700 -1.5258  0.9110
 2206SOL     OW18079   0.751   0.539   4.852 -0.8618 -0.2326 -0.3513
 2206SOL    HW118080   0.791   0.452   4.857 -0.8280 -0.1315  1.4396
 2206SOL    HW218081   0.805   0.586   4.917 -1.1491  0.4512 -0.6066
 2207SOL     OW18082   0.838   0.813   3.875 -0.3283 -0.0001  0.0719
 2207SOL    HW118083   0.869   0.895   3.913  0.7985 -1.5299  2.4545
 2207SOL    HW218084   0.744   0.812   3.892  0.1868  0.9090  2.9195
 2208SOL     OW18085   2.205   0.958   3.285  0.0422  0.3443  0.0016
 2208SOL    HW118086   2.248   1.037   3.250  0.5131  0.2176  0.2891
 2208SOL    HW218087   2.221   0.975   3.378  1.8404 -0.8739 -0.0878
 2209SOL     OW18088   1.684   3.693   7.852  0.1733 -0.0743  0.3803
 2209SOL    HW118089   1.677   3.671   7.945 -0.2967 -1.0249  0.1198
 2209SOL    HW218090   1.708   3.782   7.876 -0.8617  0.6737 -1.3212
 2210SOL     OW18091   3.514   2.881  14.333  0.3690  0.4659 -0.0487
 2210SOL    HW118092   3.502   2.788  14.350  1.4409  0.3060 -0.2216
 2210SOL    HW218093   3.443   2.895  14.269 -1.0330 -1.0265  1.1820
 2211SOL     OW18094   2.621   2.387  13.987  0.6141 -0.1998 -0.1351
 2211SOL    HW118095   2.618   2.305  13.937 -0.1804 -1.9180  2.7497
 2211SOL    HW218096   2.715   2.384  14.005  0.1377  1.2848  2.5073
 2212SOL     OW18097   4.245   2.565   7.945 -0.8394  0.4955 -0.6541
 2212SOL    HW118098   4.209   2.589   7.859 -1.6230 -0.1945 -0.5252
 2212SOL    HW218099   4.241   2.647   7.994 -0.5545  0.2255 -0.1857
 2213SOL     OW18100   3.471   4.206   4.561 -0.5811 -0.1471  0.3079
 2213SOL    HW118101   3.521   4.288   4.567  0.8214 -0.7830 -2.5092
 2213SOL    HW218102   3.467   4.198   4.466 -0.2450 -1.9073  0.4367
 2214SOL     OW18103   1.565   2.617   5.408 -0.3170 -0.2083 -0.4073
 2214SOL    HW118104   1.554   2.522   5.413 -0.4693 -0.2308 -1.2010
 2214SOL    HW218105   1.551   2.630   5.314 -0.4354 -3.2190 -0.8134
 2215SOL     OW18106   0.903   4.015  12.184 -0.2265 -0.0234 -0.1926
 2215SOL    HW118107   0.954   4.027  12.105 -1.0074  2.6855 -0.2741
 2215SOL    HW218108   0.938   3.929  12.207  0.6372  0.1134 -1.0242
 2216SOL     OW18109   3.100   0.909   8.570  0.1266  0.0586 -0.1413
 2216SOL    HW118110   3.032   0.901   8.503 -0.5704 -1.8772  0.8115
 2216SOL    HW218111   3.154   0.975   8.526  0.2440  0.4133  0.5441
 2217SOL     OW18112   3.104   3.034  15.926  0.2322  0.1697  0.2152
 2217SOL    HW118113   3.126   2.946  15.894  0.3130  1.0011 -2.0243
 2217SOL    HW218114   3.043   3.059  15.856 -1.3925  0.4126  1.7328
 2218SOL     OW18115   0.153   2.581   6.042 -0.0602  0.0396 -0.0855
 2218SOL    HW118116   0.125   2.490   6.045  1.0333 -0.3797 -2.0474
 2218SOL    HW218117   0.198   2.585   6.126 -0.1879 -0.1287 -0.0109
 2219SOL     OW18118   4.278   0.680   4.303  0.8043  0.1938  0.0706
 2219SOL    HW118119   4.272   0.650   4.212  1.0952  0.1901  0.0526
 2219SOL    HW218120   4.348   0.745   4.306  1.3848 -0.2495 -3.4930
 2220SOL     OW18121   3.475   2.240   5.523 -0.3053 -0.0339  0.8842
 2220SOL    HW118122   3.407   2.306   5.511 -0.3860 -0.2958 -0.1091
 2220SOL    HW218123   3.419   2.162   5.516  0.6404 -0.5797 -0.6281
 2221SOL     OW18124   3.095   2.351   6.312 -0.2105 -0.1753  0.0174
 2221SOL    HW118125   3.113   2.316   6.225 -0.7002  1.9942 -0.9418
 2221SOL    HW218126   3.174   2.325   6.360 -1.2993 -1.0239  1.3653
 2222SOL     OW18127   1.497   3.420  10.985  0.7993  0.3808 -0.4349
 2222SOL    HW118128   1.547   3.469  11.050 -1.7382  0.3286  1.5534
 2222SOL    HW218129   1.519   3.336  11.026 -0.9894 -0.0364 -0.3258
 2223SOL     OW18130   1.540   2.264   8.938  0.6966  0.3649  0.7486
 2223SOL    HW118131   1.518   2.258   8.845  0.4088 -1.2074  0.9320
 2223SOL    HW218132   1.635   2.254   8.932  0.4090 -1.0087 -1.2808
 2224SOL     OW18133   3.848   0.606   5.879 -0.1642 -0.0466  0.2582
 2224SOL    HW118134   3.893   0.653   5.809  0.3989 -0.1945  0.5180
 2224SOL    HW218135   3.777   0.579   5.821  2.3707  0.3140 -3.0059
 2225SOL     OW18136   1.054   2.082   7.484  0.4931  0.5880  0.2820
 2225SOL    HW118137   1.033   2.016   7.418 -2.1837  2.6638 -0.9333
 2225SOL    HW218138   1.080   2.026   7.557  2.5346 -0.3568 -1.1533
 2226SOL     OW18139   0.789   1.989  11.876  0.2139  0.0963  0.1687
 2226SOL    HW118140   0.777   1.964  11.784  0.6415  1.1094 -0.1612
 2226SOL    HW218141   0.699   1.994  11.909  0.5798  0.9866  1.0242
 2227SOL     OW18142   3.719   0.949   6.388 -0.1559 -0.5714 -0.1638
 2227SOL    HW118143   3.780   0.972   6.317 -1.1570 -1.8280 -1.4184
 2227SOL    HW218144   3.634   0.973   6.354  0.3457  1.4114 -0.0241
 2228SOL     OW18145   0.205   3.255  14.016 -0.4058 -0.2551 -0.0223
 2228SOL    HW118146   0.226   3.181  13.958 -1.7330 -2.4963  2.3360
 2228SOL    HW218147   0.287   3.304  14.016  0.6836 -2.0609 -0.5361
 2229SOL     OW18148   4.066   1.223   9.476 -0.1571  0.2059  0.7150
 2229SOL    HW118149   4.077   1.276   9.397 -0.7566 -1.6568 -0.6217
 2229SOL    HW218150   4.092   1.283   9.546 -0.2048  0.4826  0.4973
 2230SOL     OW18151   0.363   4.509  10.482 -0.0154  0.0942  0.1221
 2230SOL    HW118152   0.430   4.441  10.480  0.9018  1.0103 -0.9086
 2230SOL    HW218153   0.291   4.458  10.445 -1.0060  0.6378  1.3085
 2231SOL     OW18154   0.708   3.366  12.650  0.2759  0.0295 -0.5133
 2231SOL    HW118155   0.779   3.359  12.713  1.0070 -0.6644 -1.4046
 2231SOL    HW218156   0.752   3.416  12.581  1.1967 -0.8530 -0.5621
 2232SOL     OW18157   3.553   0.163   0.955 -0.1797  0.5173  0.3058
 2232SOL    HW118158   3.562   0.120   0.871 -3.7902 -1.7095  1.0444
 2232SOL    HW218159   3.638   0.132   0.987  0.0528 -1.5778 -2.3895
 2233SOL     OW18160   1.085   1.371   9.352 -0.0929 -0.6196  0.2113
 2233SOL    HW118161   1.039   1.385   9.434  0.9988 -0.4807  0.7981
 2233SOL    HW218162   1.005   1.367   9.300 -1.4140  3.7371  1.8933
 2234SOL     OW18163   1.365   2.421   6.833  0.3676 -0.0064 -0.4419
 2234SOL    HW118164   1.343   2.514   6.842 -0.3690 -0.0605 -1.6173
 2234SOL    HW218165   1.444   2.421   6.779 -0.1049  0.3906 -1.1371
 2235SOL     OW18166   2.452   2.356   7.787  0.0991  0.0952 -0.3602
 2235SOL    HW118167   2.496   2.327   7.708  0.1450  0.5905 -0.5181
 2235SOL    HW218168   2.381   2.403   7.743  0.6381  0.3934 -0.9065
 2236SOL     OW18169   4.609   0.127   7.108  0.6948  0.2884 -0.0770
 2236SOL    HW118170   4.516   0.131   7.090  1.2004 -1.4966 -3.0055
 2236SOL    HW218171   4.604   0.132   7.203  0.5916  0.2936 -0.0829
 2237SOL     OW18172   3.312   3.186   3.842  0.3489 -0.1901 -0.2962
 2237SOL    HW118173   3.261   3.130   3.902 -0.1772 -0.7061 -1.2192
 2237SOL    HW218174   3.402   3.174   3.871  0.1405  0.5936  0.6637
 2238SOL     OW18175   0.244   1.846   4.871  0.0308  0.0272  0.1513
 2238SOL    HW118176   0.319   1.867   4.816  0.1658 -0.7646  0.0354
 2238SOL    HW218177   0.278   1.768   4.914  0.1592  0.4556  0.8389
 2239SOL     OW18178   3.653   2.444  14.163 -0.0908  0.3145 -0.3715
 2239SOL    HW118179   3.743   2.414  14.147  0.1655  1.0345 -0.2376
 2239SOL    HW218180   3.602   2.397  14.097 -1.2891  0.2751  0.5855
 2240SOL     OW18181   1.352   4.690   0.197 -0.0184  0.2584  0.7686
 2240SOL    HW118182   1.262   4.684   0.228 -0.5071 -0.5139 -0.7808
 2240SOL    HW218183   1.341   0.023   0.119  0.2414 -0.2671  0.3530
 2241SOL     OW18184   3.881   0.679   2.571 -0.6861  0.0674  0.0377
 2241SOL    HW118185   3.815   0.626   2.615  0.7870 -2.4547 -0.7445
 2241SOL    HW218186   3.832   0.741   2.516  1.6849  0.7443 -1.3378
 2242SOL     OW18187   2.633   1.915  13.270  0.7567  0.3216 -0.1899
 2242SOL    HW118188   2.704   1.854  13.248 -1.1079 -1.8661 -0.1101
 2242SOL    HW218189   2.590   1.867  13.340 -0.9294  1.8432 -0.1804
 2243SOL     OW18190   4.697   0.226   5.864  0.0165 -0.0671  0.0638
 2243SOL    HW118191   4.702   0.144   5.816 -0.5384  0.7975 -1.4975
 2243SOL    HW218192   4.660   0.289   5.802  0.1179  1.1678  1.2598
 2244SOL     OW18193   2.609   2.670   1.590 -0.5438 -0.6770  0.5437
 2244SOL    HW118194   2.645   2.728   1.524  1.6534  0.3762  2.6518
 2244SOL    HW218195   2.679   2.613   1.620 -0.5036  0.9625  3.5699
 2245SOL     OW18196   1.408   2.999   9.396 -0.1200 -0.2467  0.4092
 2245SOL    HW118197   1.411   2.990   9.492 -2.6364  3.0059  0.7808
 2245SOL    HW218198   1.325   2.953   9.385 -0.4228  0.0122  1.5869
 2246SOL     OW18199   0.826   3.166   7.826  0.0164 -0.2904  0.2784
 2246SOL    HW118200   0.816   3.193   7.734  1.1370 -1.9474 -0.3390
 2246SOL    HW218201   0.891   3.231   7.853 -0.8998  0.1202  1.4775
 2247SOL     OW18202   0.862   2.070   8.661 -0.5463 -0.2424 -0.1873
 2247SOL    HW118203   0.893   2.160   8.669  0.8679 -0.5877 -1.9137
 2247SOL    HW218204   0.910   2.035   8.735 -0.3529  1.1859  0.3527
 2248SOL     OW18205   3.113   3.583   4.906 -0.5505  0.0145 -0.0018
 2248SOL    HW118206   3.038   3.555   4.959  1.2495 -1.7309  1.6100
 2248SOL    HW218207   3.175   3.633   4.959  1.7243 -3.8019  0.9457
 2249SOL     OW18208   1.905   0.229   4.025 -0.1480  0.3860  0.0234
 2249SOL    HW118209   1.955   0.234   4.106  0.6933 -1.8103 -0.3329
 2249SOL    HW218210   1.870   0.140   4.037 -0.2279  0.4728  0.4380
 2250SOL     OW18211   2.859   3.725   5.409 -0.2433 -0.3711  0.2348
 2250SOL    HW118212   2.818   3.753   5.327 -0.0855  1.0896  0.6525
 2250SOL    HW218213   2.872   3.811   5.448 -0.2279  0.1301 -0.8731
 2251SOL     OW18214   2.319   1.895  16.272 -0.3003 -0.2837  0.2677
 2251SOL    HW118215   2.247   1.833  16.257 -1.3777  1.0748 -0.1956
 2251SOL    HW218216   2.310   1.954  16.197  0.2239 -0.0182  0.4167
 2252SOL     OW18217   0.872   1.337   9.154  0.2510  0.1157  0.5743
 2252SOL    HW118218   0.854   1.243   9.154 -0.0255  0.1689 -0.3638
 2252SOL    HW218219   0.794   1.380   9.120  1.7643  1.1286 -1.6117
 2253SOL     OW18220   1.259   2.051   5.013 -0.1825 -0.4743  0.0705
 2253SOL    HW118221   1.310   2.072   4.935  1.7231 -2.5528  0.7556
 2253SOL    HW218222   1.208   1.983   4.968 -0.2048 -1.5853  1.7996
 2254SOL     OW18223   2.454   1.068  12.693 -0.6946 -0.2285 -0.3114
 2254SOL    HW118224   2.497   1.149  12.719  0.1112 -0.3202 -1.3270
 2254SOL    HW218225   2.404   1.092  12.615 -0.0156 -1.5649 -1.1650
 2255SOL     OW18226   2.627   0.593  13.305  0.3239  0.4526 -0.7152
 2255SOL    HW118227   2.632   0.499  13.321 -1.2624  0.2250 -1.5990
 2255SOL    HW218228   2.654   0.594  13.213  0.5368 -2.8791 -0.6716
 2256SOL     OW18229   0.067   0.345  13.977 -0.4057  0.6330  0.8403
 2256SOL    HW118230   0.133   0.416  13.977  2.3446 -1.9240  0.0846
 2256SOL    HW218231   0.126   0.272  13.998  0.5732  0.7642 -1.4495
 2257SOL     OW18232   0.234   0.903   4.886  0.2139  0.6120  0.4119
 2257SOL    HW118233   0.319   0.945   4.870 -0.5619  1.5867 -1.1230
 2257SOL    HW218234   0.163   0.966   4.881 -0.6302 -0.4015 -0.1793
 2258SOL     OW18235   0.261   4.053   1.299 -0.1005 -0.1259 -0.0556
 2258SOL    HW118236   0.309   3.975   1.272 -0.3588 -0.2481 -0.1602
 2258SOL    HW218237   0.304   4.075   1.381 -1.0265 -0.9789  0.6552
 2259SOL     OW18238   0.047   2.130  11.718  0.5634  0.5973  0.0016
 2259SOL    HW118239   4.677   2.143  11.697  1.3207  3.6495 -1.4204
 2259SOL    HW218240   0.099   2.158  11.643 -1.7762  0.3535 -1.7209
 2260SOL     OW18241   1.059   4.117   3.272  0.2974  0.5803  0.4683
 2260SOL    HW118242   1.142   4.078   3.298 -0.9819 -2.0337  0.5464
 2260SOL    HW218243   1.069   4.204   3.232 -0.5955  1.1157  1.4046
 2261SOL     OW18244   0.858   2.960   7.385  0.1080  0.3250  0.1593
 2261SOL    HW118245   0.887   2.870   7.399 -1.0408 -0.7322 -4.3419
 2261SOL    HW218246   0.879   3.002   7.468  0.6146 -0.5065  0.4447
 2262SOL     OW18247   0.214   0.240   4.885 -0.7662  0.3699 -0.0502
 2262SOL    HW118248   0.242   0.298   4.956  1.5499 -1.5523  0.5717
 2262SOL    HW218249   0.177   0.303   4.823 -2.7519 -1.3490 -0.6100
 2263SOL     OW18250   2.085   0.844   8.973 -0.0519  0.0615 -0.5070
 2263SOL    HW118251   2.071   0.877   8.885 -3.5263  0.4685  0.1940
 2263SOL    HW218252   2.147   0.773   8.955 -1.3074 -1.3883  0.8590
 2264SOL     OW18253   0.536   0.696   9.805  0.5375  0.5796  0.8310
 2264SOL    HW118254   0.568   0.673   9.892 -1.0939 -1.1040  0.9678
 2264SOL    HW218255   0.441   0.700   9.817  0.1805  0.1961 -1.8006
 2265SOL     OW18256   3.453   2.985   8.009 -0.0807 -0.3013  0.0841
 2265SOL    HW118257   3.448   3.081   8.011 -0.1862 -0.3645  3.5231
 2265SOL    HW218258   3.390   2.961   8.078 -0.7936  0.0096 -0.4645
 2266SOL     OW18259   0.554   3.907   1.757  0.3047 -0.2461 -0.3222
 2266SOL    HW118260   0.560   3.827   1.810  1.0859 -0.1782 -0.3076
 2266SOL    HW218261   0.570   3.874   1.668 -1.6526 -1.3822 -0.2480
 2267SOL     OW18262   2.429   4.635   9.542  0.0949 -0.1733  0.0080
 2267SOL    HW118263   2.431   4.546   9.579 -0.6874  0.1745  0.9035
 2267SOL    HW218264   2.342   4.665   9.571  0.4691  0.0236  0.9306
 2268SOL     OW18265   2.004   4.290   1.638 -0.3352 -0.7540  0.0078
 2268SOL    HW118266   1.968   4.237   1.567  0.0155 -1.0774  0.0735
 2268SOL    HW218267   1.928   4.326   1.684 -0.1099 -1.7605  1.1576
 2269SOL     OW18268   3.551   4.124   7.104 -0.1879  0.1779  0.5508
 2269SOL    HW118269   3.531   4.205   7.151  0.1774  1.0209 -0.7675
 2269SOL    HW218270   3.640   4.130   7.071 -1.0165  0.8271 -1.5723
 2270SOL     OW18271   4.661   3.337  16.372 -0.0126  0.0985 -0.1752
 2270SOL    HW118272   4.714   3.314  16.448 -0.4303 -0.3401 -0.0199
 2270SOL    HW218273   4.653   3.428  16.401  2.5165  0.1318  0.4341
 2271SOL     OW18274   1.833   0.220   8.336 -0.1386 -0.5995  0.2637
 2271SOL    HW118275   1.775   0.209   8.411 -0.2237 -0.7816  0.1736
 2271SOL    HW218276   1.855   0.313   8.340 -1.0732 -0.3812  0.3178
 2272SOL     OW18277   0.016   1.397   8.025 -0.1023 -0.0995  0.5747
 2272SOL    HW118278   0.006   1.435   8.112  1.9986 -1.9532  1.6329
 2272SOL    HW218279   0.076   1.458   7.981  0.3063 -1.1609 -0.3493
 2273SOL     OW18280   3.772   2.982   8.400 -0.4425  0.3882 -0.3091
 2273SOL    HW118281   3.722   3.061   8.423 -0.2012 -0.3835  2.8767
 2273SOL    HW218282   3.710   2.924   8.355 -1.7806  1.2127  0.4564
 2274SOL     OW18283   3.818   4.046   3.777 -0.0948  0.3085  0.2056
 2274SOL    HW118284   3.839   3.953   3.789 -0.9819  0.4899  3.3678
 2274SOL    HW218285   3.866   4.086   3.850 -0.0457  0.2123  0.2260
 2275SOL     OW18286   1.750   1.463   5.981  0.5694 -0.8537 -0.2640
 2275SOL    HW118287   1.790   1.548   5.966  0.3369 -0.6464  0.2728
 2275SOL    HW218288   1.811   1.423   6.044 -0.0638 -2.4883 -0.6691
 2276SOL     OW18289   0.441   0.963  12.411  0.8670 -0.2101  0.1576
 2276SOL    HW118290   0.384   0.947  12.336  1.0016 -3.0883  0.6919
 2276SOL    HW218291   0.493   1.040  12.387  0.7016 -0.3488 -0.6702
 2277SOL     OW18292   4.153   0.658  15.838 -0.2696 -0.3952 -0.3431
 2277SOL    HW118293   4.068   0.643  15.880 -0.3861  1.5265  0.1125
 2277SOL    HW218294   4.123   0.669  15.747 -0.4266  2.9406  0.1345
 2278SOL     OW18295   3.802   0.964  14.949  0.0447  0.1606 -0.2357
 2278SOL    HW118296   3.892   0.977  14.921  0.3454 -1.8956 -0.1539
 2278SOL    HW218297   3.775   0.886  14.901 -3.2326  1.6787 -0.8766
 2279SOL     OW18298   4.545   1.857  12.982  0.4726  0.1584  0.5081
 2279SOL    HW118299   4.619   1.845  13.042  0.6488 -1.1279  0.0354
 2279SOL    HW218300   4.588   1.861  12.897 -0.7521 -0.3485 -0.1279
 2280SOL     OW18301   4.193   2.953  13.456 -0.0476 -0.1823  0.3234
 2280SOL    HW118302   4.097   2.952  13.458 -0.0569 -2.4643 -1.3992
 2280SOL    HW218303   4.221   2.960  13.365 -0.5380  1.6909  0.3036
 2281SOL     OW18304   4.029   2.508   8.285 -0.3097 -0.2217 -0.2677
 2281SOL    HW118305   4.043   2.545   8.372  0.2296  0.1140 -0.5014
 2281SOL    HW218306   4.116   2.495   8.249  0.7221  1.4581  1.5956
 2282SOL     OW18307   2.962   4.432   4.134  0.3914 -0.2490 -0.0585
 2282SOL    HW118308   2.987   4.379   4.209 -0.6561  0.4790  0.8006
 2282SOL    HW218309   2.867   4.441   4.140  0.2518 -1.3325 -0.6059
 2283SOL     OW18310   2.846   0.528  17.632  0.3807  0.0370  0.2608
 2283SOL    HW118311   2.869   0.509  17.541  1.4651  0.3462  0.4626
 2283SOL    HW218312   2.767   0.580  17.617 -0.1191 -0.7220  0.2818
 2284SOL     OW18313   2.355   2.166   3.200 -0.4509 -0.2371  0.2557
 2284SOL    HW118314   2.288   2.187   3.135 -0.6971  0.1204  0.6233
 2284SOL    HW218315   2.292   2.144   3.268  0.7663  2.7429  2.3516
 2285SOL     OW18316   0.400   0.535   4.115 -0.3660  0.3521 -0.6898
 2285SOL    HW118317   0.326   0.481   4.086 -0.2613 -0.5915  0.8167
 2285SOL    HW218318   0.349   0.616   4.114  0.3502  0.7797 -2.3448
 2286SOL     OW18319   3.791   2.913  14.055 -0.4923 -0.4418 -0.1201
 2286SOL    HW118320   3.864   2.902  14.117  1.0382  1.0076 -1.6253
 2286SOL    HW218321   3.725   2.861  14.099  0.3777 -1.3498  0.1059
 2287SOL     OW18322   1.119   0.204   5.556 -0.0231 -1.4508 -0.4167
 2287SOL    HW118323   1.082   0.192   5.469  0.3687  0.6042 -0.8737
 2287SOL    HW218324   1.191   0.262   5.534 -1.6768  0.3540 -1.0617
 2288SOL     OW18325   0.865   2.518   6.872  0.4009  0.3130 -0.1473
 2288SOL    HW118326   0.930   2.561   6.817  0.4035  0.6635  0.1371
 2288SOL    HW218327   0.886   2.425   6.858 -0.0253  0.0456  0.9522
 2289SOL     OW18328   1.227   2.158   8.713  0.0214 -0.1709  0.0940
 2289SOL    HW118329   1.270   2.072   8.716  1.2207  0.4410  0.2579
 2289SOL    HW218330   1.155   2.146   8.775  0.1598  0.9568  0.4679
 2290SOL     OW18331   4.712   2.722   1.837  0.2780  0.2157 -0.4971
 2290SOL    HW118332   4.640   2.667   1.805  1.5376 -2.1981  0.8209
 2290SOL    HW218333   4.721   2.783   1.764 -1.3340  2.5390  1.2370
 2291SOL     OW18334   0.571   0.110  12.932 -0.2167 -0.3957  0.2259
 2291SOL    HW118335   0.606   0.055  12.861 -2.8864 -0.2727 -1.1942
 2291SOL    HW218336   0.639   0.177  12.925 -2.2165  1.5224 -0.7721
 2292SOL     OW18337   1.499   4.090  13.565 -0.0700 -0.0575  0.5187
 2292SOL    HW118338   1.429   4.030  13.541  0.3137  0.3681 -1.7068
 2292SOL    HW218339   1.518   4.130  13.480  1.4822 -0.8072  0.5030
 2293SOL     OW18340   4.220   4.078   9.759  0.1203 -0.0579  0.3056
 2293SOL    HW118341   4.132   4.093   9.725 -0.2327 -3.3532 -0.2276
 2293SOL    HW218342   4.197   4.054   9.848  1.2895 -0.9067  0.3731
 2294SOL     OW18343   2.521   4.123   0.261  0.0267  0.2307  0.0292
 2294SOL    HW118344   2.615   4.121   0.279 -0.2524 -1.0648  1.3811
 2294SOL    HW218345   2.510   4.201   0.208 -1.8847  0.2357  0.4213
 2295SOL     OW18346   1.328   2.157   0.303 -0.4601  0.5303  0.2698
 2295SOL    HW118347   1.336   2.114   0.388  1.7626  1.0211  0.3072
 2295SOL    HW218348   1.236   2.145   0.278 -0.2615  0.6040 -0.4979
 2296SOL     OW18349   2.817   2.283   7.103 -0.3616 -0.0928  0.2608
 2296SOL    HW118350   2.878   2.352   7.078  0.3084  0.0900  2.3874
 2296SOL    HW218351   2.734   2.329   7.093 -0.4281 -0.2204  0.2211
 2297SOL     OW18352   3.115   1.699   5.456 -0.6062  0.7759  0.1397
 2297SOL    HW118353   3.077   1.713   5.369  0.1485  2.4426  0.0905
 2297SOL    HW218354   3.121   1.604   5.442 -1.9963  0.8447 -0.9469
 2298SOL     OW18355   0.836   1.189   1.586  0.3453  0.6411  0.0911
 2298SOL    HW118356   0.894   1.116   1.566  1.1226  1.6579 -1.3627
 2298SOL    HW218357   0.775   1.178   1.513  0.9371 -1.0840 -0.1205
 2299SOL     OW18358   3.112   0.640  15.362  0.2249  0.0962 -0.2135
 2299SOL    HW118359   3.058   0.718  15.349  0.8341  0.6077  0.3713
 2299SOL    HW218360   3.049   0.571  15.338  1.2324  0.3134 -3.4754
 2300SOL     OW18361   3.203   3.248   1.381 -0.6267 -0.0889 -0.3983
 2300SOL    HW118362   3.217   3.335   1.418  1.4751 -0.1741 -0.9894
 2300SOL    HW218363   3.218   3.264   1.287  0.2356  1.2104 -0.0445
 2301SOL     OW18364   0.968   4.606   5.354  0.0683 -0.0573  0.2367
 2301SOL    HW118365   0.996   4.638   5.268  1.7131  2.4568  1.6828
 2301SOL    HW218366   0.932   4.521   5.331  1.7861 -0.6247 -0.3273
 2302SOL     OW18367   0.141   4.243   8.950  0.9883  0.0347 -0.0141
 2302SOL    HW118368   0.187   4.159   8.951  1.7038  0.4304 -0.0042
 2302SOL    HW218369   0.186   4.291   9.020  0.3659 -1.1835  1.2104
 2303SOL     OW18370   2.705   0.110   2.617  0.0883  0.7934 -0.6810
 2303SOL    HW118371   2.749   0.160   2.547 -1.3130  0.1407 -2.0421
 2303SOL    HW218372   2.659   0.043   2.567  1.0826 -0.3729 -0.0066
 2304SOL     OW18373   2.328   4.004   3.730 -0.2060  0.5453 -0.3729
 2304SOL    HW118374   2.256   3.982   3.671  0.7055  0.0409 -1.3072
 2304SOL    HW218375   2.307   4.096   3.746 -2.4515  0.0731 -0.5354
 2305SOL     OW18376   2.514   1.317  12.795  0.4195 -0.2743 -0.1841
 2305SOL    HW118377   2.608   1.319  12.815  0.8921  0.5575 -2.5831
 2305SOL    HW218378   2.471   1.316  12.881  0.6130  1.1417 -0.0828
 2306SOL     OW18379   0.337   2.433   7.473  0.1015 -0.5253  0.5993
 2306SOL    HW118380   0.286   2.418   7.552  1.4519 -0.4027  1.4932
 2306SOL    HW218381   0.368   2.521   7.495  0.1087 -0.5437  0.6612
 2307SOL     OW18382   3.651   0.852   2.434  0.6356  0.2282  0.1911
 2307SOL    HW118383   3.719   0.827   2.370 -0.3044  0.8869 -1.0552
 2307SOL    HW218384   3.582   0.789   2.413  0.6644  0.5774 -0.9130
 2308SOL     OW18385   3.908   3.441   6.776  0.3099  0.6049  0.0618
 2308SOL    HW118386   3.904   3.380   6.849  3.3014  1.1138  0.6787
 2308SOL    HW218387   3.989   3.489   6.794  1.0704 -0.8707  0.5168
 2309SOL     OW18388   3.295   1.021   8.400 -0.1994 -0.8382  0.1042
 2309SOL    HW118389   3.264   0.974   8.323 -3.2853  1.7353 -0.2179
 2309SOL    HW218390   3.378   1.050   8.363 -0.2352  2.3450  2.5480
 2310SOL     OW18391   0.984   2.983   5.963  0.2174 -0.0993 -0.2330
 2310SOL    HW118392   0.963   3.009   6.053 -1.9748  0.8382 -1.0273
 2310SOL    HW218393   0.896   2.969   5.928  0.0959 -0.2014  0.1084
 2311SOL     OW18394   2.835   2.656  14.733 -0.0177  0.7441  0.1348
 2311SOL    HW118395   2.874   2.706  14.805 -5.5479  0.8234  3.0281
 2311SOL    HW218396   2.746   2.642  14.764 -0.0571 -1.2568 -0.8446
 2312SOL     OW18397   3.690   1.486   1.963  0.1255  0.1715 -0.1386
 2312SOL    HW118398   3.639   1.547   1.910  1.2450 -1.7955 -3.5154
 2312SOL    HW218399   3.773   1.510   1.923  0.0824  0.0011 -0.3289
 2313SOL     OW18400   0.365   3.065   4.871  0.0133  0.2682  0.2959
 2313SOL    HW118401   0.321   3.031   4.793 -0.1240  2.1852 -0.4583
 2313SOL    HW218402   0.443   3.010   4.877 -0.0225  0.1628 -0.1844
 2314SOL     OW18403   0.979   0.771   3.105 -0.3093  0.0308 -0.4219
 2314SOL    HW118404   0.949   0.862   3.108  1.4813  0.5781  1.4786
 2314SOL    HW218405   0.941   0.736   3.025  1.8894 -0.5988 -1.1815
 2315SOL     OW18406   1.576   3.337  17.183 -0.7625  0.1519  0.4753
 2315SOL    HW118407   1.521   3.282  17.128  1.0413 -1.5309  0.3691
 2315SOL    HW218408   1.512   3.392  17.228  0.1129  0.9542  0.7473
 2316SOL     OW18409   2.812   2.074   6.511  0.2462  0.4388  0.1791
 2316SOL    HW118410   2.781   2.035   6.430  2.0706 -0.4416 -0.0901
 2316SOL    HW218411   2.872   2.008   6.545  1.5044  0.3294 -2.2626
 2317SOL     OW18412   3.776   1.405   4.033 -0.5358  0.0825 -0.2731
 2317SOL    HW118413   3.696   1.447   4.064  0.6775  3.4086 -1.6487
 2317SOL    HW218414   3.820   1.480   3.995  1.4316 -1.0188 -0.1779
 2318SOL     OW18415   4.162   1.812   9.269  0.3682 -0.3112  0.0474
 2318SOL    HW118416   4.094   1.806   9.202 -2.0776  0.7598  2.4281
 2318SOL    HW218417   4.177   1.906   9.283  1.1767  0.0348 -3.2021
 2319SOL     OW18418   4.200   4.450  14.478  0.1430 -0.3091  0.5061
 2319SOL    HW118419   4.200   4.531  14.428 -0.1661 -0.4222  0.3204
 2319SOL    HW218420   4.250   4.478  14.555  2.1649  1.8785 -1.6184
 2320SOL     OW18421   0.953   0.225   7.101 -0.1431 -0.6033 -1.0359
 2320SOL    HW118422   0.998   0.171   7.165 -1.5341 -1.1485 -0.5211
 2320SOL    HW218423   0.922   0.289   7.166 -1.1681 -0.0169 -2.0976
 2321SOL     OW18424   3.064   2.084   1.903 -0.1541 -0.0254 -0.3030
 2321SOL    HW118425   3.151   2.044   1.892 -0.5654 -0.7944 -0.7354
 2321SOL    HW218426   3.004   2.036   1.847 -0.7265  1.4934 -0.9769
 2322SOL     OW18427   1.486   2.580   7.460 -0.7217 -0.3025  0.3036
 2322SOL    HW118428   1.425   2.510   7.438  2.2356 -2.6145 -0.4711
 2322SOL    HW218429   1.439   2.619   7.534 -1.0915 -0.4022  0.1214
 2323SOL     OW18430   1.060   4.663   5.941 -0.2239  0.3538  0.0709
 2323SOL    HW118431   0.996   4.660   5.869 -1.4249  0.8641  1.1178
 2323SOL    HW218432   1.141   4.635   5.899  0.3982  0.2885  1.3248
 2324SOL     OW18433   2.968   3.419   8.266 -0.0669  0.7584 -0.5467
 2324SOL    HW118434   2.942   3.371   8.187 -0.5133 -0.8373  0.5692
 2324SOL    HW218435   2.966   3.509   8.232 -0.0141  0.4376 -1.3944
 2325SOL     OW18436   2.923   4.071   1.816 -0.2554  0.1698 -0.0968
 2325SOL    HW118437   2.885   4.139   1.871 -0.4053 -0.9660  1.1783
 2325SOL    HW218438   2.991   4.029   1.868 -0.4148 -0.3369 -0.3002
 2326SOL     OW18439   2.098   3.647  17.610  0.2276 -0.0581  0.0854
 2326SOL    HW118440   2.066   3.562  17.578  0.7244 -0.6257  1.1047
 2326SOL    HW218441   2.029   3.675  17.670  1.8132 -1.3728  2.5192
 2327SOL     OW18442   3.916   1.286   8.772  0.4274 -0.2859 -0.5206
 2327SOL    HW118443   3.887   1.376   8.788  1.8808 -0.1379  1.3256
 2327SOL    HW218444   3.936   1.253   8.860  0.0968  1.5051  0.2268
 2328SOL     OW18445   2.337   3.220   6.617  0.0798  0.0096  0.3302
 2328SOL    HW118446   2.393   3.282   6.664  0.3109  0.1383 -0.1219
 2328SOL    HW218447   2.326   3.148   6.680 -1.1338 -2.0543 -2.2104
 2329SOL     OW18448   3.877   2.238   9.650 -0.0089  0.1959  0.2345
 2329SOL    HW118449   3.882   2.325   9.610  1.6181  0.6541  1.4237
 2329SOL    HW218450   3.971   2.226   9.658 -0.1396 -1.2778 -0.3877
 2330SOL     OW18451   0.834   4.285  12.097 -0.5229 -0.0091 -0.3883
 2330SOL    HW118452   0.747   4.296  12.136 -0.0675 -0.0259  0.6578
 2330SOL    HW218453   0.853   4.197  12.129  1.8986  1.1971  1.4954
 2331SOL     OW18454   3.280   3.437   0.224  0.1699  0.1316  0.4560
 2331SOL    HW118455   3.275   3.381   0.146  0.1044  0.2038  0.4078
 2331SOL    HW218456   3.264   3.524   0.187  0.3154 -0.8526 -1.9675
 2332SOL     OW18457   1.792   1.362   9.201  0.0143 -0.2546  0.0600
 2332SOL    HW118458   1.708   1.341   9.242 -0.3624  0.3776 -0.3859
 2332SOL    HW218459   1.827   1.444   9.235 -1.4301 -0.1653  1.3202
 2333SOL     OW18460   3.902   2.379  14.081 -0.4709  0.1331 -0.2031
 2333SOL    HW118461   3.925   2.330  14.003 -1.4576  1.5046 -1.3463
 2333SOL    HW218462   3.915   2.312  14.149 -0.9930  0.7746  0.5376
 2334SOL     OW18463   1.325   2.687   2.524  0.3353 -0.3163 -0.3213
 2334SOL    HW118464   1.261   2.696   2.595 -2.9111 -1.5271 -3.0728
 2334SOL    HW218465   1.348   2.779   2.513 -1.2761  0.1510  0.1502
 2335SOL     OW18466   0.913   2.899   6.606  0.1352 -0.0090  0.1041
 2335SOL    HW118467   0.888   2.895   6.698  0.2136  4.2365  0.2755
 2335SOL    HW218468   0.878   2.985   6.584  0.6923 -0.1687 -1.4429
 2336SOL     OW18469   1.840   3.291   1.240 -0.7891  0.2846 -0.0692
 2336SOL    HW118470   1.873   3.315   1.326 -0.5282  2.5967 -0.8358
 2336SOL    HW218471   1.842   3.195   1.243 -0.3904  0.2837 -0.4453
 2337SOL     OW18472   2.064   4.598  15.684 -0.0338  0.5716  0.1051
 2337SOL    HW118473   2.105   4.532  15.740  0.7349  1.4322  0.5376
 2337SOL    HW218474   2.135   4.653  15.650 -0.0483  0.9494  0.6892
 2338SOL     OW18475   0.751   3.761   6.415 -0.5576 -0.0680 -0.0898
 2338SOL    HW118476   0.805   3.786   6.491  1.0703 -5.2971  0.4603
 2338SOL    HW218477   0.817   3.769   6.345  0.4403  0.2095  0.8726
 2339SOL     OW18478   3.467   0.012   8.368  0.2663 -0.4374  0.4621
 2339SOL    HW118479   3.394   0.030   8.428  0.6833  0.4372  0.7096
 2339SOL    HW218480   3.532   4.685   8.418  0.7032  0.5403  0.8681
 2340SOL     OW18481   4.223   3.967   6.250  0.0847  0.0385  0.1875
 2340SOL    HW118482   4.180   4.048   6.221  0.2374 -0.0539 -0.2993
 2340SOL    HW218483   4.179   3.911   6.186  1.5732  1.8474 -2.4416
 2341SOL     OW18484   3.609   2.397  15.610 -0.2273  0.7536  0.6413
 2341SOL    HW118485   3.514   2.405  15.614 -0.1807  1.4231  0.4071
 2341SOL    HW218486   3.625   2.342  15.533 -5.2951  0.9757 -0.5955
 2342SOL     OW18487   0.262   2.379   0.518  0.2063 -0.7570 -0.0598
 2342SOL    HW118488   0.198   2.363   0.587  1.2844 -1.4340  0.7941
 2342SOL    HW218489   0.314   2.299   0.527 -0.6366 -0.9619  2.8134
 2343SOL     OW18490   2.610   2.863   5.888  0.6162 -0.0739 -0.3456
 2343SOL    HW118491   2.563   2.799   5.943  0.5086  0.6653  0.4208
 2343SOL    HW218492   2.695   2.844   5.928  0.0365  0.2162  1.0352
 2344SOL     OW18493   2.954   2.939   5.294 -0.4536 -0.8556 -0.6666
 2344SOL    HW118494   2.948   3.033   5.277 -1.9859 -0.6653  0.9014
 2344SOL    HW218495   3.045   2.910   5.283  0.3244  1.2604  0.0991
 2345SOL     OW18496   3.212   2.753   9.169 -0.7611 -0.0587 -0.7128
 2345SOL    HW118497   3.160   2.786   9.096  0.0856 -0.9603 -1.7248
 2345SOL    HW218498   3.149   2.760   9.241 -1.1848 -2.3913 -0.8483
 2346SOL     OW18499   3.221   0.696  13.375  0.0382 -0.1575  0.0551
 2346SOL    HW118500   3.229   0.738  13.289 -1.1406 -1.6111 -0.7706
 2346SOL    HW218501   3.126   0.694  13.377  0.0417  0.0214  0.4696
 2347SOL     OW18502   3.552   4.032   4.096  0.0340 -0.0012  0.3395
 2347SOL    HW118503   3.594   4.091   4.033 -0.8163 -1.5125 -1.6140
 2347SOL    HW218504   3.611   3.957   4.099  0.9129  0.6243 -1.0840
 2348SOL     OW18505   1.388   1.020   8.865 -0.2155  0.5999  0.0951
 2348SOL    HW118506   1.419   1.042   8.777 -0.6151  1.3181  0.1313
 2348SOL    HW218507   1.426   0.933   8.868  1.4566  1.3101 -0.4796
 2349SOL     OW18508   1.815   1.805   5.379  0.8362 -0.0452 -0.0079
 2349SOL    HW118509   1.788   1.833   5.466 -0.4365  0.5175 -0.5861
 2349SOL    HW218510   1.851   1.723   5.412  0.9990 -0.5101 -1.3054
 2350SOL     OW18511   1.262   0.103   9.386 -0.5557 -0.3946  0.2457
 2350SOL    HW118512   1.316   0.107   9.465  1.5794  2.6783 -1.3708
 2350SOL    HW218513   1.190   0.043   9.404 -1.2777  0.1521 -0.8120
 2351SOL     OW18514   1.377   2.082   2.199  0.1945  0.2448  0.4789
 2351SOL    HW118515   1.304   2.065   2.259  2.8697 -0.5294  3.5192
 2351SOL    HW218516   1.436   2.010   2.222  0.0147 -0.4538 -1.2479
 2352SOL     OW18517   2.043   2.841   1.890 -0.2658  0.2176  1.0755
 2352SOL    HW118518   1.971   2.798   1.936  2.1896 -3.6225  1.3926
 2352SOL    HW218519   2.094   2.769   1.853 -0.9708  1.6587 -2.6754
 2353SOL     OW18520   3.993   4.062   4.546 -0.3914 -0.7325 -0.0490
 2353SOL    HW118521   3.957   4.025   4.626 -0.4913 -0.0035  0.2490
 2353SOL    HW218522   4.087   4.049   4.558 -0.8724 -2.1718  2.0592
 2354SOL     OW18523   4.407   3.179   2.244  0.2809  0.8411  0.6316
 2354SOL    HW118524   4.466   3.183   2.169  2.3113 -0.9462  2.1666
 2354SOL    HW218525   4.448   3.242   2.302  1.9224  1.4628 -1.2128
 2355SOL     OW18526   2.295   0.740   3.157  0.0474 -0.1796  0.2181
 2355SOL    HW118527   2.247   0.799   3.214  2.7053  0.5509  1.7229
 2355SOL    HW218528   2.339   0.806   3.103 -0.1183 -0.2482 -0.0013
 2356SOL     OW18529   3.424   1.724   9.028  0.1286 -0.8232  0.1556
 2356SOL    HW118530   3.428   1.794   8.964 -0.7882 -0.2058  0.7760
 2356SOL    HW218531   3.329   1.715   9.034  0.0809 -0.9410 -0.7803
 2357SOL     OW18532   4.675   0.657   9.328  0.5188 -0.5651  0.2898
 2357SOL    HW118533   4.605   0.672   9.265  1.2471 -5.0295 -1.5540
 2357SOL    HW218534   4.675   0.562   9.325  0.2261 -0.5604  0.1270
 2358SOL     OW18535   2.355   0.927  16.182  0.3143 -0.4103  0.4105
 2358SOL    HW118536   2.399   0.879  16.111  1.7333  1.4494  0.0169
 2358SOL    HW218537   2.413   1.002  16.170 -0.5050  0.2092  0.2943
 2359SOL     OW18538   1.402   4.015  10.470  0.2188 -1.0275 -0.0621
 2359SOL    HW118539   1.411   4.047  10.559 -2.0490  2.0271 -0.9545
 2359SOL    HW218540   1.358   4.088  10.427  2.4874 -0.2782 -1.1101
 2360SOL     OW18541   0.445   2.769   8.235  0.6274 -0.0572  0.0709
 2360SOL    HW118542   0.485   2.851   8.205  1.7139 -0.2559  0.9575
 2360SOL    HW218543   0.485   2.778   8.322  1.8431 -2.3964 -0.2280
 2361SOL     OW18544   1.234   2.090   3.669  0.0289  0.2471 -0.2674
 2361SOL    HW118545   1.160   2.122   3.720  0.1247 -0.9054  0.5816
 2361SOL    HW218546   1.182   2.026   3.620 -0.6025  0.8261 -0.3562
 2362SOL     OW18547   3.185   4.140   4.542 -0.1498 -0.1939  0.6878
 2362SOL    HW118548   3.278   4.146   4.520 -0.0614  1.3553  1.4919
 2362SOL    HW218549   3.185   4.056   4.588  1.8136  0.6280  2.1571
 2363SOL     OW18550   1.819   0.604   0.202 -0.1116  0.3914 -0.1773
 2363SOL    HW118551   1.829   0.653   0.120  0.8756 -0.6463 -0.6809
 2363SOL    HW218552   1.775   0.674   0.251  0.4294  0.0955  0.7201
 2364SOL     OW18553   4.614   2.694   7.045  0.3606 -0.3591  0.2436
 2364SOL    HW118554   4.670   2.641   6.989  1.0701  0.8536 -0.1929
 2364SOL    HW218555   4.666   2.708   7.124  0.6625 -1.6102  0.2605
 2365SOL     OW18556   3.719   2.293   3.908 -0.4804  0.2998  0.2026
 2365SOL    HW118557   3.787   2.334   3.961  0.7553  1.0299 -1.9484
 2365SOL    HW218558   3.663   2.364   3.877 -0.2192  0.5803  0.3726
 2366SOL     OW18559   3.224   2.648   4.514  0.4649  0.1557  0.4392
 2366SOL    HW118560   3.225   2.601   4.597  3.0928  2.2053  1.5651
 2366SOL    HW218561   3.129   2.657   4.507  0.3216 -1.1514  0.6774
 2367SOL     OW18562   3.674   0.607  16.418  0.1248 -0.2407 -0.1049
 2367SOL    HW118563   3.700   0.696  16.395  0.1831 -0.3501 -0.4593
 2367SOL    HW218564   3.693   0.558  16.338 -0.9230  0.9498 -1.0762
 2368SOL     OW18565   2.013   0.105   7.875  0.1058 -0.3503  0.3386
 2368SOL    HW118566   1.934   0.090   7.823 -0.7632  2.6490  0.8380
 2368SOL    HW218567   1.985   0.073   7.961  1.5330 -0.8550  0.6128
 2369SOL     OW18568   4.288   3.050   1.224 -0.0837 -0.2576  0.0557
 2369SOL    HW118569   4.296   3.145   1.223 -0.0866 -0.2799 -1.6580
 2369SOL    HW218570   4.196   3.038   1.249 -0.6289 -0.7914 -2.2336
 2370SOL     OW18571   0.279   0.905  15.123 -0.2682  0.7424 -0.2905
 2370SOL    HW118572   0.259   0.825  15.074  1.2340 -0.0884  0.4833
 2370SOL    HW218573   0.278   0.875  15.213  1.4364  0.8123 -0.2605
 2371SOL     OW18574   2.833   2.723   7.477 -0.2630 -0.1083 -0.4635
 2371SOL    HW118575   2.877   2.676   7.406 -3.3478 -0.9147 -1.8142
 2371SOL    HW218576   2.745   2.729   7.441 -0.6759 -0.5539  0.4533
 2372SOL     OW18577   2.242   2.749   6.461  0.3813 -0.6876 -0.0703
 2372SOL    HW118578   2.300   2.797   6.521 -2.2660  1.4543  0.7669
 2372SOL    HW218579   2.314   2.706   6.414  0.6029 -0.5896  0.1778
 2373SOL     OW18580   4.449   2.382   4.466 -0.4342 -0.2501 -0.6241
 2373SOL    HW118581   4.533   2.356   4.505 -1.4600 -1.7598  0.5342
 2373SOL    HW218582   4.452   2.477   4.478 -2.2531 -0.0058 -2.1356
 2374SOL     OW18583   0.543   4.421   8.496  0.2723 -0.0508 -0.4338
 2374SOL    HW118584   0.500   4.468   8.424  0.0785  1.9066  0.9662
 2374SOL    HW218585   0.574   4.490   8.554  0.7951 -1.5248  1.0508
 2375SOL     OW18586   4.584   0.226   9.137  0.3580  0.4866 -0.8097
 2375SOL    HW118587   4.585   0.138   9.174 -1.1619  0.3436 -1.1017
 2375SOL    HW218588   4.590   0.206   9.043  2.1448  0.6518 -0.7367
 2376SOL     OW18589   0.610   0.827   8.970 -0.4314 -0.2279 -0.5778
 2376SOL    HW118590   0.591   0.733   8.977  1.6632 -0.4737  1.7744
 2376SOL    HW218591   0.705   0.831   8.983 -0.2747 -0.1788 -1.6775
 2377SOL     OW18592   1.023   2.243   3.185 -0.3762  0.2206 -0.2395
 2377SOL    HW118593   1.031   2.154   3.149 -1.5727 -0.2060  0.5564
 2377SOL    HW218594   1.002   2.235   3.278 -0.3360 -0.9473 -0.3220
 2378SOL     OW18595   0.057   4.408   4.455 -0.1134 -0.7245 -0.3765
 2378SOL    HW118596   0.053   4.372   4.366  1.6167  0.2492 -0.8554
 2378SOL    HW218597   4.697   4.457   4.454  0.3974  0.1465 -0.2117
 2379SOL     OW18598   3.184   4.475   7.957  0.0556  0.2515 -0.0787
 2379SOL    HW118599   3.232   4.539   8.008 -0.7112  0.4778  0.3541
 2379SOL    HW218600   3.240   4.462   7.880 -1.5630 -0.6781 -1.0978
 2380SOL     OW18601   1.730   2.701   9.094 -0.7229 -0.3806  0.2586
 2380SOL    HW118602   1.648   2.653   9.085  0.9335 -2.3929 -3.6470
 2380SOL    HW218603   1.755   2.681   9.185  3.3549 -0.7247 -0.9424
 2381SOL     OW18604   0.434   2.794  16.209  0.7067  0.0749 -0.3261
 2381SOL    HW118605   0.514   2.791  16.158 -0.6182  0.7053 -2.4274
 2381SOL    HW218606   0.374   2.732  16.168  1.5984 -2.3549  2.0306
 2382SOL     OW18607   1.122   3.345  12.181  0.1564 -0.2116 -0.6158
 2382SOL    HW118608   1.109   3.351  12.275 -2.1238  1.6209 -1.0225
 2382SOL    HW218609   1.215   3.325  12.172  0.3566  0.6491 -0.4485
 2383SOL     OW18610   2.060   2.841   5.853  0.1817  0.1956  0.0377
 2383SOL    HW118611   2.103   2.772   5.803  0.5807 -0.0430  0.7048
 2383SOL    HW218612   2.113   2.854   5.932 -1.4047  0.4375  1.0727
 2384SOL     OW18613   4.269   0.444   2.313 -0.3395 -0.0096  0.3106
 2384SOL    HW118614   4.256   0.509   2.243  0.9444 -1.6794 -1.4565
 2384SOL    HW218615   4.314   0.494   2.381  0.7801 -0.1584 -0.3258
 2385SOL     OW18616   1.168   1.780   0.630 -0.0959 -0.1879 -0.7273
 2385SOL    HW118617   1.129   1.767   0.716  2.2255 -0.0868  0.3224
 2385SOL    HW218618   1.191   1.690   0.610  0.8870  0.4462 -2.4489
 2386SOL     OW18619   2.277   0.519   7.438 -0.2644 -0.4265 -0.5148
 2386SOL    HW118620   2.232   0.437   7.458 -3.1657  1.9527  2.6636
 2386SOL    HW218621   2.368   0.489   7.443  0.7066  1.7920 -4.6283
 2387SOL     OW18622   1.994   0.942  17.687  0.0698  0.5623  0.0199
 2387SOL    HW118623   1.911   0.903  17.661 -2.1270  2.8621  3.4541
 2387SOL    HW218624   1.984   1.023  17.637 -1.6094  1.2475  1.4736
 2388SOL     OW18625   3.900   1.529   4.877  0.1423  0.4797 -0.1727
 2388SOL    HW118626   3.859   1.466   4.816 -0.1566  1.9154 -1.4578
 2388SOL    HW218627   3.841   1.599   4.849 -0.9135  0.0346  0.9308
 2389SOL     OW18628   2.958   4.257  10.317 -0.2537 -0.5599 -0.5834
 2389SOL    HW118629   3.004   4.249  10.233  1.9479 -0.4172  0.6096
 2389SOL    HW218630   2.868   4.252  10.287 -0.1358  0.5790 -1.1463
 2390SOL     OW18631   4.401   1.445   6.133 -0.0212  0.0309 -0.3803
 2390SOL    HW118632   4.325   1.448   6.192  2.1223  1.9218  2.3089
 2390SOL    HW218633   4.437   1.534   6.129  0.9022 -0.3444 -0.3673
 2391SOL     OW18634   2.158   1.353   0.132 -0.3169 -0.0634 -0.2291
 2391SOL    HW118635   2.094   1.412   0.093 -2.8398 -3.3402 -1.0657
 2391SOL    HW218636   2.230   1.416   0.136  0.5517 -0.8480 -3.3265
 2392SOL     OW18637   0.160   3.057   7.723  0.4368 -0.2425 -0.1212
 2392SOL    HW118638   0.157   3.150   7.743 -0.1669 -0.1501 -0.6386
 2392SOL    HW218639   0.118   3.031   7.805  0.8489  0.5301  0.3339
 2393SOL     OW18640   1.087   2.649   5.633  0.2661  0.2474  0.1325
 2393SOL    HW118641   1.010   2.606   5.595 -0.5218  0.5569  1.3735
 2393SOL    HW218642   1.056   2.738   5.618 -0.1487 -0.2793 -2.0838
 2394SOL     OW18643   3.072   0.251  13.298 -0.5412 -0.4161  0.5521
 2394SOL    HW118644   2.999   0.313  13.299 -1.3389 -1.3796  1.1454
 2394SOL    HW218645   3.147   0.297  13.337 -1.4508  0.2733  1.4964
 2395SOL     OW18646   0.381   3.839   7.058  0.1041 -0.1405  0.5111
 2395SOL    HW118647   0.469   3.801   7.046  1.1776  2.2842  0.6637
 2395SOL    HW218648   0.378   3.906   6.990  0.7833 -0.0931  0.5210
 2396SOL     OW18649   0.391   2.763  11.657  0.4821 -0.1034 -0.0491
 2396SOL    HW118650   0.321   2.824  11.635 -0.0242 -0.1551  1.4249
 2396SOL    HW218651   0.463   2.815  11.694  2.3807 -3.1475  0.5387
 2397SOL     OW18652   1.678   3.876   4.908  0.0901 -0.0202 -0.7817
 2397SOL    HW118653   1.640   3.798   4.948  0.6735  0.4639  0.7250
 2397SOL    HW218654   1.594   3.922   4.904  0.8351  1.3134 -1.3074
 2398SOL     OW18655   0.566   0.286   4.537  0.1819 -0.0510  0.1020
 2398SOL    HW118656   0.521   0.327   4.464  0.2362  1.2491  0.7908
 2398SOL    HW218657   0.590   0.364   4.588  0.8085 -1.3977  1.8700
 2399SOL     OW18658   4.423   4.301  13.344  0.1356  0.8169  0.5006
 2399SOL    HW118659   4.376   4.376  13.381 -2.8042 -0.1816 -1.2702
 2399SOL    HW218660   4.439   4.330  13.254 -1.3672  1.9773  0.6133
 2400SOL     OW18661   0.656   3.121   4.809 -0.0887  0.4791 -0.4565
 2400SOL    HW118662   0.634   3.028   4.803  0.4777  0.3027  0.2127
 2400SOL    HW218663   0.745   3.133   4.775 -1.0690  1.0665 -2.7943
 2401SOL     OW18664   1.261   0.323   9.227 -0.0341 -0.0825  0.1508
 2401SOL    HW118665   1.184   0.368   9.263  0.7469  2.2270 -1.0461
 2401SOL    HW218666   1.263   0.253   9.292 -1.8954  1.6192  2.0504
 2402SOL     OW18667   1.558   2.285  12.633 -0.0924 -0.5673 -0.2387
 2402SOL    HW118668   1.650   2.295  12.656 -0.1308  0.7775 -0.6750
 2402SOL    HW218669   1.534   2.367  12.589  1.4682  0.1161  0.1956
 2403SOL     OW18670   3.220   1.240   8.934  0.4006  0.1132 -0.0036
 2403SOL    HW118671   3.140   1.293   8.923  0.6041  0.8775  2.1346
 2403SOL    HW218672   3.269   1.276   8.861  0.5401  0.8609  0.4614
 2404SOL     OW18673   1.599   0.483   7.390  0.1263 -0.0377 -0.4060
 2404SOL    HW118674   1.506   0.459   7.383 -0.0971  0.7416 -0.1082
 2404SOL    HW218675   1.633   0.433   7.315  0.5581  1.8088 -1.4404
 2405SOL     OW18676   1.760   3.911   5.871 -0.1572  0.2882 -0.0503
 2405SOL    HW118677   1.854   3.895   5.863 -0.6051 -1.8444 -1.2198
 2405SOL    HW218678   1.749   3.998   5.831 -0.9020  0.0489 -0.3733
 2406SOL     OW18679   2.629   4.261   5.734  0.0153  0.4887 -0.5406
 2406SOL    HW118680   2.579   4.329   5.778  1.0654 -0.7294  2.5369
 2406SOL    HW218681   2.560   4.207   5.697  0.9892 -0.3464 -1.1564
 2407SOL     OW18682   4.134   2.413  12.984  0.0667 -0.9654  0.1070
 2407SOL    HW118683   4.170   2.326  12.998 -0.1262 -1.1142 -0.3238
 2407SOL    HW218684   4.103   2.412  12.893  1.4656  3.2029 -0.3889
 2408SOL     OW18685   0.676   4.184   3.806  0.0579 -0.2591 -0.2353
 2408SOL    HW118686   0.672   4.158   3.898 -1.2892  3.5083  0.7815
 2408SOL    HW218687   0.769   4.180   3.786  0.3243 -2.9558  1.5773
 2409SOL     OW18688   2.922   4.315  12.336 -0.3767  0.7341 -0.2653
 2409SOL    HW118689   2.867   4.273  12.270 -2.8401  0.6709  1.8338
 2409SOL    HW218690   3.005   4.270  12.317 -0.4102  1.0154 -1.0760
 2410SOL     OW18691   3.647   3.080   6.873  0.0681  0.2009  0.8612
 2410SOL    HW118692   3.565   3.072   6.921 -1.8895  0.9913 -2.3097
 2410SOL    HW218693   3.622   3.131   6.795  1.5559 -1.4473 -0.7134
 2411SOL     OW18694   4.622   3.469   7.232  0.4008  0.1603  0.4509
 2411SOL    HW118695   4.708   3.451   7.270  0.1672 -1.3505  0.2406
 2411SOL    HW218696   4.582   3.525   7.300 -0.6053  1.3490 -1.1182
 2412SOL     OW18697   0.998   4.448   4.610  0.1357 -0.1622 -0.1630
 2412SOL    HW118698   0.949   4.529   4.626  1.0379  0.2720  0.4180
 2412SOL    HW218699   0.930   4.401   4.561 -0.0298  0.4307 -0.4955
 2413SOL     OW18700   2.278   0.339  16.628 -0.2570 -0.4707  0.1755
 2413SOL    HW118701   2.328   0.411  16.591 -3.0938  1.8768  0.9449
 2413SOL    HW218702   2.227   0.388  16.692  0.4959 -1.2664  1.3782
 2414SOL     OW18703   1.213   3.592  14.718 -0.0304 -0.0926 -0.1763
 2414SOL    HW118704   1.256   3.660  14.771  1.1332 -2.4245  1.8523
 2414SOL    HW218705   1.281   3.525  14.717 -1.4027 -1.4599 -1.5840
 2415SOL     OW18706   0.640   2.565  11.431 -0.2758 -0.0550 -0.1699
 2415SOL    HW118707   0.700   2.540  11.361 -0.4977 -0.6673 -0.1417
 2415SOL    HW218708   0.615   2.483  11.473 -0.2986 -0.7766 -1.5732
 2416SOL     OW18709   3.119   0.634   6.515 -0.6245 -0.0162  0.3030
 2416SOL    HW118710   3.194   0.666   6.465  0.2821  0.3781  1.9490
 2416SOL    HW218711   3.158   0.590   6.590 -0.4398 -0.2233  0.0874
 2417SOL     OW18712   3.015   2.544  13.702 -0.1624 -0.2720  0.2701
 2417SOL    HW118713   2.963   2.618  13.670 -2.5762 -1.4929  1.3965
 2417SOL    HW218714   3.031   2.570  13.793 -0.3767 -0.3337  0.3233
 2418SOL     OW18715   3.236   3.109  13.104  0.0284  0.3482  0.1983
 2418SOL    HW118716   3.277   3.146  13.026 -0.8649  1.2553  0.1566
 2418SOL    HW218717   3.145   3.139  13.100 -0.2902 -0.5797  0.5050
 2419SOL     OW18718   2.621   1.932  11.921 -0.7443 -0.0224  0.2378
 2419SOL    HW118719   2.642   1.859  11.979 -2.1393 -0.2730  0.4294
 2419SOL    HW218720   2.552   1.893  11.867 -0.2158  2.0636 -1.9508
 2420SOL     OW18721   0.695   4.177  10.587  0.3708 -0.0380 -0.1476
 2420SOL    HW118722   0.620   4.148  10.535  0.2456  1.7849 -0.9947
 2420SOL    HW218723   0.701   4.269  10.563 -1.1202 -0.4366 -2.0394
 2421SOL     OW18724   2.026   0.834   3.749 -0.2918  0.0401  0.1074
 2421SOL    HW118725   2.065   0.746   3.746 -0.9412 -0.1391 -2.5010
 2421SOL    HW218726   2.080   0.873   3.818 -1.4360 -0.1468  1.1022
 2422SOL     OW18727   1.341   2.837   9.918 -0.1000 -0.1564 -0.0611
 2422SOL    HW118728   1.403   2.850   9.990  1.6044  1.0651 -1.7379
 2422SOL    HW218729   1.282   2.911   9.933 -3.7219 -2.6730 -2.1244
 2423SOL     OW18730   4.338   3.609   6.962  0.6916  0.0728 -0.0729
 2423SOL    HW118731   4.326   3.544   7.032  3.1835 -0.5006 -0.1905
 2423SOL    HW218732   4.432   3.615   6.946  0.8364 -0.9914  0.3194
 2424SOL     OW18733   3.047   1.972  16.300  0.7706 -0.1690 -0.4509
 2424SOL    HW118734   3.098   2.050  16.320  0.3675 -0.8826  3.4573
 2424SOL    HW218735   2.975   2.019  16.258  2.6984  2.0556 -1.2793
 2425SOL     OW18736   1.099   3.982   4.289 -0.1875  0.3160 -0.5699
 2425SOL    HW118737   1.192   4.003   4.283 -0.5326  1.9019 -0.3810
 2425SOL    HW218738   1.055   4.058   4.250 -2.7273 -1.6161 -1.5157
 2426SOL     OW18739   3.048   2.877   7.378 -0.1719  0.3787  0.3941
 2426SOL    HW118740   3.039   2.971   7.395  0.6395  1.0064 -2.4994
 2426SOL    HW218741   2.991   2.841   7.445 -0.7062  1.5018  0.5517
 2427SOL     OW18742   2.695   4.356   1.100  0.1534 -0.0862 -0.6006
 2427SOL    HW118743   2.611   4.311   1.103  0.6164 -0.9525 -0.5561
 2427SOL    HW218744   2.667   4.424   1.162  0.9618 -0.4643  0.1747
 2428SOL     OW18745   0.212   3.554   7.563 -0.5998 -0.3697 -0.1505
 2428SOL    HW118746   0.269   3.568   7.639  0.0410  0.7480 -0.8250
 2428SOL    HW218747   0.163   3.637   7.560 -0.5479 -0.3587 -0.7845
 2429SOL     OW18748   3.538   1.042   8.292 -0.4194  0.0023 -0.1497
 2429SOL    HW118749   3.623   0.999   8.286 -1.5405 -2.5552  2.0718
 2429SOL    HW218750   3.571   1.131   8.285  0.3233 -0.4847 -3.0402
 2430SOL     OW18751   3.132   3.994   2.763 -0.2181  0.4694  0.1181
 2430SOL    HW118752   3.065   4.059   2.741 -0.9869 -0.0033  1.0960
 2430SOL    HW218753   3.147   3.954   2.677  1.0083  0.4373  0.3407
 2431SOL     OW18754   3.480   4.496   9.992  0.1333 -0.2751  0.0452
 2431SOL    HW118755   3.459   4.554  10.065 -0.3208 -0.2141 -0.1364
 2431SOL    HW218756   3.466   4.412  10.035  0.9179 -1.0840 -1.2644
 2432SOL     OW18757   0.904   1.226   4.256 -0.2169 -0.7577  0.1045
 2432SOL    HW118758   0.868   1.179   4.331  2.0135 -0.2030  1.5256
 2432SOL    HW218759   0.977   1.169   4.233 -0.3467 -0.9338  0.1282
 2433SOL     OW18760   1.636   2.693   0.443  0.6404  0.0956  0.7060
 2433SOL    HW118761   1.579   2.754   0.491 -2.0171 -1.7029 -0.1789
 2433SOL    HW218762   1.586   2.612   0.453 -0.0364  0.5306  0.8665
 2434SOL     OW18763   2.875   4.576   7.654  0.3415  0.0807 -0.5249
 2434SOL    HW118764   2.885   4.669   7.674 -1.8816  0.4030 -0.9236
 2434SOL    HW218765   2.863   4.543   7.743 -1.1604 -1.2059 -1.2041
 2435SOL     OW18766   3.058   1.383   5.439  0.4554  0.5316  0.2353
 2435SOL    HW118767   2.964   1.396   5.430  0.6222  1.7556  0.2877
 2435SOL    HW218768   3.062   1.308   5.499 -0.3215 -0.4455 -0.9542
 2436SOL     OW18769   2.946   1.396  15.341 -0.2028  0.5185  0.6580
 2436SOL    HW118770   3.014   1.444  15.390 -1.5756  1.1650  1.9147
 2436SOL    HW218771   2.929   1.444  15.260  2.1213 -1.2143 -0.8612
 2437SOL     OW18772   0.888   4.186   3.605 -0.0825 -0.1221  0.3928
 2437SOL    HW118773   0.981   4.191   3.583  0.0815  2.5980  1.6923
 2437SOL    HW218774   0.870   4.280   3.606 -0.6717 -0.2480  1.6194
 2438SOL     OW18775   2.013   4.351   6.216 -0.0828  0.4218  0.0306
 2438SOL    HW118776   2.078   4.292   6.253  0.0682  1.7996  1.9438
 2438SOL    HW218777   1.984   4.391   6.298 -0.0430  1.9216 -0.6820
 2439SOL     OW18778   1.858   4.583  13.256  0.4853 -0.1909  0.1692
 2439SOL    HW118779   1.851   4.645  13.329  2.6003 -1.7076  1.6635
 2439SOL    HW218780   1.928   4.523  13.281  1.4517  0.9137  0.1371
 2440SOL     OW18781   2.780   1.267  11.819 -0.3638 -0.2166  0.1068
 2440SOL    HW118782   2.770   1.290  11.727  2.7230  1.6132  0.2247
 2440SOL    HW218783   2.775   1.172  11.806 -1.3336 -0.5211  2.6308
 2441SOL     OW18784   4.081   3.363   1.934 -0.4335 -0.3507  0.1663
 2441SOL    HW118785   4.071   3.352   1.839 -0.7890 -2.8459  0.4853
 2441SOL    HW218786   4.081   3.458   1.939 -2.3669 -0.4418  1.4754
 2442SOL     OW18787   2.727   2.189  16.885  0.0634  0.2441  0.3496
 2442SOL    HW118788   2.688   2.109  16.850 -0.3576  0.4246  0.4087
 2442SOL    HW218789   2.805   2.145  16.919 -0.5582  1.0173  2.8045
 2443SOL     OW18790   2.303   2.988   5.926 -0.1275 -0.1621  0.5042
 2443SOL    HW118791   2.240   3.017   5.992  0.6588  1.8482  0.4015
 2443SOL    HW218792   2.384   2.992   5.978  0.1564  0.5515  0.0003
 2444SOL     OW18793   0.356   2.554   8.115  0.0003 -0.9743 -0.0849
 2444SOL    HW118794   0.385   2.636   8.153 -0.2142 -2.5178  3.3839
 2444SOL    HW218795   0.430   2.517   8.065  1.5236  1.8626  0.0477
 2445SOL     OW18796   0.774   0.891   1.792 -0.5773  0.4515 -0.0403
 2445SOL    HW118797   0.747   0.949   1.721 -1.8021 -1.6405 -1.2678
 2445SOL    HW218798   0.695   0.899   1.845  0.7981 -0.9043  2.2174
 2446SOL     OW18799   1.442   2.388   4.242  0.5681 -0.2861  0.0727
 2446SOL    HW118800   1.506   2.443   4.287 -0.6203  1.4873 -0.4185
 2446SOL    HW218801   1.358   2.430   4.259 -0.3809 -0.1429 -5.0301
 2447SOL     OW18802   4.477   0.467   1.989  0.1157 -0.0706  0.0125
 2447SOL    HW118803   4.420   0.513   2.050  1.5579  2.1407 -0.2968
 2447SOL    HW218804   4.448   0.507   1.907 -0.2585  0.1390  0.2496
 2448SOL     OW18805   0.243   3.610   6.700  0.1324 -0.0862  1.0102
 2448SOL    HW118806   0.247   3.516   6.715 -0.8094 -0.8506 -3.5133
 2448SOL    HW218807   0.148   3.621   6.687  0.3742 -0.3923 -1.0342
 2449SOL     OW18808   3.012   0.953  10.810  0.9270  0.0036  0.4006
 2449SOL    HW118809   3.026   1.034  10.859  2.4759 -0.9135  1.4745
 2449SOL    HW218810   3.078   0.892  10.844 -0.6335 -1.9918 -0.1334
 2450SOL     OW18811   1.534   3.794   6.487 -0.0462 -0.2658 -0.1848
 2450SOL    HW118812   1.460   3.850   6.466  1.1829  1.1730 -0.7460
 2450SOL    HW218813   1.556   3.753   6.403  0.5576 -2.3560  0.9976
 2451SOL     OW18814   1.067   0.667   6.373 -0.3517 -0.1437 -0.0745
 2451SOL    HW118815   1.140   0.716   6.409  0.3735 -1.3174  0.0755
 2451SOL    HW218816   1.044   0.712   6.292  2.8244  0.9338 -0.3443
 2452SOL     OW18817   1.292   2.039   0.539  0.0143  0.3200  0.5608
 2452SOL    HW118818   1.235   2.087   0.597 -0.2837 -0.1709  0.6780
 2452SOL    HW218819   1.257   1.953   0.562 -0.1372  0.7347  1.8755
 2453SOL     OW18820   0.589   0.156  17.160 -0.0601  0.4127  0.6016
 2453SOL    HW118821   0.677   0.122  17.180  0.4913  0.3190 -1.9633
 2453SOL    HW218822   0.539   0.075  17.157  0.1267  0.3698 -1.3881
 2454SOL     OW18823   1.046   0.199   8.068 -0.0156 -0.2210  0.2018
 2454SOL    HW118824   1.074   0.228   8.155 -1.9505 -0.4382  0.9061
 2454SOL    HW218825   0.992   0.276   8.050 -1.2880 -1.2498 -0.3424
 2455SOL     OW18826   3.426   1.858   5.609 -0.0841 -0.7638 -0.2114
 2455SOL    HW118827   3.520   1.845   5.627 -0.0434 -0.5205 -0.2466
 2455SOL    HW218828   3.437   1.919   5.536  3.5237 -0.8339  0.2582
 2456SOL     OW18829   3.433   3.814   7.401 -0.1367  0.3451 -0.4091
 2456SOL    HW118830   3.515   3.817   7.352 -0.6816  1.3163 -1.2397
 2456SOL    HW218831   3.360   3.816   7.339 -0.6537 -0.4753  0.1687
 2457SOL     OW18832   4.194   1.255  11.173  0.1562 -0.1027  1.1708
 2457SOL    HW118833   4.101   1.276  11.176  0.8386  3.0453 -0.2452
 2457SOL    HW218834   4.204   1.259  11.078  0.4651  1.2678  1.2593
 2458SOL     OW18835   3.632   3.028   3.109  0.0377  0.7336  0.2914
 2458SOL    HW118836   3.682   3.003   3.032  0.1933  2.2572 -0.1005
 2458SOL    HW218837   3.561   3.077   3.067 -0.2529  0.4874  0.5001
 2459SOL     OW18838   1.327   0.616  13.771  1.1496 -0.2975  0.0709
 2459SOL    HW118839   1.271   0.589  13.699  1.0400 -0.6982  0.3034
 2459SOL    HW218840   1.282   0.689  13.815 -1.9912 -1.5661 -1.0183
 2460SOL     OW18841   1.440   1.964   1.267  0.3333  0.5921  0.2098
 2460SOL    HW118842   1.416   1.875   1.242  3.8298 -0.2337 -0.2937
 2460SOL    HW218843   1.527   1.946   1.304  0.5244  1.0289 -0.0194
 2461SOL     OW18844   0.711   4.612   7.357 -0.2490  0.3440 -0.2061
 2461SOL    HW118845   0.720   4.680   7.425 -1.0999  0.5203 -0.2635
 2461SOL    HW218846   0.622   4.581   7.376 -0.1811 -1.1966 -2.5239
 2462SOL     OW18847   1.621   1.991   1.879  0.7445  0.0433 -0.2146
 2462SOL    HW118848   1.617   2.064   1.817  0.5688  0.5281  0.3636
 2462SOL    HW218849   1.527   1.972   1.882  0.5035  1.3292  0.3321
 2463SOL     OW18850   4.124   1.204   6.192 -0.1698 -0.0563  0.6253
 2463SOL    HW118851   4.161   1.291   6.208 -1.4980  0.7168 -0.5687
 2463SOL    HW218852   4.185   1.146   6.238  1.1764  0.3896 -0.6116
 2464SOL     OW18853   2.960   2.451   5.960  0.1669 -0.2928  0.4685
 2464SOL    HW118854   3.042   2.404   5.979  0.7276  0.5744  0.2211
 2464SOL    HW218855   2.962   2.439   5.865  3.0920 -1.5927  0.6690
 2465SOL     OW18856   1.750   4.168   1.254  0.3760  0.4794 -0.0312
 2465SOL    HW118857   1.816   4.157   1.322  0.4922 -1.5950 -0.4716
 2465SOL    HW218858   1.728   4.260   1.267  0.6717  0.4838  0.4478
 2466SOL     OW18859   1.681   4.698   4.377 -0.0495  0.1986  0.1003
 2466SOL    HW118860   1.732   4.618   4.375  2.0075  1.4720  2.1421
 2466SOL    HW218861   1.613   4.679   4.442 -1.0154 -0.7633 -1.2051
 2467SOL     OW18862   4.496   1.597  14.255  0.5633  0.2524 -0.5421
 2467SOL    HW118863   4.524   1.621  14.167  0.8533  0.4175 -0.4050
 2467SOL    HW218864   4.462   1.681  14.284  2.0916  1.4241 -2.1479
 2468SOL     OW18865   3.266   2.446   1.098  0.3813 -0.0372  0.0090
 2468SOL    HW118866   3.310   2.378   1.149  0.8369  0.4149  0.2147
 2468SOL    HW218867   3.199   2.400   1.048  1.2796 -0.7409 -0.5408
 2469SOL     OW18868   3.245   0.629  17.231  0.0445 -0.2736  0.1004
 2469SOL    HW118869   3.210   0.714  17.202 -0.2924 -1.6097 -3.3668
 2469SOL    HW218870   3.339   0.647  17.240  0.4274 -0.3224 -3.7561
 2470SOL     OW18871   2.563   1.011  10.101 -0.8372  0.1920 -0.0601
 2470SOL    HW118872   2.636   0.949  10.106 -0.7871  0.3092  0.7648
 2470SOL    HW218873   2.627   1.076  10.130 -2.7545  1.6544  0.8542
 2471SOL     OW18874   1.546   1.900   2.950  0.1023 -0.8235  0.2195
 2471SOL    HW118875   1.562   1.807   2.969  0.6403 -1.1540 -1.8723
 2471SOL    HW218876   1.634   1.938   2.952 -0.0363 -0.4035 -2.1090
 2472SOL     OW18877   3.029   2.411   7.968  0.3097  0.3562  0.3237
 2472SOL    HW118878   3.008   2.344   8.033  1.2939 -0.1277  0.1494
 2472SOL    HW218879   2.943   2.421   7.926  0.7175 -1.5384 -0.9457
 2473SOL     OW18880   2.273   2.345   5.854  0.0499 -0.4108  0.5615
 2473SOL    HW118881   2.299   2.310   5.769  1.9127  3.2645 -0.3972
 2473SOL    HW218882   2.355   2.323   5.899  0.2891 -1.9400 -0.6662
 2474SOL     OW18883   4.209   0.334   2.761 -0.3941 -0.2907 -0.6377
 2474SOL    HW118884   4.185   0.416   2.717 -0.0815  0.3206  0.3331
 2474SOL    HW218885   4.232   0.371   2.846  2.1127 -2.1241 -0.5506
 2475SOL     OW18886   3.178   1.374   3.034 -0.2945 -0.4243  0.4470
 2475SOL    HW118887   3.088   1.378   3.003 -0.1635 -0.7002  0.0241
 2475SOL    HW218888   3.185   1.443   3.099  2.9075  0.7006 -1.1197
 2476SOL     OW18889   4.666   2.427   8.821  0.0068 -0.0003 -0.2525
 2476SOL    HW118890   4.575   2.410   8.845  0.0211 -0.6626 -0.6912
 2476SOL    HW218891   4.685   2.476   8.901  2.4191  0.5093 -1.1314
 2477SOL     OW18892   3.625   0.861  11.307  0.3094  0.0557 -0.0191
 2477SOL    HW118893   3.622   0.848  11.402  2.8904  1.9323  0.3029
 2477SOL    HW218894   3.682   0.937  11.298 -0.4752  0.4306 -1.6963
 2478SOL     OW18895   2.217   1.007   3.551  0.9058  0.2170 -0.0640
 2478SOL    HW118896   2.272   0.929   3.557  2.0077  0.9774 -0.1841
 2478SOL    HW218897   2.249   1.050   3.631  0.0829  2.4858 -0.9630
 2479SOL     OW18898   0.791   1.540   3.430 -0.0152 -0.4817 -0.4691
 2479SOL    HW118899   0.823   1.481   3.362 -0.3135 -2.6239  1.2857
 2479SOL    HW218900   0.795   1.483   3.506 -0.5603  0.1666  0.0396
 2480SOL     OW18901   4.150   4.410  14.771  0.6870  0.1914 -0.1712
 2480SOL    HW118902   4.076   4.471  14.774 -0.3382 -1.0556 -0.4478
 2480SOL    HW218903   4.220   4.456  14.818  0.3896  0.4156  0.0473
 2481SOL     OW18904   2.620   3.626   0.377  0.1273  0.0390 -0.2979
 2481SOL    HW118905   2.638   3.600   0.287 -0.4947  0.6474 -0.6020
 2481SOL    HW218906   2.532   3.593   0.395  1.4105 -1.4666  3.2112
 2482SOL     OW18907   3.359   1.897   2.557 -0.4880 -0.2308 -0.5213
 2482SOL    HW118908   3.419   1.824   2.574 -0.2898  0.2815  0.9522
 2482SOL    HW218909   3.327   1.874   2.469 -1.2785  1.5737 -0.6945
 2483SOL     OW18910   4.635   1.223   2.216 -0.1402  0.8110 -0.3686
 2483SOL    HW118911   4.590   1.190   2.138 -1.2242  2.5262 -0.4767
 2483SOL    HW218912   4.573   1.205   2.288  1.6137 -2.0460  0.4272
 2484SOL     OW18913   1.056   0.418   8.557  0.5799  0.4054  0.0478
 2484SOL    HW118914   1.100   0.399   8.474 -1.3879  3.0757 -1.6067
 2484SOL    HW218915   1.134   0.413   8.612 -0.0370 -0.7928  0.8287
 2485SOL     OW18916   2.615   3.425   6.472  0.5619 -0.7249  0.2633
 2485SOL    HW118917   2.582   3.504   6.515  1.6740  0.7969 -1.6375
 2485SOL    HW218918   2.604   3.357   6.538  1.8616  0.4885  1.7216
 2486SOL     OW18919   4.124   2.846   5.544  0.1988 -0.4780  0.3721
 2486SOL    HW118920   4.052   2.908   5.533 -0.2467 -1.1900 -0.6933
 2486SOL    HW218921   4.194   2.899   5.582  0.8896 -1.0774 -0.0693
 2487SOL     OW18922   0.320   0.775   3.413  0.8758 -0.1876  0.4187
 2487SOL    HW118923   0.285   0.685   3.415  0.5262 -0.0443  1.0401
 2487SOL    HW218924   0.315   0.802   3.322  1.2993 -0.6172  0.2663
 2488SOL     OW18925   2.527   0.894   8.584 -0.0288  0.5915 -0.4487
 2488SOL    HW118926   2.573   0.837   8.522  1.4931  1.3300 -0.0118
 2488SOL    HW218927   2.493   0.965   8.529 -0.1015  1.5043  0.7695
 2489SOL     OW18928   3.858   2.647   8.837  0.0059 -0.4527  0.1631
 2489SOL    HW118929   3.766   2.664   8.857 -0.5024 -0.6176 -2.0239
 2489SOL    HW218930   3.883   2.633   8.928 -0.7312 -1.8979  0.1400
 2490SOL     OW18931   3.590   3.116  13.909 -0.5272 -0.1622  0.0131
 2490SOL    HW118932   3.594   3.114  14.004  0.8996  2.1063  0.0023
 2490SOL    HW218933   3.500   3.141  13.891 -0.9065 -2.2400 -1.0233
 2491SOL     OW18934   3.320   1.909   0.949 -0.2997  0.0599  0.3964
 2491SOL    HW118935   3.406   1.951   0.947  0.6536 -1.8602  0.7224
 2491SOL    HW218936   3.347   1.817   0.945  0.6577  0.3835 -0.5950
 2492SOL     OW18937   1.405   2.671   2.234 -0.0535 -0.7438 -0.2951
 2492SOL    HW118938   1.500   2.680   2.241 -0.2680  0.7718  0.5698
 2492SOL    HW218939   1.372   2.664   2.324  1.5022  0.6664  0.3890
 2493SOL     OW18940   0.947   1.469  13.291 -0.4405 -0.0163 -0.0812
 2493SOL    HW118941   0.856   1.447  13.270  0.1501  0.3169 -3.0740
 2493SOL    HW218942   0.998   1.466  13.209 -0.0822  0.5273  0.1263
 2494SOL     OW18943   3.421   2.775  15.865 -0.4841  0.0427  0.0691
 2494SOL    HW118944   3.400   2.853  15.813 -0.0912  0.3054  0.2983
 2494SOL    HW218945   3.496   2.741  15.816  0.5044  1.5932  0.4901
 2495SOL     OW18946   3.979   3.890   2.934 -0.0786 -0.4360 -0.0672
 2495SOL    HW118947   3.958   3.971   2.887 -2.5163 -1.1836 -0.2625
 2495SOL    HW218948   4.043   3.858   2.870 -1.2622 -0.5356 -1.1851
 2496SOL     OW18949   0.705   1.867  11.133 -0.7922 -0.0280 -0.3632
 2496SOL    HW118950   0.617   1.895  11.109 -0.4355  0.1742 -1.4390
 2496SOL    HW218951   0.750   1.951  11.143 -1.7464  0.4340  0.0026
 2497SOL     OW18952   1.509   2.424  13.137  0.2807  0.1829 -0.6626
 2497SOL    HW118953   1.472   2.429  13.224  0.4524  0.1292 -0.5857
 2497SOL    HW218954   1.435   2.455  13.085  0.1008  1.7246  0.5020
 2498SOL     OW18955   4.285   3.428  11.782  0.0635  0.4311 -0.4287
 2498SOL    HW118956   4.273   3.370  11.707  1.3314 -1.9310  1.1812
 2498SOL    HW218957   4.279   3.517  11.748 -1.4622  1.4430  2.4440
 2499SOL     OW18958   1.591   2.055  10.320 -0.0757  0.0450  0.1172
 2499SOL    HW118959   1.597   2.109  10.399 -0.9669  2.4565 -1.4501
 2499SOL    HW218960   1.593   1.969  10.362  0.7366  0.5632  1.1349
 2500SOL     OW18961   1.340   3.439   7.752 -0.5794 -0.6292  0.0908
 2500SOL    HW118962   1.435   3.433   7.762 -1.0022 -2.4889  2.9140
 2500SOL    HW218963   1.307   3.407   7.836  0.4222 -1.3564  0.2061
 2501SOL     OW18964   2.192   4.469  12.044 -0.1690 -0.1450  0.0574
 2501SOL    HW118965   2.194   4.565  12.035  1.3757 -0.2985 -1.2665
 2501SOL    HW218966   2.111   4.444  12.000 -0.3103  0.2835  0.0674
 2502SOL     OW18967   1.714   4.182   7.966 -0.2172 -0.6214 -0.6665
 2502SOL    HW118968   1.788   4.235   7.934  0.8537 -0.2043  2.4562
 2502SOL    HW218969   1.758   4.149   8.044 -3.9273 -0.5255  1.4426
 2503SOL     OW18970   1.634   2.166   7.463 -0.0416  0.2559 -0.5680
 2503SOL    HW118971   1.609   2.118   7.542  1.9105 -1.1646 -0.8028
 2503SOL    HW218972   1.629   2.252   7.504 -0.0476  0.4728 -1.0183
 2504SOL     OW18973   3.727   2.262   8.592 -0.4630  0.1481 -0.2025
 2504SOL    HW118974   3.720   2.357   8.581  1.5399  0.3597  0.3414
 2504SOL    HW218975   3.809   2.255   8.642 -1.3058 -2.0851  0.8818
 2505SOL     OW18976   1.342   2.762   9.212 -0.4656 -0.3113 -0.3289
 2505SOL    HW118977   1.332   2.712   9.293  0.1235 -2.3277 -1.4750
 2505SOL    HW218978   1.398   2.834   9.239 -2.7125  1.3208 -0.0514
 2506SOL     OW18979   1.132   0.207   8.334  0.1560 -0.1762  0.4121
 2506SOL    HW118980   1.104   0.115   8.337  1.4260 -0.5826  0.1211
 2506SOL    HW218981   1.227   0.195   8.337  0.2839  0.9661  0.7414
 2507SOL     OW18982   2.754   3.134   3.068  0.3208  0.4358  0.4800
 2507SOL    HW118983   2.694   3.114   2.996  2.4096 -0.2156 -1.0929
 2507SOL    HW218984   2.836   3.159   3.025 -0.2000  0.4500 -0.5069
 2508SOL     OW18985   3.894   0.690   5.617 -0.1519  0.5131  0.0695
 2508SOL    HW118986   3.897   0.679   5.522 -0.7937  2.1323 -0.1476
 2508SOL    HW218987   3.910   0.785   5.616 -2.9412  0.9873  0.8001
 2509SOL     OW18988   2.334   4.512   4.874  0.7211 -0.0501  0.4712
 2509SOL    HW118989   2.412   4.564   4.860  0.8330 -0.2974  0.1760
 2509SOL    HW218990   2.364   4.421   4.884 -1.8496 -0.8615  0.9808
 2510SOL     OW18991   2.028   2.910   2.221  0.0196  0.1296 -0.0058
 2510SOL    HW118992   2.097   2.956   2.173 -0.1704 -0.8048 -1.1536
 2510SOL    HW218993   1.980   2.979   2.268 -1.4865  0.2124 -1.6899
 2511SOL     OW18994   2.080   1.419   1.134 -0.5442  0.2397 -0.0231
 2511SOL    HW118995   2.117   1.458   1.055  0.6015  0.0766  0.4323
 2511SOL    HW218996   2.144   1.350   1.154 -0.9464  0.0607  0.6623
 2512SOL     OW18997   3.002   2.504   0.566 -0.2682  0.0508  0.0763
 2512SOL    HW118998   3.035   2.510   0.655  2.0423 -1.8489 -0.6479
 2512SOL    HW218999   2.997   2.411   0.542  0.2670  0.2682 -0.8956
 2513SOL     OW19000   1.581   3.204   5.824  0.0332  0.0973  0.5687
 2513SOL    HW119001   1.637   3.173   5.752 -2.6768  0.1300 -1.5564
 2513SOL    HW219002   1.640   3.197   5.899 -0.5880 -1.0155  0.9525
 2514SOL     OW19003   0.555   1.926   7.757 -0.5869 -0.2909  0.0846
 2514SOL    HW119004   0.558   1.965   7.845 -1.1243  0.4091 -0.2046
 2514SOL    HW219005   0.491   1.861   7.784 -0.4518 -0.4888 -0.0766
 2515SOL     OW19006   3.122   3.871   2.295  0.0794 -0.3097 -0.1345
 2515SOL    HW119007   3.040   3.920   2.303 -1.2023 -2.0729 -2.3019
 2515SOL    HW219008   3.148   3.879   2.386  1.3069 -1.6756 -0.3708
 2516SOL     OW19009   3.021   4.398  13.350 -0.3278 -0.2554 -0.4612
 2516SOL    HW119010   3.048   4.488  13.370  0.0507 -1.0841  2.6743
 2516SOL    HW219011   3.099   4.356  13.313  1.4159  1.2848  1.4337
 2517SOL     OW19012   0.627   1.835  14.635 -0.0698  0.0571  0.2643
 2517SOL    HW119013   0.687   1.772  14.595  0.8214  0.2069  1.3847
 2517SOL    HW219014   0.613   1.891  14.559 -1.0789  0.3835  0.6945
 2518SOL     OW19015   1.865   2.683   2.020 -0.9278 -0.0324 -0.3455
 2518SOL    HW119016   1.861   2.595   1.982 -1.4472  0.8158 -2.2280
 2518SOL    HW219017   1.816   2.673   2.102  2.3288 -0.4134  1.5777
 2519SOL     OW19018   2.185   4.529   7.664 -0.5005  0.6230  0.3028
 2519SOL    HW119019   2.259   4.587   7.646 -0.2862 -0.2824 -1.6563
 2519SOL    HW219020   2.156   4.499   7.578  0.4756 -0.1239  0.2379
 2520SOL     OW19021   0.201   1.559   7.075 -0.4600  0.0328 -0.2882
 2520SOL    HW119022   0.237   1.479   7.112 -1.3534 -0.7363 -1.0902
 2520SOL    HW219023   0.166   1.596   7.157 -1.5424  0.7566 -1.0832
 2521SOL     OW19024   0.871   1.020   6.624 -0.2959 -0.5607 -0.0342
 2521SOL    HW119025   0.778   1.031   6.647  0.6988  2.5801  2.5848
 2521SOL    HW219026   0.874   1.012   6.529 -1.7030  0.8129 -0.1943
 2522SOL     OW19027   1.907   1.053   7.022 -0.3395  0.3779 -0.4577
 2522SOL    HW119028   1.905   0.981   7.085 -1.8499  1.7590  1.0833
 2522SOL    HW219029   1.832   1.045   6.963  1.2786  0.5455 -2.5121
 2523SOL     OW19030   1.382   3.525   4.137  0.0984 -0.6350 -0.4673
 2523SOL    HW119031   1.302   3.486   4.104  1.8302 -2.3708 -2.5797
 2523SOL    HW219032   1.332   3.585   4.193  1.0987 -0.8015  0.6330
 2524SOL     OW19033   4.587   3.136   1.469  0.2089  0.3347  0.0903
 2524SOL    HW119034   4.617   3.056   1.427 -0.7189 -0.6165  1.2056
 2524SOL    HW219035   4.620   3.208   1.415  2.4091  1.2428  2.6462
 2525SOL     OW19036   2.366   0.120   3.513  0.3554 -0.0915  0.0482
 2525SOL    HW119037   2.314   0.130   3.434 -2.7485  0.0651  2.1426
 2525SOL    HW219038   2.370   0.209   3.547 -1.7464  0.0199 -0.0203
 2526SOL     OW19039   0.955   1.687   6.528 -0.4850 -0.1915 -0.1388
 2526SOL    HW119040   0.944   1.637   6.610  1.5271  0.6539  0.6667
 2526SOL    HW219041   0.988   1.774   6.550 -0.1553 -0.2795 -0.2741
 2527SOL     OW19042   4.400   2.365   3.736  0.1777 -0.5107 -0.0083
 2527SOL    HW119043   4.491   2.338   3.742  0.8053  1.4122 -0.9391
 2527SOL    HW219044   4.360   2.303   3.797 -0.5527 -0.7821 -0.7659
 2528SOL     OW19045   2.074   1.297  10.774  0.3198 -0.1897 -0.3635
 2528SOL    HW119046   2.089   1.380  10.818 -1.2030  1.9255 -3.7786
 2528SOL    HW219047   2.152   1.245  10.795  0.7053  0.8195  0.6759
 2529SOL     OW19048   1.296   1.611   0.871  0.1419 -0.0923  0.3479
 2529SOL    HW119049   1.359   1.656   0.814 -0.1989 -1.4465 -1.0963
 2529SOL    HW219050   1.348   1.542   0.913 -0.9553  0.0113  1.8627
 2530SOL     OW19051   2.439   1.740  10.080  0.3429 -0.1778 -0.2886
 2530SOL    HW119052   2.432   1.652  10.117  0.3933 -0.0254  0.0828
 2530SOL    HW219053   2.489   1.734   9.999  0.3725  0.8485 -0.3367
 2531SOL     OW19054   2.430   1.502  16.264  0.3825  0.6606 -0.3133
 2531SOL    HW119055   2.454   1.594  16.255 -0.4564  0.9349  0.2680
 2531SOL    HW219056   2.378   1.479  16.187 -1.4382  3.3436  0.1034
 2532SOL     OW19057   4.677   4.710   5.733 -0.7625 -0.0340  0.1505
 2532SOL    HW119058   4.629   4.637   5.695  0.6214 -0.9433  0.1470
 2532SOL    HW219059   0.031   4.719   5.676 -1.0594  0.3965 -0.1890
 2533SOL     OW19060   1.831   4.365  12.777  0.1740  0.5097  0.1241
 2533SOL    HW119061   1.903   4.316  12.817 -2.1637 -1.6788  1.6623
 2533SOL    HW219062   1.797   4.413  12.853  1.6749  0.1667  1.0289
 2534SOL     OW19063   3.075   1.260  16.137  0.1282  0.4323 -0.3663
 2534SOL    HW119064   3.135   1.313  16.190  0.1927  1.0131 -1.0177
 2534SOL    HW219065   3.141   1.230  16.075  0.7264  0.9738  0.0110
 2535SOL     OW19066   3.726   0.877   4.864 -0.2518 -0.4464  0.2977
 2535SOL    HW119067   3.670   0.803   4.842  0.3386  0.0573 -2.9623
 2535SOL    HW219068   3.660   0.947   4.860 -0.6445 -0.9301 -2.0394
 2536SOL     OW19069   3.907   2.186   3.485  0.8100  0.2585  0.4310
 2536SOL    HW119070   3.856   2.224   3.413  0.5661 -0.2148  0.3564
 2536SOL    HW219071   3.952   2.265   3.517  0.9306  0.9939 -1.5231
 2537SOL     OW19072   2.801   2.195   7.703  0.2665 -0.3769  0.1722
 2537SOL    HW119073   2.810   2.138   7.779  0.8455 -1.7455 -0.9117
 2537SOL    HW219074   2.794   2.280   7.747  0.0570 -1.2539  1.8215
 2538SOL     OW19075   1.207   1.247   4.988 -0.4974  0.0955 -0.3473
 2538SOL    HW119076   1.229   1.154   4.984 -1.8068 -0.2336 -0.1138
 2538SOL    HW219077   1.111   1.248   4.992 -0.5826 -1.1377 -2.0806
 2539SOL     OW19078   1.091   2.808   9.466  0.2347  0.3424 -0.0724
 2539SOL    HW119079   1.168   2.751   9.463  0.1209  0.1473  0.6488
 2539SOL    HW219080   1.022   2.750   9.434 -0.0716  1.7170 -1.8511
 2540SOL     OW19081   2.557   3.618   2.186 -0.1449  0.0332 -0.2495
 2540SOL    HW119082   2.481   3.587   2.236  1.8432 -2.1868  1.3638
 2540SOL    HW219083   2.510   3.681   2.131 -0.0986  1.8646  1.7933
 2541SOL     OW19084   0.122   2.048   3.476 -0.1095  0.1163  0.3634
 2541SOL    HW119085   0.158   2.081   3.394 -3.7689  0.5206 -1.0823
 2541SOL    HW219086   0.049   1.992   3.449 -1.3154  0.9722  1.8068
 2542SOL     OW19087   1.967   1.392   6.773 -0.1076  0.0467  0.3205
 2542SOL    HW119088   1.873   1.399   6.754 -0.2072 -1.5678  0.2145
 2542SOL    HW219089   1.982   1.319   6.714  2.4729  0.6169  0.2479
 2543SOL     OW19090   2.648   1.075   9.819 -0.2647  0.2623  0.3702
 2543SOL    HW119091   2.667   1.057   9.727 -0.7677  3.1219 -0.3043
 2543SOL    HW219092   2.563   1.033   9.827 -0.2551  0.0494 -0.7116
 2544SOL     OW19093   1.283   4.604  10.419  0.3677  0.5651  0.1100
 2544SOL    HW119094   1.283   4.697  10.443 -0.9619  1.4199 -3.1339
 2544SOL    HW219095   1.334   4.559  10.486  0.3752  0.4872  0.0514
 2545SOL     OW19096   3.767   0.157   8.605 -0.2545 -0.4630 -0.0831
 2545SOL    HW119097   3.733   0.072   8.632  1.5469 -0.6894  1.4471
 2545SOL    HW219098   3.821   0.133   8.530 -1.5625  1.5512 -1.6656
 2546SOL     OW19099   2.878   1.688   0.466 -0.0486 -0.1484  0.1965
 2546SOL    HW119100   2.782   1.691   0.468  0.0632  1.9950  2.4758
 2546SOL    HW219101   2.903   1.631   0.394 -0.5313  1.3335 -1.1484
 2547SOL     OW19102   3.803   4.523  12.227 -0.5290 -0.4449  0.6867
 2547SOL    HW119103   3.797   4.430  12.247 -3.6296 -0.4655 -0.3129
 2547SOL    HW219104   3.856   4.507  12.148 -1.7725 -1.2345  0.0007
 2548SOL     OW19105   1.461   0.123   4.794  0.2985 -0.5409  0.4713
 2548SOL    HW119106   1.421   0.088   4.873  0.7285  0.3204  1.0701
 2548SOL    HW219107   1.504   0.199   4.832  0.5157 -0.1468 -0.5560
 2549SOL     OW19108   1.266   3.384   8.015 -0.8724 -0.2548 -0.1163
 2549SOL    HW119109   1.175   3.388   7.985 -0.6005 -0.1647 -0.9076
 2549SOL    HW219110   1.285   3.477   8.033 -0.6204 -0.0768 -1.3481
 2550SOL     OW19111   2.228   0.367   3.923 -0.7321  0.3311  0.6070
 2550SOL    HW119112   2.234   0.283   3.878  0.0309  1.6306 -1.6801
 2550SOL    HW219113   2.223   0.336   4.014 -1.9352 -0.3631  0.3005
 2551SOL     OW19114   2.591   0.881  16.984 -0.5686 -0.6637 -0.3880
 2551SOL    HW119115   2.531   0.828  16.933  1.5824  0.4084 -4.0880
 2551SOL    HW219116   2.548   0.913  17.063 -0.0604  1.2603 -0.8697
 2552SOL     OW19117   3.691   3.764   0.646  0.2915 -0.2055 -0.1634
 2552SOL    HW119118   3.756   3.774   0.715  0.0408  0.0962  0.0278
 2552SOL    HW219119   3.611   3.744   0.695 -0.2566  1.1071 -0.5303
 2553SOL     OW19120   2.257   2.902  14.237 -0.4485 -0.1586  0.4003
 2553SOL    HW119121   2.300   2.985  14.215 -2.5665  1.1896  1.4122
 2553SOL    HW219122   2.164   2.920  14.228 -0.8291 -2.7639 -0.8440
 2554SOL     OW19123   3.463   2.286   7.492 -0.2316 -0.3039 -0.2626
 2554SOL    HW119124   3.368   2.281   7.482 -0.1706  1.0516 -1.6531
 2554SOL    HW219125   3.466   2.309   7.585  0.5868 -1.0277 -0.1122
 2555SOL     OW19126   2.245   1.352   2.033  0.3814 -0.2874  0.2083
 2555SOL    HW119127   2.266   1.352   1.940  2.8745  0.6663  0.7630
 2555SOL    HW219128   2.274   1.263   2.056  0.3257 -0.8995 -2.1060
 2556SOL     OW19129   1.606   3.673   2.417 -0.0324  0.3853  0.9768
 2556SOL    HW119130   1.628   3.661   2.510 -0.5586 -0.9682  0.9150
 2556SOL    HW219131   1.664   3.614   2.369 -0.0322  0.9252  0.3188
 2557SOL     OW19132   3.423   3.445   3.134 -0.2338  0.0521  0.1307
 2557SOL    HW119133   3.473   3.498   3.072 -3.1866 -0.3015 -2.5307
 2557SOL    HW219134   3.334   3.476   3.118 -0.4911 -0.0517  1.3065
 2558SOL     OW19135   4.427   3.584  16.196  0.8282  0.3681 -0.0947
 2558SOL    HW119136   4.364   3.578  16.124  0.5398 -0.5853  0.2421
 2558SOL    HW219137   4.515   3.578  16.160  1.3161  1.5927  0.8968
 2559SOL     OW19138   1.969   1.832   2.970  0.4533 -0.0444  0.6517
 2559SOL    HW119139   2.023   1.844   2.892 -1.2848  0.0431 -0.5551
 2559SOL    HW219140   1.893   1.784   2.937  0.1427 -0.2797  1.7024
 2560SOL     OW19141   1.178   0.242   7.302 -0.6994  0.2343 -0.1504
 2560SOL    HW119142   1.150   0.152   7.317 -0.3550  0.6602  3.0428
 2560SOL    HW219143   1.137   0.292   7.373  0.8540  0.2708  0.7211
 2561SOL     OW19144   1.516   1.371   8.313 -0.6745  0.2741  0.7309
 2561SOL    HW119145   1.488   1.301   8.255  0.7523  1.3779 -1.3004
 2561SOL    HW219146   1.471   1.344   8.393 -1.3817 -1.5902 -0.3085
 2562SOL     OW19147   1.607   3.241   0.653  0.0684 -0.3229  0.0569
 2562SOL    HW119148   1.595   3.310   0.718  0.4453  1.6664 -2.0202
 2562SOL    HW219149   1.684   3.197   0.689  0.6436  2.5473  2.3218
 2563SOL     OW19150   1.289   0.836   4.261  0.0856  0.0944 -0.2508
 2563SOL    HW119151   1.344   0.775   4.311 -1.4352 -0.1400  1.1198
 2563SOL    HW219152   1.277   0.793   4.176 -0.7964 -0.4357  0.1453
 2564SOL     OW19153   2.571   2.306   4.596  0.2055  0.2578 -0.0899
 2564SOL    HW119154   2.577   2.381   4.655 -0.2346 -0.8569  1.3428
 2564SOL    HW219155   2.541   2.345   4.513 -1.1444 -1.0560 -0.2287
 2565SOL     OW19156   0.368   2.117   6.210  0.2048 -0.1026  0.2153
 2565SOL    HW119157   0.361   2.120   6.115 -0.8901 -1.3120  0.2638
 2565SOL    HW219158   0.446   2.169   6.227  1.0491 -1.1176 -0.5133
 2566SOL     OW19159   3.271   4.304  14.615 -0.8674  0.2405 -0.6382
 2566SOL    HW119160   3.325   4.379  14.592  1.4019 -1.2398 -0.0919
 2566SOL    HW219161   3.186   4.349  14.614 -2.1965 -2.2876 -3.0534
 2567SOL     OW19162   3.181   4.239  12.558  0.5573  0.0117 -0.3163
 2567SOL    HW119163   3.268   4.203  12.543  0.5155 -0.5779  0.8494
 2567SOL    HW219164   3.127   4.214  12.483  0.7931 -1.8982  0.1596
 2568SOL     OW19165   0.507   3.620   4.404  0.0171 -0.2150  0.4655
 2568SOL    HW119166   0.476   3.560   4.472 -0.5422 -0.4167  0.0278
 2568SOL    HW219167   0.423   3.639   4.363  0.5704 -2.5052 -1.7816
 2569SOL     OW19168   1.697   0.684  12.177  0.0333 -0.0594 -0.2958
 2569SOL    HW119169   1.666   0.723  12.259 -0.8873 -1.9251  0.2590
 2569SOL    HW219170   1.673   0.592  12.186 -0.3403  0.0870  0.2047
 2570SOL     OW19171   0.205   1.808   0.240 -0.1018  0.2566  0.5462
 2570SOL    HW119172   0.146   1.732   0.245  0.5969 -0.3744 -0.5800
 2570SOL    HW219173   0.190   1.843   0.327  0.0785  2.3765 -0.2752
 2571SOL     OW19174   1.019   0.715   4.383  0.4966  1.0726 -0.3316
 2571SOL    HW119175   1.082   0.778   4.350  2.2083 -0.3287  0.2623
 2571SOL    HW219176   0.958   0.711   4.309 -0.5855 -0.9142  0.6505
 2572SOL     OW19177   2.706   2.988  17.608 -0.8233  0.9528  0.2053
 2572SOL    HW119178   2.734   2.970   0.007 -0.8278  2.4960  0.5257
 2572SOL    HW219179   2.641   2.920  17.594 -0.6565  0.9648 -0.6204
 2573SOL     OW19180   4.659   0.087  11.116 -0.0437 -0.1958  0.3960
 2573SOL    HW119181   4.585   0.069  11.058  1.0083 -1.4809 -0.5625
 2573SOL    HW219182   0.006   0.037  11.073  0.9973  0.2191  1.6081
 2574SOL     OW19183   0.701   3.154   3.050 -0.0427  0.1598  0.5324
 2574SOL    HW119184   0.770   3.212   3.084  1.6803 -0.6854 -1.5017
 2574SOL    HW219185   0.712   3.074   3.101  3.6777  2.0058  2.6088
 2575SOL     OW19186   3.516   0.564   0.567  0.5510  0.1721 -0.5071
 2575SOL    HW119187   3.546   0.474   0.573  0.1914  0.1369  0.5958
 2575SOL    HW219188   3.525   0.585   0.474 -1.0754  0.4398 -0.6063
 2576SOL     OW19189   4.184   1.283  10.900 -0.5144 -0.1143  0.0540
 2576SOL    HW119190   4.253   1.261  10.837  1.1604  0.8854  1.5371
 2576SOL    HW219191   4.117   1.226  10.863 -1.1728  0.0008  1.0826
 2577SOL     OW19192   3.054   2.472   9.997  0.0736 -0.2524  0.1659
 2577SOL    HW119193   3.076   2.557  10.034 -0.7926  0.6041 -1.2965
 2577SOL    HW219194   2.963   2.469  10.027  0.3843 -0.4860  1.0944
 2578SOL     OW19195   0.996   0.186  15.129  0.3746  0.2082 -0.1086
 2578SOL    HW119196   1.058   0.115  15.111  1.9583  1.3391  0.8575
 2578SOL    HW219197   0.926   0.170  15.066  0.9245  1.4261 -1.0146
 2579SOL     OW19198   1.567   2.659   9.465  0.4071 -0.2055  0.1945
 2579SOL    HW119199   1.641   2.659   9.405 -0.0428  1.9910 -0.3781
 2579SOL    HW219200   1.605   2.724   9.525 -1.3155  0.0016  1.0602
 2580SOL     OW19201   2.308   3.837   6.320 -0.5462 -0.2482 -0.4038
 2580SOL    HW119202   2.344   3.925   6.315 -0.4263 -0.2479  0.4777
 2580SOL    HW219203   2.298   3.832   6.415  0.5101  4.4784 -0.0439
 2581SOL     OW19204   2.224   2.514   8.846 -0.4604 -0.0421 -0.4752
 2581SOL    HW119205   2.151   2.495   8.904 -0.7676  3.5420  0.2909
 2581SOL    HW219206   2.185   2.480   8.765 -0.3775 -1.7938  0.2105
 2582SOL     OW19207   4.451   3.869   4.365 -0.1013  0.3600 -0.3557
 2582SOL    HW119208   4.370   3.908   4.331 -0.9503  1.1710  2.6069
 2582SOL    HW219209   4.528   3.921   4.341 -0.7702  2.0324  1.1166
 2583SOL     OW19210   4.710   4.241  13.887  0.0694  0.0373  0.3455
 2583SOL    HW119211   4.689   4.281  13.803 -0.6524 -2.5530 -0.7094
 2583SOL    HW219212   4.631   4.257  13.939 -0.5111  0.4391 -0.6707
 2584SOL     OW19213   2.231   0.817   8.000  0.0249 -0.5749  0.3353
 2584SOL    HW119214   2.149   0.788   7.960 -1.0334  1.6875  0.8570
 2584SOL    HW219215   2.211   0.908   8.023 -2.1573 -1.1394  0.6571
 2585SOL     OW19216   1.085   0.164   6.078  0.2666 -0.2100 -0.0514
 2585SOL    HW119217   1.058   0.112   6.002 -0.1969  0.0202 -0.0442
 2585SOL    HW219218   1.132   0.090   6.118 -0.4649 -1.1479 -0.9161
 2586SOL     OW19219   3.340   4.524  12.627 -0.7669 -0.5099  0.2654
 2586SOL    HW119220   3.316   4.492  12.714 -0.6233 -0.2477  0.4021
 2586SOL    HW219221   3.416   4.475  12.597 -1.4377 -1.3126 -0.1365
 2587SOL     OW19222   4.310   2.962  14.825  0.3964  0.6112  0.8844
 2587SOL    HW119223   4.385   3.017  14.846  1.1873  0.3186 -1.2150
 2587SOL    HW219224   4.343   2.885  14.872 -0.3232 -0.2464 -0.0213
 2588SOL     OW19225   1.928   1.180   8.477  0.2701  0.2365 -0.1853
 2588SOL    HW119226   1.886   1.128   8.409  0.5093 -2.7013  1.8860
 2588SOL    HW219227   1.854   1.190   8.537  2.0895 -1.1217  2.3095
 2589SOL     OW19228   1.867   2.742   4.575 -0.2375  0.5332 -0.2876
 2589SOL    HW119229   1.901   2.685   4.645 -1.8862  1.0676  0.9487
 2589SOL    HW219230   1.917   2.819   4.602 -3.4634  1.2432  3.6468
 2590SOL     OW19231   2.426   2.705   6.033 -0.4744 -0.2955 -0.2514
 2590SOL    HW119232   2.360   2.697   5.964  0.9359  1.5651 -1.8433
 2590SOL    HW219233   2.468   2.619   6.034  0.2756  0.0895  1.1414
 2591SOL     OW19234   3.696   4.060   7.932  0.1571 -0.0534  0.2932
 2591SOL    HW119235   3.702   4.087   7.840 -2.6023 -2.5402 -0.5999
 2591SOL    HW219236   3.692   3.964   7.935  1.1577 -0.0542  1.4611
 2592SOL     OW19237   1.364   2.122   3.905  0.3201 -0.4636 -0.1354
 2592SOL    HW119238   1.289   2.095   3.958  1.2709  0.3626  1.6664
 2592SOL    HW219239   1.333   2.087   3.822 -2.5948  1.7519 -0.0051
 2593SOL     OW19240   1.257   0.289   6.737  0.0031 -0.3486  0.6946
 2593SOL    HW119241   1.164   0.266   6.746  0.6562 -3.3322 -0.2537
 2593SOL    HW219242   1.284   0.281   6.828  1.9810 -0.7959  0.0569
 2594SOL     OW19243   3.639   0.121   6.079 -0.0763  0.2560 -0.0690
 2594SOL    HW119244   3.575   0.165   6.134 -1.8147  1.2759 -2.9488
 2594SOL    HW219245   3.602   0.119   5.991 -0.5899  1.3061  0.1245
 2595SOL     OW19246   1.903   4.299   2.262 -0.2205  0.2262 -0.5083
 2595SOL    HW119247   1.810   4.278   2.261 -0.1809  0.2421 -2.7497
 2595SOL    HW219248   1.924   4.303   2.169  3.1507 -1.5261  0.1810
 2596SOL     OW19249   1.106   4.023   0.360  0.4326  0.1991  0.0153
 2596SOL    HW119250   1.198   4.043   0.378 -0.0375  2.9087 -0.6333
 2596SOL    HW219251   1.073   4.101   0.316  0.3263 -0.1921 -0.6097
 2597SOL     OW19252   0.489   0.511   6.616  0.5419  0.3722  0.2294
 2597SOL    HW119253   0.504   0.425   6.654  0.1334  0.0555 -0.3360
 2597SOL    HW219254   0.498   0.492   6.522 -2.9091 -0.6723  0.1010
 2598SOL     OW19255   0.407   2.068   2.781  0.3363 -0.1443 -0.4674
 2598SOL    HW119256   0.496   2.072   2.817 -0.2317  1.3028  0.7776
 2598SOL    HW219257   0.364   2.115   2.852  0.7178 -0.5358  0.0208
 2599SOL     OW19258   2.089   2.943   1.627  0.5383  0.0070 -0.1978
 2599SOL    HW119259   2.072   2.900   1.711  2.5406  1.3237  0.8806
 2599SOL    HW219260   2.021   3.010   1.625  0.7051  0.1378 -1.3751
 2600SOL     OW19261   1.650   3.829  10.344  0.6570  0.5175 -0.5223
 2600SOL    HW119262   1.640   3.922  10.321 -0.0357  0.8386  1.0895
 2600SOL    HW219263   1.561   3.796  10.336  1.0440 -0.4772 -0.6461
 2601SOL     OW19264   3.725   2.367   9.842  0.5261 -0.3194  0.2692
 2601SOL    HW119265   3.648   2.329   9.802  1.0954  0.1429 -1.2679
 2601SOL    HW219266   3.795   2.325   9.792  1.1158  0.7113  0.2240
 2602SOL     OW19267   2.398   2.878   2.773  0.0166 -0.7144 -0.3044
 2602SOL    HW119268   2.357   2.938   2.710  1.7179 -0.2010 -0.9106
 2602SOL    HW219269   2.452   2.830   2.711  0.3383  0.1536 -0.7037
 2603SOL     OW19270   2.974   4.540   5.080 -0.0410  0.3653 -0.2035
 2603SOL    HW119271   3.033   4.475   5.042  0.5274  1.0337 -0.4733
 2603SOL    HW219272   3.015   4.624   5.060  1.0319 -0.5495 -1.8009
 2604SOL     OW19273   3.660   4.370   8.217  0.1181 -0.1024  0.3183
 2604SOL    HW119274   3.745   4.350   8.179  0.5021  0.4015  0.9049
 2604SOL    HW219275   3.670   4.452   8.266  0.4995  0.4501 -0.7016
 2605SOL     OW19276   2.634   1.413   0.643 -0.4722  0.0295  0.2557
 2605SOL    HW119277   2.694   1.431   0.715  0.7116  0.7173 -0.9066
 2605SOL    HW219278   2.659   1.321   0.647  0.3890  0.2600  0.0113
 2606SOL     OW19279   3.220   2.366   8.637 -0.1760 -0.0492  0.3188
 2606SOL    HW119280   3.159   2.313   8.585 -0.3473  1.2031 -0.7506
 2606SOL    HW219281   3.158   2.433   8.666 -0.4675 -0.4159  0.5382
 2607SOL     OW19282   3.605   2.670   8.941  0.6305  0.1018  0.6214
 2607SOL    HW119283   3.640   2.755   8.966 -1.1991  0.8981  0.4384
 2607SOL    HW219284   3.514   2.673   8.969  1.1345 -0.9001  2.3746
 2608SOL     OW19285   2.692   3.197   8.397  0.1278 -0.0899 -0.5728
 2608SOL    HW119286   2.767   3.223   8.449 -0.4597 -2.2187  1.3255
 2608SOL    HW219287   2.646   3.280   8.409 -0.7873 -0.3087 -2.4539
 2609SOL     OW19288   4.280   0.356   8.311 -0.1047  0.0212 -0.0422
 2609SOL    HW119289   4.304   0.308   8.232  1.9291  2.3537 -0.8410
 2609SOL    HW219290   4.282   0.283   8.374  2.2793 -0.3934 -0.5972
 2610SOL     OW19291   2.313   4.459   5.528 -0.3201 -0.1300 -0.3828
 2610SOL    HW119292   2.362   4.528   5.484 -2.0781  1.5543  0.2708
 2610SOL    HW219293   2.229   4.499   5.549  0.4509 -0.2389  2.8196
 2611SOL     OW19294   4.647   1.226  13.015 -0.1351 -0.3595 -0.6946
 2611SOL    HW119295   4.601   1.142  13.007 -3.3577  1.5186 -1.9066
 2611SOL    HW219296   4.703   1.232  12.938 -0.3777  1.6904 -0.7012
 2612SOL     OW19297   2.249   1.416   7.910  0.2505  0.1901 -0.0674
 2612SOL    HW119298   2.286   1.375   7.989 -0.2624  1.7043  0.9540
 2612SOL    HW219299   2.156   1.399   7.924  0.2655  0.4981  0.4212
 2613SOL     OW19300   1.183   4.407   5.724 -0.0494 -0.2497 -0.6777
 2613SOL    HW119301   1.227   4.451   5.797 -1.6589  1.0664 -0.4851
 2613SOL    HW219302   1.163   4.481   5.666 -2.1397 -0.1685  0.1299
 2614SOL     OW19303   0.687   1.849   5.059 -0.3031 -0.0350 -0.2258
 2614SOL    HW119304   0.773   1.814   5.084  0.7736  1.4068 -1.9882
 2614SOL    HW219305   0.650   1.770   5.019  2.6413 -0.2779 -2.3901
 2615SOL     OW19306   2.494   0.151   5.661 -0.1216  0.0878 -1.2084
 2615SOL    HW119307   2.456   0.100   5.733  2.0420  1.9137  1.2816
 2615SOL    HW219308   2.449   0.117   5.585 -0.4150 -1.3193 -0.4054
 2616SOL     OW19309   1.190   0.937   9.217  0.0226 -0.1573  0.4613
 2616SOL    HW119310   1.117   0.880   9.194  0.1939 -0.6389  1.0986
 2616SOL    HW219311   1.155   0.959   9.303 -1.9853 -0.5635 -0.2649
 2617SOL     OW19312   1.949   3.069   1.001  0.7439 -0.5383 -0.1736
 2617SOL    HW119313   2.014   3.139   1.009 -0.5565  0.8477 -1.8690
 2617SOL    HW219314   2.002   2.990   1.012  1.0699 -0.1017  1.4259
 2618SOL     OW19315   3.482   0.765  15.821  0.3503  0.1806  0.0623
 2618SOL    HW119316   3.562   0.735  15.777 -0.9306  1.6361 -3.3075
 2618SOL    HW219317   3.488   0.722  15.906 -0.2922 -1.5593 -0.7714
 2619SOL     OW19318   1.318   1.867   7.348  0.0241 -0.5702 -0.6905
 2619SOL    HW119319   1.227   1.866   7.380 -0.1253 -1.3581 -1.1275
 2619SOL    HW219320   1.372   1.870   7.427 -1.4441 -0.4783  0.3270
 2620SOL     OW19321   3.455   3.989   4.731 -0.0874  0.5530 -0.6109
 2620SOL    HW119322   3.487   4.064   4.680 -0.4416  0.4487 -0.9875
 2620SOL    HW219323   3.487   4.002   4.821  1.1192  0.7999 -1.0746
 2621SOL     OW19324   0.850   4.486   2.162  0.5367  0.2319 -0.0197
 2621SOL    HW119325   0.944   4.469   2.175 -0.0686 -2.0062  1.2318
 2621SOL    HW219326   0.863   4.566   2.111  1.6457  0.8185  1.1736
 2622SOL     OW19327   1.619   2.419   8.032  0.6950 -0.7623  0.1551
 2622SOL    HW119328   1.698   2.413   7.978  2.0050  0.4385  1.9109
 2622SOL    HW219329   1.655   2.426   8.121 -2.2401  0.4175  1.2589
 2623SOL     OW19330   2.162   2.152   9.095 -0.0917  0.8813 -0.2441
 2623SOL    HW119331   2.231   2.216   9.080  2.1629 -2.0919 -2.5506
 2623SOL    HW219332   2.195   2.111   9.176  2.9124 -1.9715 -2.9299
 2624SOL     OW19333   2.767   1.284   2.254  0.8099  0.1051 -0.0011
 2624SOL    HW119334   2.696   1.240   2.301  0.7221 -0.1722 -0.3883
 2624SOL    HW219335   2.833   1.219   2.277  0.5539  0.0606  0.5919
 2625SOL     OW19336   4.722   2.352   5.765  0.1158  0.0826  0.0971
 2625SOL    HW119337   0.065   2.375   5.699  0.3386 -3.3865 -0.8823
 2625SOL    HW219338   4.699   2.262   5.745  1.0108 -0.3935  1.2122
 2626SOL     OW19339   2.693   2.786   4.076  0.3504  0.6499 -0.3431
 2626SOL    HW119340   2.621   2.822   4.128 -0.9974 -0.9640 -1.1025
 2626SOL    HW219341   2.657   2.698   4.068 -0.5658  0.9909  0.0072
 2627SOL     OW19342   4.501   3.084   4.867 -0.2350 -0.0221  0.0537
 2627SOL    HW119343   4.461   3.041   4.943  0.1715 -0.8905 -0.2183
 2627SOL    HW219344   4.438   3.155   4.856  0.4439  0.6798  0.7419
 2628SOL     OW19345   2.172   2.753   2.513  0.0588  0.9045  0.0573
 2628SOL    HW119346   2.134   2.753   2.425  0.1254 -0.2363  0.0390
 2628SOL    HW219347   2.182   2.846   2.532  1.3279  0.7315  0.1893
 2629SOL     OW19348   2.226   1.373  17.534  0.0503 -0.3609  0.3073
 2629SOL    HW119349   2.227   1.336  17.446 -2.9437  1.9017 -0.6876
 2629SOL    HW219350   2.314   1.409  17.549 -0.5116  1.7599 -1.4756
 2630SOL     OW19351   4.373   2.072   6.772  0.4884 -0.0042 -0.5232
 2630SOL    HW119352   4.326   2.034   6.846  0.4909 -1.1593 -1.1192
 2630SOL    HW219353   4.439   2.130   6.809 -0.6701  0.1838  1.2488
 2631SOL     OW19354   2.422   4.581   5.232  0.1180  0.1116 -0.0310
 2631SOL    HW119355   2.478   4.607   5.158 -0.3803  0.0545 -0.4283
 2631SOL    HW219356   2.452   4.491   5.247 -0.7216 -0.1842 -0.1545
 2632SOL     OW19357   0.154   2.839   5.978 -0.0787  0.0360  0.0005
 2632SOL    HW119358   0.151   2.747   6.005 -0.2605 -0.2136 -0.8476
 2632SOL    HW219359   0.154   2.827   5.883 -0.1301 -0.9757  0.1332
 2633SOL     OW19360   0.889   3.534  11.022 -0.0872  0.1097  0.3007
 2633SOL    HW119361   0.826   3.604  11.004 -0.1911  0.1199  0.6869
 2633SOL    HW219362   0.890   3.536  11.118  1.1334  0.1956  0.2864
 2634SOL     OW19363   4.527   2.272   6.999 -0.1364  0.2103  0.2983
 2634SOL    HW119364   4.579   2.192   6.990  0.5470  0.5682  1.0502
 2634SOL    HW219365   4.564   2.302   7.082 -0.1411  1.9850 -0.3459
 2635SOL     OW19366   0.551   4.399  11.222 -0.7027 -0.0509  0.3113
 2635SOL    HW119367   0.635   4.365  11.253  0.9583  2.1529 -1.6916
 2635SOL    HW219368   0.536   4.474  11.280  0.3549  0.3168  0.1197
 2636SOL     OW19369   4.310   3.035   9.108  0.0492  0.0505 -0.3878
 2636SOL    HW119370   4.337   2.947   9.135  1.5126  0.1973 -1.3543
 2636SOL    HW219371   4.386   3.055   9.054  0.3138 -0.6769 -0.2835
 2637SOL     OW19372   0.418   2.727   0.255 -0.5448  0.2876  0.3049
 2637SOL    HW119373   0.368   2.648   0.270  0.3479 -0.3017  0.1817
 2637SOL    HW219374   0.348   2.792   0.258 -0.2517  0.5913  0.6155
 2638SOL     OW19375   3.097   4.297  13.917  0.2702 -0.0252  0.1334
 2638SOL    HW119376   3.049   4.370  13.877  0.4143  0.0026  0.0112
 2638SOL    HW219377   3.139   4.257  13.841 -1.3867  0.1534 -0.8958
 2639SOL     OW19378   0.638   4.036   5.364 -0.2975  0.0173  0.2147
 2639SOL    HW119379   0.641   4.114   5.309  1.3059 -0.3225 -0.1863
 2639SOL    HW219380   0.575   3.986   5.312 -0.2239 -1.1523  1.2475
 2640SOL     OW19381   0.428   1.860   2.110  0.3619 -0.4512  0.5059
 2640SOL    HW119382   0.400   1.800   2.180  1.0786  0.5679  1.6716
 2640SOL    HW219383   0.517   1.884   2.138  0.2391 -1.0237  1.4087
 2641SOL     OW19384   4.418   1.133   2.737 -0.0758  0.3409 -0.1503
 2641SOL    HW119385   4.385   1.215   2.700 -0.1600 -0.4336 -1.8132
 2641SOL    HW219386   4.382   1.074   2.671 -0.3880 -0.5456  0.8064
 2642SOL     OW19387   0.293   0.224   3.485  0.8213  0.7457  0.1732
 2642SOL    HW119388   0.366   0.191   3.431  1.5650 -1.3720  2.4573
 2642SOL    HW219389   0.228   0.232   3.415 -0.7694  0.6123  1.6460
 2643SOL     OW19390   3.158   3.340   1.126 -0.5087 -0.2512 -0.2595
 2643SOL    HW119391   3.197   3.427   1.121 -0.2043 -0.4974 -2.0151
 2643SOL    HW219392   3.064   3.356   1.139 -0.5875 -0.8589 -0.0477
 2644SOL     OW19393   1.916   2.090  14.506  0.1464 -0.0852  0.2168
 2644SOL    HW119394   1.851   2.049  14.564 -1.5208  0.9639 -0.9263
 2644SOL    HW219395   1.965   2.140  14.571 -0.1170  0.1605  0.2276
 2645SOL     OW19396   0.109   3.240   2.696 -0.0796  0.1271  0.2035
 2645SOL    HW119397   0.080   3.221   2.607  2.1953 -2.1862 -0.0174
 2645SOL    HW219398   0.198   3.272   2.684 -0.0831  0.5881  1.3541
 2646SOL     OW19399   3.646   0.007   7.520  0.1960  0.0181 -0.1456
 2646SOL    HW119400   3.653   0.011   7.615  0.4364  0.3425 -0.1757
 2646SOL    HW219401   3.728   4.687   7.495 -0.0042  1.2377 -2.8489
 2647SOL     OW19402   2.125   0.432   3.485 -0.0765  0.3495 -0.5647
 2647SOL    HW119403   2.100   0.494   3.416  1.9984 -0.9799 -2.5295
 2647SOL    HW219404   2.130   0.349   3.438  1.2276 -0.6743  1.3787
 2648SOL     OW19405   0.764   4.192   8.641  0.4678 -0.3159  0.1232
 2648SOL    HW119406   0.716   4.235   8.571  1.1630 -3.0123 -1.9845
 2648SOL    HW219407   0.855   4.210   8.619  0.4600  1.1526  1.3013
 2649SOL     OW19408   2.580   0.518   3.997  0.5103  0.2231 -0.6954
 2649SOL    HW119409   2.602   0.463   4.072 -0.3152 -0.1279 -0.7027
 2649SOL    HW219410   2.567   0.461   3.921 -0.4117  1.6373 -1.5958
 2650SOL     OW19411   3.687   2.576   5.607  0.1246 -0.2495 -0.6916
 2650SOL    HW119412   3.688   2.485   5.637 -2.3803 -0.8738 -2.4554
 2650SOL    HW219413   3.774   2.613   5.624  0.9332 -1.6053 -1.8825
 2651SOL     OW19414   3.870   2.941   1.622  0.0738 -0.2293 -0.2254
 2651SOL    HW119415   3.781   2.977   1.627 -0.0840 -0.4018 -1.6968
 2651SOL    HW219416   3.919   3.015   1.657 -1.4701  0.3146  0.7720
 2652SOL     OW19417   2.145   1.207   2.965 -0.2622 -0.2100  0.1298
 2652SOL    HW119418   2.159   1.228   3.057 -0.4993 -0.1940  0.1640
 2652SOL    HW219419   2.232   1.229   2.934 -1.2280  0.1625 -2.3324
 2653SOL     OW19420   4.145   1.897   6.524  0.0924  0.7213  0.0939
 2653SOL    HW119421   4.128   1.806   6.498 -0.3929  1.2491 -1.4114
 2653SOL    HW219422   4.239   1.912   6.512  0.4916 -0.1010  2.1974
 2654SOL     OW19423   3.727   2.009   9.649  0.0836 -0.3345 -0.2061
 2654SOL    HW119424   3.708   2.058   9.729  1.6267  0.6834 -0.4763
 2654SOL    HW219425   3.743   2.075   9.583 -1.0307  0.9064  0.7764
 2655SOL     OW19426   2.732   1.747   2.738  0.0114  0.5061  0.4898
 2655SOL    HW119427   2.776   1.739   2.823  1.1669 -3.2254 -0.4593
 2655SOL    HW219428   2.689   1.832   2.735  0.0227  0.6130  2.9712
 2656SOL     OW19429   3.920   0.777   6.688  0.4595  0.1332  0.3507
 2656SOL    HW119430   3.890   0.731   6.609  1.3537  0.2457 -0.0502
 2656SOL    HW219431   4.003   0.812   6.657 -0.8042  2.6724 -0.1165
 2657SOL     OW19432   0.617   0.577   2.913 -0.0406 -0.0851 -0.0524
 2657SOL    HW119433   0.573   0.544   2.835  2.0217  2.0968 -2.1329
 2657SOL    HW219434   0.560   0.579   2.990  1.6401  0.3056  1.1972
 2658SOL     OW19435   0.202   2.006   7.183 -0.2760 -0.6846  0.0998
 2658SOL    HW119436   0.110   2.006   7.207 -0.6277 -2.0384 -1.2613
 2658SOL    HW219437   0.245   2.012   7.269 -0.5353 -1.1412  0.2642
 2659SOL     OW19438   3.380   2.571   6.424  0.1881  0.1285  0.6328
 2659SOL    HW119439   3.453   2.621   6.461  1.8978  0.1837 -2.7424
 2659SOL    HW219440   3.314   2.595   6.488 -0.5294  2.1492 -0.8522
 2660SOL     OW19441   2.774   3.058   7.827 -0.6613  0.5088 -0.6582
 2660SOL    HW119442   2.807   2.973   7.856 -1.0871 -0.1594 -2.1359
 2660SOL    HW219443   2.744   3.038   7.739 -0.1498  0.4482 -0.8216
 2661SOL     OW19444   1.918   4.230  16.262  0.0135  0.2222  0.2182
 2661SOL    HW119445   1.876   4.147  16.286  1.0939 -0.5896 -0.7035
 2661SOL    HW219446   1.881   4.240  16.175  1.0245  3.6061  0.1672
 2662SOL     OW19447   2.323   3.839   4.168  0.2441 -0.2619  0.5186
 2662SOL    HW119448   2.344   3.753   4.204 -1.2048 -1.4488 -1.4680
 2662SOL    HW219449   2.363   3.822   4.083  1.7196 -0.5063  1.2559
 2663SOL     OW19450   0.569   4.169  10.838 -0.0609 -0.0970 -0.4175
 2663SOL    HW119451   0.485   4.124  10.850 -0.0551 -0.0485 -0.1919
 2663SOL    HW219452   0.594   4.170  10.746 -0.9539  0.4684 -0.6464
 2664SOL     OW19453   2.795   0.541   6.747 -0.4847  0.0416 -0.2737
 2664SOL    HW119454   2.803   0.495   6.664  0.4480  0.4579 -0.4175
 2664SOL    HW219455   2.886   0.530   6.773  0.0060  0.8186 -1.7107
 2665SOL     OW19456   1.658   4.300   8.462 -0.2003  0.6117 -0.1732
 2665SOL    HW119457   1.690   4.222   8.509 -1.5632  0.7198  0.9587
 2665SOL    HW219458   1.612   4.260   8.388 -0.5420 -0.6960  0.7460
 2666SOL     OW19459   1.594   0.129   8.997 -0.1323 -0.1773 -0.2385
 2666SOL    HW119460   1.621   0.055   8.943  1.5097  1.6218 -1.8923
 2666SOL    HW219461   1.543   0.087   9.066  1.7438  0.3735  1.5118
 2667SOL     OW19462   1.769   1.185   5.573 -0.6801 -0.2486 -0.2324
 2667SOL    HW119463   1.715   1.114   5.607 -0.6819  1.1125  2.6126
 2667SOL    HW219464   1.722   1.263   5.600  2.1933  1.2388  0.5198
 2668SOL     OW19465   2.342   1.936   7.399 -0.6057 -0.3370  0.3115
 2668SOL    HW119466   2.302   1.855   7.367 -0.1156 -0.8376  0.9479
 2668SOL    HW219467   2.309   1.935   7.489 -1.0962 -1.2291  0.1218
 2669SOL     OW19468   0.914   0.863  10.257  0.5045 -0.3689 -0.2298
 2669SOL    HW119469   0.936   0.919  10.332 -0.1632 -0.2236 -0.1474
 2669SOL    HW219470   1.000   0.820  10.258  0.8666  0.3892  0.8136
 2670SOL     OW19471   4.137   0.362   5.234  0.0410 -0.1709  0.1956
 2670SOL    HW119472   4.050   0.343   5.198 -0.3606  0.2287  0.9481
 2670SOL    HW219473   4.139   0.458   5.228  0.5736 -0.2575 -1.1383
 2671SOL     OW19474   2.610   2.555   4.743 -0.1366  0.2052  0.2164
 2671SOL    HW119475   2.590   2.645   4.767 -1.6873 -0.1786  0.4134
 2671SOL    HW219476   2.667   2.522   4.813 -1.1648 -2.1220 -0.0252
 2672SOL     OW19477   1.988   3.828   4.884 -0.0036 -0.4225 -0.0056
 2672SOL    HW119478   1.947   3.909   4.854  0.9354 -0.4556 -1.3971
 2672SOL    HW219479   1.904   3.794   4.915  0.2982 -0.2501  0.9964
 2673SOL     OW19480   2.285   3.373  16.115  0.4486  0.1491 -0.1959
 2673SOL    HW119481   2.261   3.419  16.035 -0.3931  1.6648  0.9337
 2673SOL    HW219482   2.203   3.373  16.163  0.3863  0.5672 -0.3087
 2674SOL     OW19483   0.731   1.489   5.100 -0.2115 -0.0258  0.5593
 2674SOL    HW119484   0.680   1.531   5.030 -2.0073 -0.6298  1.5033
 2674SOL    HW219485   0.656   1.478   5.159 -1.3512  0.4177 -0.7917
 2675SOL     OW19486   3.831   4.311   4.297 -0.4064  0.5810 -0.1422
 2675SOL    HW119487   3.757   4.364   4.329  0.5797  3.2439 -2.2460
 2675SOL    HW219488   3.819   4.223   4.332  1.5296  0.0615 -0.8107
 2676SOL     OW19489   4.189   1.579  16.330  0.4286 -0.8056  0.4491
 2676SOL    HW119490   4.133   1.653  16.353  0.7026 -0.6869  0.7453
 2676SOL    HW219491   4.152   1.549  16.247  0.6757 -2.9798  1.0984
 2677SOL     OW19492   4.574   2.046  11.471 -0.0157 -0.3373  0.5019
 2677SOL    HW119493   4.530   2.076  11.392  0.0221 -0.4158  0.4502
 2677SOL    HW219494   4.543   2.107  11.537 -1.0308 -0.8273  0.4702
 2678SOL     OW19495   1.686   2.245   6.084 -0.1658  0.2170 -0.6918
 2678SOL    HW119496   1.684   2.340   6.072  1.4555  0.2807 -0.5336
 2678SOL    HW219497   1.601   2.214   6.054  0.2885  3.8568 -5.7660
 2679SOL     OW19498   4.716   2.655   5.509 -0.5096 -0.0473  0.0759
 2679SOL    HW119499   0.019   2.673   5.419  0.2652 -1.1770  0.0740
 2679SOL    HW219500   0.064   2.594   5.530  0.4526  0.3848 -1.9523
 2680SOL     OW19501   3.587   3.903   3.732 -0.3049  0.2721  0.5328
 2680SOL    HW119502   3.642   3.981   3.741 -1.8602  1.4236  0.0977
 2680SOL    HW219503   3.508   3.934   3.686  0.6591  0.8715 -0.7253
 2681SOL     OW19504   1.005   4.006  11.901 -0.1070 -0.4379  0.3069
 2681SOL    HW119505   1.006   3.994  11.806  1.8179 -0.3482  0.3130
 2681SOL    HW219506   0.910   4.016  11.911  0.0886 -0.1432  1.8986
 2682SOL     OW19507   1.915   3.372   7.820 -0.3236 -0.1506  0.2286
 2682SOL    HW119508   1.863   3.296   7.796  0.7035 -0.3057 -1.5035
 2682SOL    HW219509   1.927   3.411   7.733 -1.3435 -1.9915 -0.7282
 2683SOL     OW19510   0.744   1.169   5.865 -0.2300  0.0576 -0.0536
 2683SOL    HW119511   0.783   1.249   5.830  1.0678 -0.2679  0.6237
 2683SOL    HW219512   0.737   1.194   5.957 -0.4792 -0.3825  0.0455
 2684SOL     OW19513   2.633   0.979  16.445 -0.2631 -0.2863 -0.1705
 2684SOL    HW119514   2.712   0.932  16.473 -0.7911 -0.4210  1.0813
 2684SOL    HW219515   2.607   1.018  16.528  4.3181  1.0936  0.6110
 2685SOL     OW19516   1.595   3.377  12.007 -0.2264  0.3279 -0.3687
 2685SOL    HW119517   1.666   3.392  12.069  0.0778  2.0299 -1.1267
 2685SOL    HW219518   1.634   3.322  11.940  2.8787  0.1504  1.5874
 2686SOL     OW19519   4.481   4.711   6.014 -0.0701 -0.2339 -0.1756
 2686SOL    HW119520   4.423   4.650   6.059 -0.3007  0.3301  0.2869
 2686SOL    HW219521   4.456   4.701   5.922  0.9446 -0.3545 -0.4390
 2687SOL     OW19522   4.293   0.481   1.038  0.0490 -0.1847  0.2225
 2687SOL    HW119523   4.242   0.558   1.063  0.4439  0.2055 -0.1813
 2687SOL    HW219524   4.377   0.483   1.084 -0.0018  0.3858  0.2856
 2688SOL     OW19525   4.555   3.088  17.420 -0.0424 -0.5327  0.3967
 2688SOL    HW119526   4.532   3.032  17.346  0.0279 -2.3647  1.7676
 2688SOL    HW219527   4.633   3.046  17.456  0.3456  0.1648  0.3758
 2689SOL     OW19528   4.650   1.883   3.343 -0.2384  0.0215 -0.1096
 2689SOL    HW119529   4.691   1.812   3.294 -0.8895  2.0694 -3.6022
 2689SOL    HW219530   4.608   1.833   3.414  0.6977  1.4967  1.4758
 2690SOL     OW19531   2.187   3.821  16.711 -0.1793 -0.0538  0.1903
 2690SOL    HW119532   2.180   3.917  16.710  4.2805  0.2717 -0.0546
 2690SOL    HW219533   2.126   3.788  16.645 -1.3431  2.0636  0.1985
 2691SOL     OW19534   1.647   4.589   8.430 -0.1622 -0.6720 -0.1248
 2691SOL    HW119535   1.632   4.514   8.488 -0.9214 -1.1254 -0.8999
 2691SOL    HW219536   1.586   4.590   8.356 -1.7917  0.5470  1.2417
 2692SOL     OW19537   2.237   2.019   2.965 -0.4097 -0.1386 -0.2812
 2692SOL    HW119538   2.255   2.104   2.925  1.5751 -1.3100 -1.8672
 2692SOL    HW219539   2.170   2.057   3.022  0.4368  1.7009 -0.5358
 2693SOL     OW19540   0.568   3.657   6.228  0.0747 -0.5151 -0.4111
 2693SOL    HW119541   0.586   3.706   6.308 -1.7076  0.9305 -0.8814
 2693SOL    HW219542   0.483   3.693   6.201 -0.2841  0.3549  1.9284
 2694SOL     OW19543   1.746   3.172  17.306 -0.4887 -0.0783  0.4372
 2694SOL    HW119544   1.680   3.238  17.284 -0.9219  0.1986  2.5652
 2694SOL    HW219545   1.731   3.116  17.230 -0.6442  0.1630  0.2933
 2695SOL     OW19546   2.909   2.948  12.430 -0.5558 -0.4692 -0.0121
 2695SOL    HW119547   2.898   2.894  12.508  0.6980  0.8601  1.0975
 2695SOL    HW219548   2.839   3.013  12.440  0.4873  0.5981  0.4371
 2696SOL     OW19549   1.408   0.535  16.098 -0.1454  0.1664 -1.2086
 2696SOL    HW119550   1.361   0.518  16.017 -1.1838 -1.9593 -0.1681
 2696SOL    HW219551   1.371   0.619  16.126  0.1345 -0.4447  0.9946
 2697SOL     OW19552   2.407   3.472  16.928  0.9780 -0.3186 -0.4593
 2697SOL    HW119553   2.350   3.547  16.944  0.7041 -0.3730 -1.1940
 2697SOL    HW219554   2.414   3.476  16.832 -0.3233 -0.1943 -0.5394
 2698SOL     OW19555   3.045   3.489  12.543  0.1528  0.6330 -0.4109
 2698SOL    HW119556   3.021   3.533  12.625  0.7305 -3.1049  1.7715
 2698SOL    HW219557   3.132   3.526  12.528  0.5942  0.6712  2.1041
 2699SOL     OW19558   0.963   1.488   0.532  0.2124  0.0844 -0.2578
 2699SOL    HW119559   0.894   1.537   0.576  0.2616 -0.5839  0.5588
 2699SOL    HW219560   0.913   1.459   0.455 -0.1745  1.9629 -0.7053
 2700SOL     OW19561   2.080   3.364   8.885  0.6023 -0.5164  0.6022
 2700SOL    HW119562   2.006   3.364   8.946 -0.8509 -2.3836 -1.1468
 2700SOL    HW219563   2.113   3.276   8.900  0.3070 -0.6881  0.2461
 2701SOL     OW19564   2.214   3.362   3.820 -0.6694 -0.7106 -0.9408
 2701SOL    HW119565   2.152   3.370   3.747 -0.5866 -0.5698 -0.9960
 2701SOL    HW219566   2.292   3.330   3.777 -1.8097  0.5268 -3.9860
 2702SOL     OW19567   1.718   1.281   9.800  0.7502  0.3356 -0.0214
 2702SOL    HW119568   1.689   1.370   9.780  0.8463  1.0544  3.1298
 2702SOL    HW219569   1.673   1.271   9.883  1.0931  1.1015  0.2515
 2703SOL     OW19570   1.271   1.254   1.189 -0.1524  0.3198  0.5756
 2703SOL    HW119571   1.286   1.164   1.219  1.4294  0.3117 -0.2831
 2703SOL    HW219572   1.233   1.232   1.104 -0.2431  1.1905  0.3936
 2704SOL     OW19573   3.839   1.143  15.167  0.4442  0.3899 -0.5008
 2704SOL    HW119574   3.839   1.093  15.085  0.4565 -1.5605  0.7033
 2704SOL    HW219575   3.749   1.140  15.197  0.7852 -3.7161  0.1481
 2705SOL     OW19576   0.151   3.583   7.019  0.1100  0.1719 -0.1548
 2705SOL    HW119577   0.081   3.553   6.960  0.8229 -4.0593  1.1893
 2705SOL    HW219578   0.182   3.657   6.966  2.4143 -2.1927 -2.0543
 2706SOL     OW19579   0.336   3.560   3.371 -0.6758 -0.3072 -0.1082
 2706SOL    HW119580   0.377   3.552   3.285  4.6177 -0.9667  2.4737
 2706SOL    HW219581   0.271   3.490   3.374  1.4532 -2.1897  2.0435
 2707SOL     OW19582   3.569   2.819   0.382  0.4387 -0.6312 -0.3255
 2707SOL    HW119583   3.663   2.837   0.378  0.4255 -1.0997 -2.4810
 2707SOL    HW219584   3.543   2.863   0.463 -1.3789 -0.4788 -0.9898
 2708SOL     OW19585   4.099   2.026   3.570 -0.3554 -0.3043  0.1736
 2708SOL    HW119586   4.136   2.067   3.648 -0.1848 -0.7310  0.3199
 2708SOL    HW219587   4.025   2.085   3.558 -0.1801 -0.5737 -2.1620
 2709SOL     OW19588   0.561   0.733   1.096  0.2274  0.3922 -0.4775
 2709SOL    HW119589   0.563   0.639   1.079  0.5699  0.7744 -2.6140
 2709SOL    HW219590   0.654   0.754   1.100 -0.0047  0.9308  1.7478
 2710SOL     OW19591   4.553   0.746   6.234 -1.0621  0.8857  0.1932
 2710SOL    HW119592   4.565   0.778   6.144 -0.6305 -2.6597 -1.0272
 2710SOL    HW219593   4.637   0.701   6.243 -0.6459  1.8760  1.1961
 2711SOL     OW19594   2.210   2.429   4.453  0.0622 -0.3161 -0.1272
 2711SOL    HW119595   2.171   2.379   4.381  0.9127 -0.0926 -0.7488
 2711SOL    HW219596   2.265   2.497   4.413 -0.7271  0.4665  0.1303
 2712SOL     OW19597   3.487   2.818   6.014 -0.1282 -0.2616  0.5012
 2712SOL    HW119598   3.437   2.748   5.973 -0.8879  0.1551  0.7146
 2712SOL    HW219599   3.423   2.864   6.069 -0.0035  0.2919  0.1920
 2713SOL     OW19600   4.086   2.778   2.960  0.0383 -0.6761 -0.5372
 2713SOL    HW119601   4.071   2.855   3.015 -0.0623  1.2787 -3.3199
 2713SOL    HW219602   4.131   2.721   3.022 -1.1815 -2.2384 -1.0746
 2714SOL     OW19603   3.690   3.014  17.083 -0.1199  0.4207  0.1140
 2714SOL    HW119604   3.627   3.067  17.131 -2.1328 -1.0013 -0.9922
 2714SOL    HW219605   3.635   2.956  17.031  0.9824  1.6251 -2.4030
 2715SOL     OW19606   0.768   3.683   3.405 -0.0961  0.0661  0.0970
 2715SOL    HW119607   0.786   3.770   3.440  0.6911 -0.2713  0.5375
 2715SOL    HW219608   0.854   3.641   3.414 -0.4729 -0.7040  0.1198
 2716SOL     OW19609   0.845   3.346   3.150 -0.4949 -0.8822 -0.2548
 2716SOL    HW119610   0.888   3.420   3.107  0.1993 -1.4249 -0.4857
 2716SOL    HW219611   0.779   3.388   3.205  0.4090  1.7544 -1.1836
 2717SOL     OW19612   3.326   4.466   7.703  0.3979  0.0709 -0.0590
 2717SOL    HW119613   3.322   4.560   7.721 -2.4477 -0.5420  2.6411
 2717SOL    HW219614   3.371   4.455   7.619 -0.1479  0.6423 -0.4186
 2718SOL     OW19615   0.829   2.493  11.205 -0.0257 -0.3208 -0.2720
 2718SOL    HW119616   0.761   2.430  11.180 -1.0992  1.0587 -0.8014
 2718SOL    HW219617   0.902   2.435  11.225  0.8972  1.4429  1.5223
 2719SOL     OW19618   4.545   3.748   6.342 -0.4391  0.1509 -0.1706
 2719SOL    HW119619   4.540   3.843   6.340  2.0837  0.2868  0.0861
 2719SOL    HW219620   4.484   3.726   6.271 -1.5916  0.1838  0.8251
 2720SOL     OW19621   0.350   4.589  10.730 -0.0857 -0.0804 -0.3919
 2720SOL    HW119622   0.352   4.518  10.794 -1.8898  1.5305  1.4246
 2720SOL    HW219623   0.359   4.548  10.644 -3.2677 -1.0072 -0.2885
 2721SOL     OW19624   1.535   4.329   0.336  0.6014 -0.1467  0.4854
 2721SOL    HW119625   1.563   4.296   0.422 -0.4100 -0.3168  0.7448
 2721SOL    HW219626   1.615   4.345   0.287 -1.5772  2.6475 -2.1458
 2722SOL     OW19627   0.698   3.763  12.719 -0.2247  0.1781  0.7464
 2722SOL    HW119628   0.743   3.751  12.636 -0.1480  0.8804  0.6935
 2722SOL    HW219629   0.607   3.782  12.694 -0.0604  2.0954  1.6408
 2723SOL     OW19630   1.593   1.386   5.698  0.3406  0.6444 -0.6486
 2723SOL    HW119631   1.501   1.359   5.703  0.6319 -0.1226  0.6159
 2723SOL    HW219632   1.619   1.399   5.789  0.0850  1.9475 -0.7676
 2724SOL     OW19633   1.846   2.463   7.418  0.0244 -0.5074 -0.1126
 2724SOL    HW119634   1.828   2.555   7.399  1.3783 -0.4474 -1.1046
 2724SOL    HW219635   1.795   2.439   7.495  0.7919  0.3042  0.6481
 2725SOL     OW19636   0.522   1.505  17.124  0.1229  0.5955  1.0045
 2725SOL    HW119637   0.450   1.552  17.166 -0.0074 -1.1153  2.6785
 2725SOL    HW219638   0.507   1.520  17.031  1.3651 -0.9757  0.5553
 2726SOL     OW19639   3.589   1.809  11.864 -0.1453 -0.1513  0.0251
 2726SOL    HW119640   3.624   1.883  11.914  0.5801 -1.3044  1.2311
 2726SOL    HW219641   3.630   1.730  11.899  1.8509  0.3883 -1.0710
 2727SOL     OW19642   0.950   3.997   9.163  0.5412  0.3845 -0.1117
 2727SOL    HW119643   0.865   3.955   9.174  0.9282 -0.1306  0.9153
 2727SOL    HW219644   0.993   3.969   9.243 -0.1836  1.8153  0.7640
 2728SOL     OW19645   3.748   0.370   6.647 -0.2643 -0.0862 -0.3159
 2728SOL    HW119646   3.839   0.353   6.623 -0.3738 -1.5903  0.3063
 2728SOL    HW219647   3.756   0.389   6.740 -2.3751 -2.0261  0.2768
 2729SOL     OW19648   1.368   0.643  14.762 -0.2566 -0.0592 -0.0251
 2729SOL    HW119649   1.420   0.591  14.823  1.2173 -0.5395 -1.6941
 2729SOL    HW219650   1.361   0.724  14.812  0.1688 -0.2931  0.4092
 2730SOL     OW19651   1.220   0.961   7.910 -0.1819  0.1420 -0.1918
 2730SOL    HW119652   1.259   0.874   7.901 -0.1532  0.2904 -1.5236
 2730SOL    HW219653   1.188   0.970   7.999  0.1996 -0.2662 -0.0183
 2731SOL     OW19654   1.250   0.696  12.152 -0.3077 -0.2053 -0.2230
 2731SOL    HW119655   1.272   0.783  12.183  0.9993 -0.3204 -0.8064
 2731SOL    HW219656   1.331   0.644  12.154 -0.5073 -0.4280  1.3842
 2732SOL     OW19657   4.643   2.030   7.011 -0.5744  0.2175  0.1109
 2732SOL    HW119658   4.637   1.975   7.088  2.3510  0.4395  0.4857
 2732SOL    HW219659   4.622   1.976   6.934 -2.1898  2.1961 -0.8612
 2733SOL     OW19660   2.561   3.602  16.245 -0.5715  0.4203 -0.0892
 2733SOL    HW119661   2.656   3.605  16.231 -0.3678  1.2405  1.4284
 2733SOL    HW219662   2.540   3.671  16.182  1.1511 -1.0339 -2.2942
 2734SOL     OW19663   3.343   3.548   0.483 -0.4980  0.1093  0.3642
 2734SOL    HW119664   3.411   3.574   0.421 -1.3703  2.5247  0.4274
 2734SOL    HW219665   3.299   3.486   0.425 -1.4348 -0.1822  1.3950
 2735SOL     OW19666   4.243   1.900   1.329 -0.3500  0.3189 -0.0813
 2735SOL    HW119667   4.249   1.804   1.327 -1.7038  0.2698 -2.0963
 2735SOL    HW219668   4.174   1.911   1.264 -0.0164 -0.0544 -0.4971
 2736SOL     OW19669   1.576   1.985   4.648 -0.1577 -0.1672 -0.0851
 2736SOL    HW119670   1.550   1.979   4.556 -0.3226  2.2387 -0.1727
 2736SOL    HW219671   1.499   2.027   4.686  0.5258 -1.0777  2.3245
 2737SOL     OW19672   2.680   1.253   0.396 -0.2773  0.4205  0.0218
 2737SOL    HW119673   2.744   1.292   0.455 -0.3686  0.9560 -0.2276
 2737SOL    HW219674   2.665   1.168   0.438 -0.9636  0.7689  0.4819
 2738SOL     OW19675   1.375   1.960   1.922 -0.6128 -0.6680  0.0560
 2738SOL    HW119676   1.346   2.049   1.940 -0.7294 -0.9753  1.3731
 2738SOL    HW219677   1.379   1.921   2.009 -3.8117  0.5596  0.7712
 2739SOL     OW19678   2.415   2.117  12.954  0.4206  0.1765 -0.0765
 2739SOL    HW119679   2.501   2.124  12.996  0.1550 -0.0294  0.5040
 2739SOL    HW219680   2.358   2.128  13.030  0.6533  0.6598  0.0295
 2740SOL     OW19681   2.016   3.727   9.128  0.6342 -0.1538 -0.4007
 2740SOL    HW119682   1.934   3.693   9.165 -0.3443  0.3122 -2.0960
 2740SOL    HW219683   2.085   3.703   9.189 -1.4987 -1.4357  1.5256
 2741SOL     OW19684   4.143   4.044   0.711 -0.1950  0.9133  0.1706
 2741SOL    HW119685   4.233   4.065   0.687 -0.2587 -0.7162 -1.5010
 2741SOL    HW219686   4.097   4.113   0.662 -0.6260  0.3587 -0.2195
 2742SOL     OW19687   1.356   2.120   3.042 -0.6756  0.4503  0.5544
 2742SOL    HW119688   1.413   2.044   3.032  0.4498  1.2128  1.1364
 2742SOL    HW219689   1.284   2.079   3.090  0.4267  0.0706  1.8656
 2743SOL     OW19690   4.692   2.368   9.128  0.0899 -0.2333  0.3917
 2743SOL    HW119691   4.708   2.292   9.073 -1.5235  0.0566 -0.4626
 2743SOL    HW219692   4.683   2.322   9.212  1.6571 -3.5330 -1.2822
 2744SOL     OW19693   4.168   1.770   8.820 -0.4992  0.0427  0.2777
 2744SOL    HW119694   4.155   1.676   8.835  2.8932 -0.2247  1.5576
 2744SOL    HW219695   4.095   1.792   8.762 -0.5750 -1.6400 -0.2587
 2745SOL     OW19696   1.873   1.890   4.262 -0.3077  0.1526  0.0703
 2745SOL    HW119697   1.876   1.889   4.358 -0.5328  0.2835  0.0783
 2745SOL    HW219698   1.962   1.863   4.238  0.1235  1.3335  0.3397
 2746SOL     OW19699   1.448   3.849   1.593 -0.4724  0.2340 -0.0358
 2746SOL    HW119700   1.387   3.907   1.549 -0.2821  0.4494 -0.0158
 2746SOL    HW219701   1.485   3.797   1.522 -0.2556  0.3723 -0.0259
 2747SOL     OW19702   4.297   3.154   7.028  0.2683 -0.7028  0.1226
 2747SOL    HW119703   4.281   3.080   7.087  0.6741 -0.6348  0.3146
 2747SOL    HW219704   4.271   3.125   6.941  0.1415  0.7261 -0.3140
 2748SOL     OW19705   1.758   3.214   9.674 -0.0525  0.4222 -0.9210
 2748SOL    HW119706   1.785   3.174   9.592 -0.8366 -0.9289 -0.5232
 2748SOL    HW219707   1.746   3.142   9.736  2.2693  1.5127  0.7791
 2749SOL     OW19708   0.681   1.854   3.143 -0.2528  0.2781  0.5045
 2749SOL    HW119709   0.610   1.808   3.187 -0.6437 -1.1138 -1.5952
 2749SOL    HW219710   0.668   1.814   3.057 -0.8236  0.6934  0.3986
 2750SOL     OW19711   0.215   4.622   8.819 -0.0364  0.2571 -0.1067
 2750SOL    HW119712   0.293   4.572   8.795  1.7331  2.8829  0.1474
 2750SOL    HW219713   0.234   4.652   8.908  1.0630  0.7405 -0.5038
 2751SOL     OW19714   2.342   3.504   5.525  0.0130 -0.1642  0.4830
 2751SOL    HW119715   2.436   3.519   5.538 -0.5042  1.7792  2.1082
 2751SOL    HW219716   2.336   3.546   5.439 -4.3589 -2.1354 -0.1486
 2752SOL     OW19717   2.872   1.150   6.749 -0.3773 -0.4353 -0.0925
 2752SOL    HW119718   2.916   1.227   6.715 -1.5183  1.0959  1.9280
 2752SOL    HW219719   2.937   1.083   6.727 -0.4323 -0.4024 -0.3488
 2753SOL     OW19720   0.590   2.999   6.244  0.0665 -0.7018 -0.6122
 2753SOL    HW119721   0.548   2.915   6.228 -0.1848 -0.9836  1.5178
 2753SOL    HW219722   0.630   2.984   6.330  0.2506 -1.2550 -0.7977
 2754SOL     OW19723   4.416   2.672  14.695  0.0674 -0.2655 -0.4028
 2754SOL    HW119724   4.505   2.636  14.693  0.2736  0.2515 -0.7543
 2754SOL    HW219725   4.404   2.691  14.788 -0.3880  2.2378 -0.9871
 2755SOL     OW19726   2.376   3.300   5.242 -0.3758  0.0684 -0.0438
 2755SOL    HW119727   2.446   3.312   5.178 -0.6847  2.0394  0.0031
 2755SOL    HW219728   2.422   3.235   5.296  1.1130  1.1627 -0.0155
 2756SOL     OW19729   4.334   2.599   3.286 -0.1010  0.0643  0.1221
 2756SOL    HW119730   4.387   2.537   3.336  0.0573  0.3211  0.2745
 2756SOL    HW219731   4.303   2.556   3.206 -0.7230  0.8374 -0.0477
 2757SOL     OW19732   4.404   2.335   5.588 -0.0928  0.3901  0.1498
 2757SOL    HW119733   4.398   2.430   5.580  0.9134  0.5718  1.4287
 2757SOL    HW219734   4.324   2.318   5.638  0.8614  1.4868  2.0700
 2758SOL     OW19735   0.744   0.141   5.070 -0.5784 -0.1755  0.0139
 2758SOL    HW119736   0.762   0.116   5.160  0.0459  1.0993  0.2317
 2758SOL    HW219737   0.667   0.087   5.051  0.4010 -1.4973 -0.2578
 2759SOL     OW19738   1.584   1.238   1.118  0.0808  0.0759  0.0085
 2759SOL    HW119739   1.582   1.172   1.049  1.5411 -0.5669  0.5849
 2759SOL    HW219740   1.557   1.186   1.193 -0.1048  2.2708  1.4749
 2760SOL     OW19741   3.839   3.738   0.889 -0.3425 -0.1374  0.1850
 2760SOL    HW119742   3.790   3.709   0.966  0.6634 -3.3658 -0.4240
 2760SOL    HW219743   3.880   3.816   0.928  2.1440 -0.4066 -1.8772
 2761SOL     OW19744   1.806   3.191   7.074  0.2166  0.1011  0.0432
 2761SOL    HW119745   1.755   3.256   7.123  0.5520 -0.5972  1.3126
 2761SOL    HW219746   1.744   3.165   7.006  0.6235 -1.7292  0.3751
 2762SOL     OW19747   3.261   3.495   5.137 -0.1935 -0.4704  0.1527
 2762SOL    HW119748   3.265   3.400   5.129 -1.1291 -0.6082  1.2429
 2762SOL    HW219749   3.178   3.506   5.183  1.1633  0.2435  2.4368
 2763SOL     OW19750   3.041   1.022  16.354  0.1390  0.2271  0.0706
 2763SOL    HW119751   3.036   1.108  16.311 -0.0585  0.4348  0.5060
 2763SOL    HW219752   2.980   1.030  16.427  0.4761 -2.0676  0.5762
 2764SOL     OW19753   4.154   3.011   3.487 -0.0949 -0.1514 -0.3406
 2764SOL    HW119754   4.066   3.040   3.510 -0.6715 -2.4624  0.3637
 2764SOL    HW219755   4.138   2.953   3.412 -3.6303 -0.4265  0.6200
 2765SOL     OW19756   1.698   1.686   1.054  0.2286 -0.8285  0.3008
 2765SOL    HW119757   1.616   1.664   1.099  0.2312  0.4535  0.9054
 2765SOL    HW219758   1.749   1.606   1.068 -0.5260 -1.3426  0.1283
 2766SOL     OW19759   1.664   4.111  10.284 -0.1196  0.7752 -0.1522
 2766SOL    HW119760   1.627   4.170  10.218 -0.9739 -1.3322 -1.5765
 2766SOL    HW219761   1.732   4.069  10.231  0.1389 -0.1232  0.8949
 2767SOL     OW19762   1.427   1.802   9.382  0.1933  0.1529 -0.2403
 2767SOL    HW119763   1.490   1.745   9.338  0.2144  0.3377 -0.4477
 2767SOL    HW219764   1.350   1.752   9.355  0.4808 -0.7760  0.6689
 2768SOL     OW19765   4.018   2.653  14.218  0.1969  0.0867 -0.3145
 2768SOL    HW119766   3.941   2.696  14.254 -0.5423 -3.2143  2.0087
 2768SOL    HW219767   4.066   2.732  14.194 -0.2185  0.2526 -0.6145
 2769SOL     OW19768   2.368   2.424  17.329 -0.1329 -0.0822  0.0161
 2769SOL    HW119769   2.375   2.391  17.418 -1.6900  0.5954  0.3878
 2769SOL    HW219770   2.300   2.365  17.296 -0.0916 -1.3758  2.2751
 2770SOL     OW19771   1.441   4.680  15.347 -0.2214 -0.4238 -0.2503
 2770SOL    HW119772   1.460   0.016  15.420  0.1638 -0.7394 -0.1005
 2770SOL    HW219773   1.471   4.602  15.393  0.4749 -1.8249 -3.0882
 2771SOL     OW19774   4.586   2.243   7.615  0.1499 -0.2041  0.0987
 2771SOL    HW119775   4.530   2.315   7.586 -1.6393 -0.7958  2.0868
 2771SOL    HW219776   4.561   2.249   7.707  1.5948 -1.1624  0.5522
 2772SOL     OW19777   3.857   2.807   4.053  0.4570 -0.0298  0.2705
 2772SOL    HW119778   3.822   2.866   3.987 -0.2178  0.6440  1.2327
 2772SOL    HW219779   3.950   2.830   4.051 -0.1632  2.6265  1.3419
 2773SOL     OW19780   1.101   2.715   3.561 -0.1112 -0.3611 -0.0871
 2773SOL    HW119781   1.093   2.753   3.473  1.3489  1.2216  0.4641
 2773SOL    HW219782   1.149   2.636   3.535  0.3226 -1.3940  3.8799
 2774SOL     OW19783   4.332   1.384   1.160  0.2983 -0.3968 -0.2839
 2774SOL    HW119784   4.270   1.319   1.127  1.5350 -2.1596  0.8581
 2774SOL    HW219785   4.335   1.448   1.088  0.4788  1.2131  1.1538
 2775SOL     OW19786   4.706   3.461  12.200 -0.4154 -0.4523  0.6617
 2775SOL    HW119787   4.702   3.556  12.209  1.8040 -0.0893 -2.3718
 2775SOL    HW219788   0.077   3.439  12.198 -0.5246 -0.7544 -0.6799
 2776SOL     OW19789   2.695   4.012   9.518 -0.6595 -0.5438  0.0351
 2776SOL    HW119790   2.701   4.069   9.442  1.7613  0.8952  1.2732
 2776SOL    HW219791   2.663   3.929   9.483 -0.4990  0.5551 -2.7032
 2777SOL     OW19792   0.048   0.871  11.792 -0.1085  0.0624 -0.1023
 2777SOL    HW119793   0.104   0.915  11.856 -1.1038  2.3580 -0.7955
 2777SOL    HW219794   0.036   0.790  11.842  2.1764  0.2100  0.6713
 2778SOL     OW19795   1.628   0.047   5.882  0.5674 -0.6740 -0.4127
 2778SOL    HW119796   1.590   0.068   5.797  0.0763  1.8247  0.4277
 2778SOL    HW219797   1.689   0.120   5.887  0.4834 -0.5578 -1.1148
 2779SOL     OW19798   0.536   1.195   5.052 -0.3771  0.0382  0.0551
 2779SOL    HW119799   0.559   1.138   5.125 -0.1286 -0.0641 -0.1002
 2779SOL    HW219800   0.467   1.250   5.087 -0.6527 -0.3203  0.0710
 2780SOL     OW19801   3.253   1.713  14.055 -1.0252  0.0017 -0.0507
 2780SOL    HW119802   3.212   1.708  13.968 -2.6337  0.3856  0.6958
 2780SOL    HW219803   3.342   1.738  14.031 -0.8686 -0.0061  0.5453
 2781SOL     OW19804   3.406   1.684  14.313 -0.0708 -0.2131  0.8572
 2781SOL    HW119805   3.342   1.702  14.244 -0.8290 -0.5506  1.4757
 2781SOL    HW219806   3.429   1.593  14.293 -1.1917 -0.0108 -1.3363
 2782SOL     OW19807   3.344   1.414   0.580 -0.2503  0.5533  0.7609
 2782SOL    HW119808   3.284   1.433   0.507 -0.6084 -1.8082  0.4369
 2782SOL    HW219809   3.304   1.339   0.625 -2.6112  1.0292 -0.5084
 2783SOL     OW19810   3.793   1.287   5.604  0.1741 -0.3903 -0.0025
 2783SOL    HW119811   3.847   1.275   5.682  1.1304 -0.6048 -0.6898
 2783SOL    HW219812   3.706   1.247   5.614  0.0720 -1.0117 -3.0622
 2784SOL     OW19813   2.076   0.791  13.370 -0.2379 -0.1582  0.4170
 2784SOL    HW119814   2.088   0.882  13.396  0.1248  0.5089 -2.0283
 2784SOL    HW219815   2.167   0.766  13.351 -0.2915  0.7270 -1.0144
 2785SOL     OW19816   1.599   3.607   5.621 -0.4656  0.2606  0.3280
 2785SOL    HW119817   1.510   3.641   5.621 -0.1706  1.0310 -1.7098
 2785SOL    HW219818   1.649   3.686   5.600  2.4791 -1.0316  2.4268
 2786SOL     OW19819   0.142   2.559   6.930 -0.1624  0.0168 -0.0291
 2786SOL    HW119820   0.173   2.469   6.937 -1.9714 -0.5535  0.4899
 2786SOL    HW219821   0.071   2.553   6.866 -0.9406  0.0233  0.8444
 2787SOL     OW19822   2.921   4.353   3.840 -0.2564 -0.0175 -0.0445
 2787SOL    HW119823   2.972   4.313   3.910 -0.2961  0.2693  0.1503
 2787SOL    HW219824   2.946   4.445   3.837  0.3366 -0.1991 -0.5336
 2788SOL     OW19825   1.850   2.126   5.340 -0.0861 -0.3532 -0.3468
 2788SOL    HW119826   1.816   2.041   5.313 -0.8109  0.3175 -1.5377
 2788SOL    HW219827   1.787   2.143   5.410  0.2467 -0.2104 -0.0833
 2789SOL     OW19828   3.430   3.369   1.993  0.0430  0.2971 -0.0102
 2789SOL    HW119829   3.512   3.381   2.040  1.1370 -2.2183 -1.3104
 2789SOL    HW219830   3.400   3.460   1.990 -1.7721 -0.2664  0.7425
 2790SOL     OW19831   3.053   2.502   1.287  0.3878 -0.4072 -0.3893
 2790SOL    HW119832   3.035   2.411   1.267  0.9936 -0.2377 -1.6846
 2790SOL    HW219833   2.969   2.515   1.331  1.8907  1.5612  1.8949
 2791SOL     OW19834   3.235   2.247  16.572  0.3072 -0.2892  0.1148
 2791SOL    HW119835   3.227   2.235  16.478  1.9956 -0.9507  0.0552
 2791SOL    HW219836   3.143   2.262  16.592  0.4356  0.3929  0.1940
 2792SOL     OW19837   0.202   1.529   5.619 -0.1440 -0.3777  0.1035
 2792SOL    HW119838   0.137   1.600   5.622 -2.0445 -2.0705 -1.1178
 2792SOL    HW219839   0.151   1.448   5.625 -0.0641 -0.3905  0.6116
 2793SOL     OW19840   1.523   4.663   1.354  0.3096  0.3463 -0.5046
 2793SOL    HW119841   1.551   4.609   1.280 -0.4136  1.7840 -1.8298
 2793SOL    HW219842   1.577   0.017   1.338  0.6494  0.4417  1.0889
 2794SOL     OW19843   3.847   1.444   3.247  0.1695 -0.8817  0.2791
 2794SOL    HW119844   3.775   1.431   3.185  1.9144 -0.1195 -1.9338
 2794SOL    HW219845   3.807   1.396   3.319  0.4987 -0.9683  0.4056
 2795SOL     OW19846   3.721   1.109   2.406  0.1992 -0.1749  0.0188
 2795SOL    HW119847   3.715   1.118   2.311  0.4350 -2.7158 -0.2505
 2795SOL    HW219848   3.704   1.015   2.417  1.1495 -0.5863 -2.0528
 2796SOL     OW19849   1.105   2.480   2.081 -0.1247  0.1851 -0.3202
 2796SOL    HW119850   1.149   2.395   2.074  0.4305  0.4641 -0.2952
 2796SOL    HW219851   1.127   2.507   2.170  0.5869  0.0139 -0.4428
 2797SOL     OW19852   4.032   4.718   4.525 -0.0105 -0.2546 -0.6389
 2797SOL    HW119853   3.993   0.036   4.602  0.4044  0.5342 -0.8443
 2797SOL    HW219854   4.020   0.067   4.463  0.1324  0.1346 -0.2150
 2798SOL     OW19855   1.112   2.011   2.479 -0.0417 -0.0166  0.0286
 2798SOL    HW119856   1.028   1.989   2.519 -1.3424  0.9072 -2.1622
 2798SOL    HW219857   1.166   2.008   2.558  1.4148 -0.0015 -0.9652
 2799SOL     OW19858   4.192   3.010   0.084  0.5747 -0.2249 -0.2622
 2799SOL    HW119859   4.159   2.942   0.025 -0.7260 -1.2834  1.7086
 2799SOL    HW219860   4.252   3.057   0.026  1.1940  2.0083  2.1722
 2800SOL     OW19861   0.917   0.418   5.990 -0.1410  0.6835  0.1945
 2800SOL    HW119862   0.881   0.365   6.062 -1.4234  0.7685 -0.3768
 2800SOL    HW219863   0.936   0.348   5.928 -2.5378  0.4372 -0.2567
 2801SOL     OW19864   3.265   2.860   3.537  0.2749 -0.4781 -0.5879
 2801SOL    HW119865   3.176   2.879   3.567  1.3332  0.7482  1.7710
 2801SOL    HW219866   3.301   2.943   3.567 -3.0306  1.8035 -2.9007
 2802SOL     OW19867   3.467   0.129   4.358  0.3578  0.4407  0.0583
 2802SOL    HW119868   3.454   0.110   4.265 -2.4524  0.5411  0.4145
 2802SOL    HW219869   3.438   0.219   4.370 -1.8747 -0.1444 -0.9032
 2803SOL     OW19870   4.158   0.402   8.996  0.2542 -0.0313 -0.2270
 2803SOL    HW119871   4.212   0.471   8.958  1.5966  0.6659  2.9373
 2803SOL    HW219872   4.149   0.430   9.087 -1.4037 -1.4904  0.0793
 2804SOL     OW19873   0.294   0.343   2.902 -0.1233  0.3580 -0.4024
 2804SOL    HW119874   0.221   0.373   2.956 -0.7591  0.5727 -1.3900
 2804SOL    HW219875   0.296   0.253   2.936 -0.8948  0.1557 -0.9035
 2805SOL     OW19876   2.401   3.776  14.270 -0.1359 -0.2768  0.0482
 2805SOL    HW119877   2.336   3.726  14.222 -0.5487  1.3358 -1.0681
 2805SOL    HW219878   2.469   3.801  14.206  1.0039  1.3651  1.8784
 2806SOL     OW19879   2.866   1.469  16.523  0.6728 -0.3740 -0.0865
 2806SOL    HW119880   2.827   1.441  16.606 -0.0864  1.8434  0.2927
 2806SOL    HW219881   2.816   1.415  16.463  1.6167 -0.9215 -0.3889
 2807SOL     OW19882   2.165   1.743   7.286  0.0140 -0.4944 -0.8081
 2807SOL    HW119883   2.134   1.652   7.282 -1.0575 -0.1679  0.2243
 2807SOL    HW219884   2.079   1.776   7.262 -0.4304 -0.4828  0.8070
 2808SOL     OW19885   0.982   4.667  14.826  0.5082  0.1231  0.5266
 2808SOL    HW119886   1.042   4.595  14.842 -2.1863 -2.7221 -2.1802
 2808SOL    HW219887   0.907   4.634  14.876  1.1453 -1.4841  0.4254
 2809SOL     OW19888   2.649   2.626   2.791 -0.8272 -0.7362 -0.2523
 2809SOL    HW119889   2.566   2.656   2.755 -1.5006 -1.5283  0.6389
 2809SOL    HW219890   2.634   2.631   2.886  0.4392 -1.7663  0.0082
 2810SOL     OW19891   1.768   2.691   3.405 -0.4462  0.0807  0.5432
 2810SOL    HW119892   1.736   2.688   3.314  0.2441 -0.9360  0.3344
 2810SOL    HW219893   1.860   2.711   3.393 -0.3307 -1.4941 -1.2556
 2811SOL     OW19894   3.478   2.389   3.046  0.0001  0.0426  0.7761
 2811SOL    HW119895   3.561   2.405   3.002 -0.2176 -1.4402 -0.1643
 2811SOL    HW219896   3.489   2.443   3.125  0.6598  0.2979  0.5139
 2812SOL     OW19897   0.335   4.467   6.264  0.1231 -0.3913  0.5832
 2812SOL    HW119898   0.385   4.539   6.226  0.6245 -1.0370  0.0292
 2812SOL    HW219899   0.400   4.399   6.245  0.2097 -0.7278  2.0762
 2813SOL     OW19900   2.595   0.731   3.594 -0.0844  0.1678 -0.4650
 2813SOL    HW119901   2.645   0.674   3.652 -0.8759  0.2732  0.3216
 2813SOL    HW219902   2.526   0.753   3.657  0.8412 -0.7711  0.8874
 2814SOL     OW19903   2.348   4.003   4.404  0.3133 -0.1315 -0.7014
 2814SOL    HW119904   2.352   3.960   4.318 -0.5305  0.1213 -0.8668
 2814SOL    HW219905   2.441   4.007   4.424  0.3658 -0.7111 -0.8289
 2815SOL     OW19906   3.510   3.873   6.372 -0.8117  0.9139 -0.1774
 2815SOL    HW119907   3.461   3.905   6.448 -1.2095  0.0747 -0.0789
 2815SOL    HW219908   3.569   3.813   6.417 -1.7114  0.7292  0.7553
 2816SOL     OW19909   4.710   0.600   5.874 -0.4341 -0.1331 -0.3788
 2816SOL    HW119910   4.671   0.687   5.879  2.0569  0.7998  2.5332
 2816SOL    HW219911   4.671   0.562   5.953  0.1221  1.4564  0.6659
 2817SOL     OW19912   2.445   0.657   9.551 -0.2304 -0.0886  0.3152
 2817SOL    HW119913   2.526   0.645   9.502 -0.1050 -0.1391  0.5354
 2817SOL    HW219914   2.419   0.565   9.557 -0.6693  0.0877  1.0790
 2818SOL     OW19915   3.698   1.300   3.421 -0.3332 -0.0218 -0.9567
 2818SOL    HW119916   3.627   1.309   3.485  0.9252  0.8971  0.3187
 2818SOL    HW219917   3.729   1.212   3.442  0.1384  1.1319  3.0948
 2819SOL     OW19918   0.889   1.650   9.047  0.5872 -0.3992 -0.1636
 2819SOL    HW119919   0.841   1.571   9.070  0.7022  0.3295  2.6091
 2819SOL    HW219920   0.950   1.658   9.121  0.1361  1.2822  0.0251
 2820SOL     OW19921   2.966   2.002   5.148  0.0174  0.3327 -0.0268
 2820SOL    HW119922   2.992   2.020   5.238 -2.5797  0.6673  0.6277
 2820SOL    HW219923   3.012   2.070   5.098  2.4755 -0.7202  0.7744
 2821SOL     OW19924   2.821   3.162  10.276 -0.2654  0.1183  0.2004
 2821SOL    HW119925   2.889   3.214  10.318 -1.9259  1.4006  1.2550
 2821SOL    HW219926   2.880   3.145  10.202 -0.5508 -1.3743  0.3235
 2822SOL     OW19927   4.528   2.507   2.733 -0.0550  0.4960 -0.0861
 2822SOL    HW119928   4.562   2.597   2.733 -2.9670  1.5992  2.6640
 2822SOL    HW219929   4.563   2.468   2.653 -0.1358  0.7451 -0.2452
 2823SOL     OW19930   2.697   3.049   1.412  0.3405 -0.0705  0.0640
 2823SOL    HW119931   2.667   3.060   1.502  3.3263  0.5089  1.0043
 2823SOL    HW219932   2.621   3.064   1.356  1.4110  2.4605 -0.7249
 2824SOL     OW19933   0.704   2.816  14.190  0.4267  0.6151  0.5729
 2824SOL    HW119934   0.706   2.869  14.111 -2.0221  0.1614  0.2141
 2824SOL    HW219935   0.765   2.743  14.177  0.7437  0.4169  3.1806
 2825SOL     OW19936   3.838   3.356   6.369  0.4081  0.5164 -0.1248
 2825SOL    HW119937   3.756   3.373   6.322 -0.6234 -0.1464  1.4443
 2825SOL    HW219938   3.847   3.262   6.357  0.7912  0.6075 -0.5784
 2826SOL     OW19939   4.261   3.479   8.301 -0.2699 -0.1027  0.1246
 2826SOL    HW119940   4.333   3.534   8.332  0.9214 -0.6333 -1.7458
 2826SOL    HW219941   4.185   3.535   8.317 -0.9477 -0.6064 -1.3519
 2827SOL     OW19942   4.059   4.516   6.752 -0.2925  0.0880  0.2920
 2827SOL    HW119943   4.083   4.598   6.709 -2.5683  1.7841  2.2706
 2827SOL    HW219944   3.999   4.476   6.689  0.9246 -3.4160  1.3774
 2828SOL     OW19945   0.343   3.306  10.490 -0.2362 -0.3563 -0.0896
 2828SOL    HW119946   0.308   3.384  10.533  0.5669  0.3356 -0.6897
 2828SOL    HW219947   0.398   3.335  10.418 -1.4605  0.2882 -0.7690
 2829SOL     OW19948   2.448   1.204  15.960  0.3489 -0.4745 -0.0363
 2829SOL    HW119949   2.405   1.135  15.911 -1.7831 -1.8375  3.7403
 2829SOL    HW219950   2.477   1.154  16.037  0.4863  0.4387  0.5048
 2830SOL     OW19951   0.581   3.312   0.108  0.0316  0.3781 -0.1956
 2830SOL    HW119952   0.596   3.300   0.015 -1.4835 -0.2922 -0.3562
 2830SOL    HW219953   0.671   3.341   0.121  1.0386 -2.4451 -0.9839
 2831SOL     OW19954   1.613   1.535   7.518 -0.4878  0.1903  0.4884
 2831SOL    HW119955   1.622   1.612   7.461 -1.4856 -0.3377 -0.3814
 2831SOL    HW219956   1.679   1.550   7.587 -0.3012  4.3494 -0.5573
 2832SOL     OW19957   0.956   0.603   7.203 -0.1825 -0.3795  0.0324
 2832SOL    HW119958   0.915   0.522   7.232  0.2977  0.3093  2.6196
 2832SOL    HW219959   0.954   0.661   7.279  2.8114  2.4193 -2.0209
 2833SOL     OW19960   0.733   1.728  16.089  0.0042  0.0137  0.3240
 2833SOL    HW119961   0.788   1.723  16.167  0.7473  0.0792 -0.1953
 2833SOL    HW219962   0.760   1.812  16.051  0.2295  0.0551  0.5777
 2834SOL     OW19963   0.198   3.375   7.175  0.0727  0.3836  0.5953
 2834SOL    HW119964   0.184   3.449   7.116  0.7875  0.0303 -0.0041
 2834SOL    HW219965   0.269   3.331   7.130  0.8562 -0.0405  2.2252
 2835SOL     OW19966   4.210   2.764   2.708 -0.3797 -0.2474  0.2601
 2835SOL    HW119967   4.199   2.790   2.800  0.7724  0.1179  0.2919
 2835SOL    HW219968   4.237   2.673   2.721  0.1635 -0.3046 -1.2721
 2836SOL     OW19969   3.069   3.339   6.999 -0.0133 -0.6746  1.0674
 2836SOL    HW119970   2.976   3.325   7.018 -0.0068 -1.2872  0.6526
 2836SOL    HW219971   3.084   3.258   6.949 -2.4617  0.4209 -1.4441
 2837SOL     OW19972   3.711   2.650   1.071  0.0128  0.3792 -0.0136
 2837SOL    HW119973   3.765   2.610   1.002 -0.6982 -2.9673  1.3793
 2837SOL    HW219974   3.626   2.634   1.030  0.9784 -1.0670 -1.4717
 2838SOL     OW19975   3.411   3.404   6.760  0.4960  0.2612 -0.0637
 2838SOL    HW119976   3.465   3.383   6.836 -1.4887 -1.2905  0.9163
 2838SOL    HW219977   3.429   3.498   6.757 -0.1755  0.4222  1.0089
 2839SOL     OW19978   1.123   0.184   1.632  0.3239  0.1547 -0.5310
 2839SOL    HW119979   1.054   0.219   1.576 -1.5901 -0.1428  1.6426
 2839SOL    HW219980   1.147   0.110   1.577  2.3534  0.7890 -0.4830
 2840SOL     OW19981   0.211   3.425   6.237 -0.2645 -0.3260  0.2066
 2840SOL    HW119982   0.297   3.437   6.277 -0.9637  1.6314  1.1190
 2840SOL    HW219983   0.161   3.449   6.315 -1.7509 -0.7665 -0.6060
 2841SOL     OW19984   2.809   3.570   3.386  0.0422 -0.2479  0.2681
 2841SOL    HW119985   2.751   3.646   3.386 -1.9396 -1.7307  0.1812
 2841SOL    HW219986   2.764   3.508   3.328 -0.0975 -0.9068  1.0863
 2842SOL     OW19987   1.031   2.405   3.707 -0.4384  0.0450 -0.0941
 2842SOL    HW119988   0.965   2.460   3.748 -1.4328 -1.4485  0.2995
 2842SOL    HW219989   0.987   2.321   3.700  0.2136 -0.3252  0.3145
 2843SOL     OW19990   4.023   1.063   7.014 -0.8174  0.1229  0.3887
 2843SOL    HW119991   3.950   1.013   6.979 -0.5547  0.4955 -0.6711
 2843SOL    HW219992   3.998   1.155   7.017  0.2924  0.4475 -0.7281
 2844SOL     OW19993   2.916   3.472   0.640 -0.2594  0.8337 -0.1326
 2844SOL    HW119994   2.889   3.499   0.728 -0.9395  0.5596 -0.2555
 2844SOL    HW219995   2.861   3.397   0.618 -0.6829  0.5751  1.7732
 2845SOL     OW19996   2.840   4.181   3.664 -0.3643  0.0732  0.4359
 2845SOL    HW119997   2.877   4.248   3.721 -0.8158 -0.2423  1.1036
 2845SOL    HW219998   2.853   4.104   3.720 -0.3049  0.0191  0.3463
 2846SOL     OW19999   1.899   1.906   2.210 -0.2152  0.2377 -0.4310
 2846SOL    HW120000   1.933   1.819   2.191  0.1845  0.2487  0.2352
 2846SOL    HW220001   1.848   1.887   2.288  1.0604  0.5282  0.4698
 2847SOL     OW20002   1.443   2.219   2.781  0.0581  0.0917 -0.0417
 2847SOL    HW120003   1.525   2.267   2.784 -0.1702  0.3693  1.6046
 2847SOL    HW220004   1.423   2.196   2.872  1.0963 -1.4922 -0.2144
 2848SOL     OW20005   1.298   1.909   8.812 -0.0039  0.3318 -0.1340
 2848SOL    HW120006   1.316   1.918   8.905  1.8916  0.5598 -0.5311
 2848SOL    HW220007   1.386   1.899   8.776 -0.9728  1.0495 -2.7009
 2849SOL     OW20008   1.566   1.541   9.010  0.0481  0.2822  0.5261
 2849SOL    HW120009   1.555   1.549   9.104  0.8793 -3.4530  0.9310
 2849SOL    HW220010   1.652   1.578   8.992 -0.4234  1.5721  0.9574
 2850SOL     OW20011   4.372   1.215   5.724 -0.3671 -0.1369  0.5866
 2850SOL    HW120012   4.323   1.214   5.642 -2.0073  0.8584  1.5634
 2850SOL    HW220013   4.348   1.301   5.760 -1.3514 -0.1783  0.0359
 2851SOL     OW20014   4.426   2.649   5.569 -1.0957 -0.2590 -0.3009
 2851SOL    HW120015   4.517   2.619   5.577 -0.9127  0.4815  0.3931
 2851SOL    HW220016   4.418   2.709   5.643 -0.1840  0.5025 -0.8173
 2852SOL     OW20017   0.472   4.608   6.477  0.3783 -0.0638 -0.1889
 2852SOL    HW120018   0.423   4.558   6.411  0.3713  0.8891 -0.8980
 2852SOL    HW220019   0.395   4.649   6.518  0.8258  0.0000  0.5975
 2853SOL     OW20020   0.736   1.339   6.780  0.2316  0.2104 -0.2592
 2853SOL    HW120021   0.683   1.279   6.728 -0.5023  1.7289 -1.2728
 2853SOL    HW220022   0.675   1.390   6.834 -0.2327  0.3229 -0.8937
 2854SOL     OW20023   1.810   0.403  13.917  0.0279 -0.4990 -0.1483
 2854SOL    HW120024   1.788   0.375  14.006 -3.4691  0.0777 -0.8486
 2854SOL    HW220025   1.752   0.349  13.864 -1.3590  0.7192  0.1496
 2855SOL     OW20026   4.000   3.647   5.502  0.0982 -0.3457  0.4378
 2855SOL    HW120027   4.085   3.678   5.470 -0.2004 -1.2328 -1.1899
 2855SOL    HW220028   3.944   3.652   5.425  0.6838 -2.3731 -0.1015
 2856SOL     OW20029   0.978   4.700   4.435 -0.1290  0.5560 -0.4977
 2856SOL    HW120030   0.962   0.047   4.370 -0.5961  2.2784  1.4392
 2856SOL    HW220031   0.885   4.692   4.458  0.4853  0.9076  2.0134
 2857SOL     OW20032   1.893   0.670  13.877  0.0157 -0.1039 -0.3314
 2857SOL    HW120033   1.851   0.585  13.871  0.7339 -0.7126  3.0816
 2857SOL    HW220034   1.911   0.675  13.783 -2.1439 -0.0391 -0.7356
 2858SOL     OW20035   2.161   3.108   8.863  0.2814 -0.1641 -0.4323
 2858SOL    HW120036   2.215   3.150   8.796  0.6546 -1.5559 -1.0135
 2858SOL    HW220037   2.151   3.019   8.830  0.2722 -0.4081  0.2387
 2859SOL     OW20038   2.039   0.150  16.239  0.1005 -0.2090  0.4986
 2859SOL    HW120039   2.010   0.223  16.293  0.1226  1.5674 -1.8978
 2859SOL    HW220040   2.030   0.077  16.301  1.3868  0.4749  1.4795
 2860SOL     OW20041   0.299   0.096   7.861  0.2181  0.8752  0.0525
 2860SOL    HW120042   0.209   0.122   7.882 -0.8852 -2.3064 -0.7408
 2860SOL    HW220043   0.291   0.082   7.766  0.9706  0.0826  0.1069
 2861SOL     OW20044   3.885   2.603  14.524 -0.4077 -0.7126 -0.1268
 2861SOL    HW120045   3.940   2.540  14.478  0.0745 -1.2223  1.1315
 2861SOL    HW220046   3.877   2.674  14.460 -1.8265  0.5778  1.4881
 2862SOL     OW20047   2.598   0.408  10.468 -0.5061  0.1319  0.0908
 2862SOL    HW120048   2.655   0.472  10.510 -1.7777  0.0171  1.9910
 2862SOL    HW220049   2.517   0.422  10.517  0.1236 -0.4421  1.3034
 2863SOL     OW20050   4.150   3.748   7.513 -0.3886  0.2536  0.8652
 2863SOL    HW120051   4.227   3.800   7.490 -0.3969 -0.0548  0.1121
 2863SOL    HW220052   4.132   3.702   7.431  3.1393  1.4317 -0.5564
 2864SOL     OW20053   0.397   2.430   8.619  0.2391  0.1261 -0.1902
 2864SOL    HW120054   0.474   2.430   8.676 -1.0834 -0.0865  1.6063
 2864SOL    HW220055   0.398   2.523   8.598  1.7763  0.0568 -0.4406
 2865SOL     OW20056   2.060   4.091  11.777 -0.2708 -0.5955 -0.4073
 2865SOL    HW120057   2.037   4.178  11.808 -0.3769 -2.1772  3.9943
 2865SOL    HW220058   2.156   4.082  11.775 -0.1793  0.6102 -1.2045
 2866SOL     OW20059   1.867   2.451  16.500  0.0153 -0.6639  0.1068
 2866SOL    HW120060   1.841   2.528  16.450 -1.0795 -0.8621  0.3580
 2866SOL    HW220061   1.903   2.396  16.430  1.6577  0.3822  0.1228
 2867SOL     OW20062   4.219   2.557   7.251 -0.0314 -0.1305  0.2854
 2867SOL    HW120063   4.211   2.466   7.282 -1.5193 -0.5127 -1.2031
 2867SOL    HW220064   4.306   2.590   7.273 -1.4299  2.1141  2.4298
 2868SOL     OW20065   2.295   2.840   7.288  0.2826  0.3646 -0.0824
 2868SOL    HW120066   2.280   2.781   7.214  0.2222 -0.6390  0.7350
 2868SOL    HW220067   2.246   2.918   7.263  3.8074  1.1594 -4.6421
 2869SOL     OW20068   2.889   0.317   4.403 -0.0945  0.1586  0.4262
 2869SOL    HW120069   2.889   0.360   4.318  0.5530  0.2063  0.4515
 2869SOL    HW220070   2.871   0.227   4.377 -1.9835  0.6500  0.0492
 2870SOL     OW20071   0.978   1.979   3.636 -0.8421  0.2116 -0.0007
 2870SOL    HW120072   0.935   1.943   3.713  2.0052 -0.6067  1.2233
 2870SOL    HW220073   0.927   1.931   3.571  0.1110 -0.7743 -0.0132
 2871SOL     OW20074   1.555   0.582   5.908  0.3487  0.3282 -0.0407
 2871SOL    HW120075   1.528   0.629   5.986 -2.3615  1.0671 -1.3978
 2871SOL    HW220076   1.470   0.573   5.865  1.8139 -1.8367 -2.4841
 2872SOL     OW20077   1.280   1.876   0.917 -0.3089 -0.0952  0.6416
 2872SOL    HW120078   1.301   1.783   0.930 -0.3070 -0.2567 -0.6015
 2872SOL    HW220079   1.324   1.925   0.987  0.4940  0.8017 -0.5004
 2873SOL     OW20080   2.046   1.304   0.390 -0.1446 -0.1004  0.7893
 2873SOL    HW120081   2.056   1.286   0.297 -2.6161  1.7653  0.1559
 2873SOL    HW220082   2.038   1.400   0.394 -1.3093 -0.2151  1.4016
 2874SOL     OW20083   3.922   2.119   2.014 -0.1617  0.7592 -0.2759
 2874SOL    HW120084   3.864   2.195   2.009 -2.0394 -0.7198 -1.1972
 2874SOL    HW220085   3.938   2.106   1.920  1.5474  0.8211  0.0160
 2875SOL     OW20086   4.297   3.968  13.205  0.2130  0.3367  0.3738
 2875SOL    HW120087   4.263   4.006  13.286 -0.3254 -0.1110  0.3564
 2875SOL    HW220088   4.335   4.049  13.169  0.2794 -0.4527 -1.3041
 2876SOL     OW20089   4.168   3.250   5.232  0.4765  0.6722  0.4685
 2876SOL    HW120090   4.111   3.237   5.308 -0.5718  3.4562  0.1728
 2876SOL    HW220091   4.211   3.166   5.220 -0.2407  0.8222 -2.9786
 2877SOL     OW20092   4.188   3.065   8.670 -0.2371  0.5209  0.0771
 2877SOL    HW120093   4.173   3.157   8.649 -3.6048 -0.8387 -3.3552
 2877SOL    HW220094   4.148   3.031   8.590 -0.9759  2.5472 -0.3932
 2878SOL     OW20095   4.198   1.601  10.601  0.2512 -0.7166  0.1184
 2878SOL    HW120096   4.145   1.551  10.663  0.0457 -0.8780 -0.1857
 2878SOL    HW220097   4.211   1.680  10.653  0.4007 -0.2398 -0.6469
 2879SOL     OW20098   2.547   3.583   5.192 -0.0348 -0.3544  0.0131
 2879SOL    HW120099   2.584   3.670   5.178 -0.0604 -0.5334 -1.1396
 2879SOL    HW220100   2.576   3.569   5.283 -0.7446 -1.3308  0.0917
 2880SOL     OW20101   4.111   2.841  11.855 -0.5346 -0.8503  0.5841
 2880SOL    HW120102   4.031   2.893  11.868 -0.9825 -2.1436  3.0989
 2880SOL    HW220103   4.141   2.828  11.945  0.6734 -1.1027  0.1474
 2881SOL     OW20104   2.854   3.504   4.995 -0.2218 -0.6693  0.4631
 2881SOL    HW120105   2.786   3.439   5.010  0.2642 -1.1546  0.5725
 2881SOL    HW220106   2.844   3.520   4.901  0.5234  0.1214  0.5143
 2882SOL     OW20107   4.062   3.921   6.583  0.0583 -0.0586 -0.0457
 2882SOL    HW120108   4.128   3.907   6.516 -0.2123  0.6546 -0.4512
 2882SOL    HW220109   4.062   3.831   6.617  1.0195 -0.3898 -0.9299
 2883SOL     OW20110   1.016   4.569   9.081  0.1761 -0.0646 -0.2257
 2883SOL    HW120111   1.034   4.627   9.156 -2.9256  1.4056 -0.5991
 2883SOL    HW220112   0.994   4.494   9.135 -1.0690  0.5828  0.1795
 2884SOL     OW20113   3.469   2.637   5.767 -0.8658  0.0898 -0.1724
 2884SOL    HW120114   3.405   2.566   5.764 -0.5972 -0.1266 -0.7227
 2884SOL    HW220115   3.516   2.622   5.685  1.8581  0.2315  1.3431
 2885SOL     OW20116   2.114   3.644  10.079  0.7727 -0.2217  0.0253
 2885SOL    HW120117   2.030   3.689  10.080 -0.2896 -2.2299  0.3016
 2885SOL    HW220118   2.181   3.707  10.105  1.0665  0.5463 -2.5783
 2886SOL     OW20119   0.201   1.640   2.922  0.3429 -0.2549 -0.7427
 2886SOL    HW120120   0.224   1.600   2.839 -0.7752 -1.9444 -0.2163
 2886SOL    HW220121   0.217   1.569   2.984  0.7553  0.4291 -0.0487
 2887SOL     OW20122   3.836   2.706   2.827  0.0750  0.5648  0.5840
 2887SOL    HW120123   3.818   2.795   2.856  1.5971  0.4483  1.9211
 2887SOL    HW220124   3.932   2.706   2.837  0.3029 -0.9737 -1.4647
 2888SOL     OW20125   3.996   4.143  12.257  0.3461 -0.4826  0.2283
 2888SOL    HW120126   4.067   4.079  12.270  1.7812  1.2521  0.9361
 2888SOL    HW220127   3.924   4.081  12.267  0.1267 -0.2639  0.0052
 2889SOL     OW20128   0.716   4.608  17.077 -0.2680 -0.2674  0.2749
 2889SOL    HW120129   0.779   4.549  17.119  1.9912  1.9351 -0.0129
 2889SOL    HW220130   0.727   4.578  16.986  0.4256 -1.5623  0.7800
 2890SOL     OW20131   0.229   0.251   4.491 -0.2618 -0.0462  0.8952
 2890SOL    HW120132   0.313   0.207   4.476  0.8288  1.6719  1.9423
 2890SOL    HW220133   0.250   0.344   4.477 -1.5783  0.1105  0.0042
 2891SOL     OW20134   0.110   2.787   3.589  0.2539 -0.3565 -0.2921
 2891SOL    HW120135   0.181   2.852   3.593  1.3672 -1.6962  1.5590
 2891SOL    HW220136   0.092   2.783   3.495 -0.1513  0.0199 -0.2323
 2892SOL     OW20137   1.902   2.617   6.838  0.3128  0.0355  0.0072
 2892SOL    HW120138   1.963   2.609   6.765  2.0998  2.4518  1.2244
 2892SOL    HW220139   1.890   2.529   6.875 -1.1187  1.3789  2.7419
 2893SOL     OW20140   0.801   2.587   8.496 -0.6182 -0.1046  0.2036
 2893SOL    HW120141   0.870   2.622   8.552  0.1336  0.1211 -0.8815
 2893SOL    HW220142   0.831   2.497   8.500 -0.7453 -0.3310 -3.8127
 2894SOL     OW20143   1.072   0.387   1.258 -0.2528  0.1920 -0.2909
 2894SOL    HW120144   1.056   0.442   1.334 -1.8445  2.0293 -1.9696
 2894SOL    HW220145   0.988   0.400   1.213  0.4804 -0.1213 -1.7465
 2895SOL     OW20146   1.822   2.700   9.357 -0.2139  0.0996 -0.4063
 2895SOL    HW120147   1.910   2.679   9.325 -0.1652 -2.5467  1.4845
 2895SOL    HW220148   1.838   2.770   9.420 -1.2600 -1.7024  1.8438
 2896SOL     OW20149   0.031   3.916   4.596  0.0328  0.0499 -0.0739
 2896SOL    HW120150   4.721   3.957   4.515 -2.0148 -0.5206  0.4359
 2896SOL    HW220151   0.007   3.825   4.581  0.5378  0.0773 -1.0480
 2897SOL     OW20152   3.448   1.626   5.113  0.6155 -0.0714  0.1740
 2897SOL    HW120153   3.504   1.558   5.075 -0.0393 -1.5590  1.8975
 2897SOL    HW220154   3.377   1.618   5.049  0.7845  1.0787 -0.1625
 2898SOL     OW20155   3.369   3.058   2.562 -0.2816 -0.1169 -0.1207
 2898SOL    HW120156   3.291   3.025   2.605 -0.4990 -0.0098 -0.4303
 2898SOL    HW220157   3.335   3.143   2.533 -0.1543 -0.2811 -0.7605
 2899SOL     OW20158   1.767   0.774   4.620 -0.0525  0.0299  0.6890
 2899SOL    HW120159   1.773   0.712   4.692  1.2128  1.3380  1.7295
 2899SOL    HW220160   1.858   0.789   4.593 -0.3510  1.1266  0.2754
 2900SOL     OW20161   2.911   0.588   4.467 -0.2059 -0.8419  0.2931
 2900SOL    HW120162   2.947   0.558   4.384  1.4720 -1.3284  1.1904
 2900SOL    HW220163   2.948   0.675   4.480  3.2864 -2.4230  0.9721
 2901SOL     OW20164   2.988   3.492   5.261 -0.1176 -0.0984 -0.3029
 2901SOL    HW120165   2.916   3.512   5.202  0.7797  1.3246 -0.9332
 2901SOL    HW220166   2.985   3.570   5.317 -2.5063 -2.0448  2.2827
 2902SOL     OW20167   2.419   4.561   9.282 -0.4382 -0.0037 -0.6345
 2902SOL    HW120168   2.509   4.574   9.251 -0.5268 -0.8927 -1.2769
 2902SOL    HW220169   2.435   4.587   9.373  2.0452  0.4842 -1.1843
 2903SOL     OW20170   1.740   1.807  12.463 -0.0437  0.4711  0.5233
 2903SOL    HW120171   1.680   1.826  12.535  1.2563  0.4345  1.6136
 2903SOL    HW220172   1.736   1.888  12.412 -1.4145  0.3825  0.5052
 2904SOL     OW20173   3.206   3.249   3.341 -0.2032 -0.3502  0.2902
 2904SOL    HW120174   3.254   3.169   3.321 -0.2685 -0.5245  0.8176
 2904SOL    HW220175   3.233   3.298   3.264 -0.6748 -0.6787 -0.0787
 2905SOL     OW20176   0.584   0.445  10.251 -0.0627 -0.0175  0.1605
 2905SOL    HW120177   0.679   0.440  10.260 -0.1408 -1.5929  0.0551
 2905SOL    HW220178   0.562   0.359  10.287 -1.9026 -1.0164 -3.4547
 2906SOL     OW20179   2.265   1.100  10.810 -0.0571  0.4306  0.6941
 2906SOL    HW120180   2.309   1.065  10.733 -0.5975  0.4506  0.3807
 2906SOL    HW220181   2.271   1.033  10.878 -2.0633  1.2260  1.6479
 2907SOL     OW20182   1.793   3.807   3.065 -0.7780  0.0668  0.1786
 2907SOL    HW120183   1.730   3.873   3.037  0.9153  0.9561 -1.5198
 2907SOL    HW220184   1.838   3.848   3.139 -0.0372 -0.9745  0.3186
 2908SOL     OW20185   1.799   4.711   4.060  0.2417 -0.3028 -0.5730
 2908SOL    HW120186   1.810   4.620   4.033  0.7127  0.2704 -2.2557
 2908SOL    HW220187   1.745   4.695   4.137 -0.9313 -0.0974 -1.3595
 2909SOL     OW20188   3.588   2.244  13.370  0.9963 -0.2520 -0.5305
 2909SOL    HW120189   3.499   2.211  13.382  0.3628  1.7938  0.4320
 2909SOL    HW220190   3.575   2.268  13.278  0.1924  0.0709 -0.3321
 2910SOL     OW20191   1.538   0.053   7.146 -0.1397  0.0094  0.5181
 2910SOL    HW120192   1.531   0.138   7.100  0.7559  0.9134  2.0727
 2910SOL    HW220193   1.490   4.718   7.086  1.0409 -1.2776  0.8233
 2911SOL     OW20194   3.946   2.655  10.235 -0.2355  0.2324  0.7549
 2911SOL    HW120195   3.881   2.612  10.179  1.1700 -0.9659  0.0290
 2911SOL    HW220196   3.894   2.718  10.283 -0.0359  3.0189 -2.7149
 2912SOL     OW20197   1.136   0.549   6.055 -0.2253  0.2794  0.4339
 2912SOL    HW120198   1.056   0.498   6.046 -0.0915  0.0073  0.7671
 2912SOL    HW220199   1.105   0.636   6.079 -0.0774  0.4612 -0.0476
 2913SOL     OW20200   4.523   1.656   5.027 -0.7354 -0.1346 -0.1003
 2913SOL    HW120201   4.449   1.606   5.061 -1.8410  1.1644 -0.5799
 2913SOL    HW220202   4.597   1.619   5.075 -0.7755  0.5271  0.4878
 2914SOL     OW20203   0.539   2.318   7.779  0.6395 -0.1991 -0.9841
 2914SOL    HW120204   0.612   2.343   7.723  2.2108 -0.7935  0.8135
 2914SOL    HW220205   0.472   2.288   7.717 -0.6286  0.7218 -0.0715
 2915SOL     OW20206   1.094   3.759   8.383  0.2170 -0.2794 -0.1056
 2915SOL    HW120207   1.073   3.816   8.310  1.0314 -1.6670 -1.4305
 2915SOL    HW220208   1.190   3.748   8.382  0.5603  3.0187 -0.6969
 2916SOL     OW20209   4.322   3.537  10.639 -0.5350 -0.3685  0.7427
 2916SOL    HW120210   4.234   3.539  10.677 -1.0097 -1.9130 -0.2643
 2916SOL    HW220211   4.346   3.627  10.618 -1.3380 -0.6065 -1.2446
 2917SOL     OW20212   0.648   2.949   0.894 -0.0896  0.6149  0.5369
 2917SOL    HW120213   0.562   2.952   0.936  0.3905  2.5576  1.3374
 2917SOL    HW220214   0.631   2.900   0.814 -1.7389  0.7494  0.8036
 2918SOL     OW20215   2.562   1.984   2.738 -0.0512  0.4153  0.2155
 2918SOL    HW120216   2.551   2.067   2.693 -1.8699  0.3016  0.4421
 2918SOL    HW220217   2.492   1.931   2.699 -0.0101  0.2633  0.3445
 2919SOL     OW20218   2.897   0.949   1.088  0.0621  0.4301  0.1062
 2919SOL    HW120219   2.920   0.918   1.001  3.9749  1.3855  0.8212
 2919SOL    HW220220   2.887   1.043   1.075  1.2251  0.4851 -0.3296
 2920SOL     OW20221   0.874   0.076  14.625 -0.2743 -0.4006  0.5397
 2920SOL    HW120222   0.832   4.715  14.603 -1.9192  0.2534  1.2433
 2920SOL    HW220223   0.919   0.054  14.706  0.9102 -0.6417 -0.1664
 2921SOL     OW20224   3.186   1.473   9.983  0.3830  0.3236 -0.1598
 2921SOL    HW120225   3.184   1.405   9.916 -3.5031  0.2277  0.0384
 2921SOL    HW220226   3.242   1.432  10.049 -0.5766  0.1018  0.5206
 2922SOL     OW20227   1.018   3.586   3.412 -0.1139 -0.2981 -0.4923
 2922SOL    HW120228   1.068   3.506   3.398 -1.8436 -1.3977 -0.3336
 2922SOL    HW220229   1.006   3.618   3.323  2.8203  0.1752 -0.7173
 2923SOL     OW20230   1.548   4.529   5.122 -0.6008 -0.5314  1.0129
 2923SOL    HW120231   1.572   4.439   5.143  2.3845  0.2459  0.9413
 2923SOL    HW220232   1.475   4.525   5.060 -1.0890 -0.6882  1.6024
 2924SOL     OW20233   1.782   3.058  17.029  0.0247  0.4900 -0.6839
 2924SOL    HW120234   1.797   2.978  16.980  1.4975  0.0400  0.4937
 2924SOL    HW220235   1.819   3.125  16.970  0.2418 -0.7335 -1.9372
 2925SOL     OW20236   1.551   2.154   4.122 -0.1258 -0.0779  0.1236
 2925SOL    HW120237   1.511   2.226   4.170 -0.4196  0.8095 -1.4396
 2925SOL    HW220238   1.490   2.143   4.049  0.4044  1.7135 -0.5782
 2926SOL     OW20239   1.585   0.834  11.496  0.1427  0.1200  0.1940
 2926SOL    HW120240   1.640   0.820  11.573 -0.4424 -0.9784  0.4180
 2926SOL    HW220241   1.629   0.912  11.460  0.1717 -0.2225 -0.5214
 2927SOL     OW20242   1.300   2.360   7.410 -0.3999  0.0467  0.3076
 2927SOL    HW120243   1.262   2.332   7.494 -1.1115  1.8209  0.5674
 2927SOL    HW220244   1.307   2.277   7.363  0.5194  1.1595 -1.5231
 2928SOL     OW20245   2.671   0.745   8.406  0.2328 -0.4316  0.0501
 2928SOL    HW120246   2.727   0.675   8.370 -0.2523 -1.6463  1.6560
 2928SOL    HW220247   2.583   0.717   8.382  1.3347 -2.4878 -1.6934
 2929SOL     OW20248   4.003   4.607   5.954  0.1232 -0.7623 -0.8216
 2929SOL    HW120249   4.057   4.528   5.957  0.6195 -0.4233 -0.9211
 2929SOL    HW220250   4.059   4.666   6.003  0.8151 -2.5614  0.5447
 2930SOL     OW20251   4.510   2.129   3.890 -0.1012  0.0238 -0.3064
 2930SOL    HW120252   4.588   2.139   3.946 -0.4213  0.8144 -0.0079
 2930SOL    HW220253   4.547   2.057   3.839 -0.9142 -0.6531  0.0701
 2931SOL     OW20254   4.059   1.232   9.016 -0.2826 -0.3268  0.1443
 2931SOL    HW120255   4.003   1.245   9.092  0.3910  2.2159  0.2089
 2931SOL    HW220256   4.144   1.214   9.057 -0.3072 -1.7901 -0.4625
 2932SOL     OW20257   3.599   0.924   7.109  0.4956  0.0044  0.3887
 2932SOL    HW120258   3.528   0.862   7.092  0.3398  0.1698  0.4376
 2932SOL    HW220259   3.650   0.918   7.028  0.6582 -1.3107  0.5932
 2933SOL     OW20260   1.854   1.092   4.477  0.1894 -0.1361 -0.0495
 2933SOL    HW120261   1.891   1.151   4.411 -0.3884 -0.5333 -0.7348
 2933SOL    HW220262   1.863   1.007   4.432  0.3800  0.1527 -0.5585
 2934SOL     OW20263   4.044   3.476   3.201 -0.8401 -0.0163  0.1430
 2934SOL    HW120264   4.015   3.529   3.127  1.6070 -1.1701 -1.6332
 2934SOL    HW220265   4.139   3.474   3.186 -0.9567 -1.0557 -0.4628
 2935SOL     OW20266   3.646   4.556   5.754 -0.1008  0.2157  0.4721
 2935SOL    HW120267   3.563   4.552   5.800 -0.0168  0.6528  0.6672
 2935SOL    HW220268   3.680   4.467   5.760  0.8065  0.5469  0.2942
 2936SOL     OW20269   2.137   0.575   4.873 -0.2748  0.2371  0.1850
 2936SOL    HW120270   2.230   0.572   4.851 -0.6575  0.2476 -1.4244
 2936SOL    HW220271   2.112   0.575   4.781  0.6864 -0.4788 -0.0837
 2937SOL     OW20272   3.438   4.363  15.629  0.5347  0.1531 -0.1675
 2937SOL    HW120273   3.488   4.431  15.585 -0.8592  1.7088  0.6795
 2937SOL    HW220274   3.380   4.334  15.559 -0.8877  0.2559  0.9565
 2938SOL     OW20275   0.788   1.493  12.624  0.1884 -0.5315 -0.3998
 2938SOL    HW120276   0.715   1.468  12.682 -0.0396  1.9791  0.3822
 2938SOL    HW220277   0.855   1.523  12.685 -1.8900  1.5377  0.8542
 2939SOL     OW20278   4.253   2.211   4.428  0.8155  0.5627  0.2112
 2939SOL    HW120279   4.175   2.258   4.399 -0.5977 -1.3509  0.9244
 2939SOL    HW220280   4.318   2.280   4.416  1.7191 -0.4196 -0.5583
 2940SOL     OW20281   3.768   1.037   6.641  0.1043 -0.2297 -0.2156
 2940SOL    HW120282   3.862   1.049   6.645  0.6433 -4.0985 -0.9509
 2940SOL    HW220283   3.758   1.030   6.546  0.6289  0.7726 -0.3418
 2941SOL     OW20284   2.262   2.042   7.909 -0.2889 -0.2173 -0.4832
 2941SOL    HW120285   2.280   1.999   7.992 -2.0056  1.3933  0.7077
 2941SOL    HW220286   2.334   2.015   7.851 -1.6710 -0.4593 -2.0845
 2942SOL     OW20287   0.737   4.014   1.911 -0.2233 -0.4091 -0.0079
 2942SOL    HW120288   0.728   4.046   2.000  1.0902 -1.3243  0.4449
 2942SOL    HW220289   0.655   4.005   1.862  0.8044 -2.0948 -1.4440
 2943SOL     OW20290   2.059   3.049   4.008  0.3753 -0.0702  0.1986
 2943SOL    HW120291   2.008   2.977   3.971  0.0955 -0.2290  0.9035
 2943SOL    HW220292   1.988   3.086   4.060  0.8395 -0.6524  1.2603
 2944SOL     OW20293   3.771   0.419   4.671  0.3008  0.2433 -0.4903
 2944SOL    HW120294   3.768   0.431   4.766  0.2647  1.7501 -0.6909
 2944SOL    HW220295   3.864   0.414   4.653  1.0506  2.9019  2.6689
 2945SOL     OW20296   2.291   1.298   1.281 -0.1713  0.1394 -0.6832
 2945SOL    HW120297   2.268   1.307   1.374 -2.1570  1.8673 -1.3451
 2945SOL    HW220298   2.384   1.273   1.279  0.0856  1.0629 -0.0951
 2946SOL     OW20299   3.706   0.965  12.783  0.1028 -0.2911  0.4264
 2946SOL    HW120300   3.774   0.957  12.715 -0.9081 -1.1797 -0.4684
 2946SOL    HW220301   3.689   1.057  12.762 -2.2488 -0.7564  0.3400
 2947SOL     OW20302   1.769   3.390   0.927 -0.3211 -0.0938  0.0544
 2947SOL    HW120303   1.809   3.381   1.013 -1.7716 -0.0358  0.7261
 2947SOL    HW220304   1.791   3.305   0.888  0.1332  0.5149 -1.0419
 2948SOL     OW20305   3.876   1.138   4.370  0.3767 -0.3491  0.1119
 2948SOL    HW120306   3.945   1.074   4.352 -1.3857 -2.3120  0.3664
 2948SOL    HW220307   3.804   1.091   4.329 -1.5477  1.3529  1.5707
 2949SOL     OW20308   2.190   4.616   5.800  0.4155  0.2878 -0.0675
 2949SOL    HW120309   2.140   4.534   5.803 -1.0399  1.1358 -1.3329
 2949SOL    HW220310   2.128   4.681   5.833  1.1822  1.2500 -0.4995
 2950SOL     OW20311   0.034   3.512   6.420  0.0403 -0.1217 -0.1384
 2950SOL    HW120312   4.719   3.428   6.393  0.3135 -0.3888  0.3099
 2950SOL    HW220313   4.686   3.577   6.413 -0.2776 -0.3788  0.6740
 2951SOL     OW20314   3.088   0.111   6.743 -0.3479  0.2897 -0.2630
 2951SOL    HW120315   3.183   0.124   6.741 -0.2476 -0.5393 -0.9151
 2951SOL    HW220316   3.066   0.112   6.650  0.2966  1.2234 -0.4056
 2952SOL     OW20317   3.726   2.469  13.537 -0.0568  0.3323 -0.2005
 2952SOL    HW120318   3.658   2.434  13.480 -0.6833  2.6815 -0.8954
 2952SOL    HW220319   3.705   2.560  13.560  0.7792  0.5356 -0.2264
 2953SOL     OW20320   3.185   0.248   3.912  0.1791 -0.6096  0.0856
 2953SOL    HW120321   3.181   0.307   3.987 -1.4744  0.3256 -0.7198
 2953SOL    HW220322   3.278   0.227   3.909  0.4481  0.5435  0.2130
 2954SOL     OW20323   1.450   1.636   7.789 -0.2677 -0.5982 -0.1814
 2954SOL    HW120324   1.498   1.606   7.711 -1.5617 -0.3932 -1.0683
 2954SOL    HW220325   1.411   1.713   7.748 -0.7589 -0.3837  0.7018
 2955SOL     OW20326   1.593   1.444   0.759 -0.5726 -0.1823 -0.0584
 2955SOL    HW120327   1.576   1.533   0.789 -0.2905 -0.8088  1.9363
 2955SOL    HW220328   1.671   1.418   0.808 -0.3843 -1.2265 -0.9090
 2956SOL     OW20329   1.891   3.448   9.618 -0.7246 -0.2446 -0.3865
 2956SOL    HW120330   1.813   3.474   9.568 -0.0973  0.0019 -1.2307
 2956SOL    HW220331   1.867   3.361   9.651 -0.2769 -0.2844 -0.1729
 2957SOL     OW20332   3.918   4.623  11.506 -0.2417 -0.0802 -0.2851
 2957SOL    HW120333   3.826   4.614  11.483 -0.5340 -2.2841  1.7937
 2957SOL    HW220334   3.972   4.612  11.428 -0.8088  3.7847 -1.2298
 2958SOL     OW20335   4.461   3.902  11.901  0.2012  0.0614 -0.0197
 2958SOL    HW120336   4.488   3.826  11.953  2.5065 -0.3584 -1.8312
 2958SOL    HW220337   4.549   3.931  11.875  1.6760 -3.6371  0.8759
 2959SOL     OW20338   4.134   3.786   3.151 -0.0353 -0.3715 -0.0984
 2959SOL    HW120339   4.099   3.823   3.070  0.4561  0.6780  0.1602
 2959SOL    HW220340   4.069   3.829   3.206  0.0065 -0.9367  0.3905
 2960SOL     OW20341   3.395   3.113  11.860 -0.4033 -0.0419 -0.0193
 2960SOL    HW120342   3.317   3.123  11.805  0.8163 -1.9129 -2.1038
 2960SOL    HW220343   3.447   3.051  11.809  1.3130  1.7737 -0.4448
 2961SOL     OW20344   0.162   1.961   6.315 -0.1487 -0.2907  0.3589
 2961SOL    HW120345   0.237   2.017   6.298 -0.6174  0.2949  0.2073
 2961SOL    HW220346   0.128   1.993   6.399 -1.1292  1.0352 -0.5317
 2962SOL     OW20347   4.476   3.599   6.621 -0.5515  0.7270 -0.2543
 2962SOL    HW120348   4.482   3.585   6.527  1.5067  1.2279 -0.2043
 2962SOL    HW220349   4.386   3.573   6.637 -0.7038  0.5075 -1.5124
 2963SOL     OW20350   1.896   3.645   4.551  0.8625 -0.6320 -0.3037
 2963SOL    HW120351   1.858   3.713   4.607  0.3156 -1.3585  0.1962
 2963SOL    HW220352   1.960   3.704   4.510  0.3576 -1.6589 -2.5662
 2964SOL     OW20353   2.216   4.369  13.960 -0.0156  0.6800 -0.3670
 2964SOL    HW120354   2.208   4.420  14.040  1.4668  2.2666 -1.2251
 2964SOL    HW220355   2.241   4.281  13.989 -2.1175  0.6485  1.3610
 2965SOL     OW20356   0.615   1.013   3.220  0.3378 -0.2947  0.2129
 2965SOL    HW120357   0.645   0.964   3.297  0.1765  0.1438  0.5547
 2965SOL    HW220358   0.701   1.026   3.180  0.2315 -0.4649 -0.0724
 2966SOL     OW20359   0.613   2.803   1.517  0.6477  0.3235  0.4165
 2966SOL    HW120360   0.617   2.898   1.528  2.7369  0.2283  0.5080
 2966SOL    HW220361   0.673   2.762   1.579  0.8522  0.4453  0.2987
 2967SOL     OW20362   2.898   1.019   3.847 -0.1886  0.1506  0.5064
 2967SOL    HW120363   2.987   0.984   3.854  0.2625  0.9326 -1.3280
 2967SOL    HW220364   2.922   1.091   3.906  0.6763 -0.8718  1.3964
 2968SOL     OW20365   1.357   2.419   3.046 -0.2600  0.1309  0.5645
 2968SOL    HW120366   1.373   2.467   3.128  2.6495 -0.9278  0.5967
 2968SOL    HW220367   1.345   2.329   3.077 -0.1253 -0.5222 -1.3019
 2969SOL     OW20368   1.034   0.117   1.199  0.1812 -0.1209 -0.5131
 2969SOL    HW120369   1.014   0.144   1.109 -1.0905  2.2613  0.4630
 2969SOL    HW220370   1.060   0.201   1.237 -0.8123 -0.0386  0.0066
 2970SOL     OW20371   0.935   4.302   7.961  0.6265  0.1952 -0.1490
 2970SOL    HW120372   0.884   4.321   8.040 -1.5217 -0.2131 -1.4311
 2970SOL    HW220373   0.978   4.379   7.923 -1.7529  1.6348  0.0248
 2971SOL     OW20374   0.553   1.773   8.539 -0.2806  0.5195 -0.1567
 2971SOL    HW120375   0.539   1.850   8.594 -0.1141  1.0845 -0.8965
 2971SOL    HW220376   0.470   1.733   8.566 -1.1304  0.3799 -2.8895
 2972SOL     OW20377   2.003   2.155   3.605  0.6090  0.1936  0.5567
 2972SOL    HW120378   2.067   2.115   3.665  0.8994  0.8735  0.6916
 2972SOL    HW220379   1.969   2.216   3.671 -0.4106 -1.8637  1.9493
 2973SOL     OW20380   4.376   0.428  10.105  0.4898 -0.0861  0.0203
 2973SOL    HW120381   4.383   0.444  10.199 -0.5126  0.1260  0.0600
 2973SOL    HW220382   4.420   0.343  10.105 -1.5109 -1.1038 -0.9301
 2974SOL     OW20383   2.958   1.826   1.365 -0.3760  0.8156  0.2194
 2974SOL    HW120384   3.031   1.836   1.304 -0.2744  0.4161  0.2777
 2974SOL    HW220385   3.010   1.807   1.443  1.4937  1.8275 -0.7835
 2975SOL     OW20386   2.694   1.392  16.242  0.4795  0.3454  0.0766
 2975SOL    HW120387   2.738   1.353  16.166  0.0598 -0.7946  0.4073
 2975SOL    HW220388   2.605   1.421  16.219  0.8749  0.3257 -1.4327
 2976SOL     OW20389   0.952   1.660   7.221 -0.3877  0.4484 -0.6785
 2976SOL    HW120390   0.907   1.737   7.186 -2.0921 -1.2006 -2.1638
 2976SOL    HW220391   0.868   1.616   7.233 -0.4375  0.2957 -1.5655
 2977SOL     OW20392   4.223   0.947   9.193 -0.5575  0.4608 -0.3180
 2977SOL    HW120393   4.216   0.946   9.098 -1.3195  0.1678 -0.2573
 2977SOL    HW220394   4.135   0.916   9.213 -0.4380  0.7148  0.6330
 2978SOL     OW20395   1.291   1.643   8.955  0.4512 -0.3442 -0.2689
 2978SOL    HW120396   1.298   1.736   8.975 -0.3303 -0.6915  1.5359
 2978SOL    HW220397   1.380   1.607   8.960 -0.6511 -3.1646 -0.7255
 2979SOL     OW20398   3.553   2.668  17.197 -0.4943  0.5413  0.6766
 2979SOL    HW120399   3.593   2.677  17.284 -2.9023  2.2046  1.6110
 2979SOL    HW220400   3.466   2.633  17.213 -1.3268  2.4120  0.1836
 2980SOL     OW20401   3.119   0.201   2.006  0.7331 -0.4352 -0.2653
 2980SOL    HW120402   3.153   0.208   2.096  0.4718 -0.2429 -0.1815
 2980SOL    HW220403   3.153   0.114   1.986  0.3519 -1.2128  2.4302
 2981SOL     OW20404   4.441   3.678   3.556  0.1933 -0.2541 -0.3957
 2981SOL    HW120405   4.530   3.678   3.522  0.3592 -0.5219  0.0472
 2981SOL    HW220406   4.425   3.584   3.565 -1.0333 -0.1434 -1.5197
 2982SOL     OW20407   3.373   3.630   7.575  0.3960  0.3700 -0.3279
 2982SOL    HW120408   3.294   3.655   7.623  0.2269 -1.0621  0.1158
 2982SOL    HW220409   3.391   3.709   7.523  1.5851  0.7648  0.6678
 2983SOL     OW20410   1.285   1.557   8.478  0.0003  0.0037 -0.3890
 2983SOL    HW120411   1.244   1.541   8.393  1.4579 -0.0942 -1.0825
 2983SOL    HW220412   1.211   1.583   8.532  0.7083  1.7930 -0.2916
 2984SOL     OW20413   3.036   3.916   9.563  0.0250 -0.4355  0.1583
 2984SOL    HW120414   2.957   3.863   9.554  0.0349 -0.5269  0.6107
 2984SOL    HW220415   3.049   3.953   9.476 -0.2623 -0.3799  0.1395
 2985SOL     OW20416   4.211   4.222   7.078 -0.1718  0.2887 -0.5616
 2985SOL    HW120417   4.216   4.261   6.990 -0.1406 -0.9973 -1.1391
 2985SOL    HW220418   4.292   4.172   7.093 -0.6522  0.0946  1.3816
 2986SOL     OW20419   1.566   2.175  10.573  0.2536 -0.6128  0.2625
 2986SOL    HW120420   1.487   2.124  10.589 -1.7417  1.9297 -1.7007
 2986SOL    HW220421   1.633   2.121  10.616  0.9973 -0.5771 -0.8627
 2987SOL     OW20422   4.563   0.923   4.021  0.0222 -0.6011  1.0084
 2987SOL    HW120423   4.477   0.928   3.978  0.6942  0.2883 -0.2128
 2987SOL    HW220424   4.588   1.015   4.017 -2.6359  0.1827  1.9747
 2988SOL     OW20425   0.690   4.107   7.114 -0.4768 -0.2433 -0.9136
 2988SOL    HW120426   0.662   4.016   7.125  1.9238 -0.9624 -0.7938
 2988SOL    HW220427   0.754   4.083   7.048  0.2442 -1.4583  0.2288
 2989SOL     OW20428   2.048   4.307  11.325 -0.1775  0.2253  0.6236
 2989SOL    HW120429   2.042   4.400  11.303  3.0737  0.6673  1.5465
 2989SOL    HW220430   2.048   4.317  11.420  2.1560 -0.3927  0.7051
 2990SOL     OW20431   1.558   0.468  16.521 -0.2319 -0.0081 -0.4966
 2990SOL    HW120432   1.470   0.502  16.506 -0.0053  0.0805 -1.6007
 2990SOL    HW220433   1.607   0.538  16.564 -2.2632  0.8297  0.4372
 2991SOL     OW20434   3.527   0.728  13.849 -0.6558  0.2358 -0.1331
 2991SOL    HW120435   3.467   0.791  13.889  1.2382  2.0444 -0.1534
 2991SOL    HW220436   3.610   0.775  13.847 -1.1860  1.2316  1.1399
 2992SOL     OW20437   0.768   1.444   2.764 -0.6312  0.3397 -0.7008
 2992SOL    HW120438   0.731   1.506   2.701  3.3939  2.0987 -1.2945
 2992SOL    HW220439   0.843   1.410   2.716  0.4473 -0.8760  1.8631
 2993SOL     OW20440   1.282   2.478   3.730 -0.1445  0.6968 -0.1044
 2993SOL    HW120441   1.188   2.475   3.713 -0.2392  2.6386  0.1588
 2993SOL    HW220442   1.320   2.415   3.668 -1.7852  0.0770 -0.4699
 2994SOL     OW20443   1.448   3.736   1.165  0.2576  0.3499  0.1186
 2994SOL    HW120444   1.405   3.737   1.079  1.1383 -1.0320 -0.3407
 2994SOL    HW220445   1.488   3.822   1.152 -1.4750  1.0962 -0.3014
 2995SOL     OW20446   4.286   0.178   8.055  0.2928  0.6552 -0.3635
 2995SOL    HW120447   4.381   0.164   8.051  0.0127 -0.7665 -1.6693
 2995SOL    HW220448   4.259   0.087   8.059  0.8879  0.3162 -3.5185
 2996SOL     OW20449   3.793   3.690   5.312 -0.1200 -0.1858 -0.7759
 2996SOL    HW120450   3.698   3.680   5.322 -0.3821  1.5537 -1.4115
 2996SOL    HW220451   3.810   3.784   5.303 -1.0674  0.2724  2.2559
 2997SOL     OW20452   0.627   0.453   1.017  0.0157  0.2392  0.0913
 2997SOL    HW120453   0.690   0.424   0.951 -1.4988  0.2853 -1.3749
 2997SOL    HW220454   0.543   0.416   0.991  0.2228 -0.4537  0.3958
 2998SOL     OW20455   4.138   1.855   8.340  0.3325  0.7039 -0.0638
 2998SOL    HW120456   4.216   1.820   8.384 -0.0646 -0.7813 -0.5412
 2998SOL    HW220457   4.137   1.943   8.378 -1.0329  1.1647 -1.1799
 2999SOL     OW20458   2.816   3.878  10.306 -0.1233  0.4201 -0.3057
 2999SOL    HW120459   2.851   3.863  10.218  1.0927  0.1159  0.2267
 2999SOL    HW220460   2.722   3.889  10.298  0.0983  2.8743  0.3800
 3000SOL     OW20461   4.620   1.847   7.592 -0.2461  0.1072  0.5055
 3000SOL    HW120462   4.592   1.756   7.600  0.9467 -0.2363  0.7468
 3000SOL    HW220463   4.695   1.833   7.650 -1.5333 -1.5220  1.7697
 3001SOL     OW20464   0.434   4.623   7.099 -0.2506 -0.3913  0.3311
 3001SOL    HW120465   0.527   4.600   7.088  0.3476  1.7813  0.8532
 3001SOL    HW220466   0.406   4.549   7.046  0.0855  0.3362 -0.8656
 3002SOL     OW20467   2.499   0.729   6.286  0.3948 -0.1728  0.2949
 3002SOL    HW120468   2.452   0.647   6.271  1.6952 -1.2559  2.1625
 3002SOL    HW220469   2.560   0.718   6.214 -0.3114  0.8143 -0.4439
 3003SOL     OW20470   1.157   1.584   6.130  0.2399 -0.3843 -0.2717
 3003SOL    HW120471   1.155   1.546   6.217  1.7467 -0.8881 -0.4549
 3003SOL    HW220472   1.069   1.620   6.133  1.3084  2.2456 -0.4691
 3004SOL     OW20473   4.707   1.303   6.478  0.4556  0.2481  0.1239
 3004SOL    HW120474   4.655   1.313   6.398  0.2552 -1.1538  0.0769
 3004SOL    HW220475   4.712   1.396   6.501  0.6993  0.0546  0.8447
 3005SOL     OW20476   4.623   0.509   3.410  0.5774  0.7753  0.1255
 3005SOL    HW120477   4.660   0.579   3.356  1.8185 -0.1050 -0.1542
 3005SOL    HW220478   4.701   0.490   3.461  1.3555  0.1164 -1.3231
 3006SOL     OW20479   3.745   0.305   8.031 -0.5459  0.1785 -0.0014
 3006SOL    HW120480   3.803   0.327   7.958 -0.0582 -1.4489 -0.1056
 3006SOL    HW220481   3.811   0.291   8.098  2.0945 -0.8927 -2.8094
 3007SOL     OW20482   4.339   0.721   4.991 -0.4959  0.3370  0.4351
 3007SOL    HW120483   4.292   0.791   4.947 -1.2306  0.0481  0.7569
 3007SOL    HW220484   4.396   0.696   4.917  1.3365  2.1627  1.2379
 3008SOL     OW20485   3.025   3.115   6.822  0.0649 -0.0170 -0.1155
 3008SOL    HW120486   3.054   3.024   6.828  2.8803  1.0053  1.4025
 3008SOL    HW220487   2.993   3.114   6.732  0.3980 -1.7158 -0.2252
 3009SOL     OW20488   2.869   3.520   2.834  0.3655  0.0476  0.6708
 3009SOL    HW120489   2.824   3.567   2.904 -0.2426 -0.9318  0.9322
 3009SOL    HW220490   2.901   3.596   2.786  0.1178 -0.8022 -0.8345
 3010SOL     OW20491   3.893   2.993   8.825 -0.1729  0.2348 -0.0105
 3010SOL    HW120492   3.984   2.965   8.819 -0.8586 -1.7720 -0.9090
 3010SOL    HW220493   3.898   3.086   8.803  0.7197  0.2114  0.0914
 3011SOL     OW20494   4.378   3.483   5.924  0.1898  0.3767  0.7460
 3011SOL    HW120495   4.393   3.389   5.933  0.8694  0.7801  3.7911
 3011SOL    HW220496   4.459   3.513   5.883  0.2245  1.6875  1.7615
 3012SOL     OW20497   1.880   1.090   8.824 -0.2396  0.2581  0.2355
 3012SOL    HW120498   1.802   1.057   8.869 -0.7161  3.1753  1.5245
 3012SOL    HW220499   1.862   1.080   8.730  0.8065 -0.1891  0.0823
 3013SOL     OW20500   4.091   4.022   5.745 -0.5153  0.5236 -0.0067
 3013SOL    HW120501   4.111   4.004   5.653  0.6475  1.7425  0.0096
 3013SOL    HW220502   3.998   4.035   5.725 -0.3642 -2.1810 -2.3920
 3014SOL     OW20503   0.916   0.769   2.309 -0.8625  0.0319  0.4496
 3014SOL    HW120504   0.930   0.855   2.347  0.2045  0.4666 -0.9010
 3014SOL    HW220505   0.833   0.785   2.265 -0.0032 -0.3074 -1.3129
 3015SOL     OW20506   2.451   4.225   7.865 -0.2051  0.0272 -0.0276
 3015SOL    HW120507   2.480   4.313   7.886  0.5029 -0.1893 -0.0997
 3015SOL    HW220508   2.380   4.254   7.808  0.9212  0.9763 -0.9409
 3016SOL     OW20509   0.646   0.467   1.775 -0.2886 -0.4659  0.1024
 3016SOL    HW120510   0.625   0.385   1.731  0.3248 -1.4200  1.5941
 3016SOL    HW220511   0.597   0.452   1.856 -2.7875  0.6737 -1.2144
 3017SOL     OW20512   4.197   0.554   6.253 -0.3126 -0.2816  0.4583
 3017SOL    HW120513   4.131   0.622   6.266  0.4933  0.8533 -1.4826
 3017SOL    HW220514   4.252   0.575   6.328 -1.3190  3.1838  0.1914
 3018SOL     OW20515   4.474   2.361  14.573  0.0262  0.4052  0.2021
 3018SOL    HW120516   4.452   2.362  14.666  0.2100  1.1487  0.2363
 3018SOL    HW220517   4.531   2.437  14.580 -0.9981  1.4265 -2.5424
 3019SOL     OW20518   4.412   4.555   8.370  0.0232  0.1137 -0.3238
 3019SOL    HW120519   4.436   4.563   8.278  1.9290  0.8422  0.2455
 3019SOL    HW220520   4.322   4.523   8.359  0.9161 -1.6831 -2.3719
 3020SOL     OW20521   1.760   0.389  12.462  0.5029 -0.0252 -0.7301
 3020SOL    HW120522   1.842   0.343  12.443  1.1334  0.3982  0.9629
 3020SOL    HW220523   1.764   0.394  12.557 -0.4312 -1.8265 -0.5967
 3021SOL     OW20524   1.875   1.051   4.765 -0.0666 -0.3564 -0.6267
 3021SOL    HW120525   1.937   0.979   4.778  0.4371  0.3728  0.9582
 3021SOL    HW220526   1.888   1.069   4.672 -1.8782 -1.4937 -1.1050
 3022SOL     OW20527   4.398   0.857  14.592 -0.5496 -0.1397 -0.3872
 3022SOL    HW120528   4.482   0.832  14.554  0.8570  1.5590  1.5630
 3022SOL    HW220529   4.359   0.778  14.628  0.2958  0.1349  1.1568
 3023SOL     OW20530   2.499   2.572   6.810  0.0270  0.2221 -0.7220
 3023SOL    HW120531   2.407   2.593   6.793  0.2029  1.2948 -0.3703
 3023SOL    HW220532   2.524   2.535   6.726  1.0868 -0.2209 -0.2195
 3024SOL     OW20533   1.788   2.906   6.298 -0.2120 -0.0751  0.2100
 3024SOL    HW120534   1.841   2.901   6.219  0.7014  0.1949  0.8117
 3024SOL    HW220535   1.840   2.970   6.346  2.7693  0.2738 -3.5273
 3025SOL     OW20536   4.553   0.180   7.376  0.3481  0.5265 -0.2181
 3025SOL    HW120537   4.465   0.191   7.412 -0.3765  1.8552 -2.3899
 3025SOL    HW220538   4.602   0.143   7.450  2.1804 -1.2117 -2.2981
 3026SOL     OW20539   1.895   3.441   4.140 -0.0299  0.5551 -0.2822
 3026SOL    HW120540   1.818   3.466   4.191  1.7294  3.7375  0.8217
 3026SOL    HW220541   1.972   3.433   4.196  0.4153 -2.0201 -1.2337
 3027SOL     OW20542   2.064   1.339   5.600  0.3634  0.1735 -0.3970
 3027SOL    HW120543   1.987   1.291   5.629 -0.5213  2.4358  1.0792
 3027SOL    HW220544   2.086   1.322   5.509  1.7504  2.1327 -0.4286
 3028SOL     OW20545   4.470   4.579  13.547  0.0121 -0.2212 -0.4441
 3028SOL    HW120546   4.379   4.582  13.517 -0.3775 -0.7771  0.6846
 3028SOL    HW220547   4.478   4.668  13.580 -0.1854 -0.5139  0.3855
 3029SOL     OW20548   2.786   4.473   6.015 -0.5803  0.4728 -0.4211
 3029SOL    HW120549   2.832   4.436   5.940 -1.8073 -2.0387  0.0757
 3029SOL    HW220550   2.854   4.461   6.081  0.4232  1.4900 -1.2598
 3030SOL     OW20551   1.945   1.434   9.505 -0.2763 -0.0944  0.6450
 3030SOL    HW120552   1.858   1.394   9.508 -0.2047 -0.3064 -0.1665
 3030SOL    HW220553   1.919   1.494   9.435 -1.1764 -1.0023  0.2005
 3031SOL     OW20554   0.046   1.945   2.741  0.3950 -0.3416  0.2943
 3031SOL    HW120555   4.708   1.993   2.685  0.9884 -1.0808 -0.9782
 3031SOL    HW220556   0.131   1.952   2.697  0.7314  1.8567  1.3340
 3032SOL     OW20557   4.565   0.356  17.574 -0.7634 -0.2490  0.1647
 3032SOL    HW120558   4.626   0.414  17.529 -0.0389 -1.7702 -0.8195
 3032SOL    HW220559   4.527   0.323  17.493  1.2600  0.4037 -1.0423
 3033SOL     OW20560   3.756   2.036  14.776  0.3317 -0.3598 -1.0592
 3033SOL    HW120561   3.694   2.071  14.712 -1.0304  0.9937  1.0084
 3033SOL    HW220562   3.729   1.944  14.776 -0.5459 -0.0946  0.6837
 3034SOL     OW20563   3.927   0.157   6.172 -0.0271 -0.5594 -0.1020
 3034SOL    HW120564   3.860   0.148   6.104 -0.0631  1.5867 -0.3528
 3034SOL    HW220565   3.999   0.107   6.135  0.7227  2.4452 -2.7165
 3035SOL     OW20566   0.176   0.805   4.138  0.4410  0.0081  0.0687
 3035SOL    HW120567   0.114   0.829   4.207 -1.5632 -0.5454 -1.5307
 3035SOL    HW220568   0.188   0.893   4.101 -0.5364  0.1600  0.1021
 3036SOL     OW20569   3.202   1.552  10.305 -0.0944 -0.0129  0.0253
 3036SOL    HW120570   3.176   1.622  10.246 -0.8592 -1.9771 -1.9784
 3036SOL    HW220571   3.139   1.565  10.375  1.4120 -1.0565  1.5628
 3037SOL     OW20572   0.226   2.675   5.249 -0.8093 -0.5436 -0.3731
 3037SOL    HW120573   0.143   2.640   5.218 -1.0492  0.0453 -0.3870
 3037SOL    HW220574   0.287   2.619   5.201  1.1099  1.8214 -0.7121
 3038SOL     OW20575   0.529   1.267  11.109 -0.3491  0.4767 -0.0506
 3038SOL    HW120576   0.596   1.308  11.054  0.1556  0.6614  0.7036
 3038SOL    HW220577   0.564   1.286  11.196  1.1775 -0.5719 -0.4352
 3039SOL     OW20578   1.730   1.220   4.988 -0.1193 -0.0860  0.0308
 3039SOL    HW120579   1.781   1.260   4.918  0.8156  1.0618  1.3557
 3039SOL    HW220580   1.796   1.158   5.018 -0.7509 -0.2482  1.0944
 3040SOL     OW20581   3.410   0.440   4.149  0.7412 -0.4625  0.0189
 3040SOL    HW120582   3.445   0.427   4.061  1.2591  1.4386 -0.0648
 3040SOL    HW220583   3.345   0.370   4.142  1.7583 -1.3618 -0.4311
 3041SOL     OW20584   3.395   2.228  17.463 -0.0912  0.3303 -0.3910
 3041SOL    HW120585   3.487   2.204  17.473  0.3672  1.3674 -2.0898
 3041SOL    HW220586   3.367   2.245  17.553  0.3117  0.6123 -0.3197
 3042SOL     OW20587   3.871   4.192   5.283 -0.0901 -0.0963 -0.1833
 3042SOL    HW120588   3.893   4.226   5.370 -1.5804  0.5458 -0.0542
 3042SOL    HW220589   3.812   4.118   5.295  0.3329 -0.9980 -3.6257
 3043SOL     OW20590   1.750   0.254  14.148  0.7547 -0.4295 -0.4509
 3043SOL    HW120591   1.669   0.210  14.123  0.1402 -0.1953  1.1775
 3043SOL    HW220592   1.748   0.246  14.243  1.3027  0.0563 -0.4014
 3044SOL     OW20593   3.819   0.322   3.547 -0.9035 -0.6274  0.2723
 3044SOL    HW120594   3.865   0.238   3.552 -0.7122 -0.5985 -0.9667
 3044SOL    HW220595   3.828   0.342   3.454  0.0394  0.0006  0.5001
 3045SOL     OW20596   4.697   2.116   9.078  0.0644 -0.2471 -0.1428
 3045SOL    HW120597   4.659   2.037   9.117 -1.6663  1.9591  2.6617
 3045SOL    HW220598   0.066   2.088   9.068  0.3995 -0.3021  2.9854
 3046SOL     OW20599   3.610   3.913  17.200 -0.1656 -0.5438  0.4066
 3046SOL    HW120600   3.523   3.875  17.214 -0.3964 -0.7986 -1.8486
 3046SOL    HW220601   3.633   3.860  17.124  0.7303  0.2283  0.1433
 3047SOL     OW20602   0.585   1.262   8.877  0.7681  0.2616  0.3863
 3047SOL    HW120603   0.608   1.199   8.809 -1.6238 -0.1373 -0.0831
 3047SOL    HW220604   0.526   1.318   8.827 -0.6310 -0.9214  0.6986
 3048SOL     OW20605   4.531   1.363   9.293 -0.7112 -0.2259 -0.1058
 3048SOL    HW120606   4.472   1.428   9.255  0.5537  2.3427  2.3264
 3048SOL    HW220607   4.587   1.342   9.219 -1.3004 -2.4247  0.0709
 3049SOL     OW20608   0.795   2.134  13.981 -0.1807 -0.7189  0.2653
 3049SOL    HW120609   0.767   2.224  14.000  0.3140 -0.8117  1.3890
 3049SOL    HW220610   0.889   2.126  13.998 -0.3747  1.1090  2.1897
 3050SOL     OW20611   3.154   0.487   1.970  0.0453  0.0255 -0.4439
 3050SOL    HW120612   3.174   0.407   1.920 -0.5986 -1.3647  1.5224
 3050SOL    HW220613   3.209   0.545   1.918 -1.1468  0.7332 -0.9248
 3051SOL     OW20614   1.767   1.984   7.318 -0.0578 -0.0099 -0.1457
 3051SOL    HW120615   1.763   2.041   7.242  1.1882  1.9837  1.2968
 3051SOL    HW220616   1.726   2.043   7.382  0.0187  0.5302 -0.5912
 3052SOL     OW20617   2.902   1.969   8.476  0.1221 -0.0691  0.4733
 3052SOL    HW120618   2.833   1.927   8.528  0.5082 -0.1227  0.9483
 3052SOL    HW220619   2.845   2.003   8.407 -0.4861 -1.1270  0.4522
 3053SOL     OW20620   3.277   3.595   9.384  0.3131  0.3192  0.2999
 3053SOL    HW120621   3.335   3.564   9.314 -1.6884 -0.6422 -0.9412
 3053SOL    HW220622   3.222   3.517   9.380  0.5785  0.1954 -1.1848
 3054SOL     OW20623   0.722   0.769  15.378 -0.2599  0.8039 -0.1396
 3054SOL    HW120624   0.650   0.765  15.315  2.2088  0.8235 -2.9732
 3054SOL    HW220625   0.785   0.708  15.340 -0.5080 -0.1338  0.9643
 3055SOL     OW20626   2.036   1.540  11.729 -0.0869 -0.0868  0.3512
 3055SOL    HW120627   2.056   1.524  11.821  1.7177 -0.4267 -0.0984
 3055SOL    HW220628   1.947   1.571  11.747 -0.9977 -2.9866  0.7789
 3056SOL     OW20629   0.401   4.182   2.444  0.5074 -0.4422 -0.4528
 3056SOL    HW120630   0.432   4.093   2.459  2.6572  0.1439 -1.3851
 3056SOL    HW220631   0.318   4.163   2.401 -0.4404  2.1805  0.2094
 3057SOL     OW20632   2.601   3.799  16.069  0.2723 -0.2321  0.3652
 3057SOL    HW120633   2.638   3.795  15.981  0.4981 -1.2406  0.5047
 3057SOL    HW220634   2.598   3.894  16.081  0.5431 -0.3723  1.5628
 3058SOL     OW20635   0.244   1.737  12.786 -0.1938  0.2141  0.5631
 3058SOL    HW120636   0.176   1.693  12.837 -1.0994  0.0632 -0.7761
 3058SOL    HW220637   0.198   1.821  12.782  1.0535  0.7964 -1.6540
 3059SOL     OW20638   3.602   1.836   5.341  0.4591  0.1850 -0.3818
 3059SOL    HW120639   3.693   1.858   5.360  0.4197 -0.3171  0.3580
 3059SOL    HW220640   3.596   1.744   5.364 -3.9370  0.1368 -1.7010
 3060SOL     OW20641   4.352   2.269   6.409  0.3549  0.4077  0.2891
 3060SOL    HW120642   4.379   2.339   6.349 -0.1092 -1.3668 -1.9464
 3060SOL    HW220643   4.345   2.311   6.495  0.1450  0.3617  0.2944
 3061SOL     OW20644   3.377   1.133   6.903  0.2547  0.4353  0.0516
 3061SOL    HW120645   3.294   1.180   6.909  0.5482  1.1052 -1.1398
 3061SOL    HW220646   3.339   1.050   6.871 -1.5663  0.2902  2.5744
 3062SOL     OW20647   0.571   0.375   6.963 -0.2460  0.0483  0.1499
 3062SOL    HW120648   0.595   0.301   7.018  2.0754  1.7609  1.4397
 3062SOL    HW220649   0.579   0.337   6.875  0.2535 -0.9460  0.6275
 3063SOL     OW20650   2.754   1.367   2.000  0.1160 -0.0156  0.1447
 3063SOL    HW120651   2.665   1.396   1.980  0.7490  1.3463 -0.6158
 3063SOL    HW220652   2.754   1.338   2.092  0.4566 -0.5151 -0.0096
 3064SOL     OW20653   4.684   0.196  14.903  0.0150  0.3009  0.6621
 3064SOL    HW120654   4.653   0.108  14.926 -1.4971 -0.2779 -3.6351
 3064SOL    HW220655   4.669   0.193  14.809 -1.5601  1.0269  0.8924
 3065SOL     OW20656   1.806   2.917   4.012  0.1668  0.1016 -0.0179
 3065SOL    HW120657   1.773   3.007   4.013  2.0301  0.7825  0.1229
 3065SOL    HW220658   1.731   2.882   3.965  0.1597 -0.6376  0.5544
 3066SOL     OW20659   4.462   1.935   0.436  0.2386  0.5429  0.2484
 3066SOL    HW120660   4.400   1.964   0.503 -1.2391  3.5997 -2.4394
 3066SOL    HW220661   4.525   1.884   0.487  1.3592  1.5077 -0.1592
 3067SOL     OW20662   0.076   3.013   7.971 -0.0794 -0.0033 -0.5012
 3067SOL    HW120663   0.041   2.927   7.993  0.0492  0.8343  2.9707
 3067SOL    HW220664   0.023   3.070   8.027 -1.4414 -0.5447 -1.2252
 3068SOL     OW20665   4.325   0.103   6.327  0.2714 -0.0582 -0.4960
 3068SOL    HW120666   4.357   0.029   6.378  1.8715  0.7007 -0.3871
 3068SOL    HW220667   4.274   0.153   6.390  1.1405  1.1257 -0.7228
 3069SOL     OW20668   1.553   0.306   6.710 -0.1149  0.1425  0.2933
 3069SOL    HW120669   1.559   0.236   6.775  1.5635 -0.4012 -0.4630
 3069SOL    HW220670   1.460   0.313   6.689  0.5613  3.9393 -1.5440
 3070SOL     OW20671   2.191   2.216   7.332 -0.0228 -0.0396 -0.3239
 3070SOL    HW120672   2.260   2.150   7.321  0.4686  0.1158  1.7507
 3070SOL    HW220673   2.126   2.174   7.388 -0.4605  1.1376  0.0411
 3071SOL     OW20674   1.688   2.281   2.876  0.1397 -0.0681 -0.7614
 3071SOL    HW120675   1.706   2.222   2.949 -1.6675  1.0506  0.5816
 3071SOL    HW220676   1.756   2.245   2.818 -1.7377 -0.7552 -2.5173
 3072SOL     OW20677   3.533   4.608   5.134  0.2565 -0.5517  0.3971
 3072SOL    HW120678   3.586   4.536   5.168  0.8217 -0.4378 -0.2381
 3072SOL    HW220679   3.524   4.664   5.211 -0.0891 -1.9048  1.3547
 3073SOL     OW20680   1.543   1.072   6.580 -0.2648 -0.3401 -0.3423
 3073SOL    HW120681   1.468   1.069   6.639 -1.6258  1.6590 -2.0017
 3073SOL    HW220682   1.507   1.084   6.492 -1.9724 -0.0319  0.4158
 3074SOL     OW20683   0.948   3.690   9.537 -0.1933  0.5501  0.1242
 3074SOL    HW120684   1.035   3.705   9.573  0.8875 -1.0364 -1.7576
 3074SOL    HW220685   0.971   3.673   9.445 -0.9079  0.9197 -0.1237
 3075SOL     OW20686   0.649   4.106  13.584 -0.0995  0.2962  0.2234
 3075SOL    HW120687   0.591   4.120  13.510 -0.7435 -0.5681  0.5679
 3075SOL    HW220688   0.715   4.167  13.552 -0.0231  0.5705  0.9034
 3076SOL     OW20689   1.030   3.799   3.895  0.2878 -0.1321 -0.1614
 3076SOL    HW120690   0.993   3.803   3.983  0.9860  1.7066  0.0483
 3076SOL    HW220691   0.973   3.733   3.857  0.2806 -0.2788  0.0993
 3077SOL     OW20692   2.234   2.037   4.274 -0.2146  0.0543 -0.5659
 3077SOL    HW120693   2.212   2.128   4.296  0.4841  0.3407 -1.0273
 3077SOL    HW220694   2.315   2.062   4.229  0.2139 -1.8479 -0.8175
 3078SOL     OW20695   2.526   2.648   1.187 -0.1632 -0.3947  0.3773
 3078SOL    HW120696   2.573   2.615   1.111  0.1546 -3.8791  2.1090
 3078SOL    HW220697   2.495   2.566   1.226  2.0671 -1.1341  0.5493
 3079SOL     OW20698   2.594   0.885   5.327  0.7467  0.0375  0.2293
 3079SOL    HW120699   2.680   0.885   5.284  0.8895 -0.9851  0.5148
 3079SOL    HW220700   2.570   0.977   5.324 -2.2199 -0.7121  0.5977
 3080SOL     OW20701   3.017   2.395   4.491  0.3035 -0.8593  0.3730
 3080SOL    HW120702   3.048   2.325   4.433  1.6615 -1.0451  1.3425
 3080SOL    HW220703   3.010   2.357   4.578  1.7949 -0.8421  0.4940
 3081SOL     OW20704   3.298   2.107  12.952  0.3858  0.3610  0.3994
 3081SOL    HW120705   3.312   2.055  13.032  0.3075 -0.4932 -0.1381
 3081SOL    HW220706   3.378   2.160  12.953  1.4711 -1.2454 -1.3881
 3082SOL     OW20707   2.234   2.275   5.008 -0.7311  0.4759 -0.8309
 3082SOL    HW120708   2.152   2.226   5.007  0.2542 -1.1461 -0.3958
 3082SOL    HW220709   2.225   2.335   4.934 -0.2378  3.3188  1.3987
 3083SOL     OW20710   1.630   2.554   4.317 -0.0938 -0.2034  0.3317
 3083SOL    HW120711   1.724   2.550   4.333  0.0474  0.8250 -0.2491
 3083SOL    HW220712   1.615   2.647   4.299  2.2642  0.2006  0.5305
 3084SOL     OW20713   1.276   4.189   7.887  0.2088 -0.0644  0.3981
 3084SOL    HW120714   1.307   4.278   7.868  0.9691  0.3202  3.4310
 3084SOL    HW220715   1.358   4.146   7.859 -0.0559 -1.2017  1.3652
 3085SOL     OW20716   1.374   3.947   8.450  0.0908  0.1410  0.1177
 3085SOL    HW120717   1.325   3.991   8.381 -0.4890  0.3691  0.6810
 3085SOL    HW220718   1.387   4.017   8.514 -0.6889 -0.6764  1.1625
 3086SOL     OW20719   0.579   4.255   1.662  0.5649 -0.1433  0.1845
 3086SOL    HW120720   0.616   4.335   1.626 -1.0367  0.9251  0.9089
 3086SOL    HW220721   0.630   4.238   1.741  2.2971  2.8124 -0.3250
 3087SOL     OW20722   2.443   4.632   2.170 -0.0958 -0.4237  0.5389
 3087SOL    HW120723   2.424   4.554   2.118 -0.1252 -0.7172  0.9890
 3087SOL    HW220724   2.434   4.691   2.095 -2.8156  1.5418  2.4707
 3088SOL     OW20725   2.142   2.628   9.664  0.0432 -0.5965 -0.4910
 3088SOL    HW120726   2.083   2.559   9.695  2.3772 -1.4826  1.9317
 3088SOL    HW220727   2.176   2.578   9.590 -0.8106  0.0441 -1.3146
 3089SOL     OW20728   2.030   0.851   6.108 -0.1315  0.4094  0.1932
 3089SOL    HW120729   2.064   0.885   6.025 -1.8948 -2.0084 -1.5489
 3089SOL    HW220730   1.940   0.833   6.081  0.0361  0.0711 -0.1414
 3090SOL     OW20731   1.837   2.511   3.975 -0.5457 -0.3093  0.1907
 3090SOL    HW120732   1.748   2.546   3.975  0.1459  1.4577  0.5653
 3090SOL    HW220733   1.876   2.573   4.036  2.4804 -1.1308 -0.8886
 3091SOL     OW20734   0.739   2.940   5.819 -0.1689 -0.2067  0.1097
 3091SOL    HW120735   0.745   2.906   5.730  2.1352 -1.2329  0.6373
 3091SOL    HW220736   0.647   2.965   5.827  0.2523  0.9550  1.2102
 3092SOL     OW20737   2.110   3.456   0.343 -0.4788 -0.0633  0.5855
 3092SOL    HW120738   2.048   3.519   0.381 -1.2910 -1.0271  0.8722
 3092SOL    HW220739   2.167   3.520   0.301 -1.0228  0.6669  0.9344
 3093SOL     OW20740   3.264   3.067   1.073 -0.8996  0.2997 -0.0341
 3093SOL    HW120741   3.256   3.162   1.073 -1.6734  0.2373  1.1336
 3093SOL    HW220742   3.342   3.046   1.125 -1.1168  2.0807  1.0302
 3094SOL     OW20743   2.343   1.393   4.891 -0.0885 -0.5445  0.2643
 3094SOL    HW120744   2.296   1.441   4.959 -0.6102 -2.2832  1.1241
 3094SOL    HW220745   2.324   1.457   4.822  1.6787  0.9863  1.1631
 3095SOL     OW20746   2.840   4.144  15.088 -0.2822 -0.0910  0.1039
 3095SOL    HW120747   2.920   4.154  15.140 -1.1703 -0.8097  1.6174
 3095SOL    HW220748   2.770   4.159  15.152 -0.3413  1.2840 -0.2749
 3096SOL     OW20749   2.763   3.762   2.330 -0.4530  0.2094  0.8387
 3096SOL    HW120750   2.684   3.737   2.283  0.3647  1.3754 -1.1401
 3096SOL    HW220751   2.827   3.728   2.269  3.0186  2.0260  3.4666
 3097SOL     OW20752   0.124   2.318   2.491  0.2493  0.2030  0.6174
 3097SOL    HW120753   0.147   2.370   2.414 -0.5120 -1.6176 -0.8352
 3097SOL    HW220754   0.214   2.301   2.521  0.7727  0.2116 -0.9250
 3098SOL     OW20755   3.602   3.594  12.788  0.5676  0.5629  0.3958
 3098SOL    HW120756   3.679   3.613  12.734 -0.9023 -0.6844 -2.1312
 3098SOL    HW220757   3.636   3.592  12.878  1.0640  0.2332  0.2019
 3099SOL     OW20758   2.990   3.301   2.977  0.0000  0.5049  0.7083
 3099SOL    HW120759   2.944   3.371   2.931  0.0486 -0.0552 -0.2039
 3099SOL    HW220760   3.046   3.348   3.039 -0.3620 -0.0211  1.4326
 3100SOL     OW20761   2.653   2.647   5.381  0.3941 -0.2281  1.0529
 3100SOL    HW120762   2.611   2.573   5.338  0.8302 -1.2394  2.3952
 3100SOL    HW220763   2.715   2.675   5.313 -0.4053 -0.1242  0.3712
 3101SOL     OW20764   4.289   3.553   3.105 -0.2641 -0.0807 -0.0868
 3101SOL    HW120765   4.338   3.558   3.023  1.4402  0.6537  0.9978
 3101SOL    HW220766   4.251   3.640   3.095  0.5105  0.4144  1.4337
 3102SOL     OW20767   2.406   0.678   2.725  0.6182  0.2177  0.0342
 3102SOL    HW120768   2.398   0.762   2.770 -1.7859 -0.2621  0.5299
 3102SOL    HW220769   2.333   0.682   2.663 -0.7030  0.7780  1.6146
 3103SOL     OW20770   1.291   1.998  12.434  0.1504  0.4541 -1.0406
 3103SOL    HW120771   1.280   2.021  12.527  0.4663 -1.4594 -0.5262
 3103SOL    HW220772   1.203   1.983  12.401 -0.5303 -0.3440  1.1234
 3104SOL     OW20773   2.443   1.760  15.450  0.4210 -0.4791 -0.0106
 3104SOL    HW120774   2.471   1.681  15.403  3.0574  1.4694 -1.7362
 3104SOL    HW220775   2.445   1.732  15.541  1.3466  1.2023  0.4694
 3105SOL     OW20776   3.073   0.422   3.703 -0.1597 -0.1933  0.0134
 3105SOL    HW120777   3.130   0.366   3.756 -0.5626  1.0756  1.8041
 3105SOL    HW220778   3.022   0.367   3.644 -0.9639  1.6619 -1.0160
 3106SOL     OW20779   2.723   0.795   1.247  0.1368 -0.7166  0.1958
 3106SOL    HW120780   2.787   0.830   1.185 -0.2713 -1.1734 -0.4856
 3106SOL    HW220781   2.664   0.749   1.187  1.1261  0.5531 -1.7699
 3107SOL     OW20782   1.706   4.550   9.513  0.6102  0.6179 -0.1665
 3107SOL    HW120783   1.763   4.591   9.578  0.6954  0.6511 -0.2638
 3107SOL    HW220784   1.672   4.632   9.478 -1.8979 -0.0449  0.6575
 3108SOL     OW20785   3.584   4.450   7.922 -0.1888 -0.1844  0.2017
 3108SOL    HW120786   3.545   4.430   8.007 -1.0674 -1.7132 -0.5589
 3108SOL    HW220787   3.527   4.407   7.858  0.0312  1.5179 -1.1371
 3109SOL     OW20788   1.984   1.469  11.338  0.0454 -0.0821 -0.4776
 3109SOL    HW120789   2.013   1.436  11.423  0.9954  1.1649 -0.3357
 3109SOL    HW220790   1.985   1.564  11.345  1.6971 -0.0439 -1.3160
 3110SOL     OW20791   3.351   1.675   8.213 -0.2796 -0.1665  0.0775
 3110SOL    HW120792   3.408   1.696   8.138 -1.9687  0.0483 -1.1593
 3110SOL    HW220793   3.277   1.631   8.171 -0.0861 -0.0932 -0.3460
 3111SOL     OW20794   4.202   2.039  11.481  0.2713  0.0131 -0.1576
 3111SOL    HW120795   4.157   2.016  11.562 -0.9889 -2.6884 -1.6414
 3111SOL    HW220796   4.285   2.064  11.523  0.8079 -0.0374 -1.1970
 3112SOL     OW20797   4.107   2.573   1.687  0.1442 -0.0637 -0.3937
 3112SOL    HW120798   4.026   2.535   1.654  0.1788 -0.1706 -0.3560
 3112SOL    HW220799   4.156   2.497   1.720  2.2828  2.0696  1.3425
 3113SOL     OW20800   0.738   4.351   9.236  0.2505  0.4275 -0.6107
 3113SOL    HW120801   0.730   4.305   9.320  2.0771  0.2808 -0.5283
 3113SOL    HW220802   0.821   4.312   9.210 -0.2803  0.4489 -2.2928
 3114SOL     OW20803   4.684   1.423   8.290 -0.9989  0.2608  0.0306
 3114SOL    HW120804   4.595   1.459   8.285 -2.2212 -2.5982  1.4463
 3114SOL    HW220805   4.711   1.450   8.378 -0.1392  3.3706 -1.1824
 3115SOL     OW20806   2.409   0.746   7.322  0.1739  0.3313 -0.0677
 3115SOL    HW120807   2.404   0.811   7.251 -2.4268 -1.0062 -1.1129
 3115SOL    HW220808   2.388   0.667   7.272  0.2881  0.1761  0.1317
 3116SOL     OW20809   0.193   2.557   4.062  0.0913  0.1662  0.3139
 3116SOL    HW120810   0.288   2.560   4.068  0.2635  1.1771 -2.8754
 3116SOL    HW220811   0.187   2.563   3.966 -0.8461  0.9047  0.4148
 3117SOL     OW20812   3.025   1.736   1.855 -0.1749 -0.1505 -0.3867
 3117SOL    HW120813   2.945   1.684   1.862  0.6450 -1.8372 -3.3243
 3117SOL    HW220814   3.086   1.677   1.898  2.0777  0.9476 -2.0187
 3118SOL     OW20815   4.101   4.114   3.483 -0.2324  0.0315  0.5151
 3118SOL    HW120816   4.148   4.196   3.501  0.2235 -0.8049  3.0085
 3118SOL    HW220817   4.114   4.069   3.566  0.1875 -0.9679 -0.0987
 3119SOL     OW20818   4.414   1.200   8.529 -0.3600  0.1911 -0.4368
 3119SOL    HW120819   4.331   1.153   8.543 -0.9710  1.9397  1.6852
 3119SOL    HW220820   4.434   1.147   8.451 -0.0429 -0.2841 -0.0313
 3120SOL     OW20821   1.856   0.403   4.975 -0.2468 -0.8237 -0.0904
 3120SOL    HW120822   1.856   0.431   4.884  1.5634  1.4790  0.6279
 3120SOL    HW220823   1.768   0.366   4.983 -1.0812  1.1417 -0.0372
 3121SOL     OW20824   4.497   2.266   7.871  0.5822  0.5049 -0.6454
 3121SOL    HW120825   4.405   2.279   7.894  0.5359 -1.7501  0.3438
 3121SOL    HW220826   4.535   2.264   7.959 -1.8925  1.1829  0.4345
 3122SOL     OW20827   2.039   0.673   6.529  0.2604 -0.4482 -0.1417
 3122SOL    HW120828   2.073   0.596   6.574 -0.5181 -1.1703 -0.7747
 3122SOL    HW220829   2.032   0.734   6.603  0.3645 -3.1500  2.1052
 3123SOL     OW20830   0.060   0.398   3.657 -0.3433  0.8599  0.0263
 3123SOL    HW120831   0.020   0.320   3.695  2.2668 -0.8268 -0.6837
 3123SOL    HW220832   0.153   0.387   3.677 -0.3442  0.2370 -0.3037
 3124SOL     OW20833   2.424   2.236   3.914  0.5005 -0.3812 -0.3461
 3124SOL    HW120834   2.421   2.324   3.953 -1.2847 -0.4794 -0.2583
 3124SOL    HW220835   2.438   2.194   3.999 -1.9159 -1.2143 -0.3551
 3125SOL     OW20836   3.357   4.520   8.607  0.5057 -0.2114 -0.2941
 3125SOL    HW120837   3.341   4.575   8.684 -1.8978 -0.1124 -0.8635
 3125SOL    HW220838   3.435   4.558   8.566  0.1185  1.7994  0.8210
 3126SOL     OW20839   2.426   1.931   6.763  0.9532  0.5017  0.2531
 3126SOL    HW120840   2.489   2.001   6.779 -0.3220  1.6935  0.1166
 3126SOL    HW220841   2.444   1.883   6.682  1.8007  1.3128 -0.0438
 3127SOL     OW20842   1.400   0.160   8.361 -0.3989  0.1386 -0.2136
 3127SOL    HW120843   1.405   0.163   8.456 -1.3885  1.5704 -0.2030
 3127SOL    HW220844   1.471   0.219   8.336 -1.1070  1.0858  0.0294
 3128SOL     OW20845   4.358   0.147   4.748  0.1976 -0.1005 -0.0924
 3128SOL    HW120846   4.362   0.088   4.823 -0.8334 -0.3455 -0.2397
 3128SOL    HW220847   4.301   0.216   4.783 -1.5792 -1.7714  0.2886
 3129SOL     OW20848   0.798   1.065  13.781  0.2352 -0.0384 -0.5889
 3129SOL    HW120849   0.746   1.061  13.861  0.4600  0.6750 -0.4067
 3129SOL    HW220850   0.749   1.126  13.726 -0.9275  0.1602  0.6814
 3130SOL     OW20851   2.943   1.993   2.161  0.7051  0.6160 -0.3373
 3130SOL    HW120852   2.915   2.074   2.203 -1.0006 -1.3244  2.2705
 3130SOL    HW220853   2.986   2.025   2.082 -2.6124  0.6011 -2.1836
 3131SOL     OW20854   1.427   3.836  17.431  0.0711 -0.8509 -0.1021
 3131SOL    HW120855   1.414   3.925  17.396  1.5398 -0.6546 -0.1358
 3131SOL    HW220856   1.506   3.805  17.388  0.6539 -0.6665  0.8352
 3132SOL     OW20857   1.858   1.831   0.298  0.1676  0.0859 -0.1379
 3132SOL    HW120858   1.778   1.860   0.254 -0.0749 -1.7225 -0.8817
 3132SOL    HW220859   1.827   1.830   0.389 -2.3098 -1.9395 -0.9925
 3133SOL     OW20860   2.484   3.173   5.558 -0.6971  0.1611  0.1044
 3133SOL    HW120861   2.496   3.260   5.596 -1.6364  0.4826 -0.3165
 3133SOL    HW220862   2.559   3.122   5.587  0.8500  1.5725 -1.4255
 3134SOL     OW20863   0.773   3.454  15.604  0.1671  0.4739 -0.4238
 3134SOL    HW120864   0.742   3.466  15.514  2.3913  1.9389 -0.9900
 3134SOL    HW220865   0.683   3.454  15.638 -0.0032  1.5627 -0.8630
 3135SOL     OW20866   4.667   3.187   9.990 -0.5107  0.0805 -0.2559
 3135SOL    HW120867   4.690   3.240  10.066  1.6088  1.2423 -1.7221
 3135SOL    HW220868   4.572   3.185  10.001 -0.5095  1.4924 -0.0679
 3136SOL     OW20869   0.096   4.156   3.511  0.1373 -0.4365  0.0241
 3136SOL    HW120870   0.156   4.183   3.441 -0.7280  1.4266 -0.0189
 3136SOL    HW220871   0.019   4.119   3.468 -1.5311  2.2735  0.6040
 3137SOL     OW20872   4.188   2.601   5.418  0.5439  0.2836  0.0560
 3137SOL    HW120873   4.281   2.604   5.439  0.6312 -2.6012  0.1057
 3137SOL    HW220874   4.154   2.674   5.469  1.1652 -0.4119  1.4823
 3138SOL     OW20875   3.090   1.785   1.589  0.0678  0.3702  0.4127
 3138SOL    HW120876   3.105   1.691   1.582 -0.1189  0.2088  2.3362
 3138SOL    HW220877   3.065   1.784   1.681  2.1192 -0.6848  0.9486
 3139SOL     OW20878   2.890   2.556  15.643  0.1236  0.2418 -0.2019
 3139SOL    HW120879   2.925   2.478  15.600 -0.4287  1.4481 -2.8711
 3139SOL    HW220880   2.886   2.622  15.573  1.2874 -0.5036 -0.9610
 3140SOL     OW20881   1.508   2.080   5.115  0.0295 -0.2283 -0.4944
 3140SOL    HW120882   1.487   2.100   5.207 -0.0567 -1.1617 -0.3121
 3140SOL    HW220883   1.419   2.089   5.082 -0.4089  0.3567  0.8427
 3141SOL     OW20884   1.950   2.923   5.194 -0.2737 -0.0506 -0.5297
 3141SOL    HW120885   1.929   2.841   5.240 -0.0680 -0.4394 -1.1318
 3141SOL    HW220886   2.010   2.962   5.258  0.9901 -1.7323 -0.6780
 3142SOL     OW20887   3.300   0.438  13.337 -0.4043  0.9114 -0.0672
 3142SOL    HW120888   3.337   0.468  13.254  0.9923  1.1384  0.6314
 3142SOL    HW220889   3.270   0.521  13.375 -2.5856  0.9916 -1.9956
 3143SOL     OW20890   2.680   3.717  13.459 -0.1796 -0.3881  0.1503
 3143SOL    HW120891   2.750   3.660  13.489  0.5542  0.2760 -0.3012
 3143SOL    HW220892   2.655   3.664  13.382  3.5099 -0.0861 -1.2239
 3144SOL     OW20893   0.698   1.763  11.399  0.2774  0.0000 -0.4526
 3144SOL    HW120894   0.724   1.791  11.311 -1.4422 -3.1285 -1.9806
 3144SOL    HW220895   0.672   1.843  11.444 -0.9181  0.4164 -1.8721
 3145SOL     OW20896   0.413   0.524  16.400 -0.5682  0.0900 -1.2872
 3145SOL    HW120897   0.439   0.474  16.477  0.0889  0.7591 -1.0720
 3145SOL    HW220898   0.422   0.616  16.425 -1.2093  0.1914 -1.4294
 3146SOL     OW20899   3.346   4.240  10.107 -0.3972 -0.1651  0.2144
 3146SOL    HW120900   3.355   4.193  10.024 -0.3254  1.2330 -0.5670
 3146SOL    HW220901   3.253   4.242  10.129 -0.6301  1.5463 -0.9142
 3147SOL     OW20902   2.575   2.004   7.081 -0.0925  0.3114 -0.4333
 3147SOL    HW120903   2.567   2.039   6.992  0.8120  0.8925 -0.2843
 3147SOL    HW220904   2.486   1.978   7.106  0.1282  1.0076  1.0698
 3148SOL     OW20905   1.995   2.074  11.581 -0.0117  0.0756  0.0886
 3148SOL    HW120906   1.997   1.978  11.580 -0.4590  0.0913 -3.1595
 3148SOL    HW220907   1.901   2.089  11.592  0.3030  2.7528 -0.8411
 3149SOL     OW20908   4.704   3.071   4.633 -0.5817  0.0333  0.4654
 3149SOL    HW120909   4.659   2.986   4.635  0.9116 -0.8160 -2.0050
 3149SOL    HW220910   0.069   3.031   4.621 -0.8616 -0.2126 -0.7232
 3150SOL     OW20911   0.384   0.165   0.380  0.0066  0.7361  0.6551
 3150SOL    HW120912   0.463   0.138   0.333  1.0458  2.9974  1.1230
 3150SOL    HW220913   0.309   0.132   0.330 -1.1042  2.2072  1.3378
 3151SOL     OW20914   2.423   4.265   7.175  0.0171 -0.3699  0.9487
 3151SOL    HW120915   2.452   4.292   7.088 -2.3017  2.0587  0.9649
 3151SOL    HW220916   2.329   4.279   7.169  0.0819  0.4263  1.9748
 3152SOL     OW20917   2.811   2.990   8.254  0.0860  0.1760  0.0023
 3152SOL    HW120918   2.754   3.054   8.296  1.0656  1.8573 -1.2587
 3152SOL    HW220919   2.880   2.999   8.320  0.3187  1.0671 -0.3597
 3153SOL     OW20920   2.821   1.227  16.083 -0.7363  0.4499  0.0886
 3153SOL    HW120921   2.912   1.239  16.109  0.2417 -1.5445 -2.5139
 3153SOL    HW220922   2.823   1.208  15.990  2.6430  0.5793  0.1328
 3154SOL     OW20923   3.611   4.137   8.529 -0.0033  0.2912  0.2676
 3154SOL    HW120924   3.660   4.218   8.544  0.9246 -0.8052  3.2842
 3154SOL    HW220925   3.598   4.108   8.620 -0.3534 -1.2831 -0.2966
 3155SOL     OW20926   0.230   0.138  12.971 -0.3302 -0.8382  0.5027
 3155SOL    HW120927   0.267   0.179  13.049  0.7410  0.9559 -0.9443
 3155SOL    HW220928   0.142   0.117  13.004 -0.0917  1.4573  2.5176
 3156SOL     OW20929   3.748   3.257   5.938 -0.0159 -0.3819  0.1235
 3156SOL    HW120930   3.720   3.228   6.025 -0.2527 -0.3857  0.0460
 3156SOL    HW220931   3.783   3.345   5.949 -0.2895 -0.3200  0.5062
 3157SOL     OW20932   1.649   2.408   5.239 -0.0677 -0.1964  0.1460
 3157SOL    HW120933   1.640   2.431   5.147 -1.4370  0.9529  0.5758
 3157SOL    HW220934   1.664   2.313   5.235 -0.3003 -0.2440  0.4186
 3158SOL     OW20935   3.378   0.364   6.116  0.1393  0.2584  0.1848
 3158SOL    HW120936   3.429   0.444   6.129  1.3643 -0.2079 -1.7738
 3158SOL    HW220937   3.304   0.399   6.065 -0.5654  0.9473  1.6501
 3159SOL     OW20938   2.093   1.599   5.697  0.1482 -0.1741 -0.8381
 3159SOL    HW120939   2.147   1.600   5.776  0.5832 -0.4991 -1.1361
 3159SOL    HW220940   2.098   1.507   5.672  0.9357 -0.0261 -1.2178
 3160SOL     OW20941   1.034   0.005  11.565 -0.2921 -0.2639  0.4423
 3160SOL    HW120942   0.985   0.075  11.608 -1.9090 -0.3515 -1.2399
 3160SOL    HW220943   1.114   0.016  11.616 -1.3606  0.0777  2.0302
 3161SOL     OW20944   0.333   1.234   9.271 -0.3071 -0.2979  0.2840
 3161SOL    HW120945   0.393   1.180   9.220  1.0333  0.4131  1.1160
 3161SOL    HW220946   0.318   1.295   9.199  1.9999  0.5571  0.5364
 3162SOL     OW20947   4.026   2.940   2.119 -0.4038  0.2537  0.5367
 3162SOL    HW120948   4.062   3.021   2.083 -1.3103  0.4879  0.1739
 3162SOL    HW220949   4.073   2.938   2.203  0.9258  1.7507 -0.1759
 3163SOL     OW20950   1.409   0.779   8.337  0.0411 -0.3749  0.2571
 3163SOL    HW120951   1.336   0.838   8.356 -0.2914  0.2412 -2.9396
 3163SOL    HW220952   1.360   0.725   8.275 -0.4515  1.2789 -0.8033
 3164SOL     OW20953   1.570   2.774   4.646  0.4096  0.8314 -0.1112
 3164SOL    HW120954   1.611   2.688   4.654 -0.4894  0.5893  2.0014
 3164SOL    HW220955   1.646   2.820   4.681 -1.0618  1.0950  2.7731
 3165SOL     OW20956   2.101   1.871   7.001  0.6156 -0.1617  0.1360
 3165SOL    HW120957   2.043   1.823   7.060  0.6792  0.4426  0.6955
 3165SOL    HW220958   2.044   1.936   6.960 -0.4758 -1.2769 -0.1310
 3166SOL     OW20959   3.120   1.534   8.089 -0.1836  0.3236 -0.6158
 3166SOL    HW120960   3.066   1.533   8.010 -0.0843  1.2684 -0.7020
 3166SOL    HW220961   3.057   1.517   8.158  0.6378 -0.9877 -0.1987
 3167SOL     OW20962   1.274   2.588   6.238  0.0376 -0.4516  0.1305
 3167SOL    HW120963   1.215   2.605   6.165  0.6358  1.7006  0.1473
 3167SOL    HW220964   1.353   2.635   6.212 -0.1378 -0.5666 -0.6138
 3168SOL     OW20965   2.882   2.417   2.450 -0.4401 -1.0938 -0.2873
 3168SOL    HW120966   2.956   2.388   2.396 -1.4822 -2.7076 -0.8811
 3168SOL    HW220967   2.881   2.341   2.508 -0.9496 -1.4564 -0.7747
 3169SOL     OW20968   1.469   3.628   4.443 -0.0172 -0.1956 -0.2261
 3169SOL    HW120969   1.553   3.611   4.400 -0.2042 -2.2225  0.2406
 3169SOL    HW220970   1.413   3.658   4.371  0.2101  0.1814 -0.2498
 3170SOL     OW20971   1.051   4.386   7.412  0.1760  0.5642 -0.1850
 3170SOL    HW120972   0.955   4.389   7.413  0.2135  0.2585  2.5059
 3170SOL    HW220973   1.071   4.438   7.334 -0.6530  0.3983 -0.5117
 3171SOL     OW20974   3.240   1.573   5.976  0.0207  0.4179 -0.5437
 3171SOL    HW120975   3.145   1.581   5.972 -0.1740 -0.4568  2.5659
 3171SOL    HW220976   3.268   1.581   5.885  0.7084  1.7400 -0.2122
 3172SOL     OW20977   4.229   0.900   7.187  0.0944 -0.3941  0.1649
 3172SOL    HW120978   4.189   0.812   7.187  1.2007 -0.8948  0.8240
 3172SOL    HW220979   4.157   0.942   7.140  2.6244  3.0387 -0.5665
 3173SOL     OW20980   1.729   4.301   6.159 -0.0496  0.3899  0.3296
 3173SOL    HW120981   1.822   4.307   6.179 -0.2915  2.3613  0.8405
 3173SOL    HW220982   1.728   4.291   6.064 -2.6945 -0.3903  0.4184
 3174SOL     OW20983   1.619   3.380   7.180 -0.4242 -0.2250 -0.4017
 3174SOL    HW120984   1.617   3.462   7.230  1.0807 -0.3501 -0.1531
 3174SOL    HW220985   1.567   3.412   7.106  0.2680 -1.1192 -1.2646
 3175SOL     OW20986   3.043   3.504  13.972 -0.2276  0.3034  0.1523
 3175SOL    HW120987   3.022   3.520  14.064 -0.4067 -0.8070  0.2996
 3175SOL    HW220988   2.954   3.526  13.945 -1.5186 -3.1661  1.5316
 3176SOL     OW20989   0.791   2.410   6.114  0.2385 -0.3562 -0.3757
 3176SOL    HW120990   0.864   2.349   6.117  1.4978  1.2043  1.1296
 3176SOL    HW220991   0.829   2.495   6.088 -0.6901  0.1273 -0.1354
 3177SOL     OW20992   0.430   3.841   4.667  0.0531  0.2754 -1.0090
 3177SOL    HW120993   0.334   3.845   4.669 -0.1175 -3.6560 -1.4074
 3177SOL    HW220994   0.445   3.918   4.613  2.2779 -0.3850 -1.3152
 3178SOL     OW20995   3.413   3.860   7.837 -0.1812  0.0919  0.0801
 3178SOL    HW120996   3.359   3.887   7.912  0.4651 -0.9127  0.9002
 3178SOL    HW220997   3.356   3.797   7.792 -0.7037  0.3579  0.3656
 3179SOL     OW20998   2.678   1.746   6.913 -0.4925 -0.8257  0.1457
 3179SOL    HW120999   2.651   1.695   6.990  0.0908  0.9494  1.5307
 3179SOL    HW221000   2.759   1.779   6.952 -0.5427 -0.6514  0.1028
 3180SOL     OW21001   2.567   0.397  17.200  0.3314  0.1532  0.0542
 3180SOL    HW121002   2.595   0.487  17.183  0.3069  0.1851  0.1837
 3180SOL    HW221003   2.649   0.349  17.191  0.3122 -0.5901  3.6000
 3181SOL     OW21004   1.357   0.036   4.282  0.0349 -0.1729 -0.0634
 3181SOL    HW121005   1.366   4.691   4.349  0.4435 -0.1098 -0.0560
 3181SOL    HW221006   1.319   0.110   4.329  1.1706 -1.7358  3.2626
 3182SOL     OW21007   2.626   3.055   6.694 -0.4323 -0.3607 -0.1443
 3182SOL    HW121008   2.619   3.024   6.784  0.4584  1.1647  0.4421
 3182SOL    HW221009   2.634   3.150   6.700  0.7948 -0.4970  0.4276
 3183SOL     OW21010   0.184   0.188  16.572 -0.6640  0.0783 -0.2089
 3183SOL    HW121011   0.155   0.268  16.616 -1.1396 -1.1251  1.6538
 3183SOL    HW221012   0.144   0.200  16.486  0.4973 -1.1504 -0.9184
 3184SOL     OW21013   0.236   1.465   2.423  0.2522  0.2779 -0.2358
 3184SOL    HW121014   0.146   1.483   2.451 -0.8141 -0.8874 -2.9377
 3184SOL    HW221015   0.222   1.397   2.357 -2.0654 -0.1873  0.7195
 3185SOL     OW21016   0.908   3.719  12.118  0.1378 -0.3179  0.1436
 3185SOL    HW121017   0.885   3.689  12.030 -2.5107  0.3362  0.6251
 3185SOL    HW221018   0.868   3.651  12.172 -0.2620 -2.4629 -2.8201
 3186SOL     OW21019   2.806   2.614   7.230  0.5756  0.3290 -0.3064
 3186SOL    HW121020   2.766   2.599   7.144  1.5887  1.3418 -0.9619
 3186SOL    HW221021   2.870   2.542   7.232 -0.2962 -0.4433 -0.2489
 3187SOL     OW21022   1.740   4.556   1.518 -0.1477  0.3072 -0.1765
 3187SOL    HW121023   1.713   4.638   1.557 -0.4457  0.2351 -0.2330
 3187SOL    HW221024   1.668   4.500   1.547  1.1148  0.5440  3.3605
 3188SOL     OW21025   0.945   0.102   2.858 -0.1956 -0.4808  0.2008
 3188SOL    HW121026   0.864   0.101   2.909 -0.2310 -1.2123  0.1190
 3188SOL    HW221027   0.909   0.136   2.776  2.5091 -1.6018 -1.4437
 3189SOL     OW21028   1.026   3.204   6.910  0.0162 -0.1702  0.0668
 3189SOL    HW121029   1.039   3.189   7.003  0.1571 -0.2015  0.0419
 3189SOL    HW221030   0.982   3.289   6.903 -2.7716 -1.5938  0.1342
 3190SOL     OW21031   3.450   4.585   7.215 -0.2877  0.1687 -0.0521
 3190SOL    HW121032   3.385   4.519   7.190 -0.3798 -0.2507  1.2955
 3190SOL    HW221033   3.403   4.665   7.191 -0.2464 -0.4410 -2.2039
 3191SOL     OW21034   3.298   2.556   6.168 -0.2938  0.0160  0.4690
 3191SOL    HW121035   3.379   2.516   6.137 -1.9066 -1.2510 -2.0817
 3191SOL    HW221036   3.298   2.540   6.263  1.3016 -0.9111  0.3008
 3192SOL     OW21037   3.673   0.348  16.287 -0.1805  0.7202  0.1870
 3192SOL    HW121038   3.666   0.293  16.209 -1.5969 -2.2503  2.4165
 3192SOL    HW221039   3.756   0.318  16.323 -0.7642 -0.0030  0.9337
 3193SOL     OW21040   0.314   3.217   8.052  0.1275  0.1169  0.9371
 3193SOL    HW121041   0.268   3.135   8.034  1.2773 -0.3924  0.3436
 3193SOL    HW221042   0.382   3.212   7.984 -1.1260 -1.3561 -0.1939
 3194SOL     OW21043   3.914   2.477   0.593 -0.0087 -0.0432  0.1849
 3194SOL    HW121044   3.902   2.384   0.573 -2.5830  0.3706 -0.2206
 3194SOL    HW221045   3.846   2.518   0.538 -0.0688  0.2144  0.4485
 3195SOL     OW21046   2.466   1.688  16.499  0.6276  0.1322  0.0352
 3195SOL    HW121047   2.453   1.666  16.591  1.1869 -1.6361 -0.3180
 3195SOL    HW221048   2.411   1.623  16.456  2.0282 -2.0575  1.5621
 3196SOL     OW21049   0.511   4.164  15.556  0.4739  0.4809 -0.4923
 3196SOL    HW121050   0.464   4.187  15.476  1.0185  2.6390 -0.2081
 3196SOL    HW221051   0.576   4.102  15.524  0.0956  0.0221 -0.3794
 3197SOL     OW21052   1.787   4.584   3.476 -0.0421 -0.2428 -0.0602
 3197SOL    HW121053   1.847   4.655   3.497  0.0118 -0.4179  0.3728
 3197SOL    HW221054   1.771   4.552   3.565  1.9420 -1.8243 -0.2786
 3198SOL     OW21055   0.323   1.093   4.429  0.3859  0.0199  0.1628
 3198SOL    HW121056   0.273   1.173   4.447  2.9991  2.0161 -1.3640
 3198SOL    HW221057   0.259   1.024   4.444 -0.4024  0.7408  0.1473
 3199SOL     OW21058   0.876   2.957   6.873  0.1524 -0.2132 -0.0092
 3199SOL    HW121059   0.852   2.898   6.944  0.4913  1.2444  1.2962
 3199SOL    HW221060   0.929   3.023   6.917  0.3708 -1.3197  1.3996
 3200SOL     OW21061   3.508   1.586   5.412  0.1720  0.2212  0.0877
 3200SOL    HW121062   3.430   1.565   5.463  0.7389 -2.5964 -0.1601
 3200SOL    HW221063   3.470   1.606   5.327  1.4684  1.6785 -0.1397
 3201SOL     OW21064   0.479   1.647  12.727  0.3571  0.0945 -0.3036
 3201SOL    HW121065   0.396   1.675  12.765  0.5886 -0.7391  0.8402
 3201SOL    HW221066   0.473   1.685  12.640  1.2973  0.3299 -0.2669
 3202SOL     OW21067   1.243   0.465   3.381 -0.1719  0.2544  0.0245
 3202SOL    HW121068   1.172   0.526   3.360  0.5117  1.8035  2.2492
 3202SOL    HW221069   1.267   0.437   3.292 -1.0092  0.8506 -0.3904
 3203SOL     OW21070   3.453   3.221   5.968 -0.3102 -0.4706  0.3572
 3203SOL    HW121071   3.538   3.255   5.941 -0.7936  0.2841 -0.2254
 3203SOL    HW221072   3.470   3.195   6.059 -1.9188  2.2339  1.4627
 3204SOL     OW21073   4.081   1.584   3.628  0.0046  0.1756 -0.2099
 3204SOL    HW121074   3.988   1.562   3.622  0.4714 -0.8794 -3.6286
 3204SOL    HW221075   4.094   1.653   3.564  0.4777  0.4961  0.2324
 3205SOL     OW21076   0.142   2.570   3.759 -0.1175  0.1090  0.1401
 3205SOL    HW121077   0.119   2.651   3.713 -1.4359 -0.7760 -0.7664
 3205SOL    HW221078   0.081   2.511   3.716  0.5335 -0.3663 -0.1251
 3206SOL     OW21079   4.047   1.413   0.072  0.4812 -0.2362 -0.5173
 3206SOL    HW121080   3.979   1.435   0.008 -1.0490 -0.1716  1.1128
 3206SOL    HW221081   4.064   1.500   0.107 -0.0377 -0.3284 -0.0320
 3207SOL     OW21082   4.702   1.814   5.800 -0.2810 -0.0514 -0.6848
 3207SOL    HW121083   0.026   1.851   5.876  3.6504  1.4840 -3.8049
 3207SOL    HW221084   0.022   1.867   5.733  0.2470  1.2859  0.6773
 3208SOL     OW21085   4.093   3.826  13.448  0.0154  0.4731 -0.1357
 3208SOL    HW121086   4.105   3.905  13.396  1.5327  0.0240 -0.4709
 3208SOL    HW221087   4.075   3.766  13.376 -0.3194 -0.3089  0.5947
 3209SOL     OW21088   3.284   3.221  10.053 -0.0784 -0.3188  0.0423
 3209SOL    HW121089   3.202   3.266  10.034  1.0502  2.1482  0.9944
 3209SOL    HW221090   3.344   3.273  10.000  1.7474  0.3030  2.7465
 3210SOL     OW21091   3.749   0.514   5.274 -0.0821 -0.0051  0.0606
 3210SOL    HW121092   3.814   0.568   5.319  1.0296 -0.8730 -0.5035
 3210SOL    HW221093   3.741   0.440   5.334  0.5840 -1.2288 -1.3412
 3211SOL     OW21094   2.484   3.585   4.172  0.3110  0.3624 -0.4050
 3211SOL    HW121095   2.522   3.615   4.255 -1.2642 -0.5050  0.6284
 3211SOL    HW221096   2.470   3.491   4.182  3.1184 -0.1020 -0.7150
 3212SOL     OW21097   1.238   2.327  14.702  0.5514  0.2990 -0.5524
 3212SOL    HW121098   1.243   2.313  14.797 -1.2331 -0.5494 -0.5811
 3212SOL    HW221099   1.328   2.313  14.673  0.7429  2.1036 -0.8167
 3213SOL     OW21100   1.996   0.801   7.806  0.0767  0.0854  0.2217
 3213SOL    HW121101   2.059   0.758   7.748  0.4234  0.8560  0.0313
 3213SOL    HW221102   1.913   0.755   7.792 -0.3710  0.3827  1.8480
 3214SOL     OW21103   1.642   4.522   7.105 -0.2703  0.2906  0.3045
 3214SOL    HW121104   1.614   4.609   7.135  0.1365  0.5999 -0.2173
 3214SOL    HW221105   1.646   4.476   7.189  0.4507  1.2602  0.8145
 3215SOL     OW21106   3.985   3.317   4.705  0.6371 -0.2180  0.3947
 3215SOL    HW121107   4.007   3.399   4.663 -0.7442 -0.8826 -1.6237
 3215SOL    HW221108   4.015   3.341   4.793 -1.7971  0.5443  1.0173
 3216SOL     OW21109   0.713   3.610  10.153  0.4248 -0.2057  0.3173
 3216SOL    HW121110   0.694   3.524  10.191 -1.5541 -0.0302 -0.2814
 3216SOL    HW221111   0.788   3.580  10.102  1.0515  0.1828  1.0081
 3217SOL     OW21112   1.995   3.620   2.984  0.3592  0.2451 -0.5278
 3217SOL    HW121113   1.930   3.688   2.999 -0.9897 -0.5183 -2.9077
 3217SOL    HW221114   2.006   3.599   3.077 -0.3566 -2.4188 -1.0487
 3218SOL     OW21115   3.705   4.590   8.414 -0.4437  0.1271  0.0519
 3218SOL    HW121116   3.797   4.613   8.431 -1.3333  1.2195  3.3119
 3218SOL    HW221117   3.691   4.536   8.491  2.1504 -0.9823 -0.2634
 3219SOL     OW21118   2.405   0.393   9.569  0.5291  0.4147 -0.2340
 3219SOL    HW121119   2.472   0.393   9.637  1.8537 -1.5067 -1.5498
 3219SOL    HW221120   2.436   0.324   9.510  0.0784 -0.2236  0.2765
 3220SOL     OW21121   4.497   1.426   3.882 -0.6380  0.0451  0.0055
 3220SOL    HW121122   4.434   1.404   3.815 -0.4128  0.0085 -0.1948
 3220SOL    HW221123   4.538   1.509   3.857  1.7351 -1.3609 -0.8096
 3221SOL     OW21124   2.822   2.824   5.505  0.1519 -0.2367 -0.8763
 3221SOL    HW121125   2.871   2.860   5.431 -1.3455 -1.0480 -2.2895
 3221SOL    HW221126   2.754   2.773   5.460 -0.8831 -0.3076  0.7853
 3222SOL     OW21127   0.923   3.688  13.574  0.0143  0.1830 -0.0538
 3222SOL    HW121128   0.963   3.752  13.633 -1.5350  0.0910  1.0965
 3222SOL    HW221129   0.875   3.740  13.510  1.7729 -1.5009 -2.7268
 3223SOL     OW21130   0.764   4.065   2.552  0.4063 -0.7066  0.0632
 3223SOL    HW121131   0.714   4.122   2.611  1.9876  0.5037  0.1983
 3223SOL    HW221132   0.770   4.113   2.470 -0.5852  0.6105  0.7632
 3224SOL     OW21133   3.138   1.975   4.564  0.2711 -0.0234  0.6820
 3224SOL    HW121134   3.155   2.049   4.506 -0.5242 -0.8311 -0.5658
 3224SOL    HW221135   3.223   1.933   4.580  0.4449  0.3362  0.7111
 3225SOL     OW21136   2.425   1.339   3.965 -0.0344  0.1586  0.4087
 3225SOL    HW121137   2.500   1.330   3.906  1.9526 -2.2541  3.3284
 3225SOL    HW221138   2.380   1.418   3.934  2.0949  1.5821  0.9338
 3226SOL     OW21139   0.883   0.941   5.830 -0.6270 -0.1338  0.0767
 3226SOL    HW121140   0.964   0.952   5.879 -1.8224  0.6517  1.8843
 3226SOL    HW221141   0.840   1.021   5.859 -1.6208 -0.9191  0.7839
 3227SOL     OW21142   3.875   3.084   5.017 -0.0671  0.1326 -0.0437
 3227SOL    HW121143   3.947   3.055   5.073 -0.3564  0.7574  0.6611
 3227SOL    HW221144   3.855   3.008   4.962  0.9667 -0.3538  0.2553
 3228SOL     OW21145   1.151   3.458   2.984  0.0591  0.5674  0.0204
 3228SOL    HW121146   1.181   3.508   2.908 -1.8577 -0.4314 -1.3757
 3228SOL    HW221147   1.223   3.398   3.004  0.5559  0.6863 -1.3897
 3229SOL     OW21148   0.423   3.785   8.213  0.0396 -1.0142  0.0641
 3229SOL    HW121149   0.461   3.743   8.290 -1.0012 -3.1016 -0.5681
 3229SOL    HW221150   0.367   3.857   8.242  0.3809 -0.4198 -0.7569
 3230SOL     OW21151   0.544   4.395  17.450 -0.8053  0.0006  0.5306
 3230SOL    HW121152   0.546   4.485  17.418 -0.6779 -0.2617 -0.1955
 3230SOL    HW221153   0.489   4.403  17.528 -1.1605 -1.3669  0.4075
 3231SOL     OW21154   4.477   2.929   8.630 -1.3084 -0.1909 -0.1284
 3231SOL    HW121155   4.528   2.996   8.675  3.1644 -2.1824 -2.2020
 3231SOL    HW221156   4.414   2.980   8.581 -0.6610  1.0340  0.3119
 3232SOL     OW21157   0.253   3.118  17.581 -0.7200  0.5699  0.0021
 3232SOL    HW121158   0.240   3.167  17.662 -1.0056  0.3883  0.0686
 3232SOL    HW221159   0.331   3.067  17.604 -0.7006 -0.0867 -1.5231
 3233SOL     OW21160   4.074   1.596   3.277 -0.2578  0.0859  0.3529
 3233SOL    HW121161   4.007   1.529   3.266  0.7035 -1.0594  1.3585
 3233SOL    HW221162   4.136   1.546   3.331  0.8990  1.7166  0.5504
 3234SOL     OW21163   2.406   2.628   4.980  0.0590 -0.4643 -0.7548
 3234SOL    HW121164   2.492   2.598   5.011  0.2553  1.3984  0.4992
 3234SOL    HW221165   2.373   2.639   5.069  2.4646  0.5988  0.0030
 3235SOL     OW21166   3.862   2.944   6.007  0.1591  0.2945 -0.3451
 3235SOL    HW121167   3.810   2.879   5.960 -0.8001  1.0576 -0.3434
 3235SOL    HW221168   3.824   3.025   5.971 -1.7223  0.2728  1.6578
 3236SOL     OW21169   1.560   4.192   3.927 -0.3088  0.1618  0.4059
 3236SOL    HW121170   1.584   4.210   4.018  0.6018 -1.1506  0.4407
 3236SOL    HW221171   1.650   4.174   3.897 -0.0030  1.2584  0.6750
 3237SOL     OW21172   0.088   3.080   1.961 -0.2100  0.2614  0.0844
 3237SOL    HW121173   0.090   3.055   1.869 -0.3355  1.2737 -0.1985
 3237SOL    HW221174   0.042   3.164   1.952 -1.1366 -0.0270  2.1635
 3238SOL     OW21175   0.677   1.661   2.955 -0.1077  0.2490 -0.3113
 3238SOL    HW121176   0.650   1.584   2.905  0.0610  1.1146 -1.7668
 3238SOL    HW221177   0.744   1.702   2.900  0.1310  0.1181 -0.1163
 3239SOL     OW21178   1.969   3.880   2.754 -0.2741 -0.0636  0.3411
 3239SOL    HW121179   1.958   3.882   2.849 -0.1197 -0.4822  0.3706
 3239SOL    HW221180   1.957   3.972   2.732  0.2376  0.0313  0.4577
 3240SOL     OW21181   0.748   2.127   7.025  0.3159  1.1557  0.2361
 3240SOL    HW121182   0.768   2.121   6.932 -1.0946  3.3922 -0.2090
 3240SOL    HW221183   0.655   2.144   7.016  0.3107 -0.2980 -2.5386
 3241SOL     OW21184   2.099   1.615  16.560 -0.3776 -0.3118  0.2609
 3241SOL    HW121185   2.091   1.690  16.619 -0.5480 -0.0192 -0.1426
 3241SOL    HW221186   2.023   1.564  16.587  0.0116 -0.1844  1.6034
 3242SOL     OW21187   3.438   2.678   1.222  0.7323  0.0761 -0.1213
 3242SOL    HW121188   3.455   2.650   1.132  1.1591  0.9388 -0.3106
 3242SOL    HW221189   3.399   2.600   1.262 -1.0394  1.6208  1.1440
 3243SOL     OW21190   4.647   4.142   2.366  0.2043 -0.9166 -0.1616
 3243SOL    HW121191   4.587   4.121   2.294  0.5349 -0.0227 -0.6976
 3243SOL    HW221192   4.627   4.233   2.388 -1.7605 -1.2466 -0.5253
 3244SOL     OW21193   0.330   0.850   8.944 -0.0127  0.0852  0.0839
 3244SOL    HW121194   0.415   0.881   8.976 -0.3413  0.6682  0.3802
 3244SOL    HW221195   0.292   0.816   9.025 -0.2712  1.6969  0.6285
 3245SOL     OW21196   1.151   3.021   6.576  0.1799  0.4975 -0.4379
 3245SOL    HW121197   1.215   2.988   6.513  1.8278  0.1693  1.4157
 3245SOL    HW221198   1.072   2.974   6.549 -1.8256  1.2232  4.1494
 3246SOL     OW21199   1.841   1.449  16.617 -0.4009 -0.1677  0.4055
 3246SOL    HW121200   1.849   1.424  16.709  0.6979  1.0603  0.6428
 3246SOL    HW221201   1.787   1.374  16.592 -0.1654  0.0460 -0.7755
 3247SOL     OW21202   3.259   4.621  16.040  0.4476 -0.1129 -0.1680
 3247SOL    HW121203   3.245   4.681  15.967  0.1486  0.0977  0.0616
 3247SOL    HW221204   3.315   4.670  16.101 -2.3502  1.5315  1.0770
 3248SOL     OW21205   1.340   2.104   4.728 -0.3135 -0.1788  0.2154
 3248SOL    HW121206   1.364   2.194   4.705  0.7760 -0.7355 -0.8172
 3248SOL    HW221207   1.253   2.097   4.688 -0.5918 -0.1592  0.8177
 3249SOL     OW21208   2.854   4.559   6.375 -0.3952  0.2754  0.5529
 3249SOL    HW121209   2.927   4.520   6.327  1.7421  1.6164  2.6610
 3249SOL    HW221210   2.871   4.654   6.371  1.3815 -0.1287 -1.1222
 3250SOL     OW21211   0.366   2.212   4.971  0.0388  0.0122  0.1807
 3250SOL    HW121212   0.427   2.142   4.995  1.8448  2.3884  2.5504
 3250SOL    HW221213   0.430   2.261   4.920  0.1099  0.1318  0.3847
 3251SOL     OW21214   2.304   1.668   4.128  0.0586  0.0584  1.0951
 3251SOL    HW121215   2.352   1.712   4.058  0.7774 -1.5047  0.6060
 3251SOL    HW221216   2.372   1.623   4.178  0.0834 -0.8413  0.2405
 3252SOL     OW21217   3.972   3.631   8.068 -0.6223 -0.0777 -0.4622
 3252SOL    HW121218   4.018   3.706   8.032  0.3965  0.2791  1.5548
 3252SOL    HW221219   3.965   3.646   8.162 -0.1561  0.3289 -0.4951
 3253SOL     OW21220   2.362   2.242   2.873  0.0943  0.6158  0.9457
 3253SOL    HW121221   2.431   2.217   2.812  0.0005  1.5800  0.4406
 3253SOL    HW221222   2.369   2.338   2.874 -1.9775  0.7872 -0.7738
 3254SOL     OW21223   0.994   4.334  16.680 -0.6906  0.2283  0.5913
 3254SOL    HW121224   0.960   4.411  16.634 -0.9237 -0.1348  0.1606
 3254SOL    HW221225   1.065   4.315  16.619 -0.0466  0.7911  1.1643
 3255SOL     OW21226   2.888   0.565   4.906  0.2000  0.1452  0.0664
 3255SOL    HW121227   2.940   0.515   4.842  0.7878 -0.5922  1.1202
 3255SOL    HW221228   2.922   0.655   4.904  1.6289 -0.4050 -0.6878
 3256SOL     OW21229   3.249   4.663   5.785 -0.2628 -0.2303  0.0954
 3256SOL    HW121230   3.166   4.678   5.740 -0.4498 -0.5403  0.3374
 3256SOL    HW221231   3.222   4.635   5.872 -4.6258  2.8171 -0.2455
 3257SOL     OW21232   1.837   4.342  10.819  0.0189 -0.1351  0.5209
 3257SOL    HW121233   1.742   4.344  10.828 -0.1341 -0.5434 -0.9075
 3257SOL    HW221234   1.841   4.364  10.726  0.8537 -0.1371  0.5519
 3258SOL     OW21235   1.706   3.034   9.448 -0.1292 -0.4374  0.2645
 3258SOL    HW121236   1.622   3.075   9.469 -1.3730 -2.8430 -0.0330
 3258SOL    HW221237   1.734   3.065   9.362 -1.8851  1.5406  0.3927
 3259SOL     OW21238   3.225   0.652   4.704  0.0219 -0.3062 -0.2539
 3259SOL    HW121239   3.299   0.617   4.655  2.0991 -1.0256  3.4436
 3259SOL    HW221240   3.237   0.747   4.712  0.4059 -0.4857  1.2226
 3260SOL     OW21241   3.400   4.384   3.133  0.4334  0.6596  0.4884
 3260SOL    HW121242   3.340   4.413   3.064 -0.5684  0.3518  1.2232
 3260SOL    HW221243   3.488   4.399   3.099  1.5614 -0.2800  3.0258
 3261SOL     OW21244   0.417   1.729  11.562  0.2978 -0.0219  0.6083
 3261SOL    HW121245   0.322   1.736  11.569  0.2663 -0.6462  0.7948
 3261SOL    HW221246   0.434   1.823  11.567  0.5647 -0.0272 -0.3527
 3262SOL     OW21247   0.854   3.876  12.883 -0.4042  0.0784 -0.6396
 3262SOL    HW121248   0.920   3.826  12.834 -0.7146 -0.3176 -0.6528
 3262SOL    HW221249   0.777   3.831  12.848 -0.9688 -0.2720  1.0772
 3263SOL     OW21250   3.393   0.777   7.028 -0.8166  0.1327 -0.1326
 3263SOL    HW121251   3.424   0.695   6.989 -0.2032 -0.5987  1.8833
 3263SOL    HW221252   3.316   0.795   6.975 -0.0427  1.2283 -0.8909
 3264SOL     OW21253   4.321   1.436   5.842 -0.1848  0.9655  0.2829
 3264SOL    HW121254   4.329   1.455   5.936 -0.8706  1.6756  0.1913
 3264SOL    HW221255   4.369   1.507   5.799  1.1221 -0.0182  0.1001
 3265SOL     OW21256   3.121   1.291   3.369  0.2543  0.7234 -0.3931
 3265SOL    HW121257   3.050   1.333   3.321 -0.5624  0.8467  0.9178
 3265SOL    HW221258   3.113   1.351   3.443 -2.7733 -0.8042  0.5170
 3266SOL     OW21259   3.596   0.768   2.716  0.0361 -0.1037  0.5805
 3266SOL    HW121260   3.587   0.815   2.633  1.5687  0.5418  0.7686
 3266SOL    HW221261   3.558   0.832   2.776  0.2062  0.4643  0.0873
 3267SOL     OW21262   1.990   3.672   0.645 -0.5124  0.8411 -0.6484
 3267SOL    HW121263   1.992   3.654   0.739 -1.7480 -0.3408 -0.8364
 3267SOL    HW221264   1.962   3.762   0.633 -0.7117  0.4596 -2.9768
 3268SOL     OW21265   1.940   3.528   5.328  0.4325  0.3003 -0.2231
 3268SOL    HW121266   1.930   3.606   5.382  0.9663  0.5286 -0.4571
 3268SOL    HW221267   2.031   3.529   5.298  0.3576  0.5682 -0.4350
 3269SOL     OW21268   1.030   2.518  15.029  0.5769 -0.5331  0.1110
 3269SOL    HW121269   0.977   2.576  15.084 -0.3658 -0.5048 -0.8081
 3269SOL    HW221270   1.084   2.584  14.986  1.0783 -1.8200 -1.2400
 3270SOL     OW21271   1.460   4.414   6.693  0.1487 -0.6391 -0.0458
 3270SOL    HW121272   1.501   4.417   6.779 -0.1376  0.2051  0.0593
 3270SOL    HW221273   1.402   4.337   6.699 -0.8230  0.0339 -0.8974
 3271SOL     OW21274   0.118   2.358   1.754 -0.4706  0.1254  0.2726
 3271SOL    HW121275   0.052   2.406   1.705 -0.6773 -1.3557 -0.8768
 3271SOL    HW221276   0.199   2.402   1.727  0.4184 -1.6844 -0.0166
 3272SOL     OW21277   2.133   1.760   1.828 -0.5279 -0.2048  0.0547
 3272SOL    HW121278   2.168   1.847   1.806 -1.3287  0.2659  0.6321
 3272SOL    HW221279   2.042   1.776   1.852 -0.7440  0.0734 -0.9635
 3273SOL     OW21280   3.288   4.063   9.627 -0.6221  0.2421 -0.0222
 3273SOL    HW121281   3.334   4.014   9.558 -2.9575  1.0391 -2.1574
 3273SOL    HW221282   3.206   4.015   9.616 -0.4457  0.1808 -1.1022
 3274SOL     OW21283   1.098   4.240   6.986  0.7609  0.2013  0.3632
 3274SOL    HW121284   1.022   4.202   6.942 -1.4302  0.8454  3.6603
 3274SOL    HW221285   1.161   4.245   6.914 -0.3550 -1.2832 -0.7143
 3275SOL     OW21286   3.956   4.457  12.003  0.1717  0.2540 -0.2227
 3275SOL    HW121287   3.962   4.488  11.913  1.0661  0.9252  0.0596
 3275SOL    HW221288   3.961   4.363  11.987 -2.1310  0.0239  0.4489
 3276SOL     OW21289   0.443   4.177   6.605  0.6507 -0.1131  0.4067
 3276SOL    HW121290   0.362   4.132   6.582  1.1701 -0.8525  0.0461
 3276SOL    HW221291   0.508   4.135   6.549  0.4181 -0.5348  0.4589
 3277SOL     OW21292   1.885   4.417   9.305 -0.1625  0.8852  0.3071
 3277SOL    HW121293   1.807   4.431   9.360 -0.4266  0.9481 -0.0836
 3277SOL    HW221294   1.862   4.496   9.257 -1.6049 -0.5372 -1.3461
 3278SOL     OW21295   1.969   3.816   7.330 -0.0856 -0.0191  0.1547
 3278SOL    HW121296   2.033   3.846   7.394  0.5429  0.0048 -0.4792
 3278SOL    HW221297   2.026   3.794   7.256  0.6545  1.1527  0.3769
 3279SOL     OW21298   0.662   1.815   7.484 -0.6414 -0.4768  0.2123
 3279SOL    HW121299   0.732   1.750   7.480 -0.4437 -0.2288 -0.3762
 3279SOL    HW221300   0.630   1.811   7.574 -1.7374 -0.6400 -0.1798
 3280SOL     OW21301   0.039   1.944   6.043 -0.4049 -0.7321 -0.6642
 3280SOL    HW121302   0.094   1.945   6.121 -1.6247 -1.3515  0.1914
 3280SOL    HW221303   0.075   2.020   5.996  2.7368 -0.9052  1.4534
 3281SOL     OW21304   3.427   2.444   9.742  0.1505 -0.1615 -0.1725
 3281SOL    HW121305   3.485   2.436   9.666 -0.8054  1.0122 -1.0196
 3281SOL    HW221306   3.439   2.362   9.789 -0.4022 -0.0810  0.0948
 3282SOL     OW21307   1.715   2.734   7.561  0.0053  0.4688  0.8914
 3282SOL    HW121308   1.717   2.814   7.509 -2.3224 -0.7574 -1.0611
 3282SOL    HW221309   1.650   2.677   7.520  0.2168 -0.1016  1.3356
 3283SOL     OW21310   2.790   2.159   1.635 -0.1460  0.7157  1.1371
 3283SOL    HW121311   2.836   2.080   1.661  0.9223  0.4959 -1.3260
 3283SOL    HW221312   2.778   2.134   1.543 -3.6208 -2.7659  2.5588
 3284SOL     OW21313   3.912   2.942  11.033  0.2250 -0.7746  0.3060
 3284SOL    HW121314   3.937   3.030  11.061  1.4737 -1.1341  0.3107
 3284SOL    HW221315   3.816   2.948  11.034  0.2710 -0.1463  0.6147
 3285SOL     OW21316   0.045   3.695   2.311 -0.5790  0.5101  0.4454
 3285SOL    HW121317   0.131   3.693   2.269 -1.0764  3.1075 -0.6701
 3285SOL    HW221318   4.715   3.731   2.239  0.1495  3.0136  1.1722
 3286SOL     OW21319   0.271   1.250   5.168 -0.0887  0.1939  0.3447
 3286SOL    HW121320   0.238   1.160   5.165  5.6419 -1.8933 -1.1617
 3286SOL    HW221321   0.211   1.288   5.231  0.6179  0.9694  0.5536
 3287SOL     OW21322   0.355   2.147  11.668  0.1577  0.0883 -0.3737
 3287SOL    HW121323   0.285   2.174  11.609 -0.1015 -0.6711 -0.4102
 3287SOL    HW221324   0.397   2.084  11.608  1.5022 -0.0885  0.7480
 3288SOL     OW21325   4.406   0.723   0.358 -0.1750 -0.0550 -0.7221
 3288SOL    HW121326   4.374   0.669   0.286  2.1124 -1.7112 -0.5058
 3288SOL    HW221327   4.351   0.689   0.428  0.8479 -2.4303 -1.0695
 3289SOL     OW21328   0.309   1.122   6.261 -0.0324 -0.2812  0.1683
 3289SOL    HW121329   0.214   1.111   6.254 -0.1444  1.5955 -1.3623
 3289SOL    HW221330   0.326   1.183   6.189 -0.5604  1.5301  1.5863
 3290SOL     OW21331   0.682   1.914   3.531 -0.1857  0.0679 -0.0002
 3290SOL    HW121332   0.742   1.875   3.467  0.2518  0.6752  0.0391
 3290SOL    HW221333   0.624   1.950   3.463  0.8500  0.9602 -0.4224
 3291SOL     OW21334   2.885   1.177   7.572 -0.1942  0.4384 -0.4159
 3291SOL    HW121335   2.800   1.156   7.535  1.2935 -0.5845 -3.3029
 3291SOL    HW221336   2.936   1.097   7.555 -2.4331 -0.9570 -0.5696
 3292SOL     OW21337   3.468   3.839  16.299  0.2077 -0.3400  0.0656
 3292SOL    HW121338   3.491   3.759  16.252 -1.4158 -0.8792  0.1903
 3292SOL    HW221339   3.380   3.859  16.267  0.2761  1.5638  1.0670
 3293SOL     OW21340   1.972   2.181  10.166  0.5941 -0.2407  0.1375
 3293SOL    HW121341   2.054   2.178  10.117  0.6233 -0.7720  0.2223
 3293SOL    HW221342   1.971   2.091  10.198 -2.2216 -0.6951 -1.2566
 3294SOL     OW21343   1.519   3.218   9.263 -0.1920 -0.2140  0.1568
 3294SOL    HW121344   1.458   3.214   9.189 -0.3862 -0.5159  0.3309
 3294SOL    HW221345   1.501   3.138   9.313  2.4656 -1.8069 -1.4438
 3295SOL     OW21346   1.446   0.600   3.879 -0.1788  0.4617 -0.1190
 3295SOL    HW121347   1.525   0.650   3.862 -0.3865  1.4099  1.7570
 3295SOL    HW221348   1.409   0.574   3.794 -0.9589 -1.5842  0.8349
 3296SOL     OW21349   0.501   1.802   2.615 -0.4935 -0.1614  0.2620
 3296SOL    HW121350   0.432   1.858   2.650 -1.9059 -2.3558  0.9603
 3296SOL    HW221351   0.555   1.868   2.571 -0.5135  0.1666  0.7187
 3297SOL     OW21352   2.500   2.504  17.109  0.0529  0.7284 -0.5133
 3297SOL    HW121353   2.431   2.475  17.168  2.1925 -0.3984  1.4348
 3297SOL    HW221354   2.455   2.541  17.033 -0.1784 -0.6268 -1.0411
 3298SOL     OW21355   2.474   2.644   3.558  0.2950  0.0414 -0.4147
 3298SOL    HW121356   2.535   2.681   3.495  2.4584 -0.8902  1.1071
 3298SOL    HW221357   2.406   2.621   3.495  0.1232  0.6519 -0.4525
 3299SOL     OW21358   0.125   4.278   6.386  0.2040  0.2725 -0.0404
 3299SOL    HW121359   0.196   4.287   6.323 -0.0791 -1.2345 -0.5699
 3299SOL    HW221360   0.147   4.336   6.460 -0.4427  0.3353  0.1030
 3300SOL     OW21361   0.842   2.096   4.970  0.1662  0.6067  0.0500
 3300SOL    HW121362   0.843   2.012   4.923  0.4312  0.3878  0.4465
 3300SOL    HW221363   0.802   2.075   5.054  2.1713  0.5279  0.9917
 3301SOL     OW21364   3.094   2.012   0.837  0.0916 -0.3718 -0.3147
 3301SOL    HW121365   3.180   1.989   0.872  0.3667  1.7079  0.3871
 3301SOL    HW221366   3.113   2.045   0.749 -0.3907  1.7838  0.3801
 3302SOL     OW21367   1.364   3.698   8.373 -1.0512  0.1412 -0.3504
 3302SOL    HW121368   1.385   3.787   8.404 -1.0245  0.4435 -1.2389
 3302SOL    HW221369   1.393   3.640   8.443 -1.4335 -0.2285 -0.5003
 3303SOL     OW21370   0.583   3.346  12.174 -0.3225 -0.4524  0.9436
 3303SOL    HW121371   0.625   3.427  12.201 -0.0048 -0.3401  0.1170
 3303SOL    HW221372   0.619   3.320  12.089 -1.6883 -1.6613  0.7227
 3304SOL     OW21373   2.003   4.294   1.279 -0.5588 -0.2076  0.4190
 3304SOL    HW121374   1.978   4.359   1.345  2.1485 -0.8186  2.0228
 3304SOL    HW221375   1.981   4.340   1.198 -2.0461  1.9744  2.0638
 3305SOL     OW21376   2.776   0.544   8.206  0.6825 -0.2682  0.3050
 3305SOL    HW121377   2.813   0.602   8.140  0.6205  0.3122  0.7883
 3305SOL    HW221378   2.847   0.481   8.215 -1.2859 -2.4257  0.7399
 3306SOL     OW21379   4.414   1.093   3.585 -0.5768 -0.0565 -0.5171
 3306SOL    HW121380   4.507   1.102   3.604 -1.2873 -0.8318  3.3354
 3306SOL    HW221381   4.414   1.014   3.531 -1.5595  0.5334 -1.3847
 3307SOL     OW21382   0.293   1.604   5.017  0.0461  0.0346 -0.0534
 3307SOL    HW121383   0.331   1.574   5.100 -0.2722 -1.4034 -0.4367
 3307SOL    HW221384   0.203   1.607   5.051 -0.1670  0.3623 -0.6465
 3308SOL     OW21385   0.774   1.503  10.070 -0.3679  0.4640 -0.1887
 3308SOL    HW121386   0.720   1.564  10.119  0.9050  0.9656  0.5661
 3308SOL    HW221387   0.852   1.493  10.124 -0.0666  0.2653 -0.6524
 3309SOL     OW21388   1.139   3.426   0.932 -0.2726  0.1625  0.5701
 3309SOL    HW121389   1.147   3.381   0.848  0.0001  0.8497  0.2196
 3309SOL    HW221390   1.200   3.376   0.986 -0.8410 -0.0624  0.9979
 3310SOL     OW21391   0.551   3.632   8.903 -0.1089  0.3060  0.1201
 3310SOL    HW121392   0.604   3.590   8.835  2.0431 -0.2761  2.1752
 3310SOL    HW221393   0.508   3.556   8.941 -0.1927 -0.1550 -0.9050
 3311SOL     OW21394   1.154   3.345   6.033 -0.2047  0.0727  0.1742
 3311SOL    HW121395   1.137   3.283   5.962 -0.1467  0.4829 -0.1977
 3311SOL    HW221396   1.083   3.310   6.088  0.8674 -0.6465  1.1183
 3312SOL     OW21397   3.204   3.766   5.864  0.3074  0.3945 -0.2188
 3312SOL    HW121398   3.122   3.738   5.904  0.6034  0.1963  0.2518
 3312SOL    HW221399   3.212   3.698   5.797 -0.6071 -1.1001  1.1965
 3313SOL     OW21400   3.203   1.286  12.754 -0.2619  0.3995 -0.4034
 3313SOL    HW121401   3.267   1.285  12.825  0.1581  1.5670 -0.7684
 3313SOL    HW221402   3.243   1.216  12.703  0.5269  0.1447  0.5746
 3314SOL     OW21403   1.684   1.939   6.823 -0.2046 -0.6697 -0.5446
 3314SOL    HW121404   1.633   2.008   6.781  1.7883  1.0193 -0.1654
 3314SOL    HW221405   1.691   1.875   6.752  2.1761 -0.5016 -0.4402
 3315SOL     OW21406   0.290   2.263   2.962  0.0118 -0.2049 -0.0364
 3315SOL    HW121407   0.202   2.301   2.962  0.4624  0.8571 -1.2749
 3315SOL    HW221408   0.343   2.343   2.950 -0.2042  0.1404  1.3324
 3316SOL     OW21409   3.776   3.922   7.388  0.3608  0.1813  0.1672
 3316SOL    HW121410   3.842   3.949   7.325  1.0662 -2.6314 -0.2856
 3316SOL    HW221411   3.722   3.881   7.321 -0.3211 -1.2635  1.6029
 3317SOL     OW21412   2.962   4.594   8.396  0.5380  0.1051 -0.0452
 3317SOL    HW121413   3.018   4.541   8.453 -1.3342 -0.1543  1.5229
 3317SOL    HW221414   2.873   4.579   8.426  0.7428  1.5564  1.2740
 3318SOL     OW21415   4.246   0.666  16.328  0.2394  0.0685 -0.6600
 3318SOL    HW121416   4.164   0.675  16.280 -0.4903 -1.7745  0.2672
 3318SOL    HW221417   4.305   0.694  16.258 -0.6263  2.0548 -0.6114
 3319SOL     OW21418   3.324   4.572  14.569  0.5857 -0.0844 -0.2921
 3319SOL    HW121419   3.383   4.636  14.528 -1.6655  1.0982 -1.6652
 3319SOL    HW221420   3.242   4.609  14.536 -1.0826 -1.0627  2.8930
 3320SOL     OW21421   1.739   1.518  11.233  0.5323  0.4748  0.3955
 3320SOL    HW121422   1.810   1.482  11.285 -0.9516 -2.2752  0.5344
 3320SOL    HW221423   1.794   1.569  11.174  1.2223 -1.0278 -0.2791
 3321SOL     OW21424   1.757   0.548   9.080 -0.1591  0.4785  0.8380
 3321SOL    HW121425   1.709   0.465   9.081 -1.3797  1.1625 -0.7639
 3321SOL    HW221426   1.831   0.526   9.137  1.4008 -1.6008 -1.9452
 3322SOL     OW21427   0.560   2.394   3.666  0.3684  0.0935  0.3546
 3322SOL    HW121428   0.477   2.434   3.638  0.4706  0.5427  0.6938
 3322SOL    HW221429   0.520   2.326   3.720 -0.2466 -0.3988 -0.7125
 3323SOL     OW21430   2.547   2.452   8.027  0.8954  0.1869 -0.4384
 3323SOL    HW121431   2.494   2.404   7.964  0.9700  0.3173 -0.5989
 3323SOL    HW221432   2.482   2.498   8.081  0.0997 -0.4358 -0.8568
 3324SOL     OW21433   3.965   0.526  12.541 -0.4115 -0.0352  0.3155
 3324SOL    HW121434   3.873   0.504  12.528 -0.4438  2.1434 -3.0999
 3324SOL    HW221435   3.996   0.457  12.600 -1.6307  0.2183  1.2629
 3325SOL     OW21436   3.979   3.999   4.827 -0.3867  0.3444  0.2311
 3325SOL    HW121437   3.921   3.939   4.874  0.6123  0.2061  1.2613
 3325SOL    HW221438   3.951   4.078   4.874 -0.8150  0.7716 -0.7266
 3326SOL     OW21439   4.528   2.870   4.668  0.4689  0.3608  0.1744
 3326SOL    HW121440   4.533   2.826   4.753  0.2530  0.6145  0.3174
 3326SOL    HW221441   4.511   2.962   4.690 -0.6305  0.3701 -0.7138
 3327SOL     OW21442   3.815   1.520   3.606  0.2344  0.2127  0.5352
 3327SOL    HW121443   3.774   1.607   3.604 -0.6042 -0.1816  0.5535
 3327SOL    HW221444   3.758   1.468   3.551  2.9358 -0.1803 -1.8860
 3328SOL     OW21445   0.932   0.068   4.156  0.1427 -0.8667  0.5153
 3328SOL    HW121446   0.942   0.162   4.173  3.2267 -1.3496  1.3963
 3328SOL    HW221447   1.018   0.059   4.115  0.0859 -3.2041  0.8989
 3329SOL     OW21448   0.344   2.447   5.895  0.1216  0.0936 -0.3766
 3329SOL    HW121449   0.276   2.501   5.936  0.2583  0.2595 -0.3666
 3329SOL    HW221450   0.409   2.511   5.867 -0.1319  1.2322  1.5988
 3330SOL     OW21451   3.179   3.109  14.829 -0.1744 -0.2747  0.0097
 3330SOL    HW121452   3.104   3.078  14.880 -0.1906  1.2305  0.8863
 3330SOL    HW221453   3.228   3.030  14.852  0.8145  0.2485 -0.3127
 3331SOL     OW21454   1.818   2.170   4.254 -0.1711  0.6339  0.2565
 3331SOL    HW121455   1.816   2.077   4.275 -1.2383  0.5861 -0.0559
 3331SOL    HW221456   1.736   2.168   4.204  1.1294  1.2809 -1.9179
 3332SOL     OW21457   1.279   0.994   1.092 -0.0927 -0.1097 -0.0960
 3332SOL    HW121458   1.265   1.062   1.026  3.2628 -0.4766 -1.1632
 3332SOL    HW221459   1.350   0.946   1.050 -0.1364 -0.7336  0.5504
 3333SOL     OW21460   2.424   2.720  11.627  0.1758 -0.0620 -0.6996
 3333SOL    HW121461   2.440   2.788  11.693  1.8622 -0.7870 -0.3468
 3333SOL    HW221462   2.458   2.763  11.548  2.2004  0.1993  0.3057
 3334SOL     OW21463   2.763   4.673  11.666 -0.1861 -0.1301  0.8985
 3334SOL    HW121464   2.676   4.676  11.706  0.0791  0.0876  1.4545
 3334SOL    HW221465   2.781   4.583  11.640  0.3308  1.0839 -3.0190
 3335SOL     OW21466   2.325   1.115   7.448  0.3417  0.3400 -0.1616
 3335SOL    HW121467   2.342   1.121   7.354  0.9219 -0.3237 -0.1007
 3335SOL    HW221468   2.259   1.047   7.453 -0.7460  1.3983 -0.2489
 3336SOL     OW21469   3.136   0.306   5.077  0.0015  0.1631 -0.1780
 3336SOL    HW121470   3.180   0.363   5.014 -0.6402 -0.5017 -1.2297
 3336SOL    HW221471   3.105   0.373   5.137  0.6376 -0.3274  0.7056
 3337SOL     OW21472   2.176   2.302   2.636  0.2506 -0.0783 -0.1258
 3337SOL    HW121473   2.231   2.361   2.585 -2.3506  1.9642 -0.5703
 3337SOL    HW221474   2.226   2.286   2.716 -0.4162  2.0902  0.7197
 3338SOL     OW21475   1.215   0.163  10.846 -0.0040  0.0703 -0.0382
 3338SOL    HW121476   1.140   0.196  10.895  0.6791 -0.2877  1.2319
 3338SOL    HW221477   1.259   0.246  10.829  0.9987 -0.6791 -1.0943
 3339SOL     OW21478   2.032   1.843   6.118 -0.2588  0.4662  0.4054
 3339SOL    HW121479   1.991   1.782   6.179 -0.8663  0.7500  0.2936
 3339SOL    HW221480   1.962   1.863   6.056 -0.5146  0.8999  0.8250
 3340SOL     OW21481   0.721   2.855   8.023  0.4656 -0.2028 -0.4388
 3340SOL    HW121482   0.738   2.792   8.093 -1.3633  1.0737  1.1458
 3340SOL    HW221483   0.669   2.918   8.072  0.6057 -0.7003  0.3367
 3341SOL     OW21484   2.639   1.014   2.397 -0.9265 -0.2311 -0.3225
 3341SOL    HW121485   2.563   1.072   2.403 -0.7907 -0.0021 -0.8368
 3341SOL    HW221486   2.606   0.925   2.407 -2.4516  0.4594  0.7819
 3342SOL     OW21487   2.197   3.590   3.960  0.1268  0.3404  0.0693
 3342SOL    HW121488   2.203   3.502   3.925 -2.2672 -0.3709  1.4468
 3342SOL    HW221489   2.263   3.629   3.902  0.0555 -0.3242 -0.4634
 3343SOL     OW21490   4.296   1.471   5.068  0.5180 -0.6223  0.1195
 3343SOL    HW121491   4.214   1.486   5.114  0.7004 -0.2674  0.3282
 3343SOL    HW221492   4.267   1.441   4.982 -1.1650 -1.6366  1.0422
 3344SOL     OW21493   0.697   3.444   4.619 -0.0709 -0.3048  0.3507
 3344SOL    HW121494   0.782   3.486   4.605 -0.2487  0.5506  1.7719
 3344SOL    HW221495   0.660   3.515   4.672  1.0056  0.8694 -0.4823
 3345SOL     OW21496   1.156   2.490   2.336  0.5376  0.3970 -0.1113
 3345SOL    HW121497   1.161   2.394   2.335  0.2952  0.3930 -2.2816
 3345SOL    HW221498   1.235   2.523   2.379  1.7045 -0.3028 -1.6765
 3346SOL     OW21499   2.462   2.567  11.969  0.1312  0.3785 -0.3276
 3346SOL    HW121500   2.478   2.512  11.892 -1.9643 -2.2097  1.0647
 3346SOL    HW221501   2.367   2.562  11.973  0.3472 -1.9594  1.6421
 3347SOL     OW21502   1.712   4.119   5.659 -0.0556  0.1698 -0.5616
 3347SOL    HW121503   1.637   4.177   5.672 -0.8634 -0.8275 -0.7983
 3347SOL    HW221504   1.732   4.126   5.565 -1.6731  1.7744 -0.7799
 3348SOL     OW21505   2.586   4.158   2.694  0.0164  1.1533  0.5382
 3348SOL    HW121506   2.495   4.163   2.663 -0.4092 -0.7578  1.5164
 3348SOL    HW221507   2.564   4.117   2.777  0.1984  0.2775  0.1539
 3349SOL     OW21508   1.537   2.996   5.423 -0.5589  0.4396 -0.1310
 3349SOL    HW121509   1.608   2.949   5.380 -1.4722  0.3111 -1.5225
 3349SOL    HW221510   1.487   2.920   5.453 -0.1556  0.3060  0.1972
 3350SOL     OW21511   4.122   1.698   2.404 -0.7836 -0.2965 -0.1965
 3350SOL    HW121512   4.135   1.604   2.417 -2.2207 -0.7108 -1.7686
 3350SOL    HW221513   4.210   1.734   2.400 -0.9588  0.2036  0.3686
 3351SOL     OW21514   1.788   3.831  10.576  0.6797  0.5027 -0.5535
 3351SOL    HW121515   1.879   3.824  10.548  1.2325  1.9152  0.8968
 3351SOL    HW221516   1.751   3.856  10.491 -2.8112  0.1840  0.8896
 3352SOL     OW21517   3.671   2.916   8.971 -0.2245 -0.1871  0.6182
 3352SOL    HW121518   3.636   3.004   8.977 -1.9044 -0.7834 -0.3526
 3352SOL    HW221519   3.756   2.952   8.947 -0.7704 -0.9955 -2.5536
 3353SOL     OW21520   1.826   4.265  13.363 -0.1351 -0.4818  0.3816
 3353SOL    HW121521   1.831   4.177  13.401  0.8598 -0.3546  0.5383
 3353SOL    HW221522   1.733   4.288  13.358  0.4734  1.4798 -1.9301
 3354SOL     OW21523   2.335   2.563   8.177  0.3915  0.1416  0.2828
 3354SOL    HW121524   2.320   2.650   8.141  1.2970 -0.3237 -1.2605
 3354SOL    HW221525   2.302   2.502   8.110 -1.2080  1.1574  0.1496
 3355SOL     OW21526   1.760   1.240  14.690 -0.1099  0.3407  0.1216
 3355SOL    HW121527   1.678   1.261  14.734 -0.4197 -0.7331  0.0435
 3355SOL    HW221528   1.808   1.199  14.762 -1.3760 -0.2186  0.6541
 3356SOL     OW21529   2.130   1.091   1.211 -0.7060 -0.4374 -0.6844
 3356SOL    HW121530   2.042   1.112   1.244 -0.6676 -0.1072 -0.7935
 3356SOL    HW221531   2.174   1.171   1.239 -0.5593 -1.0682  0.9205
 3357SOL     OW21532   0.190   1.408   2.730  0.4234 -0.0521  0.1369
 3357SOL    HW121533   0.097   1.397   2.749  0.2732  1.6770  0.3749
 3357SOL    HW221534   0.176   1.422   2.637  1.0912 -3.6780 -0.5082
 3358SOL     OW21535   4.299   3.055   2.458 -0.1998 -0.0505 -0.0129
 3358SOL    HW121536   4.321   3.124   2.396  1.0262 -1.0162 -0.6489
 3358SOL    HW221537   4.219   3.021   2.420 -0.0267  1.1373 -1.4160
 3359SOL     OW21538   0.953   3.765   6.609 -0.2043  0.1859 -0.5587
 3359SOL    HW121539   1.022   3.800   6.552 -0.0504  1.7471  0.5679
 3359SOL    HW221540   0.989   3.773   6.697  0.3144  0.7435 -0.8176
 3360SOL     OW21541   3.372   0.425  12.493  0.6756 -0.1465 -0.5353
 3360SOL    HW121542   3.327   0.393  12.571 -1.3767  2.5350 -0.6045
 3360SOL    HW221543   3.356   0.518  12.510  0.3856 -0.4002  0.6098
 3361SOL     OW21544   0.678   2.170   5.999 -0.0853  0.4182 -0.3521
 3361SOL    HW121545   0.711   2.256   6.022 -1.4564  0.7879  0.2535
 3361SOL    HW221546   0.732   2.122   6.062 -3.2290 -0.8747  1.3673
 3362SOL     OW21547   3.025   0.248   5.589 -0.0913 -0.1082  0.3322
 3362SOL    HW121548   3.012   0.190   5.664  3.5290 -1.7663 -0.3301
 3362SOL    HW221549   2.941   0.293   5.598  0.8187  1.3460  1.6404
 3363SOL     OW21550   1.602   3.926   2.787  0.5053  0.2259  0.2889
 3363SOL    HW121551   1.548   3.907   2.864  0.5905  1.1039  0.5669
 3363SOL    HW221552   1.593   4.022   2.793 -1.4657  0.0837 -0.4590
 3364SOL     OW21553   2.308   1.629  13.967 -0.5626  0.0438 -0.3767
 3364SOL    HW121554   2.213   1.616  13.966 -0.3093 -1.6155 -2.7978
 3364SOL    HW221555   2.329   1.589  14.052 -0.1395 -1.6635 -1.2811
 3365SOL     OW21556   0.263   2.549   4.338 -0.2582 -0.3090  0.1648
 3365SOL    HW121557   0.280   2.643   4.338 -0.2618 -0.3104 -3.3475
 3365SOL    HW221558   0.229   2.537   4.249 -1.4364 -0.1803  0.5950
 3366SOL     OW21559   3.514   1.799   3.211 -0.3453 -0.0962 -0.5299
 3366SOL    HW121560   3.520   1.782   3.117 -1.6455  0.2134 -0.6606
 3366SOL    HW221561   3.601   1.772   3.242 -0.7463 -0.3457  0.3886
 3367SOL     OW21562   1.636   3.271   5.234  0.3957 -0.3266  0.2203
 3367SOL    HW121563   1.731   3.262   5.235  0.5140  1.3245  2.4249
 3367SOL    HW221564   1.628   3.301   5.324  3.6588  1.5713 -0.1114
 3368SOL     OW21565   4.361   0.669   2.851 -0.4952  0.7646  0.0193
 3368SOL    HW121566   4.366   0.654   2.945 -0.8669  1.5719  0.1739
 3368SOL    HW221567   4.271   0.701   2.841 -1.0191 -0.1309  1.8635
 3369SOL     OW21568   0.017   4.476   3.231 -0.2756  0.2250 -0.3214
 3369SOL    HW121569   4.666   4.439   3.280  0.4613 -1.4899 -0.5233
 3369SOL    HW221570   4.714   4.568   3.223 -0.2359  0.0459 -2.3825
 3370SOL     OW21571   3.304   2.052  13.226 -0.6375  0.1585 -0.1487
 3370SOL    HW121572   3.212   2.025  13.226  0.3738 -3.3470  0.5228
 3370SOL    HW221573   3.314   2.068  13.319 -1.7424  1.1795 -0.2084
 3371SOL     OW21574   2.296   0.193   6.108 -0.0643 -0.0179 -0.2732
 3371SOL    HW121575   2.257   0.149   6.184  2.3269 -2.2240 -0.3422
 3371SOL    HW221576   2.220   0.236   6.069 -0.4223  0.6657  1.1571
 3372SOL     OW21577   0.939   1.511   4.483  0.6716 -0.4593 -0.4765
 3372SOL    HW121578   0.953   1.420   4.510 -0.8320 -1.7805 -4.0770
 3372SOL    HW221579   0.903   1.504   4.394 -0.4056 -1.5083  0.0454
 3373SOL     OW21580   3.710   3.058   7.650 -0.5114  0.6577 -0.2476
 3373SOL    HW121581   3.771   3.074   7.722 -0.4032 -1.1474  0.0611
 3373SOL    HW221582   3.740   2.977   7.608  1.0736  0.8950  0.4405
 3374SOL     OW21583   1.855   1.024  16.717 -0.0859  0.1747 -0.0416
 3374SOL    HW121584   1.765   1.038  16.687 -0.4846  0.4652  1.2986
 3374SOL    HW221585   1.832   1.017  16.809  0.4559 -4.9832 -0.2995
 3375SOL     OW21586   4.658   2.549   4.815  0.3473  0.0539 -0.0779
 3375SOL    HW121587   4.574   2.508   4.837  0.2225  0.2305 -0.2317
 3375SOL    HW221588   4.639   2.637   4.847 -0.8335  0.3611 -1.6507
 3376SOL     OW21589   2.836   2.337  17.130  0.0786  0.1891  1.1130
 3376SOL    HW121590   2.748   2.373  17.125  1.0639  2.4150 -0.5783
 3376SOL    HW221591   2.820   2.255  17.084 -1.6970  0.7978  0.6596
 3377SOL     OW21592   0.032   0.473   1.581 -0.1081 -0.5805  0.3632
 3377SOL    HW121593   0.120   0.495   1.614  1.1954  1.2328 -4.3379
 3377SOL    HW221594   0.010   0.416   1.654 -1.3010  0.8142  1.0768
 3378SOL     OW21595   0.103   3.137  15.907  0.0477 -0.3004 -0.8946
 3378SOL    HW121596   0.076   3.201  15.972 -0.2869 -2.1401  0.8025
 3378SOL    HW221597   0.021   3.099  15.873 -0.6615  0.0500  0.4376
 3379SOL     OW21598   1.646   2.698   3.159 -0.2157 -0.2115 -0.0340
 3379SOL    HW121599   1.626   2.677   3.068 -2.0948  1.6843 -0.0517
 3379SOL    HW221600   1.698   2.778   3.157  1.1039 -1.0488  0.9074
 3380SOL     OW21601   3.070   2.597  13.981 -0.2179  0.1816  0.0209
 3380SOL    HW121602   3.140   2.573  14.042 -0.8450 -1.5872  0.0424
 3380SOL    HW221603   3.079   2.692  13.975 -1.2486  0.1120 -2.2457
 3381SOL     OW21604   0.145   3.947  11.655 -0.2699  0.3034 -0.0210
 3381SOL    HW121605   0.129   4.040  11.643  0.3995  0.7135  2.3381
 3381SOL    HW221606   0.235   3.946  11.623 -0.7996 -0.6958 -1.4938
 3382SOL     OW21607   0.463   2.355   4.458 -0.1247  0.2113  0.1789
 3382SOL    HW121608   0.409   2.429   4.432 -2.8836 -1.8736 -0.0796
 3382SOL    HW221609   0.517   2.392   4.528  1.3618 -1.4719 -0.0746
 3383SOL     OW21610   3.161   3.386  15.634 -0.5580  0.6978  0.1804
 3383SOL    HW121611   3.202   3.450  15.692  1.7403 -0.0198 -0.6683
 3383SOL    HW221612   3.175   3.417  15.545  0.2765  1.4992  0.5893
 3384SOL     OW21613   0.213   3.051   3.600 -0.2425 -0.3064 -0.1630
 3384SOL    HW121614   0.259   3.016   3.524 -2.0954 -0.8635 -1.0330
 3384SOL    HW221615   0.141   3.092   3.552  1.0476  0.5495 -1.3576
 3385SOL     OW21616   0.193   3.705   5.815 -0.4844  0.0813 -0.9072
 3385SOL    HW121617   0.175   3.723   5.907 -0.8289  0.1159 -0.9801
 3385SOL    HW221618   0.287   3.719   5.816 -0.3844 -0.6863 -0.0528
 3386SOL     OW21619   2.449   3.165   8.986  0.2925  0.1838  0.2165
 3386SOL    HW121620   2.449   3.168   8.890  0.9456 -0.2945  0.2022
 3386SOL    HW221621   2.466   3.072   9.001  0.3712 -0.3511 -3.0760
 3387SOL     OW21622   2.673   1.116   8.348 -0.0291  0.9071  0.0836
 3387SOL    HW121623   2.677   1.212   8.346 -0.2979  0.8936 -1.0093
 3387SOL    HW221624   2.588   1.096   8.387 -0.0601  1.6028  0.3747
 3388SOL     OW21625   0.173   2.895   0.140  0.8507 -0.5823  0.0553
 3388SOL    HW121626   0.104   2.958   0.120  1.1015 -1.4276 -3.4777
 3388SOL    HW221627   0.125   2.812   0.143 -1.9651  1.0489 -0.0079
 3389SOL     OW21628   1.891   0.116   3.320 -0.3682  0.0197  0.3781
 3389SOL    HW121629   1.814   0.171   3.307 -3.0008 -3.8952 -0.2845
 3389SOL    HW221630   1.895   0.101   3.415 -0.2815  1.6056  0.6368
 3390SOL     OW21631   2.761   1.455   0.877 -0.3636  0.3747  1.0645
 3390SOL    HW121632   2.854   1.438   0.894  0.0644  0.3173 -1.4188
 3390SOL    HW221633   2.727   1.391   0.939 -1.5538 -1.7599 -1.7991
 3391SOL     OW21634   2.739   3.132   0.902 -0.4343  0.0047  0.5735
 3391SOL    HW121635   2.772   3.082   0.976  1.5916  0.2765 -0.1399
 3391SOL    HW221636   2.656   3.085   0.893 -1.0059  1.3342 -1.3032
 3392SOL     OW21637   2.491   1.543   4.325 -0.0011 -0.0566 -0.0695
 3392SOL    HW121638   2.569   1.584   4.362 -0.4099  1.0620 -0.4738
 3392SOL    HW221639   2.425   1.577   4.386  0.2543  0.8963 -0.3288
 3393SOL     OW21640   2.214   2.680   2.806  0.6420 -0.2391 -0.4176
 3393SOL    HW121641   2.268   2.759   2.800  0.3945 -0.0610 -0.2949
 3393SOL    HW221642   2.192   2.683   2.713  0.9556 -1.5669 -0.5384
 3394SOL     OW21643   1.771   0.974   1.127 -0.9031  0.6581  0.9234
 3394SOL    HW121644   1.845   1.034   1.122 -0.0966 -0.1386  3.0260
 3394SOL    HW221645   1.720   0.999   1.051  1.0895 -1.1149 -0.9868
 3395SOL     OW21646   1.542   1.517  15.506  0.5633  0.3300  0.1883
 3395SOL    HW121647   1.461   1.564  15.487  1.8039  2.5431  0.3353
 3395SOL    HW221648   1.603   1.553  15.441  0.3309 -2.8223 -1.7373
 3396SOL     OW21649   2.423   3.275  11.196 -0.2451  0.2627  0.4745
 3396SOL    HW121650   2.497   3.312  11.245  0.3143 -0.9595  0.5468
 3396SOL    HW221651   2.389   3.207  11.254  2.8499 -0.9112  0.8922
 3397SOL     OW21652   4.033   2.954   4.706 -0.1605 -0.1281 -0.4059
 3397SOL    HW121653   4.066   3.043   4.715 -0.7900 -0.0152  0.8268
 3397SOL    HW221654   4.073   2.915   4.628  2.1869  0.6735  0.3948
 3398SOL     OW21655   1.597   0.429   4.619  0.0208 -0.3186 -0.2991
 3398SOL    HW121656   1.547   0.347   4.612 -0.3212 -0.1387  0.0535
 3398SOL    HW221657   1.602   0.440   4.524 -0.2003  0.6332 -0.2042
 3399SOL     OW21658   3.586   3.668   3.863  0.1972 -0.4039  0.4325
 3399SOL    HW121659   3.661   3.644   3.808  0.0105  0.2964 -0.1366
 3399SOL    HW221660   3.588   3.763   3.851  1.6374 -0.4571  0.1523
 3400SOL     OW21661   4.338   4.614   7.254  0.2076 -0.2408  0.4363
 3400SOL    HW121662   4.381   4.542   7.207 -1.2737 -0.0986 -1.1283
 3400SOL    HW221663   4.339   4.584   7.344  2.4511 -0.7247  0.2656
 3401SOL     OW21664   0.864   3.248   3.623  0.0372  0.1576 -0.4305
 3401SOL    HW121665   0.805   3.324   3.623 -0.5222 -0.2793 -0.1595
 3401SOL    HW221666   0.910   3.253   3.539  0.2778  0.5470 -0.2743
 3402SOL     OW21667   1.815   0.203  11.466 -0.3512  0.1798 -0.6051
 3402SOL    HW121668   1.729   0.201  11.426  0.1674  0.0685 -1.7265
 3402SOL    HW221669   1.788   0.206  11.558 -1.0717 -0.5970 -0.7989
 3403SOL     OW21670   0.498   4.297   1.134  0.0243  0.0739 -0.2419
 3403SOL    HW121671   0.406   4.283   1.111  0.2070 -0.5850 -0.5778
 3403SOL    HW221672   0.539   4.211   1.123 -0.7696 -0.4459  0.9500
 3404SOL     OW21673   2.031   4.317  17.532 -0.0853  0.2868  0.5201
 3404SOL    HW121674   2.044   4.401  17.576 -1.8430  1.6901 -1.6352
 3404SOL    HW221675   1.940   4.295  17.553  0.0600 -0.0814  0.7666
 3405SOL     OW21676   2.680   0.112   3.938 -0.3358  0.6044  0.4528
 3405SOL    HW121677   2.616   0.061   3.988  1.5428 -0.6365  1.5979
 3405SOL    HW221678   2.616   0.154   3.880  0.7387 -1.0205 -1.9051
 3406SOL     OW21679   2.673   2.807   4.521 -0.4372  0.3248  0.3396
 3406SOL    HW121680   2.761   2.839   4.501 -0.4702  0.3991  0.3133
 3406SOL    HW221681   2.678   2.714   4.497  0.8542  0.2729  0.8290
 3407SOL     OW21682   4.588   0.638   5.477 -0.4301 -0.3479 -0.5916
 3407SOL    HW121683   4.590   0.548   5.510 -1.5307  0.0131  0.4463
 3407SOL    HW221684   4.553   0.623   5.389  1.0053  1.0132 -1.3952
 3408SOL     OW21685   4.392   3.890   3.228 -0.0613  0.0580  0.2859
 3408SOL    HW121686   4.297   3.881   3.240  0.0788  2.5209  3.4681
 3408SOL    HW221687   4.417   3.946   3.302 -1.1647  2.1619 -0.9105
 3409SOL     OW21688   2.685   4.577   9.247 -0.1809 -0.3007 -0.0554
 3409SOL    HW121689   2.706   4.565   9.154 -1.2083 -1.8189 -0.0948
 3409SOL    HW221690   2.760   4.619   9.288 -0.6055  0.3603  0.0348
 3410SOL     OW21691   2.381   1.143   2.621  0.2958 -0.1446  0.6455
 3410SOL    HW121692   2.326   1.196   2.679  1.0779  2.6101 -1.1207
 3410SOL    HW221693   2.393   1.202   2.546 -1.2253 -0.7918 -0.0930
 3411SOL     OW21694   4.649   0.294   4.101  0.4114  0.5697  0.1331
 3411SOL    HW121695   4.674   0.273   4.190  2.1021  2.4849  0.1154
 3411SOL    HW221696   4.679   0.383   4.081  1.1965 -0.1386 -1.8402
 3412SOL     OW21697   3.108   1.764   5.175 -0.2335 -0.1572  0.6262
 3412SOL    HW121698   3.052   1.692   5.146  2.2282 -1.5030 -0.7253
 3412SOL    HW221699   3.059   1.844   5.153 -1.1237 -0.1130  2.7110
 3413SOL     OW21700   0.030   3.972   4.970  0.6185 -0.5063 -0.1621
 3413SOL    HW121701   0.001   3.889   4.934  0.1512 -0.1270 -0.6551
 3413SOL    HW221702   0.095   4.000   4.906  0.5351 -1.5993 -0.7187
 3414SOL     OW21703   4.334   1.610   0.266 -0.1924 -0.3715 -0.2792
 3414SOL    HW121704   4.383   1.628   0.347 -2.5162  2.2664  0.5702
 3414SOL    HW221705   4.384   1.658   0.200 -0.6147  0.6997  0.1703
 3415SOL     OW21706   0.439   3.278   3.668  0.1339  0.2188 -0.6466
 3415SOL    HW121707   0.447   3.372   3.679  0.3903  0.2579 -1.1817
 3415SOL    HW221708   0.472   3.255   3.581  0.4136  0.9556 -0.7371
 3416SOL     OW21709   4.417   2.658   6.752 -0.2306  0.1252  0.4899
 3416SOL    HW121710   4.481   2.721   6.720  1.9964 -3.4575 -2.2058
 3416SOL    HW221711   4.340   2.705   6.721  1.0730  1.4913 -0.6510
 3417SOL     OW21712   2.050   3.345   6.774  0.3639 -0.4257  0.1513
 3417SOL    HW121713   1.993   3.283   6.728 -0.2392  0.0155  0.2970
 3417SOL    HW221714   2.017   3.430   6.744  0.8826 -0.0839  0.5425
 3418SOL     OW21715   0.952   2.298   8.993  0.3733 -0.3636 -0.2054
 3418SOL    HW121716   0.856   2.305   8.990  0.3218 -0.6804  0.8450
 3418SOL    HW221717   0.970   2.292   8.899 -1.7620 -0.7391 -0.6035
 3419SOL     OW21718   1.890   4.128   8.165  0.1118  0.2488  0.1264
 3419SOL    HW121719   1.907   4.070   8.240 -0.0664  0.6347  0.4657
 3419SOL    HW221720   1.897   4.214   8.208 -1.4950 -1.0275  2.9444
 3420SOL     OW21721   3.474   2.623   0.945  0.2567  0.2938 -0.0939
 3420SOL    HW121722   3.397   2.568   0.938 -1.2707  2.3258  0.9670
 3420SOL    HW221723   3.514   2.605   0.859 -0.9434 -1.1248 -0.3440
 3421SOL     OW21724   4.511   4.475   4.443  0.4405  0.3881  0.3594
 3421SOL    HW121725   4.424   4.488   4.404  2.6374  2.4725 -3.8545
 3421SOL    HW221726   4.498   4.513   4.530  0.8740  2.1418 -0.3359
 3422SOL     OW21727   2.330   0.986   3.020 -0.1446 -0.2311  0.6018
 3422SOL    HW121728   2.287   0.989   2.934  0.1982  2.2651  0.5354
 3422SOL    HW221729   2.420   1.012   3.000 -0.2137 -1.9319 -1.9019
 3423SOL     OW21730   3.814   3.646   2.073  0.0563 -0.2290 -0.4261
 3423SOL    HW121731   3.905   3.647   2.043  0.6416 -3.0182  1.1638
 3423SOL    HW221732   3.822   3.592   2.152  2.5447  0.9650  0.1460
 3424SOL     OW21733   2.302   4.540   6.284  0.0680 -0.2408  0.1159
 3424SOL    HW121734   2.386   4.585   6.278 -1.0330  1.5193 -2.0249
 3424SOL    HW221735   2.294   4.476   6.214 -0.7425 -0.4777  0.4160
 3425SOL     OW21736   0.480   1.948   5.381 -0.7050  0.2497 -0.0418
 3425SOL    HW121737   0.501   1.995   5.462 -0.1947  0.7264 -0.4473
 3425SOL    HW221738   0.553   1.886   5.379 -0.5241  0.4681 -0.3334
 3426SOL     OW21739   3.340   2.957   5.773 -0.3749  0.2051 -0.2722
 3426SOL    HW121740   3.358   3.041   5.815  0.0953  0.2547 -0.5740
 3426SOL    HW221741   3.416   2.907   5.800  1.0688  2.3429 -0.3937
 3427SOL     OW21742   0.910   3.379   1.636  0.3739 -0.1176 -0.1785
 3427SOL    HW121743   0.928   3.378   1.542  1.6854  0.5498  0.0656
 3427SOL    HW221744   0.891   3.286   1.649 -0.1860 -0.4022 -3.1389
 3428SOL     OW21745   0.641   3.953   8.692 -0.1820  0.1591 -0.1024
 3428SOL    HW121746   0.680   3.939   8.778  0.6898 -1.4568 -0.7602
 3428SOL    HW221747   0.690   4.034   8.679  0.9889 -0.2612  1.7076
 3429SOL     OW21748   1.824   4.380   1.824 -0.4596 -0.3117 -0.0850
 3429SOL    HW121749   1.783   4.437   1.890 -0.5921 -1.2217  0.6204
 3429SOL    HW221750   1.749   4.376   1.765 -0.5171 -0.1991 -0.0215
 3430SOL     OW21751   1.298   2.449   8.372  0.0605  0.3473  0.1094
 3430SOL    HW121752   1.289   2.527   8.316 -1.8108  0.2462  0.2773
 3430SOL    HW221753   1.368   2.477   8.431  1.3022 -0.1261 -1.1376
 3431SOL     OW21754   1.410   1.953   9.580  0.4018 -0.4462  0.5803
 3431SOL    HW121755   1.333   2.007   9.563  1.8419  1.6992  0.8773
 3431SOL    HW221756   1.428   1.907   9.499  0.9228  0.8513 -0.0473
 3432SOL     OW21757   3.507   1.967   4.187 -0.6941  0.0162 -0.3527
 3432SOL    HW121758   3.564   2.044   4.178 -2.2923  1.1716 -0.7208
 3432SOL    HW221759   3.419   1.994   4.161 -0.9097  0.5943  0.9982
 3433SOL     OW21760   1.038   2.888   7.620 -0.4615  0.1318 -0.3684
 3433SOL    HW121761   1.111   2.945   7.646 -1.6410  1.3973  0.1515
 3433SOL    HW221762   0.975   2.913   7.688 -0.6893 -2.1049  0.2391
 3434SOL     OW21763   2.163   3.871   7.525 -0.1046 -0.0017 -0.0197
 3434SOL    HW121764   2.157   3.784   7.564 -3.8668  0.1319 -0.2918
 3434SOL    HW221765   2.253   3.893   7.550  0.2191 -1.0489 -0.2919
 3435SOL     OW21766   2.279   0.738  15.687  0.0884 -0.2429 -0.0032
 3435SOL    HW121767   2.347   0.704  15.745 -2.3042 -3.6633  0.7739
 3435SOL    HW221768   2.206   0.680  15.708 -0.0630 -1.3524 -3.5458
 3436SOL     OW21769   2.982   3.683   2.651 -0.2066 -0.1683  0.6039
 3436SOL    HW121770   3.055   3.726   2.606  0.7201 -3.9867 -1.5681
 3436SOL    HW221771   3.002   3.592   2.626 -0.0199 -0.0753  0.4151
 3437SOL     OW21772   3.862   3.182  12.359  0.6585 -0.2578 -0.6160
 3437SOL    HW121773   3.797   3.130  12.406 -0.5641  0.4484 -1.5185
 3437SOL    HW221774   3.936   3.122  12.368 -0.5792 -1.6648  0.1358
 3438SOL     OW21775   3.818   1.495   7.345  0.0705  0.8447 -0.4607
 3438SOL    HW121776   3.808   1.412   7.300  0.4909 -0.5230  1.9487
 3438SOL    HW221777   3.792   1.553   7.274  0.8994  1.7882 -0.0093
 3439SOL     OW21778   0.206   2.450   2.276  0.3032 -0.1797  0.1929
 3439SOL    HW121779   0.195   2.515   2.207  1.1162 -1.4566 -1.1469
 3439SOL    HW221780   0.297   2.434   2.253  0.3263  1.5503 -0.9085
 3440SOL     OW21781   1.956   2.528  15.602  0.2236 -0.0574 -0.6365
 3440SOL    HW121782   1.927   2.437  15.599  0.4115 -0.1632  0.4539
 3440SOL    HW221783   1.882   2.565  15.555 -1.2136 -1.5650  0.4721
 3441SOL     OW21784   1.850   1.125  12.855  0.0307 -0.1963  0.4426
 3441SOL    HW121785   1.916   1.086  12.798 -0.3414  0.5945 -0.5407
 3441SOL    HW221786   1.811   1.194  12.801  0.5071 -0.0293  0.3046
 3442SOL     OW21787   1.452   1.956  13.203  0.4229 -0.1803  0.4784
 3442SOL    HW121788   1.479   2.035  13.155  0.1188 -0.5513 -0.3015
 3442SOL    HW221789   1.373   1.988  13.247 -0.8448  0.5255 -2.3016
 3443SOL     OW21790   3.417   3.960  13.650 -0.0247  0.4333 -0.0618
 3443SOL    HW121791   3.465   3.927  13.726 -0.1917  0.1766 -0.0675
 3443SOL    HW221792   3.367   3.883  13.622  0.1285  1.0392 -2.0089
 3444SOL     OW21793   1.053   2.556  16.198 -0.2593  0.1231 -0.1625
 3444SOL    HW121794   0.986   2.513  16.251 -0.3015  2.7002  1.8515
 3444SOL    HW221795   1.115   2.599  16.255  0.5740  0.7474 -1.5394
 3445SOL     OW21796   1.710   3.049   9.892 -0.3615 -0.9860  0.3417
 3445SOL    HW121797   1.620   3.022   9.907 -0.1211 -2.2500 -0.5078
 3445SOL    HW221798   1.720   3.093   9.977 -1.0725 -0.2765  0.0592
 3446SOL     OW21799   4.299   2.101   4.055  0.1892 -0.1199 -0.0389
 3446SOL    HW121800   4.342   2.124   4.137  2.3719 -0.8276 -0.9876
 3446SOL    HW221801   4.380   2.111   4.004 -0.6855 -0.9201 -1.5901
 3447SOL     OW21802   1.774   3.138   5.608 -0.2737 -0.1428  0.5174
 3447SOL    HW121803   1.724   3.151   5.527  1.5174  1.9132 -0.2687
 3447SOL    HW221804   1.819   3.054   5.592  0.8360  0.6732 -0.6425
 3448SOL     OW21805   4.423   3.969   5.419  0.7113  0.2766 -0.1119
 3448SOL    HW121806   4.515   3.970   5.446  0.4722  1.4848  0.6517
 3448SOL    HW221807   4.407   4.062   5.437 -0.1290  0.3570 -1.2588
 3449SOL     OW21808   1.482   2.912   7.131  0.2374 -0.1692  0.9342
 3449SOL    HW121809   1.400   2.864   7.143 -0.1325 -0.0740 -1.3034
 3449SOL    HW221810   1.497   2.951   7.217 -0.0820  1.2895  0.3205
 3450SOL     OW21811   0.727   0.427   7.663  0.0700  0.4246 -0.2597
 3450SOL    HW121812   0.645   0.388   7.694  0.8336  0.4676  1.8154
 3450SOL    HW221813   0.741   0.478   7.742 -1.0841  0.9785 -0.4013
 3451SOL     OW21814   3.655   2.073   2.286 -0.2030  0.1471 -0.7575
 3451SOL    HW121815   3.605   2.123   2.351  0.8944  0.0631  0.1540
 3451SOL    HW221816   3.744   2.106   2.299 -0.7647  0.1368  3.0312
 3452SOL     OW21817   1.754   3.790   0.972  0.0247  0.3940  0.1989
 3452SOL    HW121818   1.684   3.809   1.034  1.4214  0.5904  1.7292
 3452SOL    HW221819   1.771   3.878   0.939  0.5059  0.2892  0.1659
 3453SOL     OW21820   1.131   1.262   6.234  0.1946 -0.2442 -0.2384
 3453SOL    HW121821   1.124   1.347   6.278 -5.0240 -0.4061 -0.8268
 3453SOL    HW221822   1.116   1.200   6.306 -1.1730  0.2352 -0.1059
 3454SOL     OW21823   4.684   0.668   7.488  0.2086 -0.2990  0.0420
 3454SOL    HW121824   4.614   0.603   7.491 -0.4869  0.5275  2.2972
 3454SOL    HW221825   4.691   0.689   7.581 -2.6236  4.4819 -0.8857
 3455SOL     OW21826   4.567   0.653   9.054  0.2931 -0.1554  0.0585
 3455SOL    HW121827   4.546   0.571   9.009 -0.0525  0.1223 -0.2828
 3455SOL    HW221828   4.639   0.687   9.000  1.8742 -0.2266  2.1574
 3456SOL     OW21829   3.615   2.589   6.159  0.0662 -0.3618 -0.1013
 3456SOL    HW121830   3.628   2.628   6.245 -0.4412  2.8223 -1.4866
 3456SOL    HW221831   3.563   2.656   6.115 -0.4065  0.5626  1.8721
 3457SOL     OW21832   3.874   0.090   7.788  0.2445  0.2795  0.4721
 3457SOL    HW121833   3.875   0.174   7.743 -0.2846  0.2399  0.3878
 3457SOL    HW221834   3.784   0.058   7.789  0.1500  0.5341  0.1301
 3458SOL     OW21835   3.770   3.301  13.757  0.4104 -0.0825  0.0173
 3458SOL    HW121836   3.813   3.235  13.812  1.2777 -0.9251 -1.6798
 3458SOL    HW221837   3.682   3.289  13.793  0.2143 -0.8321 -0.7192
 3459SOL     OW21838   2.580   2.994   8.715 -0.5967  0.0088  0.1226
 3459SOL    HW121839   2.572   2.975   8.808 -2.2412  2.5798  0.4876
 3459SOL    HW221840   2.672   3.015   8.696 -0.3430 -0.5666  0.6943
 3460SOL     OW21841   2.265   3.684   1.911 -0.4596 -0.4401  0.0280
 3460SOL    HW121842   2.316   3.744   1.965 -0.7693  0.1768 -0.3689
 3460SOL    HW221843   2.216   3.741   1.852 -1.1111 -0.4854  0.5270
 3461SOL     OW21844   1.928   1.315   6.209  0.3387  0.5476 -0.4499
 3461SOL    HW121845   2.002   1.256   6.204  1.4299  2.0590 -2.3893
 3461SOL    HW221846   1.951   1.366   6.287 -2.3160  2.7290 -1.0905
 3462SOL     OW21847   3.028   2.016   3.018  0.4463 -0.2281  0.2496
 3462SOL    HW121848   2.936   2.034   2.998  0.9239  1.2868 -0.5546
 3462SOL    HW221849   3.063   1.954   2.955  0.6159 -1.6853  1.7646
 3463SOL     OW21850   0.340   4.238   9.322 -0.0902 -0.2134 -0.4763
 3463SOL    HW121851   0.384   4.320   9.345 -1.1375  0.4389 -0.7599
 3463SOL    HW221852   0.256   4.265   9.359  1.6899  1.7399  2.0788
 3464SOL     OW21853   3.620   1.738  15.041 -0.1180 -0.0502 -0.1140
 3464SOL    HW121854   3.577   1.674  14.985  1.2726  0.0319 -1.2860
 3464SOL    HW221855   3.682   1.791  14.990 -0.0056  0.9839  1.0978
 3465SOL     OW21856   2.022   4.294  16.910 -0.8821  0.7468 -0.2282
 3465SOL    HW121857   1.955   4.321  16.848  0.6540  1.2003 -1.7000
 3465SOL    HW221858   1.992   4.313  16.999 -1.1097 -2.3744  0.3461
 3466SOL     OW21859   0.891   3.628   3.752 -0.2685  0.1252 -0.1156
 3466SOL    HW121860   0.830   3.556   3.765 -0.2697  0.4624  1.8175
 3466SOL    HW221861   0.855   3.664   3.671 -0.1288 -0.1754 -0.3115
 3467SOL     OW21862   2.823   1.063   6.363  0.2182  0.2383 -0.1094
 3467SOL    HW121863   2.735   1.079   6.398  0.1030 -2.3690  0.8393
 3467SOL    HW221864   2.861   0.994   6.418  2.6615  1.4182 -0.3347
 3468SOL     OW21865   0.597   1.662  10.215  0.3679 -0.4860  0.1773
 3468SOL    HW121866   0.673   1.720  10.209 -0.0372  0.0489  0.2686
 3468SOL    HW221867   0.559   1.695  10.296  0.1541  0.0998 -0.1669
 3469SOL     OW21868   2.384   3.108  14.062 -0.6497 -0.1273 -0.2517
 3469SOL    HW121869   2.389   3.195  14.023 -0.6937  0.2839  0.6662
 3469SOL    HW221870   2.398   3.131  14.153 -2.0668 -0.1635 -0.0316
 3470SOL     OW21871   0.256   1.282   3.502 -0.4821  0.0322  0.1414
 3470SOL    HW121872   0.286   1.348   3.565 -0.9511 -0.1505  0.5528
 3470SOL    HW221873   0.342   1.254   3.469 -0.1982  0.9257  0.1107
 3471SOL     OW21874   4.424   0.245   6.110  0.3241  0.4699  0.0569
 3471SOL    HW121875   4.385   0.198   6.184  0.3452  0.5288  0.1048
 3471SOL    HW221876   4.457   0.169   6.062  0.6865 -0.7341  2.1898
 3472SOL     OW21877   2.120   1.741  11.595  0.3006 -0.0972 -0.3078
 3472SOL    HW121878   2.075   1.680  11.654  2.0524 -2.2400 -1.2078
 3472SOL    HW221879   2.178   1.678  11.552 -0.4656 -2.3242  1.9102
 3473SOL     OW21880   2.312   3.234   1.796  0.5212  0.2746 -0.5961
 3473SOL    HW121881   2.273   3.178   1.728 -0.7978 -0.9296  1.1521
 3473SOL    HW221882   2.265   3.209   1.876  0.7503 -1.4428 -0.9961
 3474SOL     OW21883   2.546   2.605   9.606  0.0829 -0.1700 -0.1711
 3474SOL    HW121884   2.589   2.635   9.686  2.7956 -2.3944 -0.7805
 3474SOL    HW221885   2.464   2.586   9.653 -0.9244  1.7564 -1.1585
 3475SOL     OW21886   4.162   2.268   3.259  0.2495 -0.4179 -0.1722
 3475SOL    HW121887   4.156   2.306   3.171 -0.2018 -0.8697 -0.3380
 3475SOL    HW221888   4.119   2.184   3.239  2.7569 -1.4753 -1.1816
 3476SOL     OW21889   2.758   3.220   6.325  0.1268  0.3439 -0.1339
 3476SOL    HW121890   2.771   3.299   6.272 -0.8076  0.7973  0.3046
 3476SOL    HW221891   2.708   3.261   6.396 -0.7655 -1.4595  0.2776
 3477SOL     OW21892   3.382   2.136   3.930  0.4197 -0.2969 -0.4841
 3477SOL    HW121893   3.341   2.217   3.902  0.6586  0.0610  0.2057
 3477SOL    HW221894   3.345   2.127   4.019  0.6630  2.7706 -0.0926
 3478SOL     OW21895   3.795   1.592   9.278 -0.0686  0.3269  0.3901
 3478SOL    HW121896   3.875   1.621   9.233 -0.8080  0.4478 -0.8669
 3478SOL    HW221897   3.727   1.627   9.220 -2.0202 -0.9784  1.9051
 3479SOL     OW21898   3.160   0.416   8.810  0.0191  0.1359  0.4295
 3479SOL    HW121899   3.121   0.500   8.784 -0.5376 -0.7894 -1.7417
 3479SOL    HW221900   3.188   0.448   8.896  0.0380 -2.2746  1.3121
 3480SOL     OW21901   4.013   3.743   9.579 -0.4232  0.3735 -0.2530
 3480SOL    HW121902   3.956   3.695   9.520  0.2362  0.5034 -1.0017
 3480SOL    HW221903   3.988   3.694   9.657  1.5171 -0.9424 -0.4597
 3481SOL     OW21904   1.339   3.208   9.636  0.2668  0.0827  0.2750
 3481SOL    HW121905   1.414   3.266   9.649  0.3134 -0.4610  2.4106
 3481SOL    HW221906   1.383   3.125   9.653  1.6312  0.6663 -0.3631
 3482SOL     OW21907   2.701   0.498   6.448  0.4302 -0.1222 -0.4817
 3482SOL    HW121908   2.642   0.531   6.380 -2.0063 -0.4530  1.4409
 3482SOL    HW221909   2.699   0.404   6.427  2.1949 -0.8014  2.3901
 3483SOL     OW21910   1.759   0.102   5.467 -0.0304 -0.2041 -0.4319
 3483SOL    HW121911   1.712   0.064   5.393  0.7497 -0.6320 -0.7147
 3483SOL    HW221912   1.771   0.032   5.531  2.2097  0.8251  0.2798
 3484SOL     OW21913   0.782   3.273   7.593 -0.1216  0.2853  0.1048
 3484SOL    HW121914   0.693   3.309   7.599 -0.2472  0.2664 -1.8178
 3484SOL    HW221915   0.784   3.292   7.500 -2.4446  0.5998  0.1051
 3485SOL     OW21916   1.073   1.276  13.454  0.5209 -0.5057 -0.4014
 3485SOL    HW121917   1.009   1.208  13.477  0.1568 -0.9467 -2.7157
 3485SOL    HW221918   1.034   1.315  13.376  2.3357 -1.6363 -1.8807
 3486SOL     OW21919   4.349   4.657  16.815 -0.5100 -0.4433 -0.1381
 3486SOL    HW121920   4.320   4.679  16.903 -2.9854 -0.2742 -1.0015
 3486SOL    HW221921   4.340   4.562  16.818 -0.2466 -0.4772 -0.3312
 3487SOL     OW21922   1.922   4.503   8.048 -0.2818  0.1813  0.2778
 3487SOL    HW121923   1.945   4.593   8.069 -1.5075  0.0648  2.1792
 3487SOL    HW221924   1.932   4.465   8.135 -0.1592  1.0967  0.6568
 3488SOL     OW21925   2.064   1.552  10.436 -0.0599 -0.9984 -0.0504
 3488SOL    HW121926   2.092   1.544  10.345  1.8308  1.2509  0.3489
 3488SOL    HW221927   2.140   1.592  10.478 -2.3965 -0.7878  3.9946
 3489SOL     OW21928   0.354   1.472  11.477 -0.2508 -0.0706  0.4555
 3489SOL    HW121929   0.396   1.550  11.512  0.4848 -0.3362  0.1653
 3489SOL    HW221930   0.398   1.461  11.392 -1.2525  1.1377 -0.2186
 3490SOL     OW21931   3.331   0.312   4.762 -0.0856  0.6804  0.0882
 3490SOL    HW121932   3.241   0.282   4.749  1.3194 -2.7169 -1.7342
 3490SOL    HW221933   3.361   0.247   4.826 -1.8557  2.2396  2.4840
 3491SOL     OW21934   0.295   0.257  15.966 -0.0179  0.4212 -0.4566
 3491SOL    HW121935   0.207   0.263  15.930 -0.2834 -0.2127  0.0786
 3491SOL    HW221936   0.312   0.333  16.022 -2.9929  2.5964 -2.5429
 3492SOL     OW21937   4.130   4.260   4.831  0.4482 -0.4005  0.0834
 3492SOL    HW121938   4.038   4.285   4.838  0.7985  0.8321  0.2330
 3492SOL    HW221939   4.148   4.251   4.925 -0.6568 -0.0186  0.3251
 3493SOL     OW21940   4.075   1.764   4.131 -0.3698 -0.4404 -0.3646
 3493SOL    HW121941   4.011   1.697   4.104 -0.4221 -0.6241  0.2265
 3493SOL    HW221942   4.053   1.835   4.071  0.9767  1.0578  0.9350
 3494SOL     OW21943   3.669   0.035   6.368  0.3331  0.2966  0.2520
 3494SOL    HW121944   3.659   0.023   6.274 -3.5392  0.3858  0.6156
 3494SOL    HW221945   3.758   0.007   6.388  0.2644 -0.9507 -1.2063
 3495SOL     OW21946   1.390   3.994   6.336 -0.1637  0.4719  0.3957
 3495SOL    HW121947   1.388   4.024   6.245 -1.7492 -1.0749 -0.0805
 3495SOL    HW221948   1.472   4.037   6.359 -0.2519  1.3320 -0.8958
 3496SOL     OW21949   3.457   1.153   4.446  0.2707 -0.5920 -0.5671
 3496SOL    HW121950   3.505   1.166   4.364  1.2618 -0.8614 -0.0287
 3496SOL    HW221951   3.458   1.057   4.444  0.4572 -0.6252  1.7636
 3497SOL     OW21952   4.400   0.578  15.743 -0.2626 -0.4912 -0.2993
 3497SOL    HW121953   4.309   0.593  15.770  0.5499  0.6517  1.7358
 3497SOL    HW221954   4.423   0.490  15.772 -0.4061 -0.6380 -0.6304
 3498SOL     OW21955   0.405   3.043  10.823  1.2203  0.2085  0.2430
 3498SOL    HW121956   0.474   2.995  10.868  0.9916  0.2539  0.6366
 3498SOL    HW221957   0.456   3.118  10.792  0.4104  0.4512 -0.5180
 3499SOL     OW21958   2.580   1.067  16.157 -0.4113 -0.0082  0.3504
 3499SOL    HW121959   2.646   1.128  16.125 -0.5027 -0.1687 -0.1465
 3499SOL    HW221960   2.613   1.031  16.239  0.8888 -0.8994 -0.5833
 3500SOL     OW21961   3.972   0.330   6.382 -0.5035  0.5919 -0.4759
 3500SOL    HW121962   3.960   0.272   6.307 -0.1578 -0.2370  0.1088
 3500SOL    HW221963   4.032   0.393   6.341  2.4217 -0.6564  1.8127
 3501SOL     OW21964   2.243   4.690   9.021 -0.5193  0.1096  0.3942
 3501SOL    HW121965   2.267   4.635   9.096  1.0976  0.0608 -0.1539
 3501SOL    HW221966   2.193   0.036   9.064 -0.9057  0.4495 -0.5996
 3502SOL     OW21967   0.395   0.456   7.340 -0.2858 -0.3603 -0.4323
 3502SOL    HW121968   0.471   0.502   7.303  1.4474  0.1567  3.6695
 3502SOL    HW221969   0.390   0.514   7.417  1.6158 -0.2521 -0.3721
 3503SOL     OW21970   3.054   0.538   8.523 -0.7653 -0.6338  0.0947
 3503SOL    HW121971   3.074   0.551   8.430 -2.6789 -1.0212 -0.3710
 3503SOL    HW221972   3.147   0.536   8.547 -0.2662 -0.2090 -1.8115
 3504SOL     OW21973   1.102   3.904   5.559 -0.5792 -0.5267 -0.3779
 3504SOL    HW121974   1.170   3.970   5.545  0.1488 -1.0714  0.6075
 3504SOL    HW221975   1.051   3.898   5.478  1.3143 -1.3686 -1.4922
 3505SOL     OW21976   4.458   0.269   3.466 -0.0848 -0.1702 -0.5331
 3505SOL    HW121977   4.523   0.338   3.452  0.2418 -0.2999  0.3399
 3505SOL    HW221978   4.515   0.196   3.489  0.5615  0.2710 -0.7336
 3506SOL     OW21979   4.268   1.210   9.201  0.0860  0.1072 -0.2610
 3506SOL    HW121980   4.358   1.219   9.234  1.1094 -0.4105 -2.8262
 3506SOL    HW221981   4.251   1.118   9.224 -1.5504 -0.4861 -3.7718
 3507SOL     OW21982   3.906   3.875  13.184  0.2376  0.1383 -0.2559
 3507SOL    HW121983   3.972   3.807  13.194  0.0980  0.2776  1.5340
 3507SOL    HW221984   3.829   3.819  13.184  0.0579  0.3913 -1.6644
 3508SOL     OW21985   4.668   4.235   5.403 -0.0791 -0.4026  0.0803
 3508SOL    HW121986   4.696   4.145   5.422 -0.9329 -1.0126 -1.5598
 3508SOL    HW221987   4.646   4.229   5.310 -0.2423  1.1685  0.0212
 3509SOL     OW21988   0.509   2.711   5.860 -0.0959  0.0371  0.0952
 3509SOL    HW121989   0.588   2.734   5.908  0.2472  0.3141 -0.6013
 3509SOL    HW221990   0.474   2.797   5.834  0.4188  0.5024  0.9422
 3510SOL     OW21991   2.893   2.625  16.881  0.5817  0.4357  0.1776
 3510SOL    HW121992   2.880   2.627  16.786 -1.0829  2.5367  0.4528
 3510SOL    HW221993   2.831   2.560  16.914  1.1073  0.1348  0.5787
 3511SOL     OW21994   3.088   1.328  11.154  0.5058 -0.3459  0.7448
 3511SOL    HW121995   3.176   1.308  11.186  0.4994 -3.6051 -1.2799
 3511SOL    HW221996   3.072   1.387  11.227 -0.3756 -2.3364  2.1412
 3512SOL     OW21997   4.132   3.505   3.841 -0.6464 -0.2777 -0.3469
 3512SOL    HW121998   4.216   3.460   3.832  1.0075  2.4573  1.3365
 3512SOL    HW221999   4.082   3.493   3.760  2.6389 -2.1142 -2.0812
 3513SOL     OW22000   3.215   2.744   2.899 -0.2782 -0.2050 -0.0310
 3513SOL    HW122001   3.201   2.666   2.952  0.6021 -0.0044  0.4907
 3513SOL    HW222002   3.306   2.761   2.924  0.1766 -0.9635 -1.1672
 3514SOL     OW22003   4.404   2.830   7.766 -0.2670 -0.0454 -0.2414
 3514SOL    HW122004   4.499   2.818   7.755  0.0412  0.4395  1.9760
 3514SOL    HW222005   4.369   2.750   7.806 -0.0538  1.5976  3.2156
 3515SOL     OW22006   3.162   2.892   2.675  0.0496  0.1389 -0.2551
 3515SOL    HW122007   3.158   2.844   2.757 -1.5305 -2.3135 -1.7587
 3515SOL    HW222008   3.095   2.955   2.700  2.1819  1.3984  2.3334
 3516SOL     OW22009   2.566   4.231   3.652  0.7773 -0.9293 -0.7958
 3516SOL    HW122010   2.508   4.182   3.593  1.2838 -1.6129 -0.7161
 3516SOL    HW222011   2.651   4.189   3.663  0.9434 -0.2329  0.5373
 3517SOL     OW22012   1.366   4.449   9.265 -0.2615  0.3525  0.1261
 3517SOL    HW122013   1.271   4.435   9.261 -0.1391 -0.6562  0.8184
 3517SOL    HW222014   1.409   4.368   9.240 -0.7525  0.3676 -0.7857
 3518SOL     OW22015   3.163   3.147  17.370  0.3965  0.6317  0.5606
 3518SOL    HW122016   3.224   3.076  17.393 -1.6872 -1.3726 -0.0860
 3518SOL    HW222017   3.085   3.103  17.404  1.2767 -1.5355 -0.1899
 3519SOL     OW22018   4.682   4.186   5.880  0.1546  0.0829 -0.1889
 3519SOL    HW122019   0.049   4.152   5.873  0.6456  1.5370 -0.9770
 3519SOL    HW222020   4.688   4.235   5.962 -1.4164  1.6858 -1.0394
 3520SOL     OW22021   2.042   0.083   4.632  0.2468  0.5122  0.4782
 3520SOL    HW122022   1.948   0.074   4.650  0.2340  0.4348  0.3737
 3520SOL    HW222023   2.058   0.026   4.556  0.7249 -0.9699  1.6765
 3521SOL     OW22024   0.815   1.288   5.414  0.2716  0.1494 -0.2028
 3521SOL    HW122025   0.812   1.226   5.487 -0.2976  0.2266 -0.1556
 3521SOL    HW222026   0.779   1.367   5.455 -0.4710  0.0166 -0.6095
 3522SOL     OW22027   0.254   2.350   3.311 -0.1822  0.6320 -0.4888
 3522SOL    HW122028   0.177   2.393   3.275  0.3529  1.4681 -0.6352
 3522SOL    HW222029   0.270   2.267   3.265  1.7718  1.3349 -1.0834
 3523SOL     OW22030   2.737   4.544  13.271  0.8508  0.1477  0.1319
 3523SOL    HW122031   2.731   4.629  13.315 -0.7258  0.2611 -0.2951
 3523SOL    HW222032   2.814   4.511  13.318  1.0113  1.9688  1.1569
 3524SOL     OW22033   3.427   4.014   1.822 -0.1913 -0.3792 -0.0166
 3524SOL    HW122034   3.387   4.029   1.908  1.2698  0.6723  0.4641
 3524SOL    HW222035   3.513   3.977   1.840 -0.1937 -0.3317  0.0945
 3525SOL     OW22036   4.375   3.887   7.504 -0.2551  0.0437 -0.4801
 3525SOL    HW122037   4.402   3.896   7.596 -1.6140  2.2722 -0.2978
 3525SOL    HW222038   4.454   3.888   7.450  1.1372 -3.4633  1.4782
 3526SOL     OW22039   1.590   3.996   1.132 -0.0466 -0.0703  0.1227
 3526SOL    HW122040   1.573   4.051   1.056 -0.0311 -0.2417 -0.0056
 3526SOL    HW222041   1.653   4.051   1.178 -1.3524  1.0773  0.5264
 3527SOL     OW22042   0.935   3.133  14.685  0.6478 -0.3995 -0.1979
 3527SOL    HW122043   1.031   3.133  14.691  0.5534  4.2888  0.6301
 3527SOL    HW222044   0.896   3.100  14.766  0.8827 -1.1645 -0.3938
 3528SOL     OW22045   1.306   3.159  10.978 -0.7295  0.0692  0.1165
 3528SOL    HW122046   1.253   3.079  10.987 -0.4606 -0.0972  0.2303
 3528SOL    HW222047   1.250   3.225  11.018 -1.3062  0.9129 -2.1061
 3529SOL     OW22048   2.612   3.564   1.675 -0.7086  0.0837  0.0682
 3529SOL    HW122049   2.550   3.522   1.734 -0.8722  1.6547  1.0226
 3529SOL    HW222050   2.594   3.516   1.594  0.4125  1.2457 -0.8695
 3530SOL     OW22051   0.806   2.414   1.987  0.0245 -0.3214  0.2984
 3530SOL    HW122052   0.844   2.361   2.057 -0.6859 -1.0908  0.1006
 3530SOL    HW222053   0.813   2.500   2.028  2.6144 -1.6259  2.6107
 3531SOL     OW22054   4.098   3.730   6.121 -0.6373 -0.0655 -0.5140
 3531SOL    HW122055   4.096   3.636   6.140 -1.0785  0.1565  0.4974
 3531SOL    HW222056   4.026   3.732   6.058 -2.2597 -2.2918  1.2771
 3532SOL     OW22057   3.137   3.024  12.748  0.1107 -0.1841 -0.3395
 3532SOL    HW122058   3.226   3.054  12.769 -1.0178  2.1537  1.1345
 3532SOL    HW222059   3.154   2.961  12.679 -0.3713 -1.0580  0.3452
 3533SOL     OW22060   1.857   3.202   5.884 -0.4204 -0.8762 -0.5435
 3533SOL    HW122061   1.864   3.188   5.789 -0.3187  1.1834 -0.8330
 3533SOL    HW222062   1.915   3.278   5.890 -1.4311 -0.2679  1.4742
 3534SOL     OW22063   3.365   3.788   1.644  0.4206  0.0222  0.0750
 3534SOL    HW122064   3.306   3.797   1.570 -0.0229  1.5607  0.5995
 3534SOL    HW222065   3.368   3.877   1.681 -1.1201  0.9241 -1.9652
 3535SOL     OW22066   3.340   3.849   4.535 -0.2946 -0.2085 -0.0461
 3535SOL    HW122067   3.269   3.818   4.591 -0.3400 -0.0511 -0.0165
 3535SOL    HW222068   3.390   3.889   4.607  0.0451 -2.1867  0.8081
 3536SOL     OW22069   1.370   4.090  12.666  0.5210  0.0253  0.2571
 3536SOL    HW122070   1.463   4.111  12.678  0.4547  0.3175  0.2547
 3536SOL    HW222071   1.356   4.045  12.749 -0.4429 -0.3464 -0.1136
 3537SOL     OW22072   2.692   4.445   8.760 -0.2576  0.4851 -0.0745
 3537SOL    HW122073   2.618   4.505   8.747 -1.7027 -1.6326 -1.6277
 3537SOL    HW222074   2.735   4.501   8.824  2.1343 -0.8889 -0.4906
 3538SOL     OW22075   1.214   3.645   4.554  0.0741  0.1374  0.6947
 3538SOL    HW122076   1.193   3.660   4.646 -2.2171 -0.1353  0.2167
 3538SOL    HW222077   1.308   3.625   4.556 -0.3418 -1.8906  0.3988
 3539SOL     OW22078   3.725   3.983   1.815  0.4792  0.6584  0.2462
 3539SOL    HW122079   3.792   3.915   1.820 -2.3982 -1.9743  3.3984
 3539SOL    HW222080   3.766   4.042   1.751  2.2627  0.3514  1.0924
 3540SOL     OW22081   0.721   1.450   8.296 -0.1506 -0.3379  0.0244
 3540SOL    HW122082   0.661   1.408   8.235 -0.2693 -1.4766  0.9302
 3540SOL    HW222083   0.805   1.406   8.286 -0.1321 -0.6076  1.3322
 3541SOL     OW22084   3.899   4.617   7.447 -0.0479  0.2481 -0.5983
 3541SOL    HW122085   3.982   4.661   7.466  0.0895 -0.2898  0.0103
 3541SOL    HW222086   3.909   4.566   7.367  2.4291  1.5463 -1.1227
 3542SOL     OW22087   4.225   4.564  13.409 -0.4011 -0.0563  0.0526
 3542SOL    HW122088   4.162   4.633  13.431  0.4841  0.3666  1.3180
 3542SOL    HW222089   4.277   4.601  13.338 -0.6264 -0.5047 -0.3452
 3543SOL     OW22090   0.905   3.920   6.212  0.3164 -0.0721 -0.1525
 3543SOL    HW122091   0.995   3.889   6.221 -0.5783 -2.6940 -0.1309
 3543SOL    HW222092   0.901   3.939   6.119  0.2926 -0.8704 -0.3116
 3544SOL     OW22093   0.176   2.287  16.816 -0.1092 -0.2249  0.2042
 3544SOL    HW122094   0.135   2.213  16.860  0.1412 -0.9658 -0.8286
 3544SOL    HW222095   0.227   2.238  16.751  0.2861 -1.2912  1.3090
 3545SOL     OW22096   0.874   2.584   7.949 -0.2972 -0.0327  0.2640
 3545SOL    HW122097   0.784   2.584   7.983  0.3554  0.1629  1.9802
 3545SOL    HW222098   0.929   2.562   8.024  2.8553  0.0031 -2.0436
 3546SOL     OW22099   4.270   4.516  15.063  0.1620  0.3489 -0.1625
 3546SOL    HW122100   4.288   4.567  14.984  2.5415 -0.5223 -0.1910
 3546SOL    HW222101   4.309   4.430  15.044  0.9894  0.3547  1.5207
 3547SOL     OW22102   0.765   2.957  12.808  0.2161 -0.0271 -0.3754
 3547SOL    HW122103   0.858   2.978  12.816 -0.0461  1.6245 -1.6269
 3547SOL    HW222104   0.747   2.985  12.718  3.8845  1.1900 -0.7371
 3548SOL     OW22105   1.199   1.549   7.875  0.1850 -0.1590  0.5754
 3548SOL    HW122106   1.174   1.502   7.954 -0.1599 -1.5136 -0.3310
 3548SOL    HW222107   1.293   1.539   7.885  0.1039 -0.1556  1.3512
 3549SOL     OW22108   4.586   4.499  16.563  0.0906 -0.1072  0.6009
 3549SOL    HW122109   4.610   4.419  16.516 -0.3149  1.0354 -1.5480
 3549SOL    HW222110   4.668   4.545  16.582 -0.5484  1.5457 -0.6355
 3550SOL     OW22111   2.289   2.078   0.677  0.3528 -0.5336  0.3046
 3550SOL    HW122112   2.347   2.105   0.606 -1.6074  0.0813 -1.0714
 3550SOL    HW222113   2.216   2.137   0.657 -1.0597 -1.8732  1.4817
 3551SOL     OW22114   4.122   1.288   8.566 -0.1359 -0.0864 -0.2334
 3551SOL    HW122115   4.161   1.374   8.550  0.8678 -0.8155 -1.7423
 3551SOL    HW222116   4.076   1.292   8.650  0.0466  2.3021 -0.2459
 3552SOL     OW22117   2.892   1.489  10.295 -0.5816  0.6556  0.0773
 3552SOL    HW122118   2.923   1.512  10.208  1.2502 -0.0825  0.5301
 3552SOL    HW222119   2.927   1.400  10.297  1.2300  1.4026  1.4536
 3553SOL     OW22120   3.013   0.176  12.712 -0.1339 -0.1812  0.3993
 3553SOL    HW122121   2.984   0.138  12.795  2.8998 -1.9062  0.6652
 3553SOL    HW222122   2.933   0.203  12.667  0.2957 -3.3086 -2.2351
 3554SOL     OW22123   2.892   0.990   1.371 -0.3431  0.8478  0.2749
 3554SOL    HW122124   2.849   1.067   1.333 -1.4528  0.2249  0.2765
 3554SOL    HW222125   2.842   0.922   1.326  1.6894 -0.4925  0.0613
 3555SOL     OW22126   3.034   2.447   7.255 -0.2876  0.5900  0.5674
 3555SOL    HW122127   3.093   2.522   7.268 -1.5744  1.6387  0.3127
 3555SOL    HW222128   3.097   2.389   7.298  0.4414 -0.4865 -1.9548
 3556SOL     OW22129   1.593   0.956  16.648 -0.7191  0.0500 -0.3326
 3556SOL    HW122130   1.509   1.000  16.633 -2.2436 -2.5878  0.6002
 3556SOL    HW222131   1.562   0.886  16.705 -0.8424 -0.1949 -0.7024
 3557SOL     OW22132   4.307   3.007  11.725 -0.0216  0.1054 -0.0167
 3557SOL    HW122133   4.231   2.955  11.752  0.7016  0.2910  2.3544
 3557SOL    HW222134   4.268   3.069  11.663  0.5782  2.0946  1.5948
 3558SOL     OW22135   3.253   2.904   8.214  1.1500 -0.0769 -0.1265
 3558SOL    HW122136   3.234   2.845   8.287 -0.3017 -0.6152 -0.9267
 3558SOL    HW222137   3.209   2.860   8.141  1.9962 -1.6907  0.3351
 3559SOL     OW22138   1.918   4.616   2.242 -0.1676 -0.6267  0.3549
 3559SOL    HW122139   1.879   4.541   2.286  0.9869 -1.1101  0.5630
 3559SOL    HW222140   1.951   4.664   2.318  0.0857  0.0808 -0.2020
 3560SOL     OW22141   0.577   3.856  13.631  0.0624 -0.3496  0.2225
 3560SOL    HW122142   0.642   3.806  13.581 -0.8564  0.0215 -1.3430
 3560SOL    HW222143   0.615   3.944  13.629 -0.6611 -0.0422 -0.0074
 3561SOL     OW22144   0.499   0.101  12.587 -0.2913 -0.1926 -0.3291
 3561SOL    HW122145   0.466   0.029  12.642 -0.5087  0.2916  0.1742
 3561SOL    HW222146   0.591   0.104  12.614 -0.8997  3.2868  1.3122
 3562SOL     OW22147   0.509   3.314  17.285  0.5110  0.6694 -0.2605
 3562SOL    HW122148   0.416   3.292  17.291  0.6506 -0.0345 -0.7233
 3562SOL    HW222149   0.512   3.408  17.265 -0.2577  0.5356 -0.9861
 3563SOL     OW22150   3.378   2.164   3.166  0.0213 -0.5473 -0.1729
 3563SOL    HW122151   3.395   2.118   3.084  1.9625  0.9052 -0.5721
 3563SOL    HW222152   3.394   2.254   3.138 -0.1308 -0.2944  0.5515
 3564SOL     OW22153   3.831   3.653   7.494  0.4809 -0.1944  0.1611
 3564SOL    HW122154   3.807   3.665   7.586  0.0076  0.0081  0.0099
 3564SOL    HW222155   3.830   3.747   7.476 -0.4241 -0.2648 -0.1166
 3565SOL     OW22156   2.953   4.041   2.441  0.2683  0.5844 -0.0317
 3565SOL    HW122157   2.994   4.116   2.484  0.0788  0.6074  0.1095
 3565SOL    HW222158   2.950   4.087   2.357 -1.5570 -0.8182 -0.7230
 3566SOL     OW22159   2.540   4.346   3.377 -0.5392  0.4610 -0.1161
 3566SOL    HW122160   2.542   4.346   3.472  0.8045 -1.4392 -0.1506
 3566SOL    HW222161   2.464   4.402   3.365 -2.8440 -2.6392  0.1817
 3567SOL     OW22162   1.075   1.304   1.422  0.3560  0.0802 -0.2233
 3567SOL    HW122163   0.988   1.325   1.389  0.8493  1.1148 -0.8610
 3567SOL    HW222164   1.121   1.332   1.343  0.4227 -0.7340 -0.4762
 3568SOL     OW22165   1.100   1.930   6.631 -0.2622  0.1317 -0.4566
 3568SOL    HW122166   1.157   1.981   6.573 -1.5104  0.6104 -1.2421
 3568SOL    HW222167   1.167   1.878   6.675 -0.6965  0.2853  0.3898
 3569SOL     OW22168   4.530   0.893  17.109  0.1490  0.6503 -0.0091
 3569SOL    HW122169   4.528   0.913  17.015  0.3175  0.5075 -0.0431
 3569SOL    HW222170   4.436   0.887  17.122  0.3451 -1.0308  0.6555
 3570SOL     OW22171   2.494   1.265   2.394 -0.2386  0.3730 -0.1678
 3570SOL    HW122172   2.441   1.315   2.332 -0.4683  1.1407  0.6421
 3570SOL    HW222173   2.538   1.333   2.445 -0.6715  1.9688 -1.9115
 3571SOL     OW22174   4.035   3.172   3.839 -0.5963  0.3769  0.1348
 3571SOL    HW122175   3.982   3.242   3.801 -0.7063 -1.0892 -2.4047
 3571SOL    HW222176   4.120   3.179   3.795 -1.1211 -1.7799 -1.2056
 3572SOL     OW22177   2.518   3.334   5.793 -0.0143 -0.4101  0.0505
 3572SOL    HW122178   2.431   3.335   5.834  0.4479  2.4377  0.9671
 3572SOL    HW222179   2.566   3.277   5.854  1.8794  0.5508 -0.5579
 3573SOL     OW22180   1.987   0.851   3.154  0.0570 -0.3521 -0.4143
 3573SOL    HW122181   2.069   0.889   3.185 -0.3249 -0.3178  0.5404
 3573SOL    HW222182   1.960   0.921   3.094  2.2997  2.0476  1.4187
 3574SOL     OW22183   1.363   0.355   3.157 -0.0157 -0.5781 -0.0109
 3574SOL    HW122184   1.380   0.278   3.103  0.8772 -0.6767  0.4056
 3574SOL    HW222185   1.305   0.409   3.104 -0.3692 -0.9580 -0.0166
 3575SOL     OW22186   0.435   0.075  13.187  0.2278 -0.2864  0.1081
 3575SOL    HW122187   0.464   0.096  13.098 -1.6027 -0.5532 -0.5413
 3575SOL    HW222188   0.520   0.044  13.218  0.6992 -0.0323 -0.9026
 3576SOL     OW22189   2.995   4.094   4.803 -0.3619 -0.0405  0.4092
 3576SOL    HW122190   3.008   4.078   4.897 -0.0656  1.6301  0.6490
 3576SOL    HW222191   2.963   4.184   4.805 -0.7550 -0.2294  3.4610
 3577SOL     OW22192   4.014   2.055   8.878 -0.3631  0.5359 -0.5828
 3577SOL    HW122193   3.975   1.983   8.829 -0.9714  0.2305  0.3421
 3577SOL    HW222194   3.964   2.059   8.959 -0.5846  1.4043 -0.7641
 3578SOL     OW22195   0.674   3.887   8.409  0.0840  0.0754 -0.3635
 3578SOL    HW122196   0.658   3.978   8.384  0.2407 -0.5308 -2.6664
 3578SOL    HW222197   0.654   3.891   8.503 -3.1927  2.9355 -1.1832
 3579SOL     OW22198   3.336   3.654   6.614  0.4876 -0.3500 -0.8165
 3579SOL    HW122199   3.429   3.650   6.592  0.6391  0.1960 -0.2656
 3579SOL    HW222200   3.343   3.654   6.709 -0.0455 -1.3923 -0.7709
 3580SOL     OW22201   1.370   1.422   2.877  0.4659  0.2162  0.4638
 3580SOL    HW122202   1.365   1.353   2.811  0.2965  1.2220 -0.5861
 3580SOL    HW222203   1.276   1.437   2.889  0.1182 -1.1845 -0.5279
 3581SOL     OW22204   0.729   3.711  10.814  0.0520  0.0514 -0.3226
 3581SOL    HW122205   0.747   3.620  10.790 -1.7789 -0.0549 -1.2796
 3581SOL    HW222206   0.801   3.762  10.777  0.6833 -0.2502  0.4939
 3582SOL     OW22207   1.801   1.466   4.755  0.5257 -0.1872 -0.5518
 3582SOL    HW122208   1.875   1.457   4.696  0.5242  0.0010 -0.5818
 3582SOL    HW222209   1.847   1.491   4.835  0.1735  0.2412 -0.4810
 3583SOL     OW22210   1.804   3.951   9.172  0.7027 -0.1960  0.0943
 3583SOL    HW122211   1.888   3.952   9.219  0.9364 -1.0835 -0.3003
 3583SOL    HW222212   1.822   3.858   9.153  0.6612  0.4095 -2.9069
 3584SOL     OW22213   1.866   2.167   1.206 -0.6368 -0.0436  0.0315
 3584SOL    HW122214   1.888   2.168   1.299  0.1406  0.3695 -0.1588
 3584SOL    HW222215   1.785   2.219   1.209  1.3613  3.0377  0.9809
 3585SOL     OW22216   1.905   2.222   5.077  0.3705  0.3374  0.3870
 3585SOL    HW122217   1.905   2.132   5.045  0.3846 -0.0499  1.4637
 3585SOL    HW222218   1.883   2.219   5.170  0.5111 -4.1081  0.2619
 3586SOL     OW22219   1.471   4.316  10.560  0.2894  0.4453 -0.0408
 3586SOL    HW122220   1.565   4.305  10.542  0.0528 -0.6932 -0.5399
 3586SOL    HW222221   1.430   4.271  10.486  2.5393 -0.2329 -0.8783
 3587SOL     OW22222   0.649   0.649  10.762  0.3907  0.4798 -0.4228
 3587SOL    HW122223   0.664   0.602  10.680  3.7210  0.8927 -0.0677
 3587SOL    HW222224   0.559   0.680  10.760  0.8363  1.8011 -0.3670
 3588SOL     OW22225   3.287   3.842   3.643 -0.2734  0.1303 -0.6208
 3588SOL    HW122226   3.244   3.920   3.608 -0.9565  1.2431  2.7397
 3588SOL    HW222227   3.239   3.841   3.726 -0.0727  1.9433 -0.4901
 3589SOL     OW22228   1.888   2.154  14.020  0.9502 -0.2506  0.4086
 3589SOL    HW122229   1.868   2.191  14.106  0.9816 -1.3215  0.8711
 3589SOL    HW222230   1.835   2.220  13.975  0.3405 -0.4962  0.7814
 3590SOL     OW22231   0.446   3.650   2.754 -0.3330 -0.3889  0.3143
 3590SOL    HW122232   0.513   3.718   2.763 -0.3359 -0.8004  3.4057
 3590SOL    HW222233   0.376   3.688   2.808 -1.5089  0.4740 -1.7994
 3591SOL     OW22234   0.717   2.719   4.682 -0.0931  0.1237  0.1364
 3591SOL    HW122235   0.781   2.767   4.734  1.0967  0.3124 -1.4814
 3591SOL    HW222236   0.777   2.698   4.610 -0.6462  1.4739 -0.7148
 3592SOL     OW22237   1.418   0.819   2.490 -0.4072 -0.2557  0.0417
 3592SOL    HW122238   1.421   0.739   2.544  0.8399  0.0345  0.4061
 3592SOL    HW222239   1.376   0.783   2.412  1.0455  0.9158 -1.2757
 3593SOL     OW22240   2.022   1.558   3.345 -0.8030  0.2110  0.0108
 3593SOL    HW122241   2.053   1.640   3.307  1.1718 -1.0248 -1.0201
 3593SOL    HW222242   2.065   1.561   3.430 -0.6037 -1.0188 -0.0519
 3594SOL     OW22243   1.424   4.191   1.296 -0.2358  0.5652  0.1651
 3594SOL    HW122244   1.474   4.145   1.230 -0.6970  2.1683 -1.3106
 3594SOL    HW222245   1.466   4.276   1.280  3.3281 -1.4409 -1.1095
 3595SOL     OW22246   3.466   1.297   9.833 -0.3131  0.6695  0.3162
 3595SOL    HW122247   3.409   1.356   9.883  1.3385  1.4138  1.3116
 3595SOL    HW222248   3.400   1.250   9.782 -1.6319  1.7470  1.0203
 3596SOL     OW22249   4.109   2.695   6.990  0.3872  0.5225 -0.2939
 3596SOL    HW122250   4.159   2.643   7.054  1.6673 -0.8015 -2.3874
 3596SOL    HW222251   4.125   2.785   7.021  0.9627  0.4051 -0.2429
 3597SOL     OW22252   0.259   4.178   3.917 -0.1779 -0.0650  0.0935
 3597SOL    HW122253   0.164   4.168   3.920 -0.1702  0.6994  3.0415
 3597SOL    HW222254   0.292   4.111   3.858  0.2789 -1.9084  2.4595
 3598SOL     OW22255   3.744   2.010   0.326  0.1265 -0.5143 -0.6342
 3598SOL    HW122256   3.745   2.001   0.422 -0.3072  2.5176 -0.3385
 3598SOL    HW222257   3.804   1.944   0.291 -1.2847 -1.4654 -1.2627
 3599SOL     OW22258   4.423   3.309   5.106 -0.1872  0.1697 -0.3636
 3599SOL    HW122259   4.345   3.322   5.161 -0.0526 -1.6822  0.2771
 3599SOL    HW222260   4.378   3.310   5.022 -2.8272  0.3683  1.0555
 3600SOL     OW22261   0.582   1.724   4.518  0.6017 -0.9015 -0.1855
 3600SOL    HW122262   0.596   1.760   4.430  1.6796 -1.2677 -0.1621
 3600SOL    HW222263   0.491   1.702   4.501  0.6384  0.2601 -1.8483
 3601SOL     OW22264   0.064   1.698   3.182 -0.1790  0.3393  0.0065
 3601SOL    HW122265   0.027   1.614   3.155  1.5331  0.0361 -1.3730
 3601SOL    HW222266   0.081   1.743   3.100  0.2413  1.3910  0.6791
 3602SOL     OW22267   3.551   2.880   3.793  0.1685  0.0591  0.0014
 3602SOL    HW122268   3.537   2.965   3.834 -1.4445  0.0746 -0.5609
 3602SOL    HW222269   3.642   2.871   3.766 -0.5021 -0.5656 -2.0825
 3603SOL     OW22270   1.068   3.982   8.817 -0.0837 -0.8329 -0.3061
 3603SOL    HW122271   0.980   3.962   8.849 -0.0213 -1.9174 -0.8173
 3603SOL    HW222272   1.121   3.926   8.874  1.6280  2.4845  1.3827
 3604SOL     OW22273   1.915   1.036   2.995 -0.2381  0.3577 -0.5534
 3604SOL    HW122274   1.982   1.104   2.984 -0.0751  0.5487  1.5006
 3604SOL    HW222275   1.846   1.073   2.941 -0.6412  0.7646  0.2414
 3605SOL     OW22276   2.829   4.032   5.377 -0.6254  0.4260 -0.3338
 3605SOL    HW122277   2.908   4.040   5.324 -0.3595 -1.0730 -0.1703
 3605SOL    HW222278   2.767   4.041   5.305  0.2848 -0.3429 -1.2159
 3606SOL     OW22279   0.549   1.401  12.769  0.4075  0.3259 -0.3857
 3606SOL    HW122280   0.508   1.481  12.736  1.1886 -0.6880 -3.9131
 3606SOL    HW222281   0.510   1.388  12.855  0.8098  0.4845 -0.1770
 3607SOL     OW22282   3.339   2.801  13.463  0.3672 -0.3483  0.2429
 3607SOL    HW122283   3.362   2.797  13.556  2.6290 -1.1930 -0.3448
 3607SOL    HW222284   3.243   2.807  13.469  0.4516  2.3381 -1.2310
 3608SOL     OW22285   4.026   4.710  11.242  0.6119  0.4384  0.0852
 3608SOL    HW122286   4.058   0.070  11.205  0.3084  0.8078  0.6394
 3608SOL    HW222287   4.111   4.668  11.229  0.6613  1.0195 -1.4616
 3609SOL     OW22288   2.361   4.017  14.569  0.0172  0.0606 -0.0424
 3609SOL    HW122289   2.399   4.075  14.634  3.0050 -0.7918 -1.0119
 3609SOL    HW222290   2.306   4.079  14.521 -2.0879 -0.7232  1.3426
 3610SOL     OW22291   3.204   3.376   2.798  0.1151  0.5494 -0.3416
 3610SOL    HW122292   3.169   3.423   2.722 -1.3022 -1.8625 -1.1514
 3610SOL    HW222293   3.135   3.375   2.864 -0.0181 -1.0463 -0.5051
 3611SOL     OW22294   2.141   1.595   7.712  0.5091  0.1971 -0.0845
 3611SOL    HW122295   2.107   1.591   7.802  1.1768 -1.8411  0.0936
 3611SOL    HW222296   2.235   1.581   7.724  0.4756 -1.2412 -1.5373
 3612SOL     OW22297   3.100   1.851   2.817 -0.0756  0.1176  0.6882
 3612SOL    HW122298   3.054   1.792   2.757 -0.3393  1.1667 -0.1359
 3612SOL    HW222299   3.182   1.802   2.822  0.8798  1.2917 -3.5399
 3613SOL     OW22300   0.476   3.564   0.236  0.0203  0.1476  0.3322
 3613SOL    HW122301   0.538   3.507   0.282  0.4190  0.1775 -0.1683
 3613SOL    HW222302   0.425   3.501   0.187 -0.3733  1.2405 -0.6462
 3614SOL     OW22303   1.179   4.229   3.609  0.2796 -0.5021  0.6152
 3614SOL    HW122304   1.187   4.223   3.514  0.0524  0.3474  0.5502
 3614SOL    HW222305   1.268   4.257   3.631 -0.3478  1.8887  0.1164
 3615SOL     OW22306   0.227   2.822   7.003 -0.4956  0.0800 -0.0073
 3615SOL    HW122307   0.231   2.867   6.919 -1.7916 -1.1796 -0.7485
 3615SOL    HW222308   0.212   2.730   6.982 -3.3457  0.8080 -1.1806
 3616SOL     OW22309   2.263   4.037  17.494 -0.0631  0.1105 -0.0857
 3616SOL    HW122310   2.302   3.972  17.551 -1.4982 -1.3455 -0.7555
 3616SOL    HW222311   2.239   3.983  17.418 -1.2811 -2.1900  1.9610
 3617SOL     OW22312   0.274   2.478  17.500  0.0282  0.0332 -0.1580
 3617SOL    HW122313   0.240   2.446  17.584 -3.9398  0.6682 -1.5010
 3617SOL    HW222314   0.332   2.551  17.523 -0.0585 -0.3800  1.3487
 3618SOL     OW22315   0.163   2.258  11.491 -0.1434 -0.4564  0.3140
 3618SOL    HW122316   0.110   2.337  11.500  0.9675  0.2705  0.4862
 3618SOL    HW222317   0.185   2.244  11.399 -0.0883  0.4114  0.1969
 3619SOL     OW22318   0.534   2.014   9.123  0.1013 -0.0816  0.4434
 3619SOL    HW122319   0.488   1.931   9.119  0.0239 -0.1000  1.9323
 3619SOL    HW222320   0.617   1.983   9.086  0.4964  1.8868 -0.3170
 3620SOL     OW22321   0.834   2.234   0.824 -0.3066  0.2642  0.3490
 3620SOL    HW122322   0.845   2.323   0.856 -1.1015  0.3771  0.2911
 3620SOL    HW222323   0.759   2.197   0.871  0.4216  0.4268  1.6373
 3621SOL     OW22324   3.630   2.046  11.961  0.1554 -0.2400  0.1006
 3621SOL    HW122325   3.623   2.078  11.871  0.6821 -0.5523 -0.0534
 3621SOL    HW222326   3.579   2.108  12.014  1.3513  0.9528 -0.1344
 3622SOL     OW22327   0.053   2.529  11.000 -0.7464 -0.1541  0.2370
 3622SOL    HW122328   0.019   2.450  10.960 -0.7326  0.5265 -1.1197
 3622SOL    HW222329   0.117   2.505  11.067  0.7014  1.2869 -0.6229
 3623SOL     OW22330   2.485   3.002   1.925 -0.7714 -0.2695 -0.0897
 3623SOL    HW122331   2.467   2.953   1.845 -3.2380  2.4509 -1.1777
 3623SOL    HW222332   2.454   3.087   1.896 -1.3928  0.0259  1.4215
 3624SOL     OW22333   0.570   2.608   8.717 -0.2895  0.6021 -0.6391
 3624SOL    HW122334   0.573   2.703   8.722  0.0751  0.5223  0.7197
 3624SOL    HW222335   0.662   2.589   8.697 -1.1375 -2.5399 -1.6729
 3625SOL     OW22336   0.424   1.508   1.352  0.4976 -0.2644  0.1692
 3625SOL    HW122337   0.417   1.538   1.443 -0.9181  2.5735 -0.8679
 3625SOL    HW222338   0.486   1.575   1.322 -0.9836 -0.2875 -2.9232
 3626SOL     OW22339   2.297   2.014   1.703  0.3109  0.2048 -0.1315
 3626SOL    HW122340   2.384   2.054   1.698 -0.1673  1.3899  1.0214
 3626SOL    HW222341   2.296   1.944   1.638  0.0155  0.3225 -0.2519
 3627SOL     OW22342   3.623   4.235  10.484 -0.6072 -0.5109  0.0174
 3627SOL    HW122343   3.614   4.316  10.434 -0.9024 -0.2843  0.4310
 3627SOL    HW222344   3.557   4.174  10.450 -1.5467  1.2723 -1.3063
 3628SOL     OW22345   1.815   4.138   3.841  0.4514 -0.5346 -0.5139
 3628SOL    HW122346   1.886   4.168   3.898  0.4424 -1.6636  0.0933
 3628SOL    HW222347   1.863   4.114   3.762  0.4799  0.0536 -0.6763
 3629SOL     OW22348   1.065   4.413   6.523 -0.0577 -0.5418 -0.1346
 3629SOL    HW122349   1.121   4.487   6.548  0.9059 -1.9575  1.9081
 3629SOL    HW222350   1.141   4.355   6.519 -0.4993 -1.2015  1.0996
 3630SOL     OW22351   0.895   3.640   9.251  0.0246  0.2046  0.0835
 3630SOL    HW122352   0.906   3.660   9.159  2.9112  0.8398  0.5866
 3630SOL    HW222353   0.809   3.598   9.242  0.3851 -0.8587  1.4813
 3631SOL     OW22354   3.837   1.073   4.647  0.7184 -0.0806 -0.3457
 3631SOL    HW122355   3.840   1.101   4.556  2.1590  0.4064 -0.1442
 3631SOL    HW222356   3.858   0.981   4.636  0.2108 -0.3538  0.9606
 3632SOL     OW22357   2.319   4.628   2.668  0.2243  0.0795  0.7595
 3632SOL    HW122358   2.298   4.656   2.579  0.3878 -1.0589  0.3606
 3632SOL    HW222359   2.406   4.589   2.672 -1.2130 -3.0863  1.4234
 3633SOL     OW22360   2.565   3.162   6.025 -0.0366  0.1286 -0.4986
 3633SOL    HW122361   2.526   3.233   6.076  0.6370 -0.4363  0.8067
 3633SOL    HW222362   2.623   3.113   6.083 -1.3244 -1.1137 -0.2407
 3634SOL     OW22363   2.921   1.903  14.067 -0.1177  0.5257 -0.4890
 3634SOL    HW122364   2.851   1.923  14.004 -1.1865  1.7291  1.0911
 3634SOL    HW222365   2.954   1.834  14.009 -0.9801 -1.2623  1.1678
 3635SOL     OW22366   3.041   4.280   8.084 -0.3538  0.2470 -0.1611
 3635SOL    HW122367   3.118   4.317   8.040  0.3327 -0.6027  0.3175
 3635SOL    HW222368   3.086   4.245   8.161 -0.0925 -1.2186 -0.9854
 3636SOL     OW22369   1.350   0.940   6.034  0.1613 -0.4657  0.0910
 3636SOL    HW122370   1.373   0.852   6.066 -0.4779 -0.5343  0.3512
 3636SOL    HW222371   1.432   0.967   5.992 -0.7066  0.1788 -1.1587
 3637SOL     OW22372   0.573   2.453  13.178 -0.0508  0.1164 -0.4818
 3637SOL    HW122373   0.605   2.373  13.136  0.1188 -1.6290  2.9187
 3637SOL    HW222374   0.643   2.461  13.243 -0.2271  0.2746 -0.3070
 3638SOL     OW22375   2.283   1.110  10.125 -0.3542 -0.2721  0.2105
 3638SOL    HW122376   2.370   1.069  10.121  0.4820  1.3734  1.7600
 3638SOL    HW222377   2.238   1.055  10.189 -0.1950  0.4033  0.9008
 3639SOL     OW22378   2.120   1.864   4.101  0.3394 -0.1458  0.1383
 3639SOL    HW122379   2.149   1.914   4.178  0.9753  0.0438 -0.2239
 3639SOL    HW222380   2.180   1.789   4.096  1.7211  1.0827 -1.7371
 3640SOL     OW22381   1.206   1.300   8.487  0.5704 -0.1827  0.3604
 3640SOL    HW122382   1.249   1.386   8.494  2.0203 -0.7517 -1.5222
 3640SOL    HW222383   1.206   1.270   8.578  0.1447 -0.1086  0.3849
 3641SOL     OW22384   2.010   2.025  10.515  0.3016 -0.2779 -0.1259
 3641SOL    HW122385   1.996   2.002  10.423 -0.3570 -4.2688  0.9587
 3641SOL    HW222386   1.997   2.120  10.510 -0.6856 -0.5415 -2.2075
 3642SOL     OW22387   1.887   3.823   1.544 -0.0311 -0.2681 -0.3517
 3642SOL    HW122388   1.934   3.748   1.508  0.3651  0.3318 -1.1011
 3642SOL    HW222389   1.859   3.857   1.459  2.1616 -1.5136 -1.5813
 3643SOL     OW22390   4.421   2.635   4.000 -0.1808  0.3277 -0.3414
 3643SOL    HW122391   4.508   2.636   4.039 -0.7636  0.7675  0.9504
 3643SOL    HW222392   4.370   2.638   4.081  1.3336 -0.4001  0.6403
 3644SOL     OW22393   1.792   2.044   6.402  0.2532  0.4622  0.8987
 3644SOL    HW122394   1.707   2.070   6.437 -0.0974 -0.2421  0.5545
 3644SOL    HW222395   1.856   2.095   6.452  1.7629 -0.7185  0.1577
 3645SOL     OW22396   1.163   3.511   0.594 -0.1198 -0.0879  0.1730
 3645SOL    HW122397   1.079   3.492   0.553  1.5931 -0.3463 -3.2177
 3645SOL    HW222398   1.158   3.606   0.604  3.3333  0.3384 -1.8607
 3646SOL     OW22399   1.555   3.685   5.028  0.0418 -0.3012 -0.7485
 3646SOL    HW122400   1.604   3.634   5.092 -0.0467  1.6943  0.9287
 3646SOL    HW222401   1.495   3.617   4.996 -0.8523 -0.7574  1.8472
 3647SOL     OW22402   1.816   1.641   8.949  0.0125  0.0903  0.2518
 3647SOL    HW122403   1.862   1.684   9.021 -1.2298  1.4776  0.2223
 3647SOL    HW222404   1.855   1.554   8.945 -0.6791 -0.1650 -0.7955
 3648SOL     OW22405   3.840   1.856   2.027  0.2423  0.0797  0.3986
 3648SOL    HW122406   3.865   1.948   2.017  0.0746 -0.1217 -1.8254
 3648SOL    HW222407   3.922   1.833   2.071  0.1729 -2.7002 -0.9557
 3649SOL     OW22408   2.719   4.492   8.497 -0.2777  0.1734 -0.0197
 3649SOL    HW122409   2.737   4.399   8.484 -0.7938 -0.0167  0.6228
 3649SOL    HW222410   2.683   4.505   8.585  2.0477 -0.2612  0.9780
 3650SOL     OW22411   1.332   3.893   6.996  0.5073  0.3204  0.3712
 3650SOL    HW122412   1.306   3.948   7.070 -0.0295  1.6610 -0.8199
 3650SOL    HW222413   1.422   3.927   6.988  0.4812  0.0826 -0.9034
 3651SOL     OW22414   3.618   2.061   3.820  0.0171  0.2510  0.2015
 3651SOL    HW122415   3.532   2.073   3.860  1.2311  1.2158  2.5334
 3651SOL    HW222416   3.668   2.136   3.851  2.4521 -0.8153 -1.1655
 3652SOL     OW22417   3.669   1.733   6.707  0.9104 -0.3811 -0.0458
 3652SOL    HW122418   3.687   1.745   6.614 -1.4456  1.0408 -0.3347
 3652SOL    HW222419   3.688   1.642   6.728  3.2164  0.7280  2.7300
 3653SOL     OW22420   2.606   1.003   4.328  0.4543 -0.1402  0.0452
 3653SOL    HW122421   2.651   0.919   4.337  0.6441  0.1013  1.3541
 3653SOL    HW222422   2.535   0.977   4.270 -0.4785  1.5952  0.4193
 3654SOL     OW22423   3.070   1.038   9.652  0.5729  0.0464  0.1090
 3654SOL    HW122424   3.094   0.972   9.588 -1.4697  0.8175 -1.4351
 3654SOL    HW222425   3.038   0.986   9.726 -0.7241 -2.2816 -2.1417
 3655SOL     OW22426   1.059   4.293  16.336 -0.2153 -0.0921  0.1350
 3655SOL    HW122427   1.123   4.261  16.400 -0.8928 -0.4827  0.6122
 3655SOL    HW222428   0.998   4.220  16.331 -0.1168  0.0891 -3.9672
 3656SOL     OW22429   0.145   1.407   9.629 -0.1896  0.1756  0.5832
 3656SOL    HW122430   0.192   1.475   9.678 -0.1073  0.3660  0.2366
 3656SOL    HW222431   0.219   1.392   9.570 -0.6679 -0.2292  0.0838
 3657SOL     OW22432   0.744   3.028   2.719 -0.3706  0.0778 -0.0990
 3657SOL    HW122433   0.743   3.124   2.715  3.2135  0.1076  0.2787
 3657SOL    HW222434   0.758   3.010   2.626  2.8291 -1.9393  0.7934
 3658SOL     OW22435   1.386   0.568   3.623  0.2570  0.1424 -0.5921
 3658SOL    HW122436   1.334   0.525   3.556 -0.3058 -1.2838  0.7480
 3658SOL    HW222437   1.463   0.591   3.571 -0.4611  2.1872 -0.7274
 3659SOL     OW22438   1.078   4.390   9.310 -0.0491 -0.4318  0.2768
 3659SOL    HW122439   1.057   4.324   9.376 -0.8522 -0.3291  0.1197
 3659SOL    HW222440   1.067   4.474   9.353 -0.5486 -0.4781  0.2425
 3660SOL     OW22441   1.493   2.305   5.719 -0.1127 -0.8009 -0.1112
 3660SOL    HW122442   1.521   2.390   5.685 -1.2372 -0.0035  0.9782
 3660SOL    HW222443   1.400   2.321   5.733  0.5103  0.9725  2.0395
 3661SOL     OW22444   4.158   1.552   7.316  0.3314 -0.1984 -0.6001
 3661SOL    HW122445   4.109   1.618   7.364  0.4407 -0.3870 -0.2291
 3661SOL    HW222446   4.099   1.477   7.315 -0.5501  0.4855  0.6883
 3662SOL     OW22447   0.137   4.687   7.025  0.6347 -0.0538 -0.3584
 3662SOL    HW122448   0.046   4.691   7.055  1.7857  0.0188  3.1736
 3662SOL    HW222449   0.159   4.597   7.049 -0.6163 -0.8395 -2.1985
 3663SOL     OW22450   0.447   0.686   2.045 -0.3972  0.0730 -1.0733
 3663SOL    HW122451   0.469   0.596   2.021  1.3789  0.1620  0.2896
 3663SOL    HW222452   0.377   0.707   1.983 -0.8677 -0.1173 -0.6091
 3664SOL     OW22453   1.848   3.261   6.608 -0.0518  0.3330  0.2312
 3664SOL    HW122454   1.834   3.326   6.540 -1.9029  0.5483  0.8341
 3664SOL    HW222455   1.761   3.261   6.648  1.1146  1.1534  2.7452
 3665SOL     OW22456   3.081   0.891   7.786  0.1029 -0.1891 -0.2836
 3665SOL    HW122457   3.103   0.984   7.798  0.1679 -0.3486  0.8108
 3665SOL    HW222458   3.107   0.887   7.693  0.0584  1.9351 -0.4072
 3666SOL     OW22459   4.077   2.066   7.457  0.8382 -0.4353  0.0457
 3666SOL    HW122460   4.044   2.099   7.541 -0.2919 -1.9148  0.1761
 3666SOL    HW222461   4.128   2.144   7.437 -0.7413  0.9906  1.5290
 3667SOL     OW22462   1.392   2.215   0.775 -0.0156  0.6915  0.4382
 3667SOL    HW122463   1.462   2.234   0.713  0.0207  2.1982  0.9529
 3667SOL    HW222464   1.430   2.183   0.857  0.0563  3.3202  1.4345
 3668SOL     OW22465   3.272   4.270  11.287 -0.5951 -0.4565  0.1739
 3668SOL    HW122466   3.313   4.331  11.225 -0.5100 -2.2433 -1.5098
 3668SOL    HW222467   3.266   4.192  11.232  1.7745 -0.1228 -0.5494
 3669SOL     OW22468   2.047   3.535  10.582 -1.2046  0.3060  0.1199
 3669SOL    HW122469   1.998   3.544  10.664  1.4420  0.2137  1.6934
 3669SOL    HW222470   2.037   3.619  10.537 -0.9993 -0.3731 -1.1921
 3670SOL     OW22471   1.040   3.369   9.143  0.0509 -0.5155  0.0335
 3670SOL    HW122472   0.950   3.345   9.121  0.0255 -1.7554  1.5527
 3670SOL    HW222473   1.019   3.423   9.219  1.5283 -0.1774  0.2022
 3671SOL     OW22474   4.469   2.184  11.679 -0.1597  0.0914  0.4716
 3671SOL    HW122475   4.431   2.129  11.748 -1.4817 -1.3541 -1.4260
 3671SOL    HW222476   4.426   2.269  11.692  0.2009  0.2517  0.6097
 3672SOL     OW22477   1.030   0.473   8.243  0.5121  0.5782  0.1522
 3672SOL    HW122478   1.060   0.408   8.307 -2.1418 -0.4914  0.3132
 3672SOL    HW222479   1.108   0.523   8.220  0.0509  1.5483  0.6894
 3673SOL     OW22480   1.446   1.510   0.013 -0.2049  0.0464 -0.1244
 3673SOL    HW122481   1.357   1.488   0.041 -0.9172  0.7415 -1.8336
 3673SOL    HW222482   1.457   1.581   0.075 -1.9501 -0.5995  0.9258
 3674SOL     OW22483   0.778   4.173  15.856 -0.3644  0.4179 -0.6848
 3674SOL    HW122484   0.756   4.085  15.885 -3.2761  0.7441 -1.9218
 3674SOL    HW222485   0.863   4.172  15.900 -0.6736  0.7951 -0.0744
 3675SOL     OW22486   0.377   4.614   7.387  0.3078  0.0500 -0.1037
 3675SOL    HW122487   0.371   4.525   7.354  1.6706 -0.1839  0.2687
 3675SOL    HW222488   0.346   4.656   7.307  0.5820 -0.3027 -0.3924
 3676SOL     OW22489   2.682   0.748   4.295  0.3197  0.2275 -0.2841
 3676SOL    HW122490   2.663   0.696   4.373  1.5061  0.8633  0.4167
 3676SOL    HW222491   2.758   0.704   4.258 -0.0173 -1.0468  0.5391
 3677SOL     OW22492   0.189   0.270  16.271  0.3296  0.0143 -1.1372
 3677SOL    HW122493   0.113   0.280  16.213  0.0315  3.1485 -0.2007
 3677SOL    HW222494   0.242   0.346  16.248 -0.5360  0.9975  0.0931
 3678SOL     OW22495   3.720   4.317  11.035  0.2959  0.3263 -0.4987
 3678SOL    HW122496   3.740   4.242  11.092  2.4470  0.9142 -0.4639
 3678SOL    HW222497   3.773   4.381  11.083 -1.4719  0.5643  1.1286
 3679SOL     OW22498   2.854   1.215  11.543  0.3131  0.3282  0.1462
 3679SOL    HW122499   2.843   1.298  11.498  2.2724  0.9422  0.8027
 3679SOL    HW222500   2.798   1.155  11.493 -1.7413  1.5845  0.9259
 3680SOL     OW22501   4.439   2.323  12.242 -0.4868 -0.4970 -0.6834
 3680SOL    HW122502   4.529   2.353  12.257 -0.1615 -1.5163 -0.5603
 3680SOL    HW222503   4.457   2.230  12.223 -1.3909 -0.9058  0.4607
 3681SOL     OW22504   1.431   3.024   6.391 -0.6456  0.0942 -0.5562
 3681SOL    HW122505   1.443   3.023   6.486 -1.6956 -0.0934 -0.4249
 3681SOL    HW222506   1.501   3.085   6.368 -0.8167  1.4409  2.4606
 3682SOL     OW22507   1.773   4.515   4.875 -0.5786 -0.0692  0.0980
 3682SOL    HW122508   1.867   4.498   4.885 -0.4831  0.9445  0.7987
 3682SOL    HW222509   1.777   4.608   4.896  0.9341  0.3075 -1.7879
 3683SOL     OW22510   2.911   4.209   3.141  0.0740  0.7728  0.0552
 3683SOL    HW122511   2.852   4.265   3.191 -0.1953  0.2843  0.2894
 3683SOL    HW222512   2.926   4.134   3.198  0.5804  1.7321  1.1950
 3684SOL     OW22513   2.095   4.323   1.000 -0.3314 -0.2401 -0.0267
 3684SOL    HW122514   2.133   4.279   1.076  0.6694  1.6118  0.5526
 3684SOL    HW222515   2.167   4.384   0.985 -0.8512 -0.2291 -2.5657
 3685SOL     OW22516   2.417   4.096   3.313  0.4170  0.8796 -0.2085
 3685SOL    HW122517   2.486   4.070   3.252 -0.6690 -1.6329 -0.3711
 3685SOL    HW222518   2.409   4.191   3.301 -1.6973  0.7147 -0.1610
 3686SOL     OW22519   4.674   2.183   8.630 -0.3435 -0.0211  0.0481
 3686SOL    HW122520   4.660   2.256   8.690 -0.5715 -1.1058  1.3102
 3686SOL    HW222521   4.698   2.113   8.690 -2.1331 -0.4611  0.2569
 3687SOL     OW22522   3.693   1.141   2.133 -0.7009  0.5317 -0.4450
 3687SOL    HW122523   3.644   1.068   2.096  0.3274 -0.5069  0.2440
 3687SOL    HW222524   3.712   1.180   2.048  1.7852  0.4473  0.0663
 3688SOL     OW22525   3.863   2.858   0.402  0.3693  0.3953 -0.3587
 3688SOL    HW122526   3.859   2.952   0.382 -2.8540  0.4047  0.2644
 3688SOL    HW222527   3.904   2.872   0.487  0.0162 -1.3851  0.1042
 3689SOL     OW22528   2.443   0.781   5.528 -0.3594 -0.2486 -0.1338
 3689SOL    HW122529   2.491   0.824   5.458  0.9956 -1.0783  0.2824
 3689SOL    HW222530   2.445   0.689   5.503 -0.1654 -0.4163  0.5098
 3690SOL     OW22531   1.381   3.569  12.222 -0.3702 -0.2743  0.2652
 3690SOL    HW122532   1.286   3.576  12.215 -0.3892  0.6057  1.3947
 3690SOL    HW222533   1.410   3.568  12.131 -0.8824 -0.0653  0.0979
 3691SOL     OW22534   0.082   1.874  11.813 -0.6065 -0.3341 -0.0814
 3691SOL    HW122535   0.062   1.958  11.773  2.1078  1.0127  1.4193
 3691SOL    HW222536   0.086   1.820  11.734 -0.2536 -1.3423  0.6341
 3692SOL     OW22537   2.611   2.112  16.011 -0.2511  0.2230 -0.0854
 3692SOL    HW122538   2.645   2.197  15.984 -0.3794  0.6512  1.0848
 3692SOL    HW222539   2.620   2.128  16.105  2.0415 -0.7407 -0.1383
 3693SOL     OW22540   3.952   0.947   3.907 -0.5514 -0.0857 -0.5961
 3693SOL    HW122541   3.901   1.020   3.942 -0.4816 -0.9751  1.3473
 3693SOL    HW222542   3.983   0.975   3.821 -0.8271  0.6320 -0.4667
 3694SOL     OW22543   0.453   1.082   4.804 -0.6929 -0.0441 -0.4977
 3694SOL    HW122544   0.435   1.171   4.776 -1.1373  0.6754  2.1537
 3694SOL    HW222545   0.476   1.095   4.896 -2.5382 -1.4162  0.1684
 3695SOL     OW22546   3.898   2.215   0.539  0.3510  0.3073 -0.3602
 3695SOL    HW122547   3.835   2.151   0.571 -1.4012  1.3641 -1.6943
 3695SOL    HW222548   3.965   2.162   0.496 -1.8578 -1.0174 -2.0966
 3696SOL     OW22549   0.935   1.739   6.087  0.3194  0.4748 -0.1227
 3696SOL    HW122550   0.840   1.747   6.084  0.3998  1.9712  1.6957
 3696SOL    HW222551   0.963   1.764   5.999 -2.2719  2.6409 -0.3248
 3697SOL     OW22552   1.929   0.983   9.160 -0.1987 -0.5701 -0.4121
 3697SOL    HW122553   1.993   0.929   9.113 -0.9144 -1.9916  0.2509
 3697SOL    HW222554   1.872   1.008   9.087 -1.3938 -0.1227  0.6666
 3698SOL     OW22555   4.193   1.057   4.579  0.5833 -0.4692  0.2003
 3698SOL    HW122556   4.182   1.151   4.565 -0.3841 -0.2493  2.5018
 3698SOL    HW222557   4.146   1.022   4.504 -0.9637  2.3990 -0.1850
 3699SOL     OW22558   2.932   1.315   6.371 -0.0534  0.4130  0.1425
 3699SOL    HW122559   2.907   1.223   6.368 -0.0592  0.4080  0.3095
 3699SOL    HW222560   2.950   1.329   6.278 -0.8604 -0.7107 -0.1799
 3700SOL     OW22561   4.646   4.266  16.449 -0.2656  0.3461 -0.4228
 3700SOL    HW122562   0.002   4.236  16.402 -0.1809 -0.8025  0.4764
 3700SOL    HW222563   4.578   4.233  16.390  0.8211 -2.6648  0.0040
 3701SOL     OW22564   0.795   0.089   5.322 -0.1317 -0.3610  0.1258
 3701SOL    HW122565   0.859   0.042   5.375 -1.3189 -1.9513  0.1251
 3701SOL    HW222566   0.791   0.170   5.373 -3.0088 -0.4211 -0.0179
 3702SOL     OW22567   3.580   0.682   7.409  0.1600  0.5721  0.3236
 3702SOL    HW122568   3.539   0.724   7.484 -1.2035 -1.7587  0.8865
 3702SOL    HW222569   3.591   0.598   7.454 -2.9808 -0.4408 -0.7642
 3703SOL     OW22570   3.304   2.952  15.656  0.1761 -0.3502 -0.2996
 3703SOL    HW122571   3.324   3.006  15.579  1.3131  0.3323  0.4745
 3703SOL    HW222572   3.245   2.888  15.616  4.7176 -3.3012 -2.2469
 3704SOL     OW22573   1.459   0.729   1.445 -0.6260  0.2713  0.5131
 3704SOL    HW122574   1.513   0.741   1.367 -1.1870 -1.5327 -0.1477
 3704SOL    HW222575   1.489   0.640   1.466  0.5468  1.0765  2.2051
 3705SOL     OW22576   1.018   4.116   7.340 -0.0069 -0.3420  0.7208
 3705SOL    HW122577   1.017   4.211   7.335  0.9914 -0.6788 -6.3121
 3705SOL    HW222578   1.073   4.099   7.416  0.9240 -1.0301 -0.1107
 3706SOL     OW22579   0.056   1.121   4.893  0.4351  0.5210 -0.2710
 3706SOL    HW122580   0.114   1.189   4.859 -1.0075  1.2445 -1.2592
 3706SOL    HW222581   4.716   1.181   4.934  0.7614  0.4627  0.3080
 3707SOL     OW22582   3.916   0.944   1.068  0.1304 -0.2817 -0.1115
 3707SOL    HW122583   3.918   0.879   0.998 -1.1932 -2.1228  1.5536
 3707SOL    HW222584   4.008   0.959   1.087 -0.2053  0.7880  0.7338
 3708SOL     OW22585   2.298   1.540  11.465  0.3443 -0.4607 -0.5927
 3708SOL    HW122586   2.250   1.463  11.495 -2.1849  1.6675  0.7830
 3708SOL    HW222587   2.385   1.527  11.503  0.2415 -0.8821 -0.5057
 3709SOL     OW22588   2.150   2.282  11.257 -0.4976  0.4040 -0.0658
 3709SOL    HW122589   2.195   2.198  11.269 -0.5058  0.3152 -0.6692
 3709SOL    HW222590   2.063   2.247  11.239  0.1668 -1.9399  1.3294
 3710SOL     OW22591   3.155   2.639   2.522 -0.1908 -0.0162 -0.2181
 3710SOL    HW122592   3.119   2.593   2.598  0.9656 -0.0671  0.3154
 3710SOL    HW222593   3.081   2.670   2.471 -0.6469  0.5843  0.7926
 3711SOL     OW22594   2.379   2.871   1.285  0.1616  0.2704 -0.2212
 3711SOL    HW122595   2.286   2.878   1.263  0.5277 -1.2091 -2.2439
 3711SOL    HW222596   2.409   2.793   1.238 -0.1351  0.0939 -0.1247
 3712SOL     OW22597   2.009   2.816  10.854  0.3454 -0.6926  0.1262
 3712SOL    HW122598   1.937   2.829  10.915 -1.9874  2.1765 -3.2018
 3712SOL    HW222599   2.076   2.776  10.909  1.3153  2.8097  1.4855
 3713SOL     OW22600   3.836   3.497   2.594  0.3905  0.1044 -0.2158
 3713SOL    HW122601   3.783   3.491   2.673 -1.2141  1.3282 -1.2067
 3713SOL    HW222602   3.902   3.429   2.604  0.7880  0.6167  0.7111
 3714SOL     OW22603   2.592   0.223  14.516 -0.3959 -0.3710  0.4300
 3714SOL    HW122604   2.634   0.191  14.436 -2.6885  0.1944 -1.0113
 3714SOL    HW222605   2.520   0.271  14.476 -0.8781 -1.4055  0.0601
 3715SOL     OW22606   3.555   3.349   5.497  0.1511  0.0862  0.2004
 3715SOL    HW122607   3.639   3.369   5.538 -0.4485  1.5062  0.7319
 3715SOL    HW222608   3.554   3.407   5.420  1.0269 -2.3925 -1.6646
 3716SOL     OW22609   3.418   1.235   1.710 -0.1263 -0.2601  0.0740
 3716SOL    HW122610   3.491   1.186   1.749  0.1771  0.6978  0.7107
 3716SOL    HW222611   3.379   1.266   1.792 -0.7325 -0.4985 -0.1281
 3717SOL     OW22612   4.473   1.072  10.834 -0.0619  0.0181 -0.2594
 3717SOL    HW122613   4.446   0.982  10.852  1.3727 -0.5408 -0.9290
 3717SOL    HW222614   4.458   1.099  10.925  0.1692 -1.2000  0.1388
 3718SOL     OW22615   4.018   2.157   4.928  0.0275 -0.7484 -0.0095
 3718SOL    HW122616   4.055   2.165   4.840 -0.6707  2.1456 -0.0326
 3718SOL    HW222617   3.927   2.160   4.899  0.0066  0.4581  0.1808
 3719SOL     OW22618   0.962   3.615   6.249 -0.1626  0.1810  0.5239
 3719SOL    HW122619   1.057   3.607   6.252 -0.2799 -1.1886  0.7602
 3719SOL    HW222620   0.960   3.665   6.167  0.7099 -2.4726 -1.1094
 3720SOL     OW22621   2.047   1.787  14.051  0.4399  0.2012 -0.2469
 3720SOL    HW122622   2.020   1.828  14.133  1.0416 -0.4373  0.2755
 3720SOL    HW222623   2.032   1.694  14.070  0.9420  1.0069  4.1968
 3721SOL     OW22624   2.772   2.649   0.963  0.2006  0.2856 -0.2706
 3721SOL    HW122625   2.859   2.643   1.002  0.4154  0.9901 -0.6405
 3721SOL    HW222626   2.786   2.688   0.877  1.6513 -1.0725 -0.6361
 3722SOL     OW22627   3.352   1.668   6.207 -0.4665 -0.1199  0.5485
 3722SOL    HW122628   3.290   1.612   6.253 -0.9236 -0.4482 -0.4593
 3722SOL    HW222629   3.337   1.642   6.116 -1.4471 -0.4508  0.8064
 3723SOL     OW22630   0.037   0.426   3.011  0.6852  0.2345  0.3054
 3723SOL    HW122631   0.032   0.486   2.935 -0.8299 -1.7094 -1.1243
 3723SOL    HW222632   4.666   0.431   3.033  0.8746 -0.0588  1.1583
 3724SOL     OW22633   2.017   0.244  13.615 -0.4754 -0.8939 -0.0328
 3724SOL    HW122634   1.973   0.323  13.586  1.8922  0.7393  0.8259
 3724SOL    HW222635   1.982   0.183  13.550 -2.0008 -0.1736  0.1350
 3725SOL     OW22636   3.370   3.490   3.770  0.2621 -0.1997 -0.7216
 3725SOL    HW122637   3.385   3.424   3.837  1.4693  1.0354  0.2291
 3725SOL    HW222638   3.415   3.572   3.790  0.9687 -0.5422 -0.9069
 3726SOL     OW22639   2.619   2.415  11.235 -0.4975  0.1071 -0.0223
 3726SOL    HW122640   2.574   2.339  11.271 -0.1176 -0.9820 -1.8823
 3726SOL    HW222641   2.638   2.373  11.151 -3.0057 -0.5347 -0.2564
 3727SOL     OW22642   4.248   1.729   8.123 -0.0528 -0.0291  0.7423
 3727SOL    HW122643   4.267   1.820   8.099  0.9842 -0.6499 -0.7414
 3727SOL    HW222644   4.195   1.753   8.200  0.0473 -1.0331  1.1215
 3728SOL     OW22645   3.482   4.711   3.454  0.4147  0.0662  0.2522
 3728SOL    HW122646   3.513   0.079   3.457  2.1380 -0.5421  0.4774
 3728SOL    HW222647   3.450   4.704   3.364  1.4698 -0.2072 -0.0962
 3729SOL     OW22648   2.496   1.362   8.123  0.1027 -0.0094 -1.2872
 3729SOL    HW122649   2.518   1.404   8.040 -0.0821  1.4880 -0.5812
 3729SOL    HW222650   2.561   1.292   8.126  1.1693  1.0179 -0.5016
 3730SOL     OW22651   0.393   4.231   8.656  0.1709  0.2526 -0.0403
 3730SOL    HW122652   0.433   4.257   8.573 -2.0533 -2.7389 -2.0200
 3730SOL    HW222653   0.409   4.307   8.712 -0.9439  0.2100  0.3353
 3731SOL     OW22654   1.176   0.269   4.941  0.5295 -0.0963  0.5334
 3731SOL    HW122655   1.182   0.183   4.984 -0.2502 -0.9529 -1.0579
 3731SOL    HW222656   1.140   0.329   5.007 -1.7929 -1.3231  0.3936
 3732SOL     OW22657   2.133   4.589   1.157 -0.1578 -0.1405 -0.0439
 3732SOL    HW122658   2.217   4.550   1.130 -0.7730 -0.4979 -1.4255
 3732SOL    HW222659   2.160   4.625   1.241 -0.1712 -3.1967  1.2762
 3733SOL     OW22660   3.028   1.791   6.385 -0.1637 -0.4804 -0.4739
 3733SOL    HW122661   3.056   1.843   6.309 -2.3897 -1.1290 -1.7382
 3733SOL    HW222662   3.077   1.841   6.450 -1.0486 -1.3656  0.8720
 3734SOL     OW22663   4.240   1.981   9.011 -0.4193  0.3276  0.1720
 3734SOL    HW122664   4.229   1.891   8.982 -1.4235  0.4617  0.1448
 3734SOL    HW222665   4.169   2.019   8.959 -0.2400  0.3323 -0.0668
 3735SOL     OW22666   0.215   2.083   3.208 -0.2023 -0.6915 -0.0910
 3735SOL    HW122667   0.266   2.121   3.136  0.2244 -1.4648 -0.1958
 3735SOL    HW222668   0.157   2.027   3.157 -2.5752  1.1653  0.5503
 3736SOL     OW22669   2.625   3.874  14.120 -0.4223  0.0882 -0.1540
 3736SOL    HW122670   2.711   3.888  14.158  0.0947  0.9618 -1.6578
 3736SOL    HW222671   2.599   3.959  14.084 -3.8112  0.4891  3.1787
 3737SOL     OW22672   2.214   3.966  17.067 -0.0193 -0.5699 -0.1308
 3737SOL    HW122673   2.189   3.893  17.123  1.7545  1.6412  3.5323
 3737SOL    HW222674   2.126   4.005  17.063  0.1151 -0.0101  2.4752
 3738SOL     OW22675   0.594   0.882   6.539  0.3598  0.5764 -0.2709
 3738SOL    HW122676   0.535   0.826   6.488  1.1215  0.2302 -0.7811
 3738SOL    HW222677   0.673   0.828   6.545 -0.4681 -0.3281  2.3007
 3739SOL     OW22678   2.444   3.573   7.250  0.3993  0.5399 -0.3909
 3739SOL    HW122679   2.480   3.661   7.265  1.1295 -0.0657  1.3630
 3739SOL    HW222680   2.460   3.521   7.328 -0.5775  1.6255  0.5411
 3740SOL     OW22681   1.045   2.752  12.198 -0.3649  0.2684 -0.4137
 3740SOL    HW122682   1.110   2.683  12.184 -0.9859 -1.0615  3.3175
 3740SOL    HW222683   1.031   2.784  12.109  2.2080  0.0651 -0.8833
 3741SOL     OW22684   4.584   4.222   4.929 -0.0266  0.1913  0.2988
 3741SOL    HW122685   4.622   4.190   4.848  2.6360 -1.1188  2.0916
 3741SOL    HW222686   4.650   4.184   4.986  0.2922 -0.5718 -0.5835
 3742SOL     OW22687   2.862   1.285   6.997 -0.3085 -0.3462  0.0769
 3742SOL    HW122688   2.823   1.262   6.912  1.3318 -1.2828 -0.4214
 3742SOL    HW222689   2.872   1.379   6.984 -3.0503  0.1580  1.6662
 3743SOL     OW22690   2.529   2.915   9.006 -0.1198  0.3316 -0.7171
 3743SOL    HW122691   2.474   2.853   8.959 -1.4540 -0.7259  2.2467
 3743SOL    HW222692   2.546   2.855   9.079 -0.1933  2.4711  1.0483
 3744SOL     OW22693   1.434   3.809  11.380 -0.2931 -0.4669 -0.0867
 3744SOL    HW122694   1.496   3.831  11.450 -1.8964  2.2954  0.4498
 3744SOL    HW222695   1.469   3.872  11.317 -0.1738 -0.5806 -0.1355
 3745SOL     OW22696   2.284   1.664  10.551  0.1307  0.0142  0.4978
 3745SOL    HW122697   2.233   1.714  10.615  0.0666 -0.0001  0.4578
 3745SOL    HW222698   2.371   1.692  10.578  1.2716 -1.6753 -1.4710
 3746SOL     OW22699   0.462   1.558  16.817 -0.4137 -0.4288  0.2918
 3746SOL    HW122700   0.478   1.465  16.832 -0.7011 -0.7396 -1.3548
 3746SOL    HW222701   0.442   1.562  16.723  2.3226 -0.5861 -0.2917
 3747SOL     OW22702   4.450   0.116  13.590  0.0411  0.3748  0.1548
 3747SOL    HW122703   4.363   0.147  13.563 -0.5799 -0.4904  1.1496
 3747SOL    HW222704   4.485   0.202  13.611 -1.3031  1.2219 -1.0466
 3748SOL     OW22705   0.469   2.798   5.342 -0.4760  0.1040 -0.3552
 3748SOL    HW122706   0.452   2.710   5.376 -0.0555  0.2272  0.1756
 3748SOL    HW222707   0.388   2.822   5.296 -1.9919 -0.9359  1.7289
 3749SOL     OW22708   2.229   1.825   8.609 -0.1022  0.7479  0.2385
 3749SOL    HW122709   2.152   1.862   8.653  1.0020  2.6381  0.5650
 3749SOL    HW222710   2.290   1.807   8.680  0.3295 -0.6089 -0.4805
 3750SOL     OW22711   2.592   1.335  16.489  1.1000  0.3510  0.0683
 3750SOL    HW122712   2.506   1.373  16.469  0.1727 -0.8511  1.7812
 3750SOL    HW222713   2.635   1.351  16.405  1.9736  2.4149  0.9025
 3751SOL     OW22714   1.013   2.038   0.444 -0.2090 -0.2707  1.0398
 3751SOL    HW122715   0.995   1.947   0.420 -1.9494  0.3104  0.1531
 3751SOL    HW222716   1.049   2.078   0.365  0.3738 -0.6817  1.0997
 3752SOL     OW22717   4.611   4.517   8.751  0.0977 -0.2878 -0.2326
 3752SOL    HW122718   4.609   4.521   8.847 -2.7306 -0.1968 -0.3052
 3752SOL    HW222719   4.648   4.429   8.743 -1.8929 -1.1675  0.0884
 3753SOL     OW22720   0.484   2.022  13.454  0.4380  0.1443 -0.2043
 3753SOL    HW122721   0.521   2.036  13.367  2.4373 -2.7728  0.1455
 3753SOL    HW222722   0.520   1.939  13.487  0.3416  0.3412  0.3860
 3754SOL     OW22723   0.166   0.077  17.380 -0.3316 -0.4493  0.0485
 3754SOL    HW122724   0.198   4.718  17.418  0.5355 -0.4096 -0.6125
 3754SOL    HW222725   0.145   0.131  17.456 -1.2714  0.6476 -0.9906
 3755SOL     OW22726   2.384   1.443  10.183  0.4197 -0.0722  0.1298
 3755SOL    HW122727   2.387   1.383  10.108  1.8633  1.6170 -1.1579
 3755SOL    HW222728   2.298   1.483  10.166  0.1586 -0.1598  1.2891
 3756SOL     OW22729   0.246   0.452   5.948 -0.2116  0.2501  0.8070
 3756SOL    HW122730   0.161   0.490   5.924  0.6039  1.6128  0.1337
 3756SOL    HW222731   0.229   0.395   6.023 -1.0559  0.2100  0.5884
 3757SOL     OW22732   2.887   2.537   6.703  0.2600 -0.2646 -0.3895
 3757SOL    HW122733   2.982   2.524   6.710  0.4371  2.4652  2.3073
 3757SOL    HW222734   2.863   2.466   6.644 -3.5735  0.2362  0.5379
 3758SOL     OW22735   2.879   0.050   6.913 -0.7206 -0.3686 -0.0873
 3758SOL    HW122736   2.914   4.696   6.958  1.3599  1.3046  1.1629
 3758SOL    HW222737   2.958   0.074   6.865  0.2209  3.2227  3.2493
 3759SOL     OW22738   1.789   0.672   3.183  0.4994  0.2723 -0.4541
 3759SOL    HW122739   1.779   0.657   3.089 -3.0331 -0.2972 -0.0145
 3759SOL    HW222740   1.870   0.723   3.180  1.2756 -0.9396 -0.0656
 3760SOL     OW22741   2.368   2.940   0.029  0.0091  0.4915 -0.7076
 3760SOL    HW122742   2.310   3.015   0.041  0.2527  0.5670  0.0185
 3760SOL    HW222743   2.361   2.926  17.626 -0.2644  0.5194 -0.6916
 3761SOL     OW22744   4.279   1.646   5.382  0.6089  0.1479  0.2859
 3761SOL    HW122745   4.219   1.638   5.456 -2.2857  0.1859 -2.0500
 3761SOL    HW222746   4.342   1.576   5.397  0.3488  0.4368  2.7845
 3762SOL     OW22747   1.487   2.476  10.261  0.2315  0.1063  0.2200
 3762SOL    HW122748   1.564   2.485  10.205 -1.0643  0.8538 -1.4346
 3762SOL    HW222749   1.444   2.399  10.224 -1.1645  1.8405 -1.7540
 3763SOL     OW22750   1.337   4.589   5.886  0.3524 -0.9486  0.3736
 3763SOL    HW122751   1.377   4.601   5.800 -2.3904 -0.9128 -0.8849
 3763SOL    HW222752   1.400   4.537   5.936 -0.0567 -2.3991 -0.6248
 3764SOL     OW22753   4.482   1.595   2.626 -0.1924  0.1475 -0.3992
 3764SOL    HW122754   4.438   1.631   2.549  0.8634 -0.1924 -1.1646
 3764SOL    HW222755   4.418   1.570   2.692  1.5359 -1.1930  0.7879
 3765SOL     OW22756   4.654   0.843   6.875 -0.2250 -0.2721 -0.0037
 3765SOL    HW122757   4.714   0.783   6.919  1.4858  1.4574  0.0611
 3765SOL    HW222758   4.652   0.916   6.937  0.7781  0.2249 -0.5399
 3766SOL     OW22759   0.661   2.893   5.542  0.0509 -0.0988 -0.0787
 3766SOL    HW122760   0.592   2.871   5.480 -0.8686 -1.0924  1.2961
 3766SOL    HW222761   0.727   2.831   5.512  0.8371 -0.0662  1.5526
 3767SOL     OW22762   2.852   0.313  14.747  0.3566 -0.4337 -0.1778
 3767SOL    HW122763   2.944   0.330  14.769  0.4027  0.7901 -1.2891
 3767SOL    HW222764   2.865   0.285  14.657  0.0884 -2.8410  0.5386
 3768SOL     OW22765   3.305   4.525   0.409  0.4674 -0.0927  0.3353
 3768SOL    HW122766   3.307   4.486   0.496 -0.0100  0.8962  0.7921
 3768SOL    HW222767   3.214   4.556   0.412 -0.6215 -3.5963  3.7477
 3769SOL     OW22768   1.584   1.346   1.974 -0.5955  0.4519  0.2761
 3769SOL    HW122769   1.607   1.281   1.908  1.8258  0.8489  0.7190
 3769SOL    HW222770   1.615   1.300   2.052  0.6231 -0.4558 -0.7332
 3770SOL     OW22771   0.113   1.425  11.627  0.2768  0.0348  0.0238
 3770SOL    HW122772   0.187   1.398  11.573 -0.0529 -0.6737 -0.0801
 3770SOL    HW222773   0.041   1.395  11.571  0.5056 -0.7810  0.1699
 3771SOL     OW22774   3.165   3.097  16.808  0.5245  0.0456  0.0201
 3771SOL    HW122775   3.183   3.119  16.899  1.2379  1.5582 -0.4863
 3771SOL    HW222776   3.147   3.003  16.808  0.5114  0.0418  1.0502
 3772SOL     OW22777   0.913   3.955   5.357 -0.1117  0.8242  0.0092
 3772SOL    HW122778   0.911   3.915   5.270  1.1162 -0.1809  0.4456
 3772SOL    HW222779   0.829   4.000   5.363 -1.2367 -1.2225 -0.2351
 3773SOL     OW22780   0.413   0.357  16.614 -0.5788  0.4172  0.3130
 3773SOL    HW122781   0.425   0.347  16.708 -2.8601  0.7924  0.6470
 3773SOL    HW222782   0.373   0.274  16.590 -1.1677  1.1467 -1.2181
 3774SOL     OW22783   3.651   2.195   4.169  0.3121 -1.1499  0.0153
 3774SOL    HW122784   3.703   2.216   4.091  2.1568  0.4884  1.6934
 3774SOL    HW222785   3.595   2.273   4.177  1.1780 -0.3517 -1.7597
 3775SOL     OW22786   2.421   4.349   2.127  0.0368 -0.5509  0.2438
 3775SOL    HW122787   2.337   4.314   2.157 -1.8952  1.7731 -2.4481
 3775SOL    HW222788   2.457   4.374   2.212 -0.5695 -1.3241  0.7263
 3776SOL     OW22789   3.110   4.563  13.086  0.5325  0.3911 -0.8657
 3776SOL    HW122790   3.066   4.644  13.060 -1.8266  0.0697  2.1334
 3776SOL    HW222791   3.127   4.583  13.178  0.6546 -4.1669  0.1264
 3777SOL     OW22792   3.645   4.009  13.476 -0.3831  0.2635  0.4540
 3777SOL    HW122793   3.726   3.974  13.513  0.2796  2.0152  0.6768
 3777SOL    HW222794   3.576   3.987  13.539 -0.4642 -0.6115  0.0553
 3778SOL     OW22795   1.097   0.994   6.023 -0.3584  0.7774  0.8002
 3778SOL    HW122796   1.134   1.050   6.091 -0.7644  1.3495  0.5491
 3778SOL    HW222797   1.179   0.964   5.985  0.0388  1.3386  1.2123
 3779SOL     OW22798   3.976   3.370  17.128 -0.0954  0.7479 -0.1734
 3779SOL    HW122799   4.005   3.432  17.061 -1.4779  3.1093  1.3978
 3779SOL    HW222800   3.967   3.298  17.066  1.4745  2.2974 -2.2155
 3780SOL     OW22801   0.753   0.749   6.267 -0.0575 -0.1899 -0.4588
 3780SOL    HW122802   0.758   0.653   6.258 -1.7725 -0.2555 -0.5934
 3780SOL    HW222803   0.771   0.749   6.361 -2.6836  0.9106  0.0154
 3781SOL     OW22804   1.595   0.302   4.959  0.2116  0.0133 -0.1663
 3781SOL    HW122805   1.540   0.381   4.956 -0.1542 -0.3063 -1.8145
 3781SOL    HW222806   1.599   0.296   5.054  1.6432 -0.6732 -0.2646
 3782SOL     OW22807   4.641   0.438   7.896  0.1639 -0.3092  0.0267
 3782SOL    HW122808   4.617   0.381   7.968 -1.2017 -1.1166 -1.0738
 3782SOL    HW222809   4.553   0.460   7.866 -0.2960 -1.6367  0.4147
 3783SOL     OW22810   1.129   4.155   0.628 -0.5270 -0.2924  0.0303
 3783SOL    HW122811   1.181   4.208   0.568  0.1839 -0.1333  0.7949
 3783SOL    HW222812   1.175   4.071   0.619  1.2796  0.5701  1.3544
 3784SOL     OW22813   3.939   0.693   4.284 -0.0540 -0.0977  0.0918
 3784SOL    HW122814   3.863   0.666   4.336  1.3544 -3.4078  0.4468
 3784SOL    HW222815   3.996   0.619   4.301  0.8762 -0.1211 -3.0870
 3785SOL     OW22816   3.209   3.501  13.744 -0.4828 -0.3916 -0.2659
 3785SOL    HW122817   3.155   3.487  13.821  1.1486 -1.7933  0.6300
 3785SOL    HW222818   3.260   3.574  13.780  1.0107 -2.2064  1.2988
 3786SOL     OW22819   3.169   3.876   7.019  0.8506 -0.0485  0.4471
 3786SOL    HW122820   3.130   3.807   7.072 -0.3252 -1.8254 -2.6967
 3786SOL    HW222821   3.129   3.842   6.939 -0.7589  3.0081 -0.0363
 3787SOL     OW22822   0.535   3.464   3.942  0.1483 -0.4548 -0.1341
 3787SOL    HW122823   0.563   3.379   3.974  0.7795  0.1059  0.7874
 3787SOL    HW222824   0.585   3.525   3.996  2.8507 -2.8762  0.0623
 3788SOL     OW22825   1.078   2.538  17.103 -0.4994 -0.0017  0.4895
 3788SOL    HW122826   1.104   2.472  17.167  2.9624 -1.4740 -2.4276
 3788SOL    HW222827   1.099   2.616  17.156 -2.0135  0.0063  1.0891
 3789SOL     OW22828   2.381   1.564   2.824  0.3861 -0.0771  0.5496
 3789SOL    HW122829   2.461   1.615   2.816  0.6029 -0.2327  1.6419
 3789SOL    HW222830   2.327   1.604   2.893 -1.0563 -1.2401  0.1083
 3790SOL     OW22831   3.146   2.817  15.500 -0.2645 -0.3935 -0.7485
 3790SOL    HW122832   3.076   2.764  15.460 -0.7160 -0.3556 -0.0146
 3790SOL    HW222833   3.146   2.899  15.452  1.0295  0.7751  1.2523
 3791SOL     OW22834   0.599   1.456   4.539  0.1204 -0.3493 -0.6084
 3791SOL    HW122835   0.599   1.552   4.531  1.1550 -0.1527  1.6247
 3791SOL    HW222836   0.562   1.417   4.461  1.2044  0.7293 -1.6695
 3792SOL     OW22837   2.494   1.550   9.818  0.1654 -0.3996 -0.1870
 3792SOL    HW122838   2.581   1.523   9.790  0.4577 -0.8333  1.1620
 3792SOL    HW222839   2.458   1.479   9.871 -2.3231  1.5380  0.7201
 3793SOL     OW22840   0.678   0.003   0.033  0.3168  0.3511  0.2698
 3793SOL    HW122841   0.714   4.691  17.643  1.4999  0.6944  0.6550
 3793SOL    HW222842   0.590   0.013  17.688  1.0858  1.1222 -1.3540
 3794SOL     OW22843   2.341   1.816   4.990 -0.0557  0.2289 -0.6826
 3794SOL    HW122844   2.314   1.743   4.934  0.3610  1.5634 -2.6195
 3794SOL    HW222845   2.379   1.770   5.065 -1.3469 -0.4609 -0.4560
 3795SOL     OW22846   0.558   3.788  11.034  0.4865  0.0376  0.2798
 3795SOL    HW122847   0.504   3.711  11.017  1.7772 -0.4117 -1.7248
 3795SOL    HW222848   0.615   3.773  10.959  3.0815  1.1157  2.0463
 3796SOL     OW22849   0.085   3.795  10.998  0.3091 -0.8071 -0.0529
 3796SOL    HW122850   0.129   3.818  11.079  0.5585 -2.7968  0.3623
 3796SOL    HW222851   0.100   3.879  10.953 -2.6170 -0.5290 -0.5422
 3797SOL     OW22852   4.360   3.316   1.231 -0.1554 -0.2763 -0.5146
 3797SOL    HW122853   4.275   3.360   1.237 -0.7861 -1.5105 -0.3535
 3797SOL    HW222854   4.415   3.389   1.202  2.1383 -1.5814  0.5539
 3798SOL     OW22855   4.640   3.223   8.775  0.2340 -0.3417  0.1573
 3798SOL    HW122856   4.676   3.290   8.833 -0.2119  0.7421 -0.8059
 3798SOL    HW222857   4.553   3.210   8.813 -0.2489 -1.9730 -1.5259
 3799SOL     OW22858   2.203   4.351   4.164 -0.1895  0.0998  0.2336
 3799SOL    HW122859   2.282   4.348   4.217 -0.7237 -1.2753  0.9418
 3799SOL    HW222860   2.245   4.348   4.078 -1.5469 -2.9404 -0.3325
 3800SOL     OW22861   3.016   3.375  13.611 -0.7255  0.3599  0.1593
 3800SOL    HW122862   2.958   3.448  13.593  0.3198  1.0472 -0.4156
 3800SOL    HW222863   3.081   3.429  13.655  0.5047 -0.6630 -0.3997
 3801SOL     OW22864   1.755   3.338   9.345 -0.4076 -0.0820 -0.2213
 3801SOL    HW122865   1.678   3.284   9.325  1.2994 -2.0268 -1.4872
 3801SOL    HW222866   1.736   3.429   9.320 -2.1260 -0.6168 -0.8937
 3802SOL     OW22867   1.107   0.059   6.955 -0.3845 -0.2607  0.2994
 3802SOL    HW122868   1.037   0.115   6.990 -0.3062  1.7233 -2.7066
 3802SOL    HW222869   1.178   0.122   6.940 -1.8415  0.9019 -1.7819
 3803SOL     OW22870   4.331   3.611  13.916 -0.0807  0.3137  0.2812
 3803SOL    HW122871   4.257   3.593  13.859 -0.7348 -1.3931  1.6781
 3803SOL    HW222872   4.389   3.614  13.840  0.1305  1.1778  0.4701
 3804SOL     OW22873   0.221   0.766  12.498 -0.1944 -0.0665  0.1054
 3804SOL    HW122874   0.169   0.836  12.536  1.7705  0.1235  2.4445
 3804SOL    HW222875   0.311   0.798  12.502 -0.2359  0.7407 -6.0458
 3805SOL     OW22876   0.702   2.678   0.234 -0.0573 -0.1778 -0.5434
 3805SOL    HW122877   0.629   2.739   0.249  0.3590 -0.6375  3.1625
 3805SOL    HW222878   0.736   2.712   0.151 -1.6754 -1.0699 -1.5739
 3806SOL     OW22879   1.272   3.606   8.763  0.3399  0.0688  0.2534
 3806SOL    HW122880   1.246   3.686   8.809 -0.4139 -0.9345  1.5412
 3806SOL    HW222881   1.300   3.549   8.835  0.5405  0.2909  0.3549
 3807SOL     OW22882   3.128   3.860   3.878  0.5013 -0.0886  0.5605
 3807SOL    HW122883   3.146   3.926   3.945 -1.6106  1.5541 -0.4713
 3807SOL    HW222884   3.105   3.779   3.924  0.0980  0.4645  1.3503
 3808SOL     OW22885   0.174   2.359   8.106  0.0517  0.2481  0.1859
 3808SOL    HW122886   0.227   2.291   8.067 -2.8411  0.3446 -3.8866
 3808SOL    HW222887   0.232   2.431   8.128 -1.0610  1.4866 -0.9193
 3809SOL     OW22888   1.670   1.229   8.622  0.0969  0.4662 -0.7606
 3809SOL    HW122889   1.637   1.273   8.700 -2.2192 -2.4153 -0.1464
 3809SOL    HW222890   1.610   1.158   8.602  0.3959  0.3724 -1.3410
 3810SOL     OW22891   0.399   2.803   9.352  0.4688  0.3884  0.1688
 3810SOL    HW122892   0.456   2.795   9.428  0.2056 -0.3042  0.2943
 3810SOL    HW222893   0.323   2.753   9.382  1.6588 -1.4991  0.0481
 3811SOL     OW22894   3.625   2.208   3.567  0.6878  0.3320 -0.4719
 3811SOL    HW122895   3.697   2.269   3.581  0.7268 -0.0269  0.8876
 3811SOL    HW222896   3.623   2.163   3.651  1.2084 -0.7838 -1.0505
 3812SOL     OW22897   1.197   2.233   2.369  0.3752 -0.1720 -0.1717
 3812SOL    HW122898   1.283   2.214   2.406  0.5033 -0.7562 -0.7699
 3812SOL    HW222899   1.148   2.159   2.407 -0.6414 -0.8828 -2.8655
 3813SOL     OW22900   3.020   0.498   5.270  0.3671  0.0413  0.2410
 3813SOL    HW122901   2.932   0.475   5.299 -0.3024  2.0302 -0.1917
 3813SOL    HW222902   2.995   0.571   5.214  0.7796 -1.0888 -1.4372
 3814SOL     OW22903   0.535   3.439   1.008 -0.2343  0.8198  0.4674
 3814SOL    HW122904   0.581   3.363   0.971  1.8075  1.4001  1.7692
 3814SOL    HW222905   0.609   3.470   1.061 -0.8354  0.4070  1.5530
 3815SOL     OW22906   4.653   1.309   5.671 -0.5544 -0.6161  0.6825
 3815SOL    HW122907   4.673   1.356   5.752 -0.6546 -0.1809  0.4519
 3815SOL    HW222908   4.577   1.256   5.697 -2.1634  1.6853  0.6365
 3816SOL     OW22909   1.936   3.531  10.287 -0.1480  0.1484 -0.7065
 3816SOL    HW122910   1.997   3.512  10.216 -2.1412 -2.1040 -1.8321
 3816SOL    HW222911   1.904   3.618  10.260  0.7672  1.0192  1.0357
 3817SOL     OW22912   0.798   3.114   5.474  0.8002  0.3386 -0.6925
 3817SOL    HW122913   0.739   3.040   5.490  1.5185 -0.1935 -0.4994
 3817SOL    HW222914   0.769   3.175   5.543 -0.8707  0.5289 -1.5533
 3818SOL     OW22915   1.589   3.426   9.722  0.4929  0.6825 -0.2323
 3818SOL    HW122916   1.656   3.362   9.698 -1.0176 -0.3834 -1.5214
 3818SOL    HW222917   1.621   3.455   9.808  0.0992  1.4149 -0.3295
 3819SOL     OW22918   1.071   3.359   4.539 -0.0786 -0.0575 -0.3273
 3819SOL    HW122919   1.039   3.448   4.526  0.5860  0.5694  2.2611
 3819SOL    HW222920   1.076   3.342   4.634  2.3305 -1.1409 -0.6463
 3820SOL     OW22921   3.592   2.432   9.550 -0.6917  0.5334 -0.6718
 3820SOL    HW122922   3.603   2.376   9.473 -0.2882  0.6183 -0.6788
 3820SOL    HW222923   3.638   2.512   9.524 -0.0761 -0.1779 -1.7743
 3821SOL     OW22924   3.337   0.790   1.813  0.5372 -0.5834 -0.1805
 3821SOL    HW122925   3.427   0.822   1.801  0.1331 -0.1351 -1.9438
 3821SOL    HW222926   3.278   0.832   1.751  0.4372  1.0098  0.9996
 3822SOL     OW22927   1.619   3.301  14.240 -0.1432  0.3760  0.2420
 3822SOL    HW122928   1.592   3.392  14.233  0.8966  0.8356  2.2894
 3822SOL    HW222929   1.537   3.252  14.228  0.2763  0.0446 -1.2391
 3823SOL     OW22930   0.454   1.202   7.964 -0.1329  0.3755 -0.0532
 3823SOL    HW122931   0.480   1.135   8.026 -2.8061  0.6108  1.2966
 3823SOL    HW222932   0.388   1.153   7.915 -0.0001  0.5050 -0.3656
 3824SOL     OW22933   1.601   4.370   9.828  0.4810 -0.0796 -0.2171
 3824SOL    HW122934   1.638   4.457   9.839  0.9926 -0.1302 -1.5688
 3824SOL    HW222935   1.507   4.384   9.813  0.4503  1.1826  1.1277
 3825SOL     OW22936   2.087   0.232  11.447  0.3770 -0.0983 -0.5700
 3825SOL    HW122937   2.093   0.326  11.465 -2.2725 -0.1546  0.6516
 3825SOL    HW222938   1.993   0.214  11.455  0.2452 -0.2030 -2.2837
 3826SOL     OW22939   0.432   1.688   7.004 -0.2205  0.3377  0.0377
 3826SOL    HW122940   0.474   1.702   7.089  0.0092 -2.6966  0.4337
 3826SOL    HW222941   0.356   1.637   7.032 -0.4595  0.5471 -0.2332
 3827SOL     OW22942   3.194   1.550   2.079  0.2040 -0.1387  0.2856
 3827SOL    HW122943   3.229   1.610   2.144  0.6969  0.1387 -0.2423
 3827SOL    HW222944   3.109   1.529   2.119  0.9107  0.0053  1.8418
 3828SOL     OW22945   4.259   0.963   4.147 -0.0601 -0.0466  0.8310
 3828SOL    HW122946   4.257   1.051   4.184  0.2509  0.9414 -1.5097
 3828SOL    HW222947   4.229   0.966   4.056  2.4872 -0.9236 -0.0572
 3829SOL     OW22948   1.866   2.323   6.895 -0.8878 -0.2611 -0.7512
 3829SOL    HW122949   1.785   2.352   6.854 -0.7626  2.6561  1.1229
 3829SOL    HW222950   1.851   2.313   6.989  0.4208  0.9985 -0.4125
 3830SOL     OW22951   4.023   2.967   5.218  0.0614 -0.3222 -0.6136
 3830SOL    HW122952   3.972   2.963   5.299  0.9449  1.9824  0.0515
 3830SOL    HW222953   4.023   2.879   5.181  2.6655  0.1473 -1.7412
 3831SOL     OW22954   2.466   3.232   2.175  0.5922  0.3543 -0.7797
 3831SOL    HW122955   2.521   3.259   2.102  0.1180 -2.0217 -2.0415
 3831SOL    HW222956   2.380   3.250   2.135 -1.7075 -0.5870  3.7689
 3832SOL     OW22957   1.550   4.128   8.764  0.0428  0.0950 -0.3044
 3832SOL    HW122958   1.501   4.173   8.832 -1.3597 -2.5440  0.4306
 3832SOL    HW222959   1.641   4.148   8.784 -0.4479  0.7983  1.1725
 3833SOL     OW22960   2.537   1.140   4.756  0.4658 -0.2555  0.1286
 3833SOL    HW122961   2.604   1.192   4.710 -0.1383  0.2865 -0.1333
 3833SOL    HW222962   2.505   1.073   4.696 -3.0709  1.5793 -0.0272
 3834SOL     OW22963   4.309   3.689   5.675  0.5095 -0.4114 -0.0559
 3834SOL    HW122964   4.259   3.755   5.723  1.2959  1.0608 -1.2370
 3834SOL    HW222965   4.380   3.674   5.737  1.2060 -1.1391 -1.0473
 3835SOL     OW22966   2.139   4.246   4.691 -0.1247  0.2019 -0.3430
 3835SOL    HW122967   2.129   4.225   4.598 -0.2909 -2.5754  0.3029
 3835SOL    HW222968   2.205   4.179   4.710 -0.0779  0.3916  0.1423
 3836SOL     OW22969   0.643   1.586   2.577 -0.6474  0.3766  0.3682
 3836SOL    HW122970   0.674   1.637   2.502 -3.3944  0.1228 -0.9461
 3836SOL    HW222971   0.596   1.660   2.615 -0.5788 -0.4497  2.0430
 3837SOL     OW22972   3.050   0.437   6.817 -0.6383 -0.0925  0.4253
 3837SOL    HW122973   3.040   0.395   6.902  0.8956 -0.6539  0.3328
 3837SOL    HW222974   3.116   0.376   6.783  0.3284  0.9044  0.5091
 3838SOL     OW22975   2.591   4.256  14.572  0.5283 -0.9149 -0.0257
 3838SOL    HW122976   2.633   4.234  14.656  0.9781  0.6684  0.1635
 3838SOL    HW222977   2.522   4.317  14.598  2.7745  1.5237  0.1800
 3839SOL     OW22978   2.736   0.379   6.114 -0.8411 -0.2220  0.3137
 3839SOL    HW122979   2.673   0.447   6.091  0.3953  1.3444  1.5697
 3839SOL    HW222980   2.678   0.325   6.166  0.1396 -0.4118  1.2166
 3840SOL     OW22981   2.156   0.566   4.611 -0.4389 -0.0095 -0.6391
 3840SOL    HW122982   2.211   0.542   4.536  0.2293  1.4062 -0.6068
 3840SOL    HW222983   2.074   0.528   4.578  0.6222 -1.3171 -1.7784
 3841SOL     OW22984   2.109   1.603  12.658  0.3847  0.3169 -0.5090
 3841SOL    HW122985   2.185   1.646  12.697  0.0051  0.5786 -0.0651
 3841SOL    HW222986   2.095   1.656  12.580  0.3189  1.9417  0.6161
 3842SOL     OW22987   4.101   0.684   4.655  0.1304 -0.6140 -0.3121
 3842SOL    HW122988   4.014   0.717   4.633 -0.3450 -1.9985 -0.4679
 3842SOL    HW222989   4.075   0.610   4.710 -0.1743 -0.4098 -0.1789
 3843SOL     OW22990   2.805   4.368   3.366  0.1269 -0.4305 -0.5564
 3843SOL    HW122991   2.807   4.428   3.441 -0.5616  0.3801 -1.1879
 3843SOL    HW222992   2.710   4.353   3.360 -0.0090 -0.6676  2.2123
 3844SOL     OW22993   2.371   4.389   9.960  0.6541 -0.4229 -0.4160
 3844SOL    HW122994   2.352   4.483   9.963  1.0208 -0.3320 -0.8419
 3844SOL    HW222995   2.416   4.375  10.044  2.0577 -3.2230 -1.6381
 3845SOL     OW22996   0.762   0.088   7.555 -0.2352  0.5628  0.3392
 3845SOL    HW122997   0.784   0.181   7.567  1.7495  0.0743  0.4388
 3845SOL    HW222998   0.847   0.046   7.565 -0.9606 -1.0095 -0.1112
 3846SOL     OW22999   0.548   1.022   1.906  0.3427  0.1652  0.0761
 3846SOL    HW123000   0.458   0.991   1.895  1.3339 -1.9327 -2.1699
 3846SOL    HW223001   0.543   1.107   1.949 -0.0417  0.0581  0.2384
 3847SOL     OW23002   2.183   1.644   3.610  0.4819 -0.0640 -0.0596
 3847SOL    HW123003   2.100   1.686   3.633 -0.5889 -2.3564  0.2385
 3847SOL    HW223004   2.217   1.701   3.541  1.3531 -1.5181 -0.8114
 3848SOL     OW23005   2.877   1.838   7.641  0.2313  0.1632  0.5677
 3848SOL    HW123006   2.913   1.749   7.648 -0.4993 -0.2080 -0.5408
 3848SOL    HW223007   2.782   1.828   7.637  0.3829 -0.1664 -1.8028
 3849SOL     OW23008   0.409   0.580   5.437  0.1617  0.6130 -0.3860
 3849SOL    HW123009   0.364   0.664   5.436 -0.4371  0.2822 -0.6439
 3849SOL    HW223010   0.440   0.577   5.528 -0.3257 -1.4110 -0.2973
 3850SOL     OW23011   0.484   0.902   3.009 -0.3275  0.1129  1.0507
 3850SOL    HW123012   0.544   0.899   3.082  1.9367  3.2093 -0.6558
 3850SOL    HW223013   0.539   0.954   2.949  0.0820 -0.0657  1.2754
 3851SOL     OW23014   4.134   4.691   8.223 -0.4461  0.1748 -0.3110
 3851SOL    HW123015   4.089   4.670   8.141  0.1391 -0.7932 -0.3780
 3851SOL    HW223016   4.154   4.603   8.255  1.2050  0.8212  0.3926
 3852SOL     OW23017   0.460   2.752  11.348 -0.8731 -0.5769 -0.1748
 3852SOL    HW123018   0.393   2.687  11.326 -2.6406  0.5931  1.6945
 3852SOL    HW223019   0.520   2.694  11.393  0.1749  1.6712  1.3387
 3853SOL     OW23020   3.723   4.082  13.194 -0.3718  0.2012  0.4331
 3853SOL    HW123021   3.707   4.070  13.288 -1.2947 -1.0365  0.1298
 3853SOL    HW223022   3.802   4.029  13.183  0.3413  0.8213  2.6490
 3854SOL     OW23023   4.415   1.277   4.457  0.0464  0.3200  0.4637
 3854SOL    HW123024   4.390   1.206   4.398  2.5441  1.5489 -2.0818
 3854SOL    HW223025   4.414   1.351   4.396  0.4722 -0.0215  0.0511
 3855SOL     OW23026   4.318   3.046   8.335  0.6309 -0.2156  0.0127
 3855SOL    HW123027   4.228   3.046   8.368  1.3407  0.2047  1.9048
 3855SOL    HW223028   4.318   3.085   8.247  0.1528  0.7835  0.4615
 3856SOL     OW23029   0.914   2.495  11.889 -0.9592 -0.2558  0.0899
 3856SOL    HW123030   0.983   2.429  11.892  0.1953  1.0173  1.7464
 3856SOL    HW223031   0.868   2.477  11.807 -0.1675  0.0416 -0.4241
 3857SOL     OW23032   2.799   0.360   3.944  0.0388 -0.1161 -0.7959
 3857SOL    HW123033   2.759   0.273   3.949  0.2108 -0.1930 -0.7430
 3857SOL    HW223034   2.885   0.337   3.908 -0.0917  0.2320 -1.3275
 3858SOL     OW23035   1.082   4.131   6.360  0.1618 -0.5714 -0.1316
 3858SOL    HW123036   1.052   4.040   6.366 -2.2709  0.0485 -2.8975
 3858SOL    HW223037   1.032   4.167   6.287  1.1321 -0.2563 -0.6482
 3859SOL     OW23038   1.933   2.671   8.115  0.2589  0.5582  0.0704
 3859SOL    HW123039   1.945   2.576   8.112 -1.9381  0.3024 -0.6803
 3859SOL    HW223040   2.010   2.698   8.065 -1.0778  2.5052 -0.9442
 3860SOL     OW23041   3.692   1.696   0.581 -0.4770 -0.3610  0.3851
 3860SOL    HW123042   3.709   1.693   0.487 -1.3192 -0.8256  0.2520
 3860SOL    HW223043   3.597   1.689   0.582 -0.7081  2.6441  0.2352
 3861SOL     OW23044   2.317   0.983   2.387  0.5241  0.0291 -0.0912
 3861SOL    HW123045   2.365   1.037   2.449  1.0985 -1.3836  0.6946
 3861SOL    HW223046   2.269   0.925   2.446 -0.2145  1.5475  0.8150
 3862SOL     OW23047   1.219   1.609  15.880  0.6453 -0.3324 -0.1474
 3862SOL    HW123048   1.217   1.525  15.833  0.7524 -0.5196  0.1781
 3862SOL    HW223049   1.128   1.637  15.868  1.5351  2.9603  0.9005
 3863SOL     OW23050   0.514   1.521  11.252  0.1845 -0.3314 -0.0742
 3863SOL    HW123051   0.500   1.541  11.159 -0.4810 -0.3050  0.0346
 3863SOL    HW223052   0.572   1.593  11.279  0.0459 -0.5268  0.7462
 3864SOL     OW23053   3.360   4.280  14.863  0.4164 -0.2000 -0.3903
 3864SOL    HW123054   3.346   4.287  14.769  1.4045 -0.8652 -0.5722
 3864SOL    HW223055   3.274   4.308  14.895 -0.2488 -2.4688 -0.2111
 3865SOL     OW23056   1.946   0.828  12.458  0.2778  0.2523  0.5084
 3865SOL    HW123057   2.027   0.879  12.458  0.4865 -0.0873  1.6023
 3865SOL    HW223058   1.958   0.762  12.526 -0.5746  2.0146  2.3615
 3866SOL     OW23059   3.443   1.616   1.926 -0.1215 -0.0611  0.4003
 3866SOL    HW123060   3.435   1.603   2.021  0.8337  0.5286  0.5609
 3866SOL    HW223061   3.382   1.552   1.891 -1.9208  1.6504  0.4227
 3867SOL     OW23062   2.235   3.659   4.456 -0.5223  0.3234  0.0868
 3867SOL    HW123063   2.199   3.603   4.387  0.1918  2.8088 -2.2863
 3867SOL    HW223064   2.176   3.733   4.466  2.1406  2.2201  1.5902
 3868SOL     OW23065   0.502   0.501  10.974  0.6328  0.0180  0.4069
 3868SOL    HW123066   0.481   0.482  10.882 -1.3601  2.5925  0.3435
 3868SOL    HW223067   0.419   0.514  11.019  1.1360  3.2951  0.3970
 3869SOL     OW23068   4.570   0.079   2.886  0.4053  0.2324  0.2262
 3869SOL    HW123069   4.476   0.092   2.873  0.0393 -0.1410  2.4699
 3869SOL    HW223070   4.581   0.149   2.950 -0.2849 -1.6467  2.4128
 3870SOL     OW23071   3.260   3.267   2.426 -0.1323 -0.4767 -0.6103
 3870SOL    HW123072   3.282   3.360   2.436  1.0243 -0.7334 -0.7449
 3870SOL    HW223073   3.308   3.240   2.347  1.8638 -1.5727  0.9958
 3871SOL     OW23074   2.641   2.473   3.061 -0.2531 -0.4831 -0.1799
 3871SOL    HW123075   2.586   2.424   3.123  0.5159  1.1178  1.7521
 3871SOL    HW223076   2.663   2.555   3.104  0.1361  0.3680 -2.0226
 3872SOL     OW23077   3.271   3.238   5.397  0.3286 -0.2075  0.4842
 3872SOL    HW123078   3.296   3.319   5.442  1.1594  0.3941 -1.0518
 3872SOL    HW223079   3.333   3.171   5.425  3.2173  2.1591 -0.2458
 3873SOL     OW23080   3.138   0.902  17.174  0.0674  0.0674 -0.2247
 3873SOL    HW123081   3.064   0.962  17.176  0.3763  0.5518 -2.8737
 3873SOL    HW223082   3.165   0.915  17.083  0.2066 -0.2672 -0.2332
 3874SOL     OW23083   0.157   2.120   2.310 -0.8098 -0.1375  0.1145
 3874SOL    HW123084   0.231   2.063   2.330 -0.2911  0.2247 -0.7909
 3874SOL    HW223085   0.137   2.153   2.397  1.3684  3.0367 -0.6211
 3875SOL     OW23086   1.458   2.355   4.736  0.0918  0.1306  0.2261
 3875SOL    HW123087   1.506   2.377   4.816  0.7888 -0.7418  0.0463
 3875SOL    HW223088   1.496   2.421   4.678  1.0886  1.0848  1.9645
 3876SOL     OW23089   0.840   0.742   6.532  0.0411  0.0463  0.3785
 3876SOL    HW123090   0.923   0.712   6.496 -0.1289 -1.8419  1.5294
 3876SOL    HW223091   0.872   0.726   6.621  1.6618  1.5540  0.0565
 3877SOL     OW23092   2.138   2.007   5.026  0.4542  0.2818 -0.5143
 3877SOL    HW123093   2.050   1.973   5.042  1.5406 -3.9035 -3.4710
 3877SOL    HW223094   2.198   1.934   5.017  0.5799 -0.0015  2.9037
 3878SOL     OW23095   4.216   3.543   8.760  0.1971  0.1442  0.1775
 3878SOL    HW123096   4.310   3.527   8.766 -0.0284 -0.7574  1.1281
 3878SOL    HW223097   4.211   3.634   8.730 -2.7030 -0.4545 -1.1307
 3879SOL     OW23098   2.622   0.386   6.934  0.2193 -0.4934 -0.2971
 3879SOL    HW123099   2.629   0.476   6.904 -0.0235 -0.2520  0.3763
 3879SOL    HW223100   2.675   0.397   7.013  0.2473  2.0557 -0.6842
 3880SOL     OW23101   4.550   0.856   6.615  0.1577 -0.2599 -0.1358
 3880SOL    HW123102   4.628   0.835   6.563 -1.0321 -1.1722 -1.5671
 3880SOL    HW223103   4.596   0.874   6.697 -0.8955 -0.2054  0.4312
 3881SOL     OW23104   4.162   4.343   2.399 -0.2077 -0.1297  0.3709
 3881SOL    HW123105   4.199   4.393   2.472  0.2287  0.1488 -0.0422
 3881SOL    HW223106   4.224   4.338   2.327  0.4476 -1.2819  1.0113
 3882SOL     OW23107   0.450   2.209  15.667 -0.7937 -0.3388 -0.0195
 3882SOL    HW123108   0.504   2.286  15.647  0.2959 -1.3481 -0.8891
 3882SOL    HW223109   0.458   2.215  15.763  2.0675 -2.6318 -0.1358
 3883SOL     OW23110   3.219   0.133  15.880 -0.7789 -0.3614  0.4114
 3883SOL    HW123111   3.242   0.125  15.788  0.1565 -1.3005  0.7326
 3883SOL    HW223112   3.143   0.191  15.871  1.2689  2.1316 -0.7513
 3884SOL     OW23113   1.326   2.753   5.547 -0.0507  0.0719 -0.3668
 3884SOL    HW123114   1.249   2.723   5.595  1.2326  0.1962  1.7470
 3884SOL    HW223115   1.369   2.799   5.619 -1.5131  0.8189  0.0351
 3885SOL     OW23116   1.324   1.207   7.839  0.1779  0.3847  0.0074
 3885SOL    HW123117   1.299   1.227   7.749  1.8923  2.4873  0.0279
 3885SOL    HW223118   1.269   1.129   7.853  2.1486 -1.1305 -0.6771
 3886SOL     OW23119   3.349   4.317   2.556  0.4934  0.0256 -0.1321
 3886SOL    HW123120   3.292   4.293   2.628  0.0187  2.1671  0.2142
 3886SOL    HW223121   3.423   4.258   2.563  1.3697  0.8197 -2.7293
 3887SOL     OW23122   3.225   1.984   7.993 -0.2488  0.0651  0.2709
 3887SOL    HW123123   3.195   2.025   8.073 -3.0462 -0.8748 -0.3102
 3887SOL    HW223124   3.173   1.905   8.006 -1.1280  1.1927  3.4845
 3888SOL     OW23125   3.833   4.531  11.195 -0.4620  0.1950  0.1785
 3888SOL    HW123126   3.781   4.509  11.272  0.3760  0.1242  0.7247
 3888SOL    HW223127   3.899   4.590  11.229  0.2919 -0.4941 -0.0704
 3889SOL     OW23128   0.633   1.630   2.279  0.1479  0.3026 -0.1337
 3889SOL    HW123129   0.646   1.550   2.229 -0.8621 -0.6821  1.2110
 3889SOL    HW223130   0.699   1.692   2.246  1.4051 -0.6293  0.6190
 3890SOL     OW23131   0.829   4.345  13.554  0.2218  0.2712  0.4783
 3890SOL    HW123132   0.736   4.367  13.547 -0.1833 -2.0301 -1.1896
 3890SOL    HW223133   0.867   4.416  13.502  0.8776 -0.3387  0.1242
 3891SOL     OW23134   1.384   4.020  11.720 -0.1940 -0.5469  0.1552
 3891SOL    HW123135   1.366   3.931  11.748  0.3859 -0.5042  0.6719
 3891SOL    HW223136   1.335   4.019  11.638 -1.2500  2.4791  0.7408
 3892SOL     OW23137   0.871   3.919   3.628  0.0743 -0.4321  0.3477
 3892SOL    HW123138   0.871   4.015   3.627 -1.0575 -0.4888 -2.8190
 3892SOL    HW223139   0.942   3.885   3.683 -0.1946 -0.9009  0.3979
 3893SOL     OW23140   0.444   4.054   6.859  0.3279 -0.2644 -0.1583
 3893SOL    HW123141   0.481   4.121   6.800  0.4528 -1.2831 -1.2395
 3893SOL    HW223142   0.440   3.987   6.791 -0.8305 -0.0183 -0.3347
 3894SOL     OW23143   2.767   2.686  15.094  0.0936 -0.0872 -0.0255
 3894SOL    HW123144   2.794   2.594  15.091  1.6321  0.4224 -1.4600
 3894SOL    HW223145   2.831   2.724  15.034 -0.6370  1.1339 -0.0322
 3895SOL     OW23146   1.861   2.820   1.466  0.7465 -0.0699  0.4568
 3895SOL    HW123147   1.847   2.761   1.392  1.1435 -0.7646  0.9322
 3895SOL    HW223148   1.784   2.794   1.516  0.3262 -1.9457 -1.1607
 3896SOL     OW23149   4.128   3.792   1.102 -0.5791 -0.0741 -0.5006
 3896SOL    HW123150   4.222   3.773   1.102 -1.3442 -3.8709  0.3552
 3896SOL    HW223151   4.095   3.734   1.034 -0.5930 -0.1735 -0.4099
 3897SOL     OW23152   0.591   2.491   6.755  0.0737  0.6985 -0.2813
 3897SOL    HW123153   0.666   2.511   6.811 -0.8560  1.0060  0.8814
 3897SOL    HW223154   0.561   2.581   6.742 -0.4012  0.8411  1.7605
 3898SOL     OW23155   2.857   2.766   5.965 -0.0989 -0.1314  0.3763
 3898SOL    HW123156   2.953   2.770   5.966 -0.1883  1.6696  1.3853
 3898SOL    HW223157   2.837   2.722   6.047 -1.3903 -0.1741  0.0324
 3899SOL     OW23158   4.394   3.646   6.148  0.0637 -0.0944 -0.0678
 3899SOL    HW123159   4.328   3.715   6.147  0.3265  0.1913  2.6617
 3899SOL    HW223160   4.378   3.600   6.065  2.0915 -0.8924 -0.0169
 3900SOL     OW23161   1.407   0.737  16.311 -0.0152 -0.3974  0.5001
 3900SOL    HW123162   1.392   0.825  16.348  0.2716 -0.5688  1.0298
 3900SOL    HW223163   1.502   0.734  16.299 -0.0585 -1.3866  0.4461
 3901SOL     OW23164   4.258   1.879   6.927  0.0288 -0.3256 -0.7365
 3901SOL    HW123165   4.220   1.827   6.857 -0.6869 -3.6027  2.1031
 3901SOL    HW223166   4.209   1.846   7.002  1.4342 -0.0047  0.3188
 3902SOL     OW23167   1.263   3.053   7.720  0.3861  0.3778  0.2941
 3902SOL    HW123168   1.292   3.090   7.803 -0.6663 -2.4809  1.9165
 3902SOL    HW223169   1.310   3.102   7.652  1.4603 -0.0673  0.7253
 3903SOL     OW23170   1.855   1.537   0.530  0.1366  0.4296 -0.2941
 3903SOL    HW123171   1.764   1.512   0.512  0.4882  1.3985 -3.5345
 3903SOL    HW223172   1.851   1.632   0.518  0.9791  0.7059  1.6245
 3904SOL     OW23173   0.836   0.725   1.139  0.3955  0.3545  0.4709
 3904SOL    HW123174   0.924   0.755   1.162  0.8261 -1.6748  1.4247
 3904SOL    HW223175   0.823   0.650   1.196 -0.0296  0.9219  1.1096
 3905SOL     OW23176   4.375   1.727   4.175 -0.2339  0.3431  0.0057
 3905SOL    HW123177   4.368   1.819   4.151 -0.6887  0.3274  0.0657
 3905SOL    HW223178   4.281   1.706   4.169 -0.6759  2.8184 -1.8150
 3906SOL     OW23179   1.120   1.035   6.440  0.1085 -0.2184  0.5674
 3906SOL    HW123180   1.036   0.996   6.416 -0.1747 -0.3146  1.7437
 3906SOL    HW223181   1.178   0.959   6.434  0.4190 -0.1291  2.7477
 3907SOL     OW23182   3.029   2.027   5.430  0.4509  0.8978 -0.1298
 3907SOL    HW123183   2.991   1.966   5.494  1.0449 -0.1310 -0.7700
 3907SOL    HW223184   3.031   2.110   5.478  0.7112  0.9566 -0.2476
 3908SOL     OW23185   2.340   3.831  17.661  0.4597  0.4973  0.2458
 3908SOL    HW123186   2.253   3.793  17.672  1.0789 -0.8557  0.4147
 3908SOL    HW223187   2.369   3.843   0.060  2.7726 -0.6925 -0.3362
 3909SOL     OW23188   2.857   2.347   6.464 -0.4680 -0.4947  0.4028
 3909SOL    HW123189   2.869   2.252   6.462 -0.3481 -0.5016  1.6818
 3909SOL    HW223190   2.931   2.382   6.415 -1.1776 -0.8372 -0.9259
 3910SOL     OW23191   3.462   0.188   1.691 -0.4340 -0.3576 -0.2384
 3910SOL    HW123192   3.484   0.274   1.728 -0.0921 -0.1903 -0.8343
 3910SOL    HW223193   3.375   0.174   1.728 -0.3562 -0.3921 -0.0698
 3911SOL     OW23194   1.169   3.291   9.425 -0.6756  0.0027  0.5769
 3911SOL    HW123195   1.214   3.269   9.506 -0.9723  0.7071  0.9328
 3911SOL    HW223196   1.191   3.220   9.365  2.1877  1.4617 -0.0745
 3912SOL     OW23197   2.491   1.984   7.758  0.9780  0.5118  0.0693
 3912SOL    HW123198   2.484   2.012   7.667 -4.2047 -1.2156 -0.0658
 3912SOL    HW223199   2.542   2.054   7.799  1.2470  0.5847 -0.3885
 3913SOL     OW23200   0.068   1.115  15.725  0.0177 -0.0082 -0.1383
 3913SOL    HW123201   0.160   1.136  15.738  0.8689 -3.3961 -0.7909
 3913SOL    HW223202   0.032   1.193  15.768  0.1763  0.8502 -1.5478
 3914SOL     OW23203   0.208   2.524  16.309 -0.2186 -0.2286  0.1389
 3914SOL    HW123204   0.199   2.610  16.350 -0.5475  0.1388 -0.7131
 3914SOL    HW223205   0.122   2.518  16.267 -0.2712  1.9764 -0.0950
 3915SOL     OW23206   2.634   2.310  17.433  0.1817 -0.5279  0.1822
 3915SOL    HW123207   2.630   2.388  17.378 -2.2307 -0.5449  0.3104
 3915SOL    HW223208   2.569   2.257  17.386 -2.3743  1.7435  1.1873
 3916SOL     OW23209   1.118   2.011  10.061 -0.3753 -0.2019 -0.2838
 3916SOL    HW123210   1.129   2.103  10.086  0.7000  0.1020 -1.8368
 3916SOL    HW223211   1.089   1.979  10.146  0.2270 -0.8149 -0.3081
 3917SOL     OW23212   1.290   0.189   8.978  0.2656 -0.1279 -0.1397
 3917SOL    HW123213   1.283   0.222   9.067  2.3281  0.2072 -0.1037
 3917SOL    HW223214   1.382   0.163   8.985 -0.2360 -1.1852  2.2425
 3918SOL     OW23215   0.580   1.055   6.312 -0.7135  0.0581 -0.1581
 3918SOL    HW123216   0.488   1.074   6.295 -1.1783 -0.4636  1.7940
 3918SOL    HW223217   0.572   1.045   6.407  2.6768  1.2289  0.2451
 3919SOL     OW23218   3.778   3.948   0.451  0.4850  0.4304  0.0411
 3919SOL    HW123219   3.870   3.932   0.469  0.5630 -0.1620 -0.8847
 3919SOL    HW223220   3.744   3.878   0.507  1.3200 -1.0531 -1.2979
 3920SOL     OW23221   4.220   4.439   1.115 -0.2421  0.1210  0.3516
 3920SOL    HW123222   4.290   4.504   1.115 -1.4676  1.4537  2.2822
 3920SOL    HW223223   4.242   4.399   1.199  1.1856 -1.1031 -0.6184
 3921SOL     OW23224   3.351   3.384  13.207 -0.2755  0.6455  0.4457
 3921SOL    HW123225   3.311   3.359  13.290  2.8609  1.3490  2.1747
 3921SOL    HW223226   3.270   3.405  13.161 -0.4164  0.2649  0.5158
 3922SOL     OW23227   2.926   0.670   8.019 -0.2436 -0.0115 -0.0019
 3922SOL    HW123228   2.900   0.698   7.931 -1.4895 -0.6431  0.1583
 3922SOL    HW223229   2.980   0.593   8.005  2.0124  1.3696  0.9559
 3923SOL     OW23230   2.386   3.867   7.082 -0.4396  0.4773  0.2944
 3923SOL    HW123231   2.453   3.901   7.141  1.0128  1.4925 -1.9617
 3923SOL    HW223232   2.422   3.904   7.001  0.4857  1.8405  1.3186
 3924SOL     OW23233   2.879   3.289  12.499 -0.3642  0.4425 -0.1870
 3924SOL    HW123234   2.932   3.368  12.512  0.3090 -0.5792  3.4389
 3924SOL    HW223235   2.909   3.264  12.412  0.1664  3.1174 -0.7767
 3925SOL     OW23236   1.320   2.702   4.524  0.2719 -0.0045 -0.5101
 3925SOL    HW123237   1.327   2.765   4.452 -0.7629  0.9024  0.1808
 3925SOL    HW223238   1.402   2.730   4.565 -0.5818 -1.0458  1.9315
 3926SOL     OW23239   0.724   3.735   8.165  0.1619 -0.8257  0.6889
 3926SOL    HW123240   0.711   3.734   8.260  1.0602  0.0708  0.8206
 3926SOL    HW223241   0.640   3.772   8.138 -0.1068 -0.2359  2.3348
 3927SOL     OW23242   3.377   1.330   3.300 -0.4849  0.0556 -0.1471
 3927SOL    HW123243   3.358   1.420   3.274 -2.0482 -0.1606  0.2514
 3927SOL    HW223244   3.288   1.295   3.305  0.1550 -1.5103  0.2093
 3928SOL     OW23245   3.865   3.245   1.769 -0.8497 -0.4690 -0.1070
 3928SOL    HW123246   3.947   3.243   1.718 -1.0459  1.3339 -0.5044
 3928SOL    HW223247   3.894   3.216   1.856  1.4113  0.3263 -0.5715
 3929SOL     OW23248   1.139   2.707   9.771 -0.5441  0.5011  0.6181
 3929SOL    HW123249   1.171   2.717   9.681 -0.9146  0.5565  0.4916
 3929SOL    HW223250   1.197   2.767   9.816  0.3432 -1.2609  1.8123
 3930SOL     OW23251   1.681   0.982   6.838  0.1147  0.1131  0.3891
 3930SOL    HW123252   1.618   0.966   6.908 -1.2797  1.4013 -0.5613
 3930SOL    HW223253   1.627   1.006   6.763  1.9753 -2.4447 -1.7381
 3931SOL     OW23254   0.612   2.249   2.867  0.1289 -0.1642  0.2424
 3931SOL    HW123255   0.585   2.281   2.781 -1.2425 -1.4116  0.2100
 3931SOL    HW223256   0.705   2.231   2.848 -0.0256  0.1853 -0.8761
 3932SOL     OW23257   2.729   2.997   7.576 -0.1727  0.1423 -0.3857
 3932SOL    HW123258   2.655   3.005   7.516 -0.0950 -1.8093 -0.7217
 3932SOL    HW223259   2.790   2.957   7.514 -0.5871 -1.6193  0.3583
 3933SOL     OW23260   3.797   2.628   1.334  0.1044  0.7509 -0.0613
 3933SOL    HW123261   3.774   2.616   1.242 -0.5497  1.8354 -0.0438
 3933SOL    HW223262   3.891   2.641   1.324 -0.2270  0.8222 -2.8842
 3934SOL     OW23263   3.631   3.548  14.948 -0.2183  0.2579 -0.2794
 3934SOL    HW123264   3.647   3.455  14.966 -2.1446  0.4232  2.2821
 3934SOL    HW223265   3.716   3.579  14.916 -0.6089  0.0996 -1.4853
 3935SOL     OW23266   0.292   2.552  17.213 -0.0470 -0.3362 -0.0202
 3935SOL    HW123267   0.298   2.535  17.307 -0.0682 -1.5048 -0.2294
 3935SOL    HW223268   0.331   2.470  17.183 -0.3124 -0.1163 -0.9915
 3936SOL     OW23269   0.032   1.058   8.791 -0.8005 -0.2706 -0.1172
 3936SOL    HW123270   4.695   1.049   8.717 -3.0772  1.3675  1.5178
 3936SOL    HW223271   4.694   1.061   8.866 -0.4525  0.2806  0.1390
 3937SOL     OW23272   1.194   4.346   5.225 -0.2447  0.1475 -0.2040
 3937SOL    HW123273   1.232   4.261   5.202 -0.5476  0.1967 -0.8827
 3937SOL    HW223274   1.128   4.320   5.288 -0.6338 -0.5702 -0.9086
 3938SOL     OW23275   4.312   4.598  15.496  0.7014  0.6819 -0.0040
 3938SOL    HW123276   4.250   4.607  15.424 -0.0432  1.3765  0.7331
 3938SOL    HW223277   4.304   4.503  15.504 -1.7683  0.7850 -1.1731
 3939SOL     OW23278   3.326   4.312  14.070  0.2460  0.4845 -0.1578
 3939SOL    HW123279   3.306   4.272  14.155  2.1149 -0.7179 -0.2867
 3939SOL    HW223280   3.244   4.294  14.023  0.7198  0.0895 -0.8249
 3940SOL     OW23281   4.007   1.079  10.820 -0.1177 -0.1044 -0.0005
 3940SOL    HW123282   3.924   1.043  10.851 -0.3450 -0.7679 -1.3627
 3940SOL    HW223283   4.056   0.997  10.823  1.0898  0.6400  0.5339
 3941SOL     OW23284   3.087   2.359  14.751  0.4181  0.3497 -0.6985
 3941SOL    HW123285   3.030   2.384  14.679 -0.5937  0.9749  0.3115
 3941SOL    HW223286   3.159   2.423  14.751 -0.7561  1.6868  1.1148
 3942SOL     OW23287   0.170   1.996   8.398 -0.2851 -0.1926  1.2368
 3942SOL    HW123288   0.249   1.977   8.347  0.7114  1.3448  2.2133
 3942SOL    HW223289   0.212   2.050   8.465  0.6498 -0.4101  0.8215
 3943SOL     OW23290   1.231   4.101   7.175 -0.5315 -0.6308  0.1979
 3943SOL    HW123291   1.183   4.122   7.095  0.7092 -0.5600 -0.5311
 3943SOL    HW223292   1.150   4.093   7.226 -1.2547 -0.6218 -0.9447
 3944SOL     OW23293   0.234   1.116   1.373 -0.4111  0.2659 -0.2168
 3944SOL    HW123294   0.302   1.073   1.320 -1.0141 -0.0736 -0.7266
 3944SOL    HW223295   0.156   1.103   1.318 -0.0938 -0.4193 -0.5078
 3945SOL     OW23296   2.605   0.499   2.529 -0.5145 -0.1083 -0.7301
 3945SOL    HW123297   2.655   0.486   2.449  1.9875 -0.3501  0.8827
 3945SOL    HW223298   2.550   0.574   2.508  0.3423  1.0061  1.0421
 3946SOL     OW23299   0.899   3.498   6.564 -0.0585 -0.1721  0.6441
 3946SOL    HW123300   0.882   3.589   6.541  0.9622  0.3527  1.9781
 3946SOL    HW223301   0.811   3.462   6.578  0.9243 -2.6242  0.5292
 3947SOL     OW23302   3.945   1.693   5.910  0.5797  0.2818 -0.3951
 3947SOL    HW123303   3.982   1.626   5.968  0.3903 -1.7036 -2.5461
 3947SOL    HW223304   3.870   1.638   5.887  0.2996  0.5690 -0.1674
 3948SOL     OW23305   1.175   2.377   5.208 -0.0747 -0.2559 -0.0842
 3948SOL    HW123306   1.088   2.391   5.245  0.1523  1.6028 -0.2415
 3948SOL    HW223307   1.145   2.352   5.120 -4.0549  3.0158  0.3743
 3949SOL     OW23308   2.928   3.673   8.121 -0.0763  0.1776  0.3147
 3949SOL    HW123309   2.906   3.750   8.174  2.3080 -0.0040  1.6115
 3949SOL    HW223310   3.023   3.671   8.106 -0.3600 -0.9155 -1.2850
 3950SOL     OW23311   3.924   1.912   8.193  0.0250 -0.8217 -0.5498
 3950SOL    HW123312   3.985   1.882   8.260  0.8621 -0.2535 -1.0576
 3950SOL    HW223313   3.879   1.828   8.188 -1.3304 -0.1825  0.8315
 3951SOL     OW23314   3.670   1.237   2.634 -0.6891 -0.2953  0.5283
 3951SOL    HW123315   3.685   1.331   2.622 -0.2711 -0.3725  0.4556
 3951SOL    HW223316   3.680   1.199   2.548  3.3233  2.0688 -0.0693
 3952SOL     OW23317   0.759   0.528  10.973  0.0638  0.3028 -0.7771
 3952SOL    HW123318   0.666   0.512  10.987  0.0727  0.5719 -0.4080
 3952SOL    HW223319   0.738   0.602  10.916  1.1833  0.5571 -0.8653
 3953SOL     OW23320   4.041   1.498   8.167  0.0100 -1.0567  0.6308
 3953SOL    HW123321   4.015   1.525   8.255 -1.4289  0.2324 -0.1926
 3953SOL    HW223322   3.987   1.553   8.110 -1.3883 -3.0460  0.0450
 3954SOL     OW23323   4.361   3.104   1.589 -0.8014 -0.2463 -0.1369
 3954SOL    HW123324   4.354   3.009   1.579 -0.5541 -0.3710  0.9398
 3954SOL    HW223325   4.427   3.137   1.527  0.6214 -3.0215 -0.0807
 3955SOL     OW23326   1.468   4.028  16.676  0.1008 -0.0543 -0.0686
 3955SOL    HW123327   1.485   4.031  16.582 -2.3346 -0.5053 -0.5156
 3955SOL    HW223328   1.556   4.034  16.714  0.3945 -1.7640 -0.4849
 3956SOL     OW23329   4.369   2.967   4.101 -0.8096 -0.6229 -0.2109
 3956SOL    HW123330   4.457   2.992   4.130 -0.4415 -0.5559 -1.3823
 3956SOL    HW223331   4.391   2.932   4.014 -2.7473  0.0241 -0.9572
 3957SOL     OW23332   0.336   3.839   6.233 -0.2853  0.4494  0.5700
 3957SOL    HW123333   0.246   3.813   6.210 -0.3896  0.7832  0.6011
 3957SOL    HW223334   0.351   3.925   6.194 -1.1152  0.9539  1.3468
 3958SOL     OW23335   4.086   0.761   2.865  0.5848  0.2808  0.0314
 3958SOL    HW123336   4.083   0.851   2.833  0.7810  0.4847  0.5848
 3958SOL    HW223337   4.031   0.770   2.944  0.3355 -1.9357  0.1116
 3959SOL     OW23338   3.870   0.799   4.611  0.5942  0.5644  0.1443
 3959SOL    HW123339   3.827   0.732   4.558  1.1834  0.9383 -0.8019
 3959SOL    HW223340   3.809   0.789   4.685  0.3516  1.4799  0.0666
 3960SOL     OW23341   0.353   0.748  14.052  0.1754  0.0741 -0.4916
 3960SOL    HW123342   0.336   0.758  14.146 -0.9302  0.6403 -0.7422
 3960SOL    HW223343   0.283   0.688  14.027  1.2161 -1.1982 -0.3534
 3961SOL     OW23344   1.778   2.870  17.202 -0.2694 -0.0051 -0.1848
 3961SOL    HW123345   1.837   2.903  17.270 -0.6959 -1.8224  1.0895
 3961SOL    HW223346   1.771   2.944  17.143  3.0735  0.1927 -0.2994
 3962SOL     OW23347   2.565   0.685  14.674 -0.4910 -0.6105 -0.3509
 3962SOL    HW123348   2.507   0.645  14.740 -2.1939  0.5209 -1.1538
 3962SOL    HW223349   2.628   0.613  14.669  0.2318 -0.0933  1.4202
 3963SOL     OW23350   2.979   1.626   5.911  0.1000 -0.4904 -1.2177
 3963SOL    HW123351   2.895   1.631   5.957  1.0889 -2.0268  0.7554
 3963SOL    HW223352   2.959   1.643   5.819  0.5904 -1.3553 -1.4761
 3964SOL     OW23353   1.345   1.299   5.741  0.3100  0.1180  0.4921
 3964SOL    HW123354   1.326   1.313   5.834  1.6361  0.4501  0.7166
 3964SOL    HW223355   1.271   1.243   5.719  1.1700 -0.9344  0.3057
 3965SOL     OW23356   1.039   2.294   7.111 -0.1804  0.3606  0.3792
 3965SOL    HW123357   1.049   2.253   7.025 -3.3213  2.0896 -0.8050
 3965SOL    HW223358   1.005   2.224   7.166 -1.6096 -0.1848 -1.1950
 3966SOL     OW23359   0.370   2.084  15.443 -0.1833 -0.3856 -0.0228
 3966SOL    HW123360   0.430   2.135  15.390 -0.0338 -0.2422  0.2829
 3966SOL    HW223361   0.392   2.121  15.529 -0.4071  0.6703 -0.4218
 3967SOL     OW23362   3.050   2.864   7.754 -0.7609  0.1013 -0.1618
 3967SOL    HW123363   3.059   2.907   7.840 -0.6284  2.1893 -1.2308
 3967SOL    HW223364   3.107   2.917   7.698 -1.0187  0.9561  0.3784
 3968SOL     OW23365   2.275   1.838  12.982 -0.7477  0.7683 -0.0069
 3968SOL    HW123366   2.357   1.887  12.979 -0.6266  0.6979  1.9228
 3968SOL    HW223367   2.215   1.904  13.018 -2.4851 -0.6147 -0.3990
 3969SOL     OW23368   2.321   3.413   5.970 -0.3226 -0.5794 -0.0680
 3969SOL    HW123369   2.368   3.394   6.051  0.4526  2.8871  0.2661
 3969SOL    HW223370   2.236   3.368   5.978 -0.0663 -1.4463 -2.0310
 3970SOL     OW23371   2.784   1.083   1.966  0.2167  0.9392 -0.1542
 3970SOL    HW123372   2.752   1.173   1.971 -1.2652  0.4163 -0.2234
 3970SOL    HW223373   2.717   1.047   1.908 -0.0592  0.9595  0.1533
 3971SOL     OW23374   0.943   2.836   8.865 -0.2866  0.0148 -0.1061
 3971SOL    HW123375   1.010   2.844   8.933 -1.1422  2.5768  0.4055
 3971SOL    HW223376   0.862   2.831   8.915  0.2333  0.0620  0.7418
 3972SOL     OW23377   3.612   0.506   2.633 -0.3300 -0.0187  0.4316
 3972SOL    HW123378   3.518   0.489   2.638 -0.2545 -1.4484 -2.9668
 3972SOL    HW223379   3.610   0.601   2.624 -2.1858 -0.1460 -0.5866
 3973SOL     OW23380   2.426   2.624  11.129  0.2071  1.1592  0.5249
 3973SOL    HW123381   2.448   2.586  11.214 -2.0065  0.1600  0.6337
 3973SOL    HW223382   2.395   2.552  11.075 -1.1083  0.6520  1.9759
 3974SOL     OW23383   3.419   2.605   8.001 -0.0510  0.1434 -0.1512
 3974SOL    HW123384   3.410   2.672   8.068 -0.2843  1.6669 -1.7074
 3974SOL    HW223385   3.380   2.653   7.928  1.0035  1.3521  0.0911
 3975SOL     OW23386   4.068   1.356   2.924  0.6784  0.2121  0.1083
 3975SOL    HW123387   4.080   1.287   2.989  0.4292  1.1671  1.1693
 3975SOL    HW223388   3.974   1.369   2.910  0.5142  1.0769  2.0937
 3976SOL     OW23389   1.000   0.733   9.202 -0.1578 -0.1371 -0.1496
 3976SOL    HW123390   0.915   0.776   9.207  0.9602  2.2377 -1.3512
 3976SOL    HW223391   0.995   0.663   9.267  0.0168  1.8746  2.0598
 3977SOL     OW23392   3.903   3.284   8.429  0.7271 -0.5957 -0.4683
 3977SOL    HW123393   3.808   3.285   8.426  0.7735  0.2510 -1.4050
 3977SOL    HW223394   3.928   3.362   8.478  1.0579 -0.7248 -0.4286
 3978SOL     OW23395   4.042   1.553   7.670  0.0070  0.3769  0.5746
 3978SOL    HW123396   4.084   1.577   7.753  1.2132 -1.2263  0.4315
 3978SOL    HW223397   3.999   1.634   7.642  0.2230 -0.0098 -0.8749
 3979SOL     OW23398   3.904   4.318   8.129 -0.8920  0.5114 -0.1207
 3979SOL    HW123399   3.999   4.330   8.120 -0.6223 -0.4873  1.3818
 3979SOL    HW223400   3.885   4.242   8.074  1.8960 -0.0983 -0.2707
 3980SOL     OW23401   3.176   3.468  16.691  0.5067  0.4789  0.0297
 3980SOL    HW123402   3.200   3.560  16.698 -0.2052  0.5386  1.6361
 3980SOL    HW223403   3.180   3.452  16.597 -0.2069  0.0012  0.0827
 3981SOL     OW23404   2.663   4.662   4.890  0.1191 -0.5026  0.5868
 3981SOL    HW123405   2.700   4.633   4.973 -1.2703  1.0899  1.7520
 3981SOL    HW223406   2.595   4.721   4.921  0.0297 -0.6503  0.6697
 3982SOL     OW23407   4.431   3.682   0.872 -0.0079 -0.2952 -0.0571
 3982SOL    HW123408   4.432   3.698   0.966  2.8107  0.7315 -0.2644
 3982SOL    HW223409   4.363   3.749   0.863  0.5139  0.3222  0.6868
 3983SOL     OW23410   2.005   0.512   5.807 -0.3219  0.0482  0.2823
 3983SOL    HW123411   2.080   0.564   5.776  1.1174 -1.2384  1.6175
 3983SOL    HW223412   1.943   0.506   5.734 -1.2107  0.8456  0.9797
 3984SOL     OW23413   4.326   2.976   4.369  0.5073 -0.1770 -0.0464
 3984SOL    HW123414   4.322   2.988   4.274 -0.6020 -0.8252 -0.0730
 3984SOL    HW223415   4.421   2.968   4.384  0.6027 -0.9644 -1.0674
 3985SOL     OW23416   1.718   4.021   4.588 -0.2565  0.2250 -0.0358
 3985SOL    HW123417   1.777   4.059   4.523  2.2476 -0.8809  1.6331
 3985SOL    HW223418   1.715   4.097   4.647 -0.1751  0.0531  0.1886
 3986SOL     OW23419   1.479   1.847   5.392 -0.7342 -0.7836 -0.5950
 3986SOL    HW123420   1.545   1.783   5.418 -0.6616 -1.3397 -2.1801
 3986SOL    HW223421   1.407   1.826   5.452 -0.0085  0.1891  0.6231
 3987SOL     OW23422   0.271   3.709   3.838  0.0228  0.2887  0.5171
 3987SOL    HW123423   0.332   3.778   3.864  0.4361  1.0564 -2.4612
 3987SOL    HW223424   0.221   3.763   3.777  1.9214 -0.1292 -1.4049
 3988SOL     OW23425   1.702   1.818   4.068 -0.7601  0.1723  0.0119
 3988SOL    HW123426   1.761   1.874   4.118  0.1848 -0.3082 -0.5494
 3988SOL    HW223427   1.640   1.805   4.140  0.4465 -0.9362  0.8462
 3989SOL     OW23428   0.131   3.723  12.824  0.3584 -0.3049 -0.1697
 3989SOL    HW123429   0.123   3.806  12.870  1.7184 -0.7174  0.8174
 3989SOL    HW223430   0.208   3.686  12.868  0.8284  1.6554  0.6737
 3990SOL     OW23431   4.125   4.086   1.638  0.4504 -0.6883 -0.1293
 3990SOL    HW123432   4.150   4.017   1.576  3.0088 -0.8507  1.0999
 3990SOL    HW223433   4.117   4.032   1.716  0.5084  0.9873  1.0293
 3991SOL     OW23434   4.267   2.524   2.756  0.5978 -0.1957 -0.2689
 3991SOL    HW123435   4.247   2.467   2.682  0.0309  0.5401 -0.6852
 3991SOL    HW223436   4.361   2.516   2.772  0.6853  1.6306  0.1027
 3992SOL     OW23437   0.783   2.744   6.202 -0.1703  0.6453 -0.6333
 3992SOL    HW123438   0.713   2.749   6.267 -0.1401 -0.6857 -0.5064
 3992SOL    HW223439   0.853   2.708   6.256 -1.0360  0.5527  0.4269
 3993SOL     OW23440   1.525   2.330   1.180 -0.2402 -0.0572 -0.0372
 3993SOL    HW123441   1.514   2.274   1.103 -0.0820 -2.3395  1.5954
 3993SOL    HW223442   1.542   2.414   1.136  2.1731 -1.1978 -1.2981
 3994SOL     OW23443   0.939   0.040   9.682 -0.3452 -0.5567 -0.1769
 3994SOL    HW123444   0.846   0.017   9.689 -0.1652 -1.3456 -0.3260
 3994SOL    HW223445   0.968   0.015   9.770 -1.3477 -1.2178 -0.0286
 3995SOL     OW23446   4.371   2.916   5.036  0.3674 -0.9346  0.5146
 3995SOL    HW123447   4.284   2.876   5.023 -0.4044  1.1860 -0.6861
 3995SOL    HW223448   4.422   2.836   5.050  0.9473 -0.3009  1.9762
 3996SOL     OW23449   0.779   0.151   4.620 -0.1030  0.0798  0.2484
 3996SOL    HW123450   0.716   0.205   4.572 -0.0330  0.2740  0.3768
 3996SOL    HW223451   0.811   0.213   4.685 -1.2762  1.3890 -0.4140
 3997SOL     OW23452   3.128   2.192   5.706  0.1686 -0.6181  0.0046
 3997SOL    HW123453   3.033   2.182   5.711  0.4187 -2.3922  1.1201
 3997SOL    HW223454   3.153   2.101   5.722 -0.0010 -0.7193 -0.3091
 3998SOL     OW23455   4.086   0.968  16.325 -0.0259 -0.1979 -1.0931
 3998SOL    HW123456   4.145   0.959  16.251  2.5152 -0.2258  0.9362
 3998SOL    HW223457   4.138   1.015  16.390 -2.1488  1.0359 -0.2968
 3999SOL     OW23458   4.615   1.559   7.600  0.3323 -0.2463  0.0505
 3999SOL    HW123459   4.599   1.513   7.682 -0.2469  0.3072  0.2513
 3999SOL    HW223460   4.523   1.559   7.573  0.1351 -0.3311  0.7373
 4000SOL     OW23461   1.088   1.430  17.408  0.0223  0.4976 -0.2139
 4000SOL    HW123462   1.038   1.431  17.490  1.2677  0.7761  0.5499
 4000SOL    HW223463   1.061   1.511  17.365 -1.2736  0.4868  0.5845
 4001SOL     OW23464   3.848   3.830  11.426 -0.0005 -0.0439 -0.5424
 4001SOL    HW123465   3.881   3.787  11.504  0.3607 -0.3746 -0.8773
 4001SOL    HW223466   3.808   3.758  11.378 -2.9491  1.2821 -0.0885
 4002SOL     OW23467   3.414   2.502   8.403  0.2503  0.4616  0.0172
 4002SOL    HW123468   3.373   2.463   8.480  2.6866 -1.4728  0.3542
 4002SOL    HW223469   3.436   2.425   8.351  1.8619 -0.0289  1.4360
 4003SOL     OW23470   1.749   2.135  13.297 -0.2702 -0.3054  0.3539
 4003SOL    HW123471   1.691   2.153  13.222  0.4839 -2.3323 -0.7167
 4003SOL    HW223472   1.695   2.070  13.342  0.6050 -1.2108  0.0877
 4004SOL     OW23473   0.794   4.294   7.275 -0.7686  0.1705  0.0896
 4004SOL    HW123474   0.782   4.208   7.236  1.0474  0.0370 -0.1987
 4004SOL    HW223475   0.724   4.298   7.339 -0.1009  0.6254  0.7958
 4005SOL     OW23476   4.668   2.702   4.105 -0.2170  0.4713  0.6160
 4005SOL    HW123477   0.019   2.670   4.052 -0.7906 -0.6787  0.5166
 4005SOL    HW223478   4.696   2.676   4.193 -0.0289 -0.7907  0.1813
 4006SOL     OW23479   0.321   2.745  12.514  0.1953  0.1805 -0.0408
 4006SOL    HW123480   0.412   2.753  12.543  0.7761 -1.6835 -1.3184
 4006SOL    HW223481   0.295   2.835  12.534 -0.4065  0.4648 -2.0749
 4007SOL     OW23482   2.607   3.365  12.474  0.0809  0.1505 -0.0860
 4007SOL    HW123483   2.559   3.282  12.464  0.5587 -0.1953  0.4658
 4007SOL    HW223484   2.696   3.333  12.488 -0.3539 -1.1672 -0.2818
 4008SOL     OW23485   3.114   2.150   0.025 -0.2468  0.0356  0.5344
 4008SOL    HW123486   3.100   2.226   0.082  0.9240  1.6909 -1.4032
 4008SOL    HW223487   3.207   2.136   0.045  0.4162  3.8848  0.0629
 4009SOL     OW23488   0.751   1.140   9.797  0.3712  1.0054  0.7352
 4009SOL    HW123489   0.726   1.160   9.888 -2.7104  3.9056 -0.7278
 4009SOL    HW223490   0.726   1.223   9.757  0.9276  1.1074  0.6048
 4010SOL     OW23491   4.647   1.676   2.866  0.5248  1.1758 -0.4139
 4010SOL    HW123492   4.612   1.722   2.789 -1.0378 -1.1266 -1.0896
 4010SOL    HW223493   0.016   1.707   2.867  1.1038 -0.5350 -1.3996
 4011SOL     OW23494   3.604   1.012   6.057 -0.0068  0.2193  0.6114
 4011SOL    HW123495   3.526   1.068   6.059 -0.8950 -0.9975  0.5219
 4011SOL    HW223496   3.575   0.929   6.094 -1.7543 -1.3237 -4.1775
 4012SOL     OW23497   1.892   0.690   9.878  0.1260 -0.0777  0.3599
 4012SOL    HW123498   1.841   0.617   9.911 -0.2874 -0.6732 -1.6358
 4012SOL    HW223499   1.954   0.628   9.840 -0.1359  0.6213 -1.2015
 4013SOL     OW23500   1.817   4.398   2.796 -0.1921  0.4370 -0.0088
 4013SOL    HW123501   1.807   4.482   2.841  0.0118 -0.2764  1.3643
 4013SOL    HW223502   1.746   4.401   2.732 -0.5300 -1.7567  0.2677
 4014SOL     OW23503   3.719   1.848  16.473  1.1265  0.4521  0.0826
 4014SOL    HW123504   3.692   1.938  16.492  0.5787  0.9027 -2.9053
 4014SOL    HW223505   3.722   1.864  16.379  1.2178  0.5037  0.0942
 4015SOL     OW23506   3.448   2.643  14.786  0.2230  0.4473  0.3416
 4015SOL    HW123507   3.382   2.603  14.729 -0.2096  0.6845  0.6701
 4015SOL    HW223508   3.426   2.599  14.868 -2.8424  2.3662  0.5841
 4016SOL     OW23509   0.426   0.533   8.697 -0.8041 -0.1516  0.2928
 4016SOL    HW123510   0.438   0.572   8.783 -0.9816  1.8158 -0.5631
 4016SOL    HW223511   0.497   0.470   8.702  0.8655  1.8388  1.7532
 4017SOL     OW23512   1.318   1.498   3.923 -0.1906 -0.2224  0.4861
 4017SOL    HW123513   1.305   1.420   3.869  0.4804  0.8659 -1.2528
 4017SOL    HW223514   1.254   1.489   3.993  1.4133 -0.9998  1.8458
 4018SOL     OW23515   0.982   0.315  16.321  0.8693 -0.3195 -0.4154
 4018SOL    HW123516   1.016   0.399  16.353  0.3516  0.2724 -1.3963
 4018SOL    HW223517   1.027   0.304  16.237  0.6444 -1.6956 -0.3447
 4019SOL     OW23518   3.983   2.212   9.919 -0.1153  0.1512  0.2292
 4019SOL    HW123519   3.913   2.244   9.975 -0.4992 -1.6918  0.7988
 4019SOL    HW223520   3.957   2.121   9.904  1.1891 -0.0469 -0.8762
 4020SOL     OW23521   4.059   1.988  11.716  0.2633 -0.4319  0.1814
 4020SOL    HW123522   4.001   1.917  11.743 -0.1961 -0.2883 -0.4318
 4020SOL    HW223523   4.017   2.062  11.760  0.1891 -0.4219  0.0932
 4021SOL     OW23524   3.420   3.527   2.399 -0.0650 -0.0946  0.2915
 4021SOL    HW123525   3.487   3.508   2.333 -0.3296 -0.9191  0.2635
 4021SOL    HW223526   3.451   3.616   2.415  1.1865 -0.2671 -1.2116
 4022SOL     OW23527   0.118   3.989   2.028  0.0614  0.4264  0.3883
 4022SOL    HW123528   0.033   3.949   2.045  1.5840 -2.1210  2.0922
 4022SOL    HW223529   0.142   4.004   2.120  0.2924 -0.0376  0.4023
 4023SOL     OW23530   2.980   2.218   1.267  0.5320  0.2587 -0.5238
 4023SOL    HW123531   2.931   2.175   1.336 -1.9037  1.0256 -1.7864
 4023SOL    HW223532   2.994   2.144   1.208  3.9510 -0.7009  1.4819
 4024SOL     OW23533   2.814   1.916   0.218 -0.4452 -0.3015  0.1892
 4024SOL    HW123534   2.794   1.969   0.140  1.9416  1.5936  0.8903
 4024SOL    HW223535   2.771   1.835   0.189  0.3421 -0.6365 -0.0250
 4025SOL     OW23536   2.304   1.441  16.508  0.1036 -0.4199 -0.5081
 4025SOL    HW123537   2.265   1.391  16.437  0.8878 -0.4940 -0.8859
 4025SOL    HW223538   2.246   1.517  16.507  0.9174  0.2213  0.2159
 4026SOL     OW23539   4.062   3.526  16.349  0.4003  0.5292  0.2287
 4026SOL    HW123540   4.075   3.472  16.427 -1.8607 -0.3921 -0.0104
 4026SOL    HW223541   3.988   3.583  16.372  1.3764  1.5199  0.8874
 4027SOL     OW23542   0.639   1.438   9.070  0.7502  0.0948 -0.3069
 4027SOL    HW123543   0.624   1.379   8.996 -0.3846  0.7934 -0.6325
 4027SOL    HW223544   0.560   1.450   9.123  0.6680 -1.0974 -0.1497
 4028SOL     OW23545   0.275   0.865   3.686  0.6407  0.5344 -0.2002
 4028SOL    HW123546   0.323   0.844   3.605 -0.2304  2.6901 -1.2711
 4028SOL    HW223547   0.213   0.794   3.701  1.3167  0.4845  2.3113
 4029SOL     OW23548   0.600   0.327   8.731  0.4982 -0.0698  0.2748
 4029SOL    HW123549   0.689   0.341   8.762  1.0628 -2.2063 -0.4193
 4029SOL    HW223550   0.610   0.308   8.638  1.5636  0.5104  0.2802
 4030SOL     OW23551   4.681   3.638   0.208 -0.1380  0.3752  0.0408
 4030SOL    HW123552   0.044   3.676   0.189  0.3827 -1.2268 -0.8315
 4030SOL    HW223553   4.635   3.622   0.126  2.4931 -0.2343 -1.3222
 4031SOL     OW23554   4.630   3.255   3.923  0.0981 -0.2767 -0.4058
 4031SOL    HW123555   4.684   3.188   3.881 -1.2011 -1.6212  0.0602
 4031SOL    HW223556   4.692   3.325   3.940 -1.6024  0.9479  0.7848
 4032SOL     OW23557   0.132   1.752   6.737 -0.3019 -0.0174  0.1139
 4032SOL    HW123558   0.174   1.798   6.809 -1.3053  0.0487  0.6534
 4032SOL    HW223559   0.040   1.775   6.728  0.1056  1.7401  0.4680
 4033SOL     OW23560   2.664   0.300  15.900 -0.0242  0.6376  0.0341
 4033SOL    HW123561   2.707   0.280  15.817 -1.0377 -1.0342 -0.0973
 4033SOL    HW223562   2.585   0.246  15.900  0.2683  0.2206 -1.3991
 4034SOL     OW23563   0.972   4.033   5.000 -0.1396 -0.1740  0.0262
 4034SOL    HW123564   0.882   4.005   4.985 -0.2342  1.6620 -2.7538
 4034SOL    HW223565   0.964   4.128   5.006 -1.5989 -0.3459  0.7359
 4035SOL     OW23566   1.189   0.215   4.415  0.1535 -0.0976 -0.6148
 4035SOL    HW123567   1.198   0.241   4.507  2.2289  1.7346 -1.3437
 4035SOL    HW223568   1.094   0.220   4.405  0.1700  2.9937  0.6771
 4036SOL     OW23569   1.786   2.327   4.474 -0.1199 -0.2603  0.1170
 4036SOL    HW123570   1.800   2.256   4.411  2.1566  1.3875 -1.2427
 4036SOL    HW223571   1.824   2.395   4.418 -0.6800  1.0650  1.3636
 4037SOL     OW23572   2.918   1.408   2.894 -0.1373  0.0809 -0.0321
 4037SOL    HW123573   2.985   1.406   2.826 -0.9852 -1.6870 -0.8276
 4037SOL    HW223574   2.918   1.499   2.923 -2.1076  0.8122 -2.3446
 4038SOL     OW23575   4.060   1.073   5.929 -0.2971  0.2746  0.3192
 4038SOL    HW123576   4.125   1.112   5.989 -0.3468  2.0555 -0.7746
 4038SOL    HW223577   4.114   1.010   5.882  0.0535 -0.5299  1.8101
 4039SOL     OW23578   3.059   0.671  16.496  0.2445  0.4053  0.3602
 4039SOL    HW123579   2.970   0.683  16.530  0.1179  1.2710 -0.2701
 4039SOL    HW223580   3.081   0.764  16.496  1.6909  0.0594 -1.1539
 4040SOL     OW23581   1.932   2.713   4.131  0.2945  0.1057  0.2883
 4040SOL    HW123582   1.900   2.793   4.088 -2.0330 -0.5314  0.8203
 4040SOL    HW223583   1.989   2.752   4.197  1.6385 -0.3004 -0.6383
 4041SOL     OW23584   3.120   1.658   9.459 -0.1635  0.2398  0.4173
 4041SOL    HW123585   3.096   1.644   9.551 -2.1427 -1.9747 -0.4389
 4041SOL    HW223586   3.108   1.571   9.420 -2.9894  0.9135 -0.2213
 4042SOL     OW23587   0.149   3.368   3.376  0.3304  0.1963 -0.7366
 4042SOL    HW123588   0.112   3.306   3.438  0.0221 -0.0533 -1.1683
 4042SOL    HW223589   0.074   3.391   3.321  1.1272  2.2415 -0.9610
 4043SOL     OW23590   4.216   2.185   8.162  0.1372 -0.1245  0.0780
 4043SOL    HW123591   4.248   2.098   8.137 -0.5233 -0.3242 -0.0775
 4043SOL    HW223592   4.161   2.193   8.084  0.6406  1.0959 -0.1528
 4044SOL     OW23593   0.810   4.353  16.921  0.1058 -0.4693  0.1423
 4044SOL    HW123594   0.762   4.384  16.845  0.7110  2.0165  0.7756
 4044SOL    HW223595   0.890   4.322  16.879  0.6334  1.4249 -0.2329
 4045SOL     OW23596   4.227   3.188   4.538  0.1043  0.0149  0.4338
 4045SOL    HW123597   4.253   3.255   4.475 -0.6701 -0.2682 -0.1811
 4045SOL    HW223598   4.235   3.113   4.479  2.0684  0.4644  0.1333
 4046SOL     OW23599   0.612   0.861   1.492 -0.4083  0.7229  0.0312
 4046SOL    HW123600   0.530   0.829   1.455 -0.0043  1.6784 -1.6906
 4046SOL    HW223601   0.666   0.785   1.470 -1.0034  0.5830 -0.9453
 4047SOL     OW23602   2.708   4.201   7.684  0.0292 -0.0238 -0.1167
 4047SOL    HW123603   2.720   4.107   7.668  1.5833  0.2633 -0.6265
 4047SOL    HW223604   2.697   4.199   7.779 -1.0060  1.6981 -0.2068
 4048SOL     OW23605   1.274   4.009   1.435 -0.3878  0.3536 -0.0010
 4048SOL    HW123606   1.221   4.057   1.499  0.0301 -2.9507  2.8368
 4048SOL    HW223607   1.317   4.086   1.397  0.3645 -1.1823 -2.2760
 4049SOL     OW23608   2.335   0.596   5.172  0.0325 -0.4011 -0.1620
 4049SOL    HW123609   2.377   0.646   5.102 -1.7205  0.3079 -0.7121
 4049SOL    HW223610   2.245   0.629   5.173 -0.0476 -0.6609  0.8993
 4050SOL     OW23611   0.639   2.034   7.995 -0.1387  0.0817  0.2358
 4050SOL    HW123612   0.669   2.119   7.964 -0.2335  0.4247  1.0824
 4050SOL    HW223613   0.725   2.001   8.023 -0.7242 -0.5145  1.3311
 4051SOL     OW23614   3.630   3.025  12.505  0.1328 -0.7412 -0.3226
 4051SOL    HW123615   3.633   3.027  12.600  0.7884 -1.6790 -0.3250
 4051SOL    HW223616   3.549   3.072  12.486  0.1005  0.0560  1.7631
 4052SOL     OW23617   1.968   2.620   8.681  0.0852  0.1198 -0.5881
 4052SOL    HW123618   1.921   2.559   8.738  1.4245 -1.8176 -1.5616
 4052SOL    HW223619   1.971   2.690   8.747 -2.8440  0.8406 -1.1904
 4053SOL     OW23620   3.654   4.453   7.055  0.4029 -0.0414 -0.0419
 4053SOL    HW123621   3.725   4.513   7.030  0.0141  0.1651 -0.6375
 4053SOL    HW223622   3.590   4.510   7.097  2.0723  1.1863  0.8338
 4054SOL     OW23623   4.089   0.269   4.132 -0.2605  0.1826 -0.0804
 4054SOL    HW123624   4.057   0.251   4.044  2.4420  2.4803 -1.5328
 4054SOL    HW223625   4.060   0.359   4.144  1.8056  0.9919 -1.0903
 4055SOL     OW23626   1.862   1.975   2.709  0.6286 -0.0429  0.0785
 4055SOL    HW123627   1.853   2.068   2.690  1.0513 -0.1244 -0.5322
 4055SOL    HW223628   1.957   1.963   2.703  0.7186  1.6742 -1.8519
 4056SOL     OW23629   2.997   3.618  13.305  0.0662  0.1977 -0.0533
 4056SOL    HW123630   2.992   3.625  13.400 -2.1866  1.2890 -0.2621
 4056SOL    HW223631   2.951   3.539  13.278 -1.7023  0.8919  0.9433
 4057SOL     OW23632   4.260   4.065   0.961 -0.3293  0.4917 -0.6405
 4057SOL    HW123633   4.206   4.090   0.886 -2.8942 -0.1875  0.9626
 4057SOL    HW223634   4.351   4.082   0.938 -0.6330  2.2892 -0.5098
 4058SOL     OW23635   4.721   0.568   9.820  0.0096 -0.0714  0.0250
 4058SOL    HW123636   4.654   0.577   9.888 -0.2494 -0.9436 -0.1232
 4058SOL    HW223637   4.665   0.578   9.743 -1.9027  2.0054  1.6709
 4059SOL     OW23638   0.468   0.791  13.769 -0.0536 -0.1514 -0.6493
 4059SOL    HW123639   0.463   0.699  13.743  0.7000 -0.8877  1.7891
 4059SOL    HW223640   0.402   0.828  13.710 -0.9746  0.1475  0.5566
 4060SOL     OW23641   1.390   3.260  12.175 -0.2381  0.6462 -0.6005
 4060SOL    HW123642   1.429   3.181  12.212 -1.7591  0.8902  1.4853
 4060SOL    HW223643   1.459   3.296  12.119 -1.4845 -0.8416 -3.0944
 4061SOL     OW23644   4.144   3.829   4.928 -0.1235 -0.0477 -0.1669
 4061SOL    HW123645   4.229   3.837   4.886  0.5108  2.6156  1.6434
 4061SOL    HW223646   4.094   3.893   4.879 -1.8006 -0.7346  0.6330
 4062SOL     OW23647   0.931   2.171  13.061 -0.1708  0.0200 -0.2653
 4062SOL    HW123648   0.961   2.258  13.037 -1.1765  0.2678 -0.6131
 4062SOL    HW223649   0.971   2.158  13.147 -0.7170  0.9830  0.1384
 4063SOL     OW23650   4.302   4.589  17.081 -0.2497  0.1138  0.1901
 4063SOL    HW123651   4.246   4.585  17.159 -1.4596 -0.2260 -0.7056
 4063SOL    HW223652   4.299   4.501  17.045  0.4847  0.3965 -0.5638
 4064SOL     OW23653   2.871   2.620   5.685 -0.1203  0.0808 -0.1961
 4064SOL    HW123654   2.884   2.649   5.775 -1.2561  0.1531 -0.0590
 4064SOL    HW223655   2.830   2.700   5.652  0.3609 -0.1945 -1.4371
 4065SOL     OW23656   0.166   2.870   9.176 -0.3076  0.0002 -0.3215
 4065SOL    HW123657   0.094   2.855   9.237  1.6122 -0.7007  1.7647
 4065SOL    HW223658   0.131   2.948   9.133 -0.3287  0.7257  1.0364
 4066SOL     OW23659   2.352   0.443  15.690 -0.3353  0.1523  0.2663
 4066SOL    HW123660   2.313   0.396  15.616  0.8447 -1.2467  0.5388
 4066SOL    HW223661   2.267   0.470  15.725  0.4752  1.1613  1.4291
 4067SOL     OW23662   1.779   4.104   5.391  0.3536 -0.2179 -0.0208
 4067SOL    HW123663   1.864   4.147   5.388  1.2769 -2.1431 -1.2854
 4067SOL    HW223664   1.772   4.108   5.296  0.1499  2.8186  0.1101
 4068SOL     OW23665   3.537   2.907  15.065 -0.6399 -0.1353 -0.0526
 4068SOL    HW123666   3.541   3.000  15.084  2.5866 -0.0386 -1.2377
 4068SOL    HW223667   3.474   2.897  14.994 -1.2386  4.5234 -0.1805
 4069SOL     OW23668   2.809   0.800   2.049 -0.0905  0.2332  0.0382
 4069SOL    HW123669   2.879   0.808   2.114  0.5967  0.3998 -0.7228
 4069SOL    HW223670   2.814   0.889   2.013 -3.0896  0.4841  0.2246
 4070SOL     OW23671   0.725   2.895   9.363 -0.8411 -0.1406 -0.2511
 4070SOL    HW123672   0.748   2.803   9.373  0.6013  0.0507 -1.8707
 4070SOL    HW223673   0.674   2.913   9.443 -0.9796  0.3913 -0.4569
 4071SOL     OW23674   3.648   4.180   1.999  0.2216 -0.2880 -0.1746
 4071SOL    HW123675   3.732   4.197   2.043 -0.1641  0.3565  0.3158
 4071SOL    HW223676   3.672   4.128   1.923 -0.6755 -2.3494  0.9554
 4072SOL     OW23677   1.787   2.921  10.426 -0.1306  0.2951  0.2655
 4072SOL    HW123678   1.814   2.951  10.513  1.0875  2.3017 -0.8169
 4072SOL    HW223679   1.727   2.990  10.400 -0.9567 -0.2658  0.6780
 4073SOL     OW23680   4.531   4.030   7.317  0.2507 -0.1116  0.0476
 4073SOL    HW123681   4.449   4.078   7.305 -0.8175 -2.1374 -0.7181
 4073SOL    HW223682   4.591   4.099   7.346  0.0888  0.5603 -1.2185
 4074SOL     OW23683   1.884   1.864   1.804 -0.2026 -0.1574  0.3810
 4074SOL    HW123684   1.801   1.892   1.843  1.4558  2.1024  2.3156
 4074SOL    HW223685   1.923   1.951   1.792  0.0068 -0.2951  0.0678
 4075SOL     OW23686   4.320   4.547   5.327 -1.0443  0.3882  0.1458
 4075SOL    HW123687   4.266   4.626   5.334  2.7157  2.8218  1.5941
 4075SOL    HW223688   4.326   4.541   5.231  0.8471  0.5328  0.2559
 4076SOL     OW23689   1.744   0.284   7.620  0.0699  0.1661 -0.4673
 4076SOL    HW123690   1.672   0.270   7.559  2.0478 -0.7661 -2.5687
 4076SOL    HW223691   1.738   0.198   7.662 -0.7398  0.8808  0.8909
 4077SOL     OW23692   1.215   3.778   5.115 -0.6453 -0.1192 -0.1691
 4077SOL    HW123693   1.208   3.855   5.059 -1.9256 -0.8372 -1.0008
 4077SOL    HW223694   1.123   3.763   5.138 -0.4324  0.5203  1.1019
 4078SOL     OW23695   0.756   3.301   9.367 -0.0167  0.3396 -0.2512
 4078SOL    HW123696   0.797   3.233   9.313  1.2858  0.9753 -0.0486
 4078SOL    HW223697   0.823   3.310   9.434 -0.1158 -2.3249  0.2209
 4079SOL     OW23698   1.834   1.478   8.559  1.0434 -0.6801  0.1093
 4079SOL    HW123699   1.764   1.414   8.546  0.5969 -0.2830  0.5675
 4079SOL    HW223700   1.904   1.426   8.598  0.6507 -1.6146 -0.4292
 4080SOL     OW23701   3.915   3.225   3.221 -0.6111 -0.4493 -0.3539
 4080SOL    HW123702   3.826   3.259   3.221  0.0691  1.3288 -2.0659
 4080SOL    HW223703   3.980   3.296   3.222 -0.7104 -0.3276 -3.9011
 4081SOL     OW23704   3.726   1.921   2.930  0.6996 -0.9300  0.4185
 4081SOL    HW123705   3.771   1.981   2.869 -0.2311 -1.2765 -0.6094
 4081SOL    HW223706   3.768   1.951   3.010 -1.7012  0.5695  1.0992
 4082SOL     OW23707   3.558   3.180   6.653  0.1033 -0.4496  0.8716
 4082SOL    HW123708   3.617   3.215   6.586 -0.4020 -1.1681  0.0476
 4082SOL    HW223709   3.492   3.249   6.661 -0.0289 -0.4045 -0.5265
 4083SOL     OW23710   2.015   4.543  12.944  0.3858  0.2688  0.7622
 4083SOL    HW123711   2.035   4.475  13.009  0.2627  0.5003  1.0390
 4083SOL    HW223712   2.096   4.577  12.905 -0.4051  1.1308 -0.1129
 4084SOL     OW23713   3.803   2.822   2.525  0.4715 -0.0744 -0.0668
 4084SOL    HW123714   3.764   2.895   2.571 -1.8347 -0.8789 -0.7686
 4084SOL    HW223715   3.750   2.742   2.528 -0.1422  0.3356 -0.0875
 4085SOL     OW23716   3.405   3.091  12.818 -0.6450 -0.1161  0.5839
 4085SOL    HW123717   3.494   3.060  12.830 -1.3895 -2.1539  0.7758
 4085SOL    HW223718   3.416   3.178  12.779 -1.3148 -0.4218 -0.2833
 4086SOL     OW23719   3.302   0.646   4.297  0.5005 -0.2356  0.2737
 4086SOL    HW123720   3.349   0.623   4.217 -2.1560 -0.2691 -1.2982
 4086SOL    HW223721   3.291   0.560   4.336  1.9742 -1.2829 -1.6269
 4087SOL     OW23722   1.265   1.322   1.978 -0.3096  0.1225 -1.0210
 4087SOL    HW123723   1.243   1.278   1.896  1.3217  1.4210 -2.1312
 4087SOL    HW223724   1.354   1.341   1.951  0.9561 -2.4490  1.3530
 4088SOL     OW23725   1.703   3.125   9.023 -0.1467 -0.5504 -0.1653
 4088SOL    HW123726   1.753   3.171   8.956 -0.4178  0.6326  0.4543
 4088SOL    HW223727   1.638   3.192   9.042 -1.3096 -1.7398  0.0112
 4089SOL     OW23728   3.932   2.349   7.937  0.0779  0.0973  0.2680
 4089SOL    HW123729   3.927   2.292   8.013 -1.2098 -0.9511 -0.5891
 4089SOL    HW223730   3.910   2.434   7.974  1.0059 -0.7970  2.8506
 4090SOL     OW23731   0.149   2.829   5.700  0.6398 -0.0563  0.1725
 4090SOL    HW123732   0.092   2.775   5.644  1.9767 -3.1392  1.7808
 4090SOL    HW223733   0.188   2.872   5.623 -0.2527  2.0711  0.9196
 4091SOL     OW23734   0.171   2.980   4.155 -0.0558  0.0046 -0.1828
 4091SOL    HW123735   0.205   3.063   4.122  2.3663  0.3498  3.2188
 4091SOL    HW223736   0.193   2.925   4.079  0.1475  1.4924 -1.1941
 4092SOL     OW23737   4.229   2.440   2.183  0.3494  0.0808 -0.4182
 4092SOL    HW123738   4.295   2.503   2.153  1.8699 -0.0274  2.6864
 4092SOL    HW223739   4.286   2.370   2.214 -1.4573 -1.7127 -1.1379
 4093SOL     OW23740   1.107   1.672   9.235  0.6137 -0.1380 -0.2561
 4093SOL    HW123741   1.184   1.669   9.177 -2.3309  1.8660 -4.2532
 4093SOL    HW223742   1.139   1.606   9.297 -0.6121  1.0243  1.6109
 4094SOL     OW23743   2.728   3.607  14.408  0.5043  0.0556 -0.7930
 4094SOL    HW123744   2.660   3.554  14.367  0.4090 -2.0344  2.0013
 4094SOL    HW223745   2.767   3.640  14.327  1.8921  1.6814  0.5474
 4095SOL     OW23746   3.697   1.059   8.009 -0.3231 -0.2457 -0.4587
 4095SOL    HW123747   3.641   1.137   8.008 -1.5257 -1.0772  2.8199
 4095SOL    HW223748   3.774   1.096   7.965 -0.3881  0.0174 -0.3488
 4096SOL     OW23749   3.002   3.523   5.884  0.2613  0.1106 -0.1340
 4096SOL    HW123750   2.982   3.458   5.816 -0.1616 -0.0559  0.1502
 4096SOL    HW223751   3.050   3.474   5.950 -0.2672  0.9246  0.8635
 4097SOL     OW23752   0.021   1.730  12.035 -0.2733 -0.8675 -0.4592
 4097SOL    HW123753   0.054   1.765  11.953 -4.2470 -3.4732 -3.1718
 4097SOL    HW223754   0.042   1.638  12.021  0.3500 -0.9002  0.6550
 4098SOL     OW23755   3.527   1.948  10.588 -0.1695  0.0079  0.8184
 4098SOL    HW123756   3.604   1.990  10.626  0.8349  0.1288 -1.3777
 4098SOL    HW223757   3.466   1.933  10.661  0.2131 -1.2605  0.8870
 4099SOL     OW23758   4.007   2.249   3.035 -0.5210  0.4660 -0.0914
 4099SOL    HW123759   3.988   2.165   3.075  2.0728 -0.3117 -0.4733
 4099SOL    HW223760   3.945   2.236   2.964 -2.0279 -0.0004  1.3241
 4100SOL     OW23761   2.012   3.014   6.752  0.2350  0.1010 -0.0637
 4100SOL    HW123762   2.098   3.051   6.731 -0.2375  0.7470 -0.8278
 4100SOL    HW223763   2.022   2.996   6.846  1.4217  0.8510 -0.0503
 4101SOL     OW23764   0.768   2.365   7.170 -0.7094 -0.2273 -0.4657
 4101SOL    HW123765   0.855   2.383   7.134  0.1575  0.2169  1.8834
 4101SOL    HW223766   0.757   2.272   7.151  0.2841  0.2207 -3.2558
 4102SOL     OW23767   4.036   2.544  12.482  0.9956 -0.1163  0.1101
 4102SOL    HW123768   4.097   2.482  12.443 -0.1479 -0.8446 -0.5302
 4102SOL    HW223769   4.044   2.515  12.573  0.5503 -3.9714 -1.0812
 4103SOL     OW23770   4.565   0.658   3.671 -0.1759  0.0675 -0.3144
 4103SOL    HW123771   4.472   0.658   3.693 -0.0823  1.8877  0.1034
 4103SOL    HW223772   4.570   0.610   3.588 -0.1114  0.6393 -0.6392
 4104SOL     OW23773   4.614   0.043   9.524  0.3444 -0.1906  0.4654
 4104SOL    HW123774   4.564   0.018   9.602 -0.2832  0.3777  0.2513
 4104SOL    HW223775   4.706   0.025   9.539 -0.0394 -2.6492 -0.1074
 4105SOL     OW23776   2.905   1.516   7.431  0.3306 -0.1692  0.0254
 4105SOL    HW123777   2.904   1.441   7.372 -3.3240  0.6270 -0.8878
 4105SOL    HW223778   2.933   1.469   7.510 -1.0549  1.5741  1.5519
 4106SOL     OW23779   3.545   2.263   9.340 -0.4173  0.4980  0.0872
 4106SOL    HW123780   3.582   2.179   9.311 -1.3140  0.3149 -0.5180
 4106SOL    HW223781   3.461   2.255   9.296 -0.6304 -0.9451  0.7490
 4107SOL     OW23782   1.571   3.884   7.612 -0.0090  0.2627  0.1823
 4107SOL    HW123783   1.533   3.816   7.667 -2.4612 -0.0721 -1.9565
 4107SOL    HW223784   1.641   3.830   7.574  0.2867 -1.2466  2.8631
 4108SOL     OW23785   3.079   4.235  14.939  0.3166 -0.1000  0.2590
 4108SOL    HW123786   3.085   4.330  14.944  0.7790 -0.1347  0.3619
 4108SOL    HW223787   3.020   4.230  14.864 -0.1460  4.1227  0.3668
 4109SOL     OW23788   3.299   1.337   1.931  0.6172 -0.1253  0.1960
 4109SOL    HW123789   3.258   1.411   1.976 -1.1005 -1.8255  1.3817
 4109SOL    HW223790   3.241   1.268   1.963  0.4095 -0.4257 -0.8145
 4110SOL     OW23791   4.281   0.528   9.844 -0.0511 -0.1627  0.0138
 4110SOL    HW123792   4.318   0.608   9.805 -0.6713  0.3694  0.5150
 4110SOL    HW223793   4.358   0.498   9.892 -1.6740  2.0318  3.9869
 4111SOL     OW23794   4.345   0.388   7.213 -0.1580 -0.6784 -0.3360
 4111SOL    HW123795   4.324   0.306   7.168 -0.6356  0.3675 -2.0469
 4111SOL    HW223796   4.428   0.411   7.172 -0.7526  0.7030 -0.7701
 4112SOL     OW23797   4.189   2.173   9.379 -0.3388  0.6283 -0.0181
 4112SOL    HW123798   4.187   2.133   9.466  1.0307  0.5138 -0.0356
 4112SOL    HW223799   4.256   2.120   9.335  0.2985  0.3523  1.2724
 4113SOL     OW23800   1.611   0.164   9.986 -0.8987  0.4849  0.1778
 4113SOL    HW123801   1.669   0.183   9.913  2.5698 -0.1694  2.7599
 4113SOL    HW223802   1.638   0.240  10.038  0.1453  0.7154 -0.7191
 4114SOL     OW23803   4.439   2.434   1.898  1.0910 -0.3520 -0.2272
 4114SOL    HW123804   4.456   2.347   1.860  0.0384 -1.6670  2.3266
 4114SOL    HW223805   4.430   2.492   1.822  0.9877 -0.4505 -0.2907
 4115SOL     OW23806   2.823   2.917   7.192 -0.3113 -0.0941 -0.5117
 4115SOL    HW123807   2.816   2.883   7.103  2.7795 -0.8223 -0.4573
 4115SOL    HW223808   2.846   2.837   7.240  1.2941  1.2406  0.8932
 4116SOL     OW23809   0.140   2.229   7.675 -0.2568  0.0574 -0.3278
 4116SOL    HW123810   0.046   2.232   7.658 -0.1739 -2.2059 -1.0655
 4116SOL    HW223811   0.151   2.178   7.755 -3.2556 -1.1669 -0.7062
 4117SOL     OW23812   3.899   1.262  11.107 -0.4118 -0.6015 -0.0234
 4117SOL    HW123813   3.917   1.351  11.137  0.1788 -0.0072 -2.0974
 4117SOL    HW223814   3.836   1.270  11.035  0.0646 -0.2249 -0.4068
 4118SOL     OW23815   1.912   0.789   2.826 -0.4459  0.2147 -0.1448
 4118SOL    HW123816   1.985   0.787   2.765  0.1365  0.2812  0.5563
 4118SOL    HW223817   1.935   0.866   2.878  0.1805 -1.4345  1.9694
 4119SOL     OW23818   0.605   0.489   9.314 -0.4146 -0.3156 -0.1020
 4119SOL    HW123819   0.517   0.458   9.295 -0.3578 -0.4630 -0.1259
 4119SOL    HW223820   0.593   0.584   9.311  0.3317 -0.3210 -2.8500
 4120SOL     OW23821   3.931   2.723   7.218  0.1195  0.1358  0.1299
 4120SOL    HW123822   3.836   2.725   7.233 -0.0080  0.6844 -0.7423
 4120SOL    HW223823   3.953   2.638   7.180 -2.5489 -0.8837  0.8373
 4121SOL     OW23824   2.309   4.085  10.337 -0.6423 -0.4623 -0.3021
 4121SOL    HW123825   2.395   4.119  10.312 -0.7050 -1.1355 -1.4477
 4121SOL    HW223826   2.253   4.162  10.336 -1.5348 -1.1083 -0.9232
 4122SOL     OW23827   2.466   1.771   3.912 -0.4141  0.4265  0.1106
 4122SOL    HW123828   2.436   1.829   3.842  0.6717  2.5811  1.4394
 4122SOL    HW223829   2.543   1.731   3.872  0.0816 -0.8053  2.2703
 4123SOL     OW23830   4.706   1.187   8.514 -0.1314  0.2436 -0.1802
 4123SOL    HW123831   4.700   1.182   8.419  0.5862 -1.5933 -0.1250
 4123SOL    HW223832   4.623   1.234   8.526  0.5495  1.5753 -0.5980
 4124SOL     OW23833   2.616   4.208  14.842  0.2351 -0.8514  0.6136
 4124SOL    HW123834   2.624   4.281  14.903 -0.5082  0.3790 -0.7629
 4124SOL    HW223835   2.576   4.139  14.895  1.3037 -2.3636 -0.5460
 4125SOL     OW23836   0.565   3.090   1.473 -0.2004  1.1950  0.4587
 4125SOL    HW123837   0.567   3.104   1.378  1.4804 -0.5624  0.2268
 4125SOL    HW223838   0.485   3.139   1.494  0.0479  0.9780  1.9311
 4126SOL     OW23839   2.022   3.539   3.260  0.6119  0.3354  0.2258
 4126SOL    HW123840   1.935   3.580   3.260  0.3094 -0.3077 -0.8825
 4126SOL    HW223841   2.024   3.540   3.356  1.4431 -2.2998  0.2243
 4127SOL     OW23842   4.383   0.846   8.958  0.6882  0.4490  0.2243
 4127SOL    HW123843   4.441   0.798   9.017  0.0721  1.1451  1.3936
 4127SOL    HW223844   4.408   0.798   8.879  0.2246  2.5323 -1.1858
 4128SOL     OW23845   0.111   0.778   0.751 -0.0615  0.1300 -0.1934
 4128SOL    HW123846   0.183   0.768   0.813 -0.8365  1.3723  0.9087
 4128SOL    HW223847   0.052   0.843   0.790  0.1371  0.2497 -0.0967
 4129SOL     OW23848   3.011   1.616   7.737 -0.2724 -0.0642 -0.2504
 4129SOL    HW123849   3.041   1.535   7.696 -1.1099 -0.1022 -0.7910
 4129SOL    HW223850   2.957   1.574   7.804 -2.6838  1.4854 -1.2025
 4130SOL     OW23851   1.612   3.913   4.273  0.9725 -0.2013 -0.0079
 4130SOL    HW123852   1.540   3.851   4.262  0.2719  0.4728  0.7447
 4130SOL    HW223853   1.678   3.878   4.212 -0.4788 -1.5494 -0.8012
 4131SOL     OW23854   2.639   0.071   3.556 -0.3256  0.0674 -0.4886
 4131SOL    HW123855   2.553   0.091   3.518 -0.0004  0.0876 -1.2242
 4131SOL    HW223856   2.638   0.155   3.602  0.3875  0.3741 -1.0291
 4132SOL     OW23857   4.259   4.483   2.592 -0.1733 -0.1699  0.5296
 4132SOL    HW123858   4.311   4.563   2.585 -1.3658  0.6763  1.6378
 4132SOL    HW223859   4.184   4.508   2.646 -0.2874 -0.3202  0.4424
 4133SOL     OW23860   0.580   1.128   6.693  0.1215  0.1793 -0.0500
 4133SOL    HW123861   0.495   1.170   6.681  0.1101  0.3151  0.5192
 4133SOL    HW223862   0.576   1.046   6.643 -0.2002  0.0418  0.2048
 4134SOL     OW23863   2.911   3.956  17.583 -0.3937 -0.8081  0.8545
 4134SOL    HW123864   2.989   3.930  17.633 -1.0971  0.2340  2.4767
 4134SOL    HW223865   2.845   3.961  17.651  0.0460  0.0030  1.2199
 4135SOL     OW23866   0.604   3.222   5.064 -0.4138  0.1237 -0.2828
 4135SOL    HW123867   0.606   3.195   4.972 -0.0558 -1.5338  0.1976
 4135SOL    HW223868   0.674   3.165   5.095 -0.4775 -0.3732 -1.0576
 4136SOL     OW23869   2.766   2.158   5.379 -0.6324  0.9039  0.1441
 4136SOL    HW123870   2.705   2.157   5.453  0.1730  2.6883  0.8307
 4136SOL    HW223871   2.707   2.164   5.303  0.2640 -1.9584 -0.7968
 4137SOL     OW23872   0.538   0.211  15.852  0.1879  0.5185  0.0559
 4137SOL    HW123873   0.455   0.244  15.887  0.4153 -0.0016  1.0838
 4137SOL    HW223874   0.602   0.235  15.918 -1.5675  3.3840  0.7323
 4138SOL     OW23875   0.769   3.508  17.419  0.1822  0.1768 -0.0033
 4138SOL    HW123876   0.788   3.577  17.482 -1.9438 -0.2715  1.1442
 4138SOL    HW223877   0.770   3.550  17.333 -0.8570  1.1142  0.4546
 4139SOL     OW23878   4.596   1.708   7.952  0.4485  0.1797  1.0424
 4139SOL    HW123879   4.593   1.780   8.014  2.7156 -0.9491  2.4600
 4139SOL    HW223880   4.526   1.648   7.977  0.5275  0.0113  0.8632
 4140SOL     OW23881   3.910   2.736  13.553  0.0760 -0.0269 -0.1742
 4140SOL    HW123882   3.938   2.711  13.465  2.7688 -0.1066  0.6912
 4140SOL    HW223883   3.862   2.816  13.531  1.2146  0.6397 -0.2739
 4141SOL     OW23884   3.862   0.335   0.393  0.3281  0.4762 -0.1723
 4141SOL    HW123885   3.941   0.282   0.383 -0.2661 -0.8597  2.5339
 4141SOL    HW223886   3.795   0.274   0.361  0.6005  0.4417 -0.6785
 4142SOL     OW23887   3.690   2.030   8.833 -0.3376 -0.1772 -0.6633
 4142SOL    HW123888   3.706   2.120   8.804 -0.3925 -0.1201 -0.5200
 4142SOL    HW223889   3.594   2.024   8.835 -0.2646 -0.5923  1.8093
 4143SOL     OW23890   1.883   4.440  16.731 -0.4244  0.5445  0.2670
 4143SOL    HW123891   1.796   4.482  16.726 -1.4195 -1.9603 -2.9049
 4143SOL    HW223892   1.942   4.504  16.772  1.3281  0.0706 -1.5577
 4144SOL     OW23893   1.095   2.351   9.245  0.3058 -0.4203  0.4302
 4144SOL    HW123894   1.055   2.336   9.159  0.9749 -1.7631  0.3513
 4144SOL    HW223895   1.022   2.309   9.290  0.3318 -3.0318 -1.9259
 4145SOL     OW23896   2.304   1.382   6.539 -0.3750  0.4982  0.3158
 4145SOL    HW123897   2.284   1.292   6.564 -0.6152  0.6291  0.5968
 4145SOL    HW223898   2.363   1.408   6.610  2.6047 -0.3611 -1.8314
 4146SOL     OW23899   3.309   4.295   2.244 -0.2946  0.2916  0.5891
 4146SOL    HW123900   3.351   4.304   2.330 -1.4901  0.3653  1.1788
 4146SOL    HW223901   3.247   4.368   2.245 -0.2167  0.3619 -0.0148
 4147SOL     OW23902   0.708   0.608   1.425 -0.7581  0.0729  0.4840
 4147SOL    HW123903   0.618   0.577   1.429 -0.5144 -0.6004  0.7813
 4147SOL    HW223904   0.734   0.601   1.517 -0.1250 -2.3804  0.1377
 4148SOL     OW23905   3.226   1.341  16.337 -0.0975 -0.1519  0.1375
 4148SOL    HW123906   3.262   1.287  16.408  0.0782 -0.5923 -0.2849
 4148SOL    HW223907   3.199   1.418  16.387  0.4296 -0.0535  0.2724
 4149SOL     OW23908   4.113   0.009   5.520  0.1704 -0.0029  0.2617
 4149SOL    HW123909   4.037   4.678   5.542  0.1398  0.3595  1.0461
 4149SOL    HW223910   4.076   0.096   5.513  1.1826  0.3627 -0.5040
 4150SOL     OW23911   3.072   3.480   7.352  0.3721 -0.5939  0.4130
 4150SOL    HW123912   3.142   3.428   7.312  0.4259 -0.7378  0.7003
 4150SOL    HW223913   3.067   3.439   7.438  4.0451  0.7220  1.2870
 4151SOL     OW23914   1.812   4.347  15.377  0.4486  0.5437  0.0009
 4151SOL    HW123915   1.878   4.412  15.353 -0.5127  1.1333 -1.0483
 4151SOL    HW223916   1.850   4.265  15.346 -0.4072 -0.1308  0.7202
 4152SOL     OW23917   2.800   2.038  14.263  0.0257 -0.3892  0.3576
 4152SOL    HW123918   2.843   1.998  14.187  1.6450 -2.0265  2.1221
 4152SOL    HW223919   2.709   2.018  14.244 -0.8628  1.1365  2.9966
 4153SOL     OW23920   3.800   1.133  15.597 -0.2031  0.6949  0.4336
 4153SOL    HW123921   3.789   1.225  15.620  0.6305  1.4582 -2.2657
 4153SOL    HW223922   3.811   1.092  15.683  0.2864 -0.5858 -0.2357
 4154SOL     OW23923   3.034   3.228   6.271 -0.2324  0.5705 -0.2512
 4154SOL    HW123924   2.966   3.162   6.284 -1.9354  2.5841  1.0119
 4154SOL    HW223925   3.022   3.283   6.349  0.2880 -1.4734  1.2677
 4155SOL     OW23926   4.085   2.720   7.451  0.3498  0.0033 -0.5189
 4155SOL    HW123927   4.050   2.679   7.372 -0.6573  0.4254 -0.2804
 4155SOL    HW223928   4.157   2.769   7.410  1.4443 -2.2303 -1.2836
 4156SOL     OW23929   4.082   4.481  10.908  0.7725 -0.1312  0.3965
 4156SOL    HW123930   4.000   4.523  10.930  1.6180  0.8673  1.6211
 4156SOL    HW223931   4.095   4.418  10.979 -2.5185 -1.3665 -0.1106
 4157SOL     OW23932   4.109   4.159  14.701  0.0102  0.3086 -0.1991
 4157SOL    HW123933   4.060   4.175  14.620  0.7640 -0.8068 -0.8649
 4157SOL    HW223934   4.124   4.247  14.734  0.2677 -0.7892  2.6231
 4158SOL     OW23935   2.029   2.500   9.079 -0.3183  0.5189  0.2692
 4158SOL    HW123936   2.013   2.426   9.138  0.1657  0.0370 -0.2063
 4158SOL    HW223937   2.116   2.531   9.105 -0.8206  1.3219  1.0273
 4159SOL     OW23938   3.693   2.354   7.326  0.0505  0.0724  0.1002
 4159SOL    HW123939   3.612   2.325   7.369 -0.1344 -1.4575 -1.2702
 4159SOL    HW223940   3.709   2.262   7.306  2.1621  0.8749 -1.8066
 4160SOL     OW23941   4.568   2.679   8.602  0.0834 -0.1754  0.0320
 4160SOL    HW123942   4.502   2.618   8.569  0.1906  0.0702 -0.6325
 4160SOL    HW223943   4.514   2.758   8.601 -0.6589 -0.6746  0.2013
 4161SOL     OW23944   2.397   2.325   0.988  0.0898 -0.4433  0.1937
 4161SOL    HW123945   2.471   2.303   1.046  0.2166  0.3930  0.3494
 4161SOL    HW223946   2.443   2.362   0.913 -0.6565  0.8844  0.3834
 4162SOL     OW23947   0.411   0.011   3.261  0.2139 -0.1055  0.2039
 4162SOL    HW123948   0.350   4.669   3.227 -1.5409  0.2984  2.5802
 4162SOL    HW223949   0.410   0.065   3.181 -2.7332  0.8921  0.9193
 4163SOL     OW23950   2.809   1.933  14.623  0.2795  0.0431 -0.3009
 4163SOL    HW123951   2.765   2.009  14.586 -0.4823 -0.3700 -0.2342
 4163SOL    HW223952   2.896   1.946  14.584  0.2667 -0.6199 -0.5609
 4164SOL     OW23953   0.183   4.383   7.540  0.3292 -0.6174 -0.6428
 4164SOL    HW123954   0.204   4.289   7.540 -1.5687 -1.0302  1.4055
 4164SOL    HW223955   0.269   4.424   7.530 -1.1737  2.3173 -1.4630
 4165SOL     OW23956   4.325   0.115   7.086  0.0700 -0.4943  0.3167
 4165SOL    HW123957   4.352   0.058   7.014 -2.6364 -0.8907 -0.3652
 4165SOL    HW223958   4.286   0.051   7.145 -0.5834 -1.1769 -0.8554
 4166SOL     OW23959   2.394   0.255   0.868  0.0389  0.4080 -0.4605
 4166SOL    HW123960   2.387   0.160   0.860 -0.8830  0.3889  0.5401
 4166SOL    HW223961   2.375   0.263   0.961  1.9648  3.2962 -0.3034
 4167SOL     OW23962   1.186   2.526  12.119  0.0244 -0.0659  0.2295
 4167SOL    HW123963   1.191   2.462  12.047 -0.4398  0.1158  0.0374
 4167SOL    HW223964   1.129   2.488  12.185  1.0778 -0.5892  0.8411
 4168SOL     OW23965   2.644   0.302   9.285  0.5172  0.6440  0.0840
 4168SOL    HW123966   2.725   0.251   9.287 -1.2311 -2.1002  0.6153
 4168SOL    HW223967   2.596   0.263   9.358  1.4466 -0.8292 -0.0840
 4169SOL     OW23968   1.618   3.831  13.749 -0.2466  0.5691 -0.5492
 4169SOL    HW123969   1.625   3.908  13.692  1.6331  0.0662 -1.0318
 4169SOL    HW223970   1.580   3.864  13.830  2.2414  0.4382  0.6756
 4170SOL     OW23971   0.378   3.409   4.542  0.3843 -0.3631 -0.0345
 4170SOL    HW123972   0.316   3.370   4.480 -1.7806  1.3474  1.0899
 4170SOL    HW223973   0.322   3.472   4.586  3.5433  2.1352  0.4378
 4171SOL     OW23974   0.873   1.039   6.333  0.3757 -0.1889 -0.2020
 4171SOL    HW123975   0.885   1.126   6.296 -0.3804 -0.4495 -1.0567
 4171SOL    HW223976   0.794   1.011   6.286 -0.6031 -1.2450  2.0405
 4172SOL     OW23977   3.816   4.622   3.450 -0.5130 -0.7559 -0.5081
 4172SOL    HW123978   3.825   4.689   3.518 -0.1374 -2.6036  1.2522
 4172SOL    HW223979   3.822   4.676   3.371 -0.2178 -0.3595 -0.2142
 4173SOL     OW23980   3.750   0.810   1.341 -0.0185  0.6096 -0.1487
 4173SOL    HW123981   3.733   0.903   1.330  0.6388  0.6428 -0.8574
 4173SOL    HW223982   3.676   0.786   1.396  1.2844  1.0253  1.7939
 4174SOL     OW23983   1.566   2.170  13.074 -0.1384  0.1368 -0.1634
 4174SOL    HW123984   1.534   2.155  12.985  1.8207  1.9908 -1.1749
 4174SOL    HW223985   1.530   2.258  13.083  1.4383  0.5489  2.0065
 4175SOL     OW23986   2.406   2.781  17.212  0.2911 -0.2726 -0.0853
 4175SOL    HW123987   2.364   2.795  17.128  1.2154 -0.3547 -0.5608
 4175SOL    HW223988   2.404   2.687  17.230 -0.7278 -0.5278 -1.5695
 4176SOL     OW23989   0.225   2.544   6.533 -0.5966  0.1504 -0.8991
 4176SOL    HW123990   0.247   2.464   6.582 -1.3353 -0.1304 -1.0276
 4176SOL    HW223991   0.233   2.608   6.603 -1.4890 -1.4397  0.6653
 4177SOL     OW23992   3.339   3.649   6.878  0.0930  0.3742  0.5573
 4177SOL    HW123993   3.375   3.728   6.918  0.3083  1.4253 -1.6941
 4177SOL    HW223994   3.256   3.645   6.924 -1.9040  1.1746 -2.9699
 4178SOL     OW23995   4.471   0.973  16.859 -0.1222 -0.0843  0.4437
 4178SOL    HW123996   4.446   0.928  16.778  1.9827 -0.2992 -0.0661
 4178SOL    HW223997   4.393   1.029  16.863 -0.7930 -0.9114 -0.8905
 4179SOL     OW23998   3.499   0.690   5.484 -0.0762  0.7428 -0.1726
 4179SOL    HW123999   3.494   0.668   5.391 -0.5677  0.5428 -0.0977
 4179SOL    HW224000   3.552   0.769   5.475  0.9670  0.4682  3.4427
 4180SOL     OW24001   1.068   0.990   8.140  0.3785 -0.4047  1.0329
 4180SOL    HW124002   1.041   1.080   8.122  1.1105 -0.0004  1.9569
 4180SOL    HW224003   0.999   0.956   8.197 -2.2779  1.6245 -0.9692
 4181SOL     OW24004   2.625   3.418   8.176 -0.4036  0.0141 -0.2971
 4181SOL    HW124005   2.538   3.453   8.157 -1.7505 -1.2032  3.4817
 4181SOL    HW224006   2.632   3.433   8.271  2.6258  3.3213 -1.0506
 4182SOL     OW24007   2.076   2.793   5.003 -0.0754  0.6018 -0.1315
 4182SOL    HW124008   2.038   2.837   5.079 -1.5251  0.0790 -0.5534
 4182SOL    HW224009   2.124   2.716   5.033  1.9203  1.8187 -0.2103
 4183SOL     OW24010   1.411   4.431   1.481 -0.1971 -0.3565 -0.0665
 4183SOL    HW124011   1.468   4.499   1.444 -2.0392  0.6322 -1.0887
 4183SOL    HW224012   1.455   4.412   1.564  0.3158 -0.9865 -0.4770
 4184SOL     OW24013   0.455   0.939   2.477 -0.2714  0.6275 -0.6108
 4184SOL    HW124014   0.496   0.854   2.462  0.7351  1.1352 -0.7427
 4184SOL    HW224015   0.406   0.939   2.395 -3.0506 -1.0041  1.0437
 4185SOL     OW24016   4.333   2.195   5.295 -0.2221  0.6819 -0.2210
 4185SOL    HW124017   4.414   2.197   5.347  0.8628  1.4780 -1.9717
 4185SOL    HW224018   4.283   2.138   5.354  2.5608 -1.0024  0.5160
 4186SOL     OW24019   1.758   4.033  16.372  0.3762  0.1190 -0.2329
 4186SOL    HW124020   1.768   3.978  16.293  0.3904  1.3504 -1.0904
 4186SOL    HW224021   1.678   3.992  16.405  1.3318  2.0345  4.3421
 4187SOL     OW24022   0.536   0.085   2.942 -0.3800  0.3050 -0.4076
 4187SOL    HW124023   0.582   0.009   2.978 -1.6356  0.2556  1.0867
 4187SOL    HW224024   0.590   0.158   2.972  0.9932  0.0089 -2.2291
 4188SOL     OW24025   1.456   2.878  16.861  0.2111 -0.1499  0.0027
 4188SOL    HW124026   1.418   2.936  16.795 -2.2400  1.2982  2.7115
 4188SOL    HW224027   1.548   2.903  16.849 -0.3034  1.7539  0.0805
 4189SOL     OW24028   2.410   3.332   4.239  0.2125  0.9025  0.5556
 4189SOL    HW124029   2.402   3.291   4.153 -2.2892  0.4680  1.0035
 4189SOL    HW224030   2.462   3.265   4.284  1.4875  1.3526 -0.2502
 4190SOL     OW24031   3.143   4.648  13.350  0.7674  0.6285 -0.2996
 4190SOL    HW124032   3.203   4.631  13.422 -0.5794  0.6774  0.8264
 4190SOL    HW224033   3.142   0.021  13.351 -1.2227  0.6073  0.9143
 4191SOL     OW24034   2.411   0.096   8.855  0.4876 -0.4004 -0.6098
 4191SOL    HW124035   2.354   0.040   8.907 -0.4693  1.3588  0.2155
 4191SOL    HW224036   2.431   0.170   8.914  0.7328 -1.1817  0.2863
 4192SOL     OW24037   2.551   0.196  16.443 -0.1112 -0.0971 -0.0177
 4192SOL    HW124038   2.502   0.123  16.406 -1.2687  1.2007 -1.0694
 4192SOL    HW224039   2.488   0.268  16.433  0.7973  0.8349  0.9682
 4193SOL     OW24040   1.319   2.657  10.381 -0.2408  0.2853  0.4846
 4193SOL    HW124041   1.351   2.728  10.326  0.8268 -1.2981 -0.9226
 4193SOL    HW224042   1.363   2.581  10.343  0.0359 -0.1347  1.6498
 4194SOL     OW24043   1.809   4.302   0.940 -0.8548  0.0159  0.3923
 4194SOL    HW124044   1.740   4.363   0.912 -3.3137 -2.8181  0.2479
 4194SOL    HW224045   1.849   4.357   1.008 -0.9086  1.5811 -0.8182
 4195SOL     OW24046   4.379   1.628  13.763 -0.4969 -0.3239  0.1333
 4195SOL    HW124047   4.422   1.578  13.832 -1.4248 -1.1216  0.1260
 4195SOL    HW224048   4.309   1.664  13.818 -0.6854 -2.2788  1.1647
 4196SOL     OW24049   1.565   3.665   3.929 -0.4201  0.3968  0.2003
 4196SOL    HW124050   1.487   3.617   3.957 -2.4952  2.0427 -2.8340
 4196SOL    HW224051   1.534   3.754   3.913 -0.3183  0.0874 -1.6738
 4197SOL     OW24052   0.481   2.511   9.080  0.1649 -0.6219 -0.2568
 4197SOL    HW124053   0.422   2.585   9.088 -1.2968 -1.5880 -2.0299
 4197SOL    HW224054   0.432   2.461   9.015  0.1060  0.3674 -0.9577
 4198SOL     OW24055   3.546   0.768   4.125 -0.2691  0.4960 -0.1791
 4198SOL    HW124056   3.526   0.692   4.071  2.0952  0.0696 -0.4625
 4198SOL    HW224057   3.634   0.785   4.090  0.3103  0.2317  1.1689
 4199SOL     OW24058   3.918   1.465   9.525 -0.2253  0.3104  0.2029
 4199SOL    HW124059   3.955   1.502   9.445  1.1970 -2.3801 -0.3804
 4199SOL    HW224060   3.840   1.520   9.522 -0.6450 -0.3813 -1.8207
 4200SOL     OW24061   0.756   3.771  17.305  0.2098  0.4835  0.0658
 4200SOL    HW124062   0.820   3.814  17.249 -0.2309 -0.8285 -1.4316
 4200SOL    HW224063   0.787   3.796  17.392  2.5409 -0.5734 -0.4405
 4201SOL     OW24064   3.440   3.629  15.115  0.6670  0.4479 -0.6918
 4201SOL    HW124065   3.512   3.625  15.052 -0.7656 -0.8926 -2.2663
 4201SOL    HW224066   3.373   3.609  15.050 -1.1733  0.2598  1.2877
 4202SOL     OW24067   1.472   0.943   5.371  0.6502  0.3122  0.1795
 4202SOL    HW124068   1.471   0.997   5.292 -0.7474  0.1435  0.0793
 4202SOL    HW224069   1.552   0.893   5.359  0.0591 -0.5409 -0.2696
 4203SOL     OW24070   4.265   1.026   6.862 -0.4760  0.2661 -0.2298
 4203SOL    HW124071   4.187   1.019   6.918  0.0452  3.2922  0.8411
 4203SOL    HW224072   4.304   1.109   6.891  1.1143 -0.1988 -1.0814
 4204SOL     OW24073   2.575   0.614   7.508  0.5788 -0.0014  0.1804
 4204SOL    HW124074   2.573   0.537   7.452  2.7327  0.8454 -1.0366
 4204SOL    HW224075   2.497   0.654   7.468  0.7510  1.4929  1.3204
 4205SOL     OW24076   2.428   3.038  15.127 -0.2043  0.0213 -0.4411
 4205SOL    HW124077   2.485   3.103  15.085  2.5239 -1.4303  0.9857
 4205SOL    HW224078   2.482   2.959  15.122 -1.7354 -0.9732 -1.3776
 4206SOL     OW24079   0.974   3.814  11.241 -0.4340 -0.1049  0.1782
 4206SOL    HW124080   0.944   3.723  11.244 -3.1278  0.7146 -1.7020
 4206SOL    HW224081   0.989   3.830  11.334  1.0451  0.6031 -0.1784
 4207SOL     OW24082   2.164   3.298   2.663  0.5695  0.0786  0.1421
 4207SOL    HW124083   2.096   3.357   2.698  0.5760 -0.8736  1.7779
 4207SOL    HW224084   2.191   3.339   2.581 -0.2911  0.2482 -0.0639
 4208SOL     OW24085   2.903   2.073   7.466  0.3719 -0.7110  0.0389
 4208SOL    HW124086   2.872   2.120   7.544 -1.4016  1.9746 -2.2831
 4208SOL    HW224087   2.838   2.003   7.461  1.1518 -1.5115  1.0352
 4209SOL     OW24088   2.524   0.161   9.485 -0.2431 -0.0070  0.1214
 4209SOL    HW124089   2.492   0.072   9.475 -1.3707  0.6161 -1.9200
 4209SOL    HW224090   2.590   0.154   9.554  0.2145 -1.8124 -0.5048
 4210SOL     OW24091   2.441   4.667   7.558 -0.0719 -0.2361 -0.2189
 4210SOL    HW124092   2.481   4.653   7.644 -2.1492 -0.9992  0.6269
 4210SOL    HW224093   2.426   0.039   7.565 -1.4204 -0.3496 -1.4073
 4211SOL     OW24094   2.155   3.685   7.730  0.3323 -0.6287 -0.0086
 4211SOL    HW124095   2.153   3.774   7.767  0.8741 -0.2181 -0.9813
 4211SOL    HW224096   2.187   3.643   7.810 -2.3874  0.3737  1.6035
 4212SOL     OW24097   0.541   1.376   6.491 -0.0504  0.5937 -0.1655
 4212SOL    HW124098   0.474   1.312   6.515 -1.4409  1.4443 -1.7732
 4212SOL    HW224099   0.529   1.447   6.554 -2.9662 -0.6707  0.7222
 4213SOL     OW24100   0.273   2.352   8.942 -0.0815 -0.2105 -0.2151
 4213SOL    HW124101   0.282   2.339   9.037  0.5319 -0.7320 -0.3434
 4213SOL    HW224102   0.191   2.401   8.933  0.1126  0.1919  0.1929
 4214SOL     OW24103   0.490   0.566  11.339  0.1049  0.5977 -0.0489
 4214SOL    HW124104   0.443   0.549  11.257  0.1649  0.9455 -0.1566
 4214SOL    HW224105   0.492   0.662  11.340 -0.8342  0.6469 -1.8139
 4215SOL     OW24106   3.804   3.856   8.648 -0.7254  0.1081  0.1700
 4215SOL    HW124107   3.849   3.927   8.694  1.3187 -0.7471 -0.4809
 4215SOL    HW224108   3.826   3.877   8.557  0.2535 -1.4150  0.0403
 4216SOL     OW24109   1.236   0.126  15.902  0.0209 -0.3374  0.3052
 4216SOL    HW124110   1.236   0.210  15.856 -2.1077 -1.2599 -1.3600
 4216SOL    HW224111   1.146   0.116  15.934 -0.3249  2.2061  0.1565
 4217SOL     OW24112   3.564   4.671  11.079 -0.5196  0.6521 -0.4272
 4217SOL    HW124113   3.611   0.011  11.024 -0.6585  1.9659  0.9203
 4217SOL    HW224114   3.540   0.009  11.150 -1.1229  0.6421 -0.6145
 4218SOL     OW24115   1.088   4.227  15.716 -0.4567 -0.2200 -0.2951
 4218SOL    HW124116   1.062   4.152  15.662  0.9301 -0.0119 -1.2417
 4218SOL    HW224117   1.057   4.199  15.802  0.1285 -0.7251 -0.2556
 4219SOL     OW24118   4.188   2.571  10.141 -0.0486 -0.3640 -0.3495
 4219SOL    HW124119   4.169   2.545  10.051  0.0124 -2.0244  0.1247
 4219SOL    HW224120   4.107   2.616  10.165  0.4264 -0.8815  2.2079
 4220SOL     OW24121   3.837   4.415  17.472 -0.3494  0.4410 -0.1281
 4220SOL    HW124122   3.771   4.424  17.403 -1.8284 -0.8689  1.0905
 4220SOL    HW224123   3.893   4.353  17.425  0.0253  1.2313 -0.7235
 4221SOL     OW24124   2.277   2.404   3.612 -0.1022  0.6127 -0.2553
 4221SOL    HW124125   2.234   2.436   3.692  0.7986  1.2831 -0.0413
 4221SOL    HW224126   2.368   2.399   3.642 -0.4095 -0.1035  0.5618
 4222SOL     OW24127   3.820   0.729   4.012  0.3357 -0.3967 -0.3177
 4222SOL    HW124128   3.851   0.806   3.964  0.9522 -1.5523 -1.7539
 4222SOL    HW224129   3.862   0.739   4.097 -2.1151  0.7057  0.7765
 4223SOL     OW24130   4.521   0.627   9.995  0.4646 -0.0842 -0.4099
 4223SOL    HW124131   4.455   0.568  10.031 -0.0648  0.5268 -0.3664
 4223SOL    HW224132   4.574   0.656  10.070 -2.4159 -0.2393  1.6618
 4224SOL     OW24133   3.903   1.970   4.417 -0.3515  0.2094 -0.0432
 4224SOL    HW124134   3.990   1.984   4.455 -0.0216  0.8318 -1.0420
 4224SOL    HW224135   3.906   1.874   4.416 -2.4741  0.1686 -1.2139
 4225SOL     OW24136   1.227   4.054   9.353  0.2584  0.4208  0.1583
 4225SOL    HW124137   1.197   3.963   9.358 -0.5644  0.7011  0.3992
 4225SOL    HW224138   1.263   4.061   9.264 -3.6140  1.9149 -1.3021
 4226SOL     OW24139   4.385   3.461   2.651 -0.5662  0.3111 -0.0135
 4226SOL    HW124140   4.427   3.391   2.699  2.3684  1.4139 -0.9765
 4226SOL    HW224141   4.457   3.524   2.659 -1.0753  0.8435  0.4602
 4227SOL     OW24142   4.332   3.621   1.372 -0.6009 -0.2814  1.0693
 4227SOL    HW124143   4.301   3.644   1.460  0.0288 -0.7643  1.4217
 4227SOL    HW224144   4.384   3.548   1.405  0.5305  0.0887  0.1319
 4228SOL     OW24145   1.584   3.283   6.708 -0.3499 -0.3046  0.0781
 4228SOL    HW124146   1.507   3.263   6.654 -0.9397  1.0304  0.4220
 4228SOL    HW224147   1.576   3.223   6.782  1.1871  1.8682  1.9812
 4229SOL     OW24148   4.362   1.110  14.539  0.4245 -0.0322  0.3556
 4229SOL    HW124149   4.386   1.020  14.559  1.7884  0.6604  1.8043
 4229SOL    HW224150   4.446   1.139  14.502 -0.2952  0.9838 -0.4759
 4230SOL     OW24151   4.151   2.236   9.667 -0.4907  0.6022 -1.1064
 4230SOL    HW124152   4.154   2.232   9.763  2.5088  0.6994 -1.1873
 4230SOL    HW224153   4.191   2.152   9.643  0.0033  0.7242 -0.7007
 4231SOL     OW24154   0.183   3.210   6.043 -0.2270 -0.4962  0.2200
 4231SOL    HW124155   0.195   3.304   6.026 -0.7309 -0.3862  0.4472
 4231SOL    HW224156   0.275   3.189   6.056  0.1849  1.3955  0.3878
 4232SOL     OW24157   2.214   1.200  11.126 -0.3727  0.0127 -0.0563
 4232SOL    HW124158   2.123   1.230  11.127  0.3622  2.2157  0.8367
 4232SOL    HW224159   2.226   1.182  11.033 -0.1443  0.3319 -0.0910
 4233SOL     OW24160   0.553   2.659  16.405  0.2624 -0.0204  0.3862
 4233SOL    HW124161   0.618   2.708  16.454 -0.1705  0.0150  0.9292
 4233SOL    HW224162   0.521   2.719  16.338  0.9747 -0.1899 -0.1061
 4234SOL     OW24163   4.424   2.341   3.339 -0.4954  0.2149  0.2158
 4234SOL    HW124164   4.347   2.298   3.300 -1.5648  2.0782  0.2504
 4234SOL    HW224165   4.451   2.284   3.410 -1.2878 -0.3100  0.0935
 4235SOL     OW24166   0.155   4.523   3.520  0.1670 -0.0820  0.7112
 4235SOL    HW124167   0.123   4.610   3.544  0.9446  0.1008  1.0574
 4235SOL    HW224168   0.247   4.531   3.545  0.1677  0.5023  0.5133
 4236SOL     OW24169   3.892   0.660   6.427 -0.3579  0.4428 -0.1671
 4236SOL    HW124170   3.892   0.564   6.429  2.1503  0.4561 -0.0830
 4236SOL    HW224171   3.799   0.682   6.433 -0.4283  0.1424 -0.1739
 4237SOL     OW24172   0.399   2.575   9.676  0.3691  0.0940  0.6331
 4237SOL    HW124173   0.321   2.562   9.621  1.4635 -0.6006 -0.7570
 4237SOL    HW224174   0.471   2.572   9.613  1.0334 -0.2194  1.4218
 4238SOL     OW24175   4.111   2.012   2.212  0.0472 -0.1391 -0.3662
 4238SOL    HW124176   4.048   2.075   2.176  0.2868  1.4125  1.8917
 4238SOL    HW224177   4.177   2.023   2.143 -0.2402 -0.5147 -0.7042
 4239SOL     OW24178   3.268   1.565   3.234 -0.1393 -0.3612  0.0533
 4239SOL    HW124179   3.204   1.628   3.268 -1.3276 -1.3154 -0.4294
 4239SOL    HW224180   3.339   1.627   3.218 -0.9442  0.6339  0.3401
 4240SOL     OW24181   0.082   4.608   7.716 -0.5424 -0.4242  0.2270
 4240SOL    HW124182   0.109   4.652   7.635 -1.7039 -1.0927 -0.5287
 4240SOL    HW224183   0.100   4.521   7.681 -2.2630 -0.0822 -1.5542
 4241SOL     OW24184   2.507   3.107   1.221  0.6242 -0.0576  0.3179
 4241SOL    HW124185   2.473   3.142   1.139  0.9352 -0.4747  0.0100
 4241SOL    HW224186   2.443   3.039   1.239 -0.1277  0.1526 -1.5806
 4242SOL     OW24187   1.146   3.559   3.668 -0.7043 -0.0173  0.1316
 4242SOL    HW124188   1.070   3.556   3.727 -0.1089  0.5198  0.9199
 4242SOL    HW224189   1.093   3.576   3.590 -1.2280 -0.8296  0.3026
 4243SOL     OW24190   0.440   1.269   7.367  0.4679  0.1045 -0.6618
 4243SOL    HW124191   0.398   1.226   7.442  0.2165  1.5209  0.0124
 4243SOL    HW224192   0.438   1.358   7.402  2.4876 -0.4559  0.8656
 4244SOL     OW24193   1.671   3.989   2.544  0.1026  0.5389 -0.3734
 4244SOL    HW124194   1.641   3.954   2.628  0.0714 -0.7134 -0.9077
 4244SOL    HW224195   1.716   4.064   2.585  0.9815 -0.0669 -0.2242
 4245SOL     OW24196   3.804   2.615   8.074 -0.2575 -0.5851  0.2186
 4245SOL    HW124197   3.844   2.610   8.161  0.8954  4.2499  0.0117
 4245SOL    HW224198   3.803   2.711   8.069  2.3517 -0.4890  1.5006
 4246SOL     OW24199   0.726   0.426  11.250 -0.0832 -0.0446 -0.0387
 4246SOL    HW124200   0.751   0.443  11.160 -0.5184  0.8550  0.0144
 4246SOL    HW224201   0.670   0.500  11.275 -0.0869 -0.0398 -0.0612
 4247SOL     OW24202   0.476   4.449  10.932  0.4587 -0.2054  0.4096
 4247SOL    HW124203   0.510   4.367  10.894 -0.6371 -0.1718 -0.6352
 4247SOL    HW224204   0.430   4.405  11.004  0.8667 -1.6932 -0.2299
 4248SOL     OW24205   1.516   4.633   0.368 -0.4082  0.6880 -0.4732
 4248SOL    HW124206   1.450   4.675   0.313  0.1110 -1.1813 -2.5023
 4248SOL    HW224207   1.584   4.608   0.306 -1.1940  0.4997 -1.2552
 4249SOL     OW24208   2.160   2.278   6.875 -0.2401 -0.1061  0.3680
 4249SOL    HW124209   2.073   2.294   6.911 -1.0597 -1.2387 -1.0663
 4249SOL    HW224210   2.217   2.322   6.937 -0.2052  0.0210  0.2468
 4250SOL     OW24211   3.216   4.010   5.716  0.6674 -0.2365  0.3860
 4250SOL    HW124212   3.280   4.058   5.769 -0.5646  1.7123  0.0936
 4250SOL    HW224213   3.220   3.928   5.766  3.6627 -1.0792 -1.2606
 4251SOL     OW24214   0.093   0.314   7.061  0.3022  0.1781 -0.2467
 4251SOL    HW124215   0.036   0.356   6.996 -0.0087  2.0045  1.1938
 4251SOL    HW224216   0.043   0.234   7.077  1.2972 -0.6622 -1.2858
 4252SOL     OW24217   2.644   0.615   3.107 -0.3834 -0.1497  0.1521
 4252SOL    HW124218   2.632   0.549   3.175 -1.2247  1.0511  1.1619
 4252SOL    HW224219   2.577   0.583   3.046 -0.4562  3.9228 -1.9113
 4253SOL     OW24220   2.474   2.231  11.353 -0.0728 -0.3294 -0.0447
 4253SOL    HW124221   2.475   2.237  11.449  0.1704  1.0934 -0.1317
 4253SOL    HW224222   2.417   2.154  11.347 -2.6105  1.6384 -0.8665
 4254SOL     OW24223   2.174   0.075   2.855 -0.0986 -0.0664  0.1268
 4254SOL    HW124224   2.219   0.005   2.808  1.4047 -0.0454  1.5576
 4254SOL    HW224225   2.109   0.093   2.787 -1.8876 -1.2472  1.4884
 4255SOL     OW24226   3.964   3.320   8.036  1.2240  0.0525  0.7078
 4255SOL    HW124227   3.971   3.407   8.077  1.4232  0.0468  0.6870
 4255SOL    HW224228   4.059   3.307   8.043  1.5444  2.0035 -0.0227
 4256SOL     OW24229   0.308   1.820   6.119  0.4644 -0.2093 -0.1178
 4256SOL    HW124230   0.262   1.850   6.197 -1.3929 -4.1564  0.3520
 4256SOL    HW224231   0.393   1.785   6.144 -0.6638 -1.5392  1.8662
 4257SOL     OW24232   3.194   0.372   2.817 -0.0176 -0.3084  0.5336
 4257SOL    HW124233   3.274   0.412   2.851  0.4404 -0.5400 -0.2885
 4257SOL    HW224234   3.138   0.450   2.816  0.6113  0.1597  1.3374
 4258SOL     OW24235   4.425   1.317   4.765 -0.7300 -0.8800  0.0104
 4258SOL    HW124236   4.341   1.359   4.785  0.5218  1.7386 -0.2256
 4258SOL    HW224237   4.427   1.307   4.670 -1.8056 -0.5603 -0.0437
 4259SOL     OW24238   3.654   0.716   8.785 -0.4467  0.5288 -0.0643
 4259SOL    HW124239   3.596   0.722   8.708  0.4610 -0.7774 -0.8522
 4259SOL    HW224240   3.685   0.806   8.797  0.1573  0.2146  0.6921
 4260SOL     OW24241   2.036   0.870  10.427  0.2039 -1.0783  0.2240
 4260SOL    HW124242   2.064   0.898  10.340 -1.2240 -0.2039  0.0454
 4260SOL    HW224243   2.120   0.838  10.459  0.1389  0.5075  1.9224
 4261SOL     OW24244   4.578   1.392   7.819 -0.7636  0.3902  0.1764
 4261SOL    HW124245   4.527   1.462   7.860 -2.4033 -1.8516  1.9420
 4261SOL    HW224246   4.623   1.363   7.898  0.0336 -0.7424 -0.6964
 4262SOL     OW24247   4.240   1.855   5.173  0.2596 -0.4941 -0.3881
 4262SOL    HW124248   4.163   1.898   5.209  0.5688  1.8485 -2.4951
 4262SOL    HW224249   4.248   1.778   5.230  0.5124  0.4089  0.7837
 4263SOL     OW24250   2.375   3.250   8.716  0.4325  0.0840  0.5915
 4263SOL    HW124251   2.417   3.238   8.631 -0.1759 -0.1354  0.3269
 4263SOL    HW224252   2.349   3.342   8.707  0.6087  0.0282 -0.4319
 4264SOL     OW24253   0.010   3.381   2.259 -0.6064 -0.3251  0.2376
 4264SOL    HW124254   4.641   3.381   2.289 -0.2404  0.7010  1.3611
 4264SOL    HW224255   0.003   3.441   2.185  0.5391 -1.8321 -1.0796
 4265SOL     OW24256   4.094   2.188   3.798 -0.2382  0.3354 -0.3135
 4265SOL    HW124257   4.037   2.253   3.758  0.1365  1.1308  0.4492
 4265SOL    HW224258   4.143   2.239   3.862 -0.9541 -0.0939  0.5638
 4266SOL     OW24259   1.030   0.248  11.020 -0.1459  0.0387 -0.1426
 4266SOL    HW124260   1.017   0.340  11.043 -2.6528 -0.4787  0.5519
 4266SOL    HW224261   0.938   0.224  11.028 -0.4199  1.7188  1.7223
 4267SOL     OW24262   3.437   4.182   5.359 -0.0073 -0.3702  0.2943
 4267SOL    HW124263   3.493   4.111   5.392 -2.1688 -1.9859  0.4600
 4267SOL    HW224264   3.498   4.225   5.299 -1.3664  0.1703 -0.6830
 4268SOL     OW24265   1.158   1.109   5.615 -0.1757  0.2484  0.6032
 4268SOL    HW124266   1.216   1.111   5.538 -1.3552 -1.2878 -0.3316
 4268SOL    HW224267   1.163   1.015   5.634 -1.6042  0.0683  0.0398
 4269SOL     OW24268   4.162   0.250   7.744 -0.2166  0.1218 -0.0934
 4269SOL    HW124269   4.131   0.328   7.698  1.3186  0.9235  0.2377
 4269SOL    HW224270   4.084   0.197   7.758 -0.7910  0.4217 -2.1895
 4270SOL     OW24271   4.500   4.377   5.191  0.0113 -0.5502  0.1421
 4270SOL    HW124272   4.521   4.308   5.128  0.6995 -0.3954  0.1979
 4270SOL    HW224273   4.405   4.385   5.188  0.2458  2.6428  1.0409
 4271SOL     OW24274   2.196   3.914   6.797 -0.2970  0.7547  0.2861
 4271SOL    HW124275   2.211   3.863   6.877 -0.6816  0.8945  0.4454
 4271SOL    HW224276   2.109   3.951   6.810 -0.8203 -0.1055 -0.7504
 4272SOL     OW24277   3.309   3.396  13.519 -0.3538 -0.5953  0.0038
 4272SOL    HW124278   3.398   3.366  13.535 -0.3756 -0.9398 -0.5099
 4272SOL    HW224279   3.282   3.431  13.604  0.2272 -2.6083  1.0220
 4273SOL     OW24280   2.601   0.242   4.782 -0.0808  0.0699  0.0684
 4273SOL    HW124281   2.610   0.260   4.689 -2.8020 -0.5449 -0.3001
 4273SOL    HW224282   2.690   0.250   4.817 -0.1291 -0.5211  0.3369
 4274SOL     OW24283   3.679   1.176   7.161 -0.1683 -0.5156  0.0631
 4274SOL    HW124284   3.648   1.086   7.155  2.1731 -1.3735  0.6523
 4274SOL    HW224285   3.596   1.218   7.141  1.5216  1.2802 -3.2103
 4275SOL     OW24286   4.157   0.831   2.507  0.0421  0.6902  0.3756
 4275SOL    HW124287   4.100   0.764   2.546  0.5087  0.8469  1.3190
 4275SOL    HW224288   4.140   0.805   2.417 -0.6649 -2.5869  1.4344
 4276SOL     OW24289   0.375   3.636   8.466 -0.3850 -0.3653 -0.4551
 4276SOL    HW124290   0.456   3.614   8.513 -1.0761  0.8700  1.3377
 4276SOL    HW224291   0.325   3.653   8.545  0.8199 -2.6194  0.8026
 4277SOL     OW24292   3.772   3.982   2.570 -0.8739 -0.1205  0.8417
 4277SOL    HW124293   3.843   3.924   2.543  0.5117  2.0457 -0.1702
 4277SOL    HW224294   3.747   4.026   2.488 -2.1472 -0.4850  1.0351
 4278SOL     OW24295   1.269   0.429  14.620  0.1005  0.3149 -0.5143
 4278SOL    HW124296   1.181   0.432  14.657 -0.6795 -0.2270 -2.3189
 4278SOL    HW224297   1.294   0.511  14.662 -2.1889  0.2911  0.8833
 4279SOL     OW24298   2.197   4.685   3.961 -0.4441  0.0618  0.1268
 4279SOL    HW124299   2.176   4.602   3.919 -3.4083  1.2336 -0.7240
 4279SOL    HW224300   2.173   4.668   4.052 -0.2029  1.3963  0.4462
 4280SOL     OW24301   1.405   0.587   0.627  0.4596 -0.0773  0.1582
 4280SOL    HW124302   1.390   0.601   0.720  4.8340 -0.5298  0.9241
 4280SOL    HW224303   1.453   0.504   0.633 -1.1346 -0.8714  1.5546
 4281SOL     OW24304   4.640   4.137   3.987 -0.1133 -0.0912 -0.0742
 4281SOL    HW124305   4.546   4.139   3.966 -0.2472  0.1028  0.5511
 4281SOL    HW224306   4.658   4.165   3.897  3.4602 -0.9452  0.3935
 4282SOL     OW24307   3.023   0.944   6.989  0.6405  0.4337 -0.0830
 4282SOL    HW124308   2.947   0.955   6.932  0.5175 -1.7433 -0.3480
 4282SOL    HW224309   3.023   0.848   6.986  1.0236  0.4064  0.7793
 4283SOL     OW24310   4.310   2.593  14.428 -0.0883 -0.2440  0.0549
 4283SOL    HW124311   4.353   2.606  14.512  1.0089 -2.0114 -0.2224
 4283SOL    HW224312   4.221   2.570  14.453 -0.7622  2.9533  0.5639
 4284SOL     OW24313   4.193   2.310   5.760  0.1641  0.5972  0.3784
 4284SOL    HW124314   4.102   2.337   5.766  0.5758  1.9519  0.4283
 4284SOL    HW224315   4.201   2.256   5.839  1.4782  2.9012  1.8385
 4285SOL     OW24316   2.089   1.532   2.894  0.0752  0.2529 -0.0717
 4285SOL    HW124317   1.995   1.523   2.912  0.5176 -0.5137  1.8034
 4285SOL    HW224318   2.087   1.545   2.799 -2.0682  0.9731  0.0756
 4286SOL     OW24319   1.657   3.187  10.444 -0.2713 -0.4338  0.2099
 4286SOL    HW124320   1.681   3.186  10.536 -0.4396  2.0784  0.2895
 4286SOL    HW224321   1.563   3.202  10.446 -0.5987 -1.9579 -3.6754
 4287SOL     OW24322   1.326   1.518   9.316 -0.1403  0.0662  0.2841
 4287SOL    HW124323   1.411   1.478   9.332  0.2002 -0.4768 -3.0499
 4287SOL    HW224324   1.264   1.448   9.337  2.0223 -1.4380  1.6767
 4288SOL     OW24325   2.349   1.813  10.873  0.3902  0.3957 -0.2604
 4288SOL    HW124326   2.361   1.882  10.807  2.2233  0.7642  0.4518
 4288SOL    HW224327   2.430   1.814  10.923  1.5346 -0.5068 -2.0698
 4289SOL     OW24328   1.677   0.342   5.249  0.4896 -0.1162 -0.0408
 4289SOL    HW124329   1.670   0.247   5.240  0.6829 -0.1618  0.2591
 4289SOL    HW224330   1.750   0.349   5.311  0.9281  0.9014 -0.6746
 4290SOL     OW24331   4.478   3.701  10.115  0.7989 -0.2129  0.2333
 4290SOL    HW124332   4.496   3.795  10.126 -1.8322  0.3399 -0.1924
 4290SOL    HW224333   4.387   3.707  10.143  0.6244 -0.2816 -0.3148
 4291SOL     OW24334   1.778   0.440   6.589 -0.0343  0.2570 -0.6411
 4291SOL    HW124335   1.692   0.472   6.618  1.9322  1.5363  3.7428
 4291SOL    HW224336   1.756   0.349   6.610  0.2241  0.7549  1.8164
 4292SOL     OW24337   0.670   1.473   3.925  0.4650  0.3708  0.1280
 4292SOL    HW124338   0.691   1.383   3.901  1.8260  0.8225 -0.3957
 4292SOL    HW224339   0.631   1.456   4.011 -0.9331 -0.2733 -0.6206
 4293SOL     OW24340   2.125   1.049   6.838 -0.8188  0.0544  0.3379
 4293SOL    HW124341   2.055   1.070   6.900 -0.6319 -2.1801  1.2908
 4293SOL    HW224342   2.193   1.112   6.862 -1.4601 -0.0499  2.4570
 4294SOL     OW24343   1.972   3.707  17.109  0.1001 -0.1869 -0.5644
 4294SOL    HW124344   2.039   3.683  17.174 -0.0306 -0.8757 -0.6829
 4294SOL    HW224345   1.903   3.660  17.156  0.2931  0.9377  0.8461
 4295SOL     OW24346   0.430   0.545   3.096  0.1874 -0.7377 -0.3549
 4295SOL    HW124347   0.343   0.545   3.134  0.6062 -0.7823  0.6021
 4295SOL    HW224348   0.480   0.510   3.169 -0.5279 -1.0349 -0.0095
 4296SOL     OW24349   2.291   2.428  11.471 -0.0572 -0.1382  0.2541
 4296SOL    HW124350   2.227   2.461  11.408  0.4202  1.7251  0.7639
 4296SOL    HW224351   2.357   2.393  11.411 -1.1096 -0.6292 -0.6330
 4297SOL     OW24352   3.838   2.531   0.878 -0.0203 -0.0049  0.2387
 4297SOL    HW124353   3.924   2.536   0.920 -1.4302 -0.1065  3.1324
 4297SOL    HW224354   3.869   2.542   0.788  0.7004  1.0254  0.6150
 4298SOL     OW24355   3.147   1.113  10.170  0.0998 -0.1607 -0.3509
 4298SOL    HW124356   3.132   1.139  10.079  2.1693  1.8272 -0.1367
 4298SOL    HW224357   3.067   1.153  10.205 -2.3262 -2.7609 -3.0613
 4299SOL     OW24358   2.435   4.295   6.890 -0.2187  0.1052 -0.6088
 4299SOL    HW124359   2.484   4.213   6.899 -1.7999 -0.7775 -0.0569
 4299SOL    HW224360   2.496   4.339   6.830  0.9783 -1.6713 -0.6978
 4300SOL     OW24361   0.203   2.274   6.970 -0.4604 -0.7712 -0.2317
 4300SOL    HW124362   0.226   2.311   7.056  0.4792  0.6357 -1.0933
 4300SOL    HW224363   0.214   2.180   6.986  0.1202 -0.8986 -1.3866
 4301SOL     OW24364   3.022   1.195   4.317 -0.1987 -0.4772 -0.3691
 4301SOL    HW124365   2.997   1.164   4.230 -0.1864 -0.4540 -0.3810
 4301SOL    HW224366   2.951   1.258   4.328  0.1916 -0.1006  0.0029
 4302SOL     OW24367   0.101   1.043   7.648  0.5886 -0.3675 -0.3499
 4302SOL    HW124368   0.033   0.985   7.683  1.3647  0.9502  3.4319
 4302SOL    HW224369   0.046   1.111   7.610  0.6347 -0.0472  0.1525
 4303SOL     OW24370   1.378   0.980  16.413  0.5064 -0.7778 -0.2519
 4303SOL    HW124371   1.447   1.031  16.370  1.7031 -1.4896  0.8220
 4303SOL    HW224372   1.364   1.016  16.501 -1.0021 -0.7778 -0.4890
 4304SOL     OW24373   3.712   0.567   2.924 -0.3810  0.2896  0.1759
 4304SOL    HW124374   3.667   0.536   2.846  1.3952  2.5822 -1.7578
 4304SOL    HW224375   3.647   0.617   2.974 -0.4808  1.1766 -0.8239
 4305SOL     OW24376   4.111   1.925   4.645  0.4566  0.3466 -0.0096
 4305SOL    HW124377   4.140   1.836   4.622 -0.5400 -0.4592  1.7968
 4305SOL    HW224378   4.120   1.907   4.739 -1.4139  0.4685  0.1914
 4306SOL     OW24379   3.804   3.592   2.343  0.4895 -0.1236 -0.4361
 4306SOL    HW124380   3.788   3.679   2.381  0.7398 -0.3294  0.1370
 4306SOL    HW224381   3.798   3.548   2.428  1.3075 -1.0681 -0.8686
 4307SOL     OW24382   1.173   3.763   0.169  0.0930 -0.2180 -0.0618
 4307SOL    HW124383   1.083   3.782   0.142 -0.4744 -0.9329  1.3622
 4307SOL    HW224384   1.202   3.748   0.079 -2.1067  1.4358 -1.0530
 4308SOL     OW24385   3.616   2.203  12.590 -0.0395 -0.3583  0.0780
 4308SOL    HW124386   3.654   2.126  12.548  0.6702 -0.6069  1.1680
 4308SOL    HW224387   3.550   2.228  12.526 -0.7367 -1.5122  0.3522
 4309SOL     OW24388   3.956   1.943   6.003 -0.3432  0.5773 -0.1269
 4309SOL    HW124389   4.016   1.983   5.939 -0.6438 -0.5135 -1.0741
 4309SOL    HW224390   3.936   1.857   5.967  3.3458 -0.1980 -0.2939
 4310SOL     OW24391   2.149   4.003   3.486  0.2491  0.2707  0.0608
 4310SOL    HW124392   2.244   3.997   3.480  0.3148  0.7075  0.7494
 4310SOL    HW224393   2.137   3.965   3.399 -1.9388  2.2349 -0.4819
 4311SOL     OW24394   2.331   1.956   2.337  0.1475  0.3491 -0.0838
 4311SOL    HW124395   2.296   1.898   2.269  2.8376 -1.0249 -0.2878
 4311SOL    HW224396   2.316   2.042   2.297 -0.3128  0.7686  1.0001
 4312SOL     OW24397   0.409   1.013   1.632 -0.4760 -0.1880 -0.4311
 4312SOL    HW124398   0.473   0.998   1.562  0.0022 -0.3257  0.0383
 4312SOL    HW224399   0.450   1.084   1.682 -1.4343  1.5574 -2.1202
 4313SOL     OW24400   0.178   4.313   4.970 -0.6882 -0.2958  0.1791
 4313SOL    HW124401   0.218   4.399   4.989  1.9292 -1.5294  0.2988
 4313SOL    HW224402   0.142   4.332   4.884  2.1240  0.9796 -0.7055
 4314SOL     OW24403   3.180   3.388  15.269  0.2497 -0.0549  0.3141
 4314SOL    HW124404   3.200   3.405  15.177 -1.2125  1.8252  0.3503
 4314SOL    HW224405   3.258   3.430  15.306  0.6889 -1.0925  0.5804
 4315SOL     OW24406   0.920   1.177  14.798 -0.3412  0.2329  0.5337
 4315SOL    HW124407   0.840   1.131  14.772  0.5585  0.0719 -1.9609
 4315SOL    HW224408   0.907   1.203  14.889  0.0886  1.0799  0.3462
 4316SOL     OW24409   3.850   3.296   2.142 -0.4029 -0.4696  0.2438
 4316SOL    HW124410   3.930   3.297   2.090 -1.4683  1.5690 -1.3267
 4316SOL    HW224411   3.879   3.266   2.228  1.9019  0.3212 -0.2629
 4317SOL     OW24412   0.231   2.802   8.818  0.6627 -0.1591  0.0683
 4317SOL    HW124413   0.179   2.736   8.773  0.2439 -1.5334  2.5544
 4317SOL    HW224414   0.159   2.863   8.835 -0.1489 -0.1749 -3.4498
 4318SOL     OW24415   1.210   0.538   5.275  0.3790 -0.4943  0.4595
 4318SOL    HW124416   1.196   0.621   5.321 -2.4498 -1.3458  1.1719
 4318SOL    HW224417   1.302   0.517   5.294  0.6708 -0.2878 -0.7852
 4319SOL     OW24418   0.152   1.503   7.576  0.4846  0.0421  0.4040
 4319SOL    HW124419   0.059   1.527   7.586 -0.2260 -3.0982  1.5275
 4319SOL    HW224420   0.174   1.519   7.668 -0.9701 -0.1826  0.7981
 4320SOL     OW24421   4.155   2.005   2.859  0.1925 -0.2901  0.5622
 4320SOL    HW124422   4.213   2.020   2.934  1.9201 -0.6767 -0.6918
 4320SOL    HW224423   4.206   2.063   2.802  0.5968 -2.1817 -0.9944
 4321SOL     OW24424   3.451   3.423   0.847  0.5671  0.5084 -0.2063
 4321SOL    HW124425   3.524   3.401   0.904  0.7277 -1.9334 -1.3413
 4321SOL    HW224426   3.395   3.345   0.841 -0.8226  1.4786  0.1168
 4322SOL     OW24427   0.935   3.282   9.588 -0.1545  0.3850  0.2329
 4322SOL    HW124428   0.934   3.187   9.579 -0.6585  0.2655  1.5295
 4322SOL    HW224429   1.018   3.299   9.544 -1.3745 -2.1747 -3.0409
 4323SOL     OW24430   0.021   3.737   7.640  0.3546 -0.8133  0.8277
 4323SOL    HW124431   4.692   3.809   7.676  0.0081 -1.0925  0.8916
 4323SOL    HW224432   0.012   3.682   7.718  3.6744  0.0604  1.8566
 4324SOL     OW24433   2.492   1.478   3.518  0.2592  0.2788 -0.5962
 4324SOL    HW124434   2.398   1.493   3.506 -0.5414 -2.8294  1.8938
 4324SOL    HW224435   2.508   1.396   3.472  0.6291 -1.5348  2.7034
 4325SOL     OW24436   3.268   4.031  11.157  0.4372 -0.2540  0.3445
 4325SOL    HW124437   3.275   4.020  11.252  1.3623 -0.7145  0.2131
 4325SOL    HW224438   3.272   3.942  11.124  0.3456 -0.3792  0.6655
 4326SOL     OW24439   3.988   1.298   7.570 -0.0028 -0.9386  0.4245
 4326SOL    HW124440   4.001   1.380   7.618 -2.1492 -0.4989  0.2581
 4326SOL    HW224441   3.912   1.271   7.622  0.3308 -1.1202  0.8182
 4327SOL     OW24442   1.815   3.325   8.771 -0.0832 -0.1065  0.8208
 4327SOL    HW124443   1.828   3.419   8.786 -2.0102  0.7310 -2.7139
 4327SOL    HW224444   1.883   3.318   8.704 -0.0781 -0.9301  0.9118
 4328SOL     OW24445   1.546   1.343   9.310 -0.1950  0.2383 -0.1902
 4328SOL    HW124446   1.494   1.271   9.274  0.1864  0.0184 -0.2972
 4328SOL    HW224447   1.590   1.307   9.387 -0.1417  0.6215 -0.0445
 4329SOL     OW24448   3.558   0.795   6.596  0.0472  0.0799 -0.0689
 4329SOL    HW124449   3.550   0.717   6.540  2.1237 -1.8948  2.4114
 4329SOL    HW224450   3.641   0.838   6.576  0.4573 -1.2732 -1.2392
 4330SOL     OW24451   1.699   1.727   5.140 -0.0603  0.1721 -0.3044
 4330SOL    HW124452   1.687   1.635   5.161  1.0377  0.0777 -0.0948
 4330SOL    HW224453   1.716   1.765   5.226 -2.2161 -0.6557  0.4964
 4331SOL     OW24454   3.284   1.927   1.855  0.3121  0.2011 -0.0648
 4331SOL    HW124455   3.280   1.884   1.941 -2.6295  1.3359  0.3895
 4331SOL    HW224456   3.372   1.905   1.826 -0.9826 -3.4336 -1.2239
 4332SOL     OW24457   2.343   4.058   8.375  0.1396  0.1077  0.3186
 4332SOL    HW124458   2.386   4.023   8.297  0.2430  0.7014  0.1058
 4332SOL    HW224459   2.309   4.144   8.350 -1.2073 -0.9391 -1.5142
 4333SOL     OW24460   3.258   3.213   5.048 -0.6720  0.1005  0.1188
 4333SOL    HW124461   3.171   3.185   5.077 -0.1601 -0.7224  0.8598
 4333SOL    HW224462   3.242   3.196   4.955  0.5401  1.1273 -0.2830
 4334SOL     OW24463   1.870   2.962   6.022 -0.2079  0.0853 -0.0366
 4334SOL    HW124464   1.878   3.040   5.967 -1.3683  0.4784  0.3633
 4334SOL    HW224465   1.917   2.899   5.967 -0.7584 -0.4165  0.0685
 4335SOL     OW24466   2.959   0.874   6.522  0.4447  0.4584  0.6662
 4335SOL    HW124467   3.019   0.804   6.494 -1.4718  0.0492 -2.3236
 4335SOL    HW224468   2.886   0.818   6.548  1.4527 -1.8841 -1.4850
 4336SOL     OW24469   0.710   3.779  13.400 -0.1713  0.3536  0.0747
 4336SOL    HW124470   0.724   3.695  13.357  2.8273  0.9790 -0.1768
 4336SOL    HW224471   0.633   3.819  13.359 -0.6479  1.4495  2.0246
 4337SOL     OW24472   0.114   2.892   5.054 -0.4196  0.0745 -0.8715
 4337SOL    HW124473   0.132   2.850   5.139 -0.7746  2.2077  0.2378
 4337SOL    HW224474   0.181   2.856   4.996  2.7117  1.8786  1.6095
 4338SOL     OW24475   2.901   0.672  12.138  0.3762  0.0568  0.1008
 4338SOL    HW124476   2.902   0.668  12.042  1.9039  1.2945  0.0699
 4338SOL    HW224477   2.902   0.766  12.157  3.1371 -0.3265  1.8318
 4339SOL     OW24478   3.717   2.071   6.041  0.3205  0.0244 -1.0437
 4339SOL    HW124479   3.805   2.037   6.057 -0.7547 -1.8239  0.8817
 4339SOL    HW224480   3.717   2.066   5.945  0.2356  0.5437 -1.0751
 4340SOL     OW24481   3.596   2.865   4.588  0.2352 -0.4131 -0.6143
 4340SOL    HW124482   3.595   2.770   4.588  0.6858 -0.4222  2.0678
 4340SOL    HW224483   3.505   2.885   4.609 -0.2415 -3.1502 -0.1590
 4341SOL     OW24484   4.564   0.500  13.994  0.5957  0.2140 -0.5894
 4341SOL    HW124485   4.491   0.442  14.015 -0.3178  1.0116 -1.5771
 4341SOL    HW224486   4.624   0.429  13.974 -0.9843 -0.3728 -3.2046
 4342SOL     OW24487   3.925   3.795   1.772 -0.2632  0.1524 -0.8608
 4342SOL    HW124488   3.967   3.773   1.689 -0.1064  1.7280 -1.2126
 4342SOL    HW224489   3.995   3.842   1.819 -2.7575  3.3226 -0.2689
 4343SOL     OW24490   1.609   3.868   8.277 -0.4776  0.0553  0.0400
 4343SOL    HW124491   1.631   3.921   8.201  1.1093  0.1459  0.5693
 4343SOL    HW224492   1.536   3.914   8.319  0.2569 -0.7033  2.1770
 4344SOL     OW24493   1.170   3.843   2.951 -0.2642  0.0468 -0.5605
 4344SOL    HW124494   1.183   3.917   2.892 -0.7774 -0.4924 -1.3578
 4344SOL    HW224495   1.169   3.769   2.890 -1.5129 -1.1689  0.9573
 4345SOL     OW24496   0.103   0.053   3.632 -0.3540 -0.7302  0.2129
 4345SOL    HW124497   0.170   0.088   3.573 -0.5519 -0.8809 -0.1047
 4345SOL    HW224498   0.108   0.100   3.715 -0.3257  0.5241 -0.5006
 4346SOL     OW24499   4.055   3.353   4.988  0.1332 -0.1237 -0.0673
 4346SOL    HW124500   4.088   3.305   5.064  0.0864 -0.0264  0.0138
 4346SOL    HW224501   4.023   3.437   5.021 -2.1878 -0.5928 -1.1350
 4347SOL     OW24502   1.324   2.605  11.897 -0.0986 -0.4350 -0.3084
 4347SOL    HW124503   1.263   2.603  11.971  1.0238  0.0846  0.6177
 4347SOL    HW224504   1.266   2.628  11.824  1.8455  0.0286 -1.7097
 4348SOL     OW24505   2.196   1.015  13.476  0.6928 -0.2400  0.1867
 4348SOL    HW124506   2.288   1.016  13.501  0.4290 -2.2975  1.2019
 4348SOL    HW224507   2.188   1.106  13.447  1.5324 -0.2456 -0.0683
 4349SOL     OW24508   1.443   4.648   4.536  0.5451 -0.3539  0.0334
 4349SOL    HW124509   1.364   4.645   4.590 -1.3061  0.8294 -2.6261
 4349SOL    HW224510   1.487   4.567   4.563  1.6563  0.8121  1.7580
 4350SOL     OW24511   1.091   1.175  15.271 -0.4713 -0.5287  0.4049
 4350SOL    HW124512   1.128   1.263  15.269 -1.3497 -0.2216 -2.5277
 4350SOL    HW224513   1.149   1.135  15.336  0.0637 -0.1728  0.1419
 4351SOL     OW24514   2.936   0.289   8.191 -0.0099  0.0212  0.1007
 4351SOL    HW124515   2.853   0.245   8.174 -0.5377  1.6101 -1.4546
 4351SOL    HW224516   2.946   0.284   8.286 -2.8277 -0.3856  0.3587
 4352SOL     OW24517   3.674   1.356   3.071 -0.1894  0.4996 -0.1102
 4352SOL    HW124518   3.659   1.285   3.132  1.2482 -0.4008 -0.8127
 4352SOL    HW224519   3.686   1.303   2.992  1.4771 -0.8656  1.0709
 4353SOL     OW24520   0.048   3.416  13.850  0.5866 -0.3085 -0.1257
 4353SOL    HW124521   0.089   3.353  13.909 -1.3860 -1.1644  0.3529
 4353SOL    HW224522   0.109   3.489  13.854  0.2678 -0.0178 -0.5794
 4354SOL     OW24523   0.146   3.744   2.865  0.3025 -0.0446  0.2404
 4354SOL    HW124524   0.078   3.788   2.916 -0.5966 -0.8636 -0.2602
 4354SOL    HW224525   0.122   3.790   2.784  0.3869  0.2700  0.3958
 4355SOL     OW24526   4.539   3.550   8.727 -0.0341  0.1420  0.2652
 4355SOL    HW124527   4.499   3.470   8.692  1.2535 -2.0199  3.8816
 4355SOL    HW224528   4.600   3.568   8.655 -0.9612  0.1926 -0.5121
 4356SOL     OW24529   0.399   2.202  16.133  0.2342  0.1557  0.1528
 4356SOL    HW124530   0.416   2.261  16.206 -0.3318 -1.0049  1.2344
 4356SOL    HW224531   0.377   2.118  16.174 -2.2607  0.4620 -0.5501
 4357SOL     OW24532   1.132   0.863   2.852 -0.1418 -0.1641  1.1968
 4357SOL    HW124533   1.195   0.859   2.923 -0.4393  2.0465  1.5823
 4357SOL    HW224534   1.078   0.788   2.880 -0.7363  0.2907  1.2808
 4358SOL     OW24535   2.058   4.574  11.278  0.3524 -0.0937  0.0787
 4358SOL    HW124536   2.121   4.627  11.230  0.3857  0.5586  0.8353
 4358SOL    HW224537   1.975   4.621  11.271 -0.7272 -1.4841  3.2903
 4359SOL     OW24538   0.883   2.124   5.437  0.1839  0.1431 -0.0015
 4359SOL    HW124539   0.857   2.043   5.395 -2.0843  0.0788  1.5364
 4359SOL    HW224540   0.974   2.104   5.460 -0.2484 -0.4679  1.1528
 4360SOL     OW24541   3.747   3.338   7.641  0.3811 -0.0719  0.1288
 4360SOL    HW124542   3.707   3.281   7.575 -0.8186  1.0824 -0.1607
 4360SOL    HW224543   3.789   3.271   7.694 -0.5098  0.6391  1.7281
 4361SOL     OW24544   0.535   1.318   3.102 -0.3900 -0.7015 -0.7279
 4361SOL    HW124545   0.630   1.324   3.104 -0.4426  0.3227 -1.3885
 4361SOL    HW224546   0.515   1.358   3.017 -1.6946  0.4979  0.1335
 4362SOL     OW24547   0.403   2.161   2.077  0.3971 -0.3632 -0.0977
 4362SOL    HW124548   0.372   2.075   2.106  2.6573 -1.3083 -0.5347
 4362SOL    HW224549   0.336   2.188   2.014  0.0283 -2.0324 -0.4255
 4363SOL     OW24550   1.748   1.812   0.546  0.2180 -0.0613 -0.5491
 4363SOL    HW124551   1.667   1.818   0.597  1.2676 -1.6137  1.2774
 4363SOL    HW224552   1.811   1.831   0.616 -0.5563  0.4709  0.0067
 4364SOL     OW24553   0.680   1.934   2.203 -0.1115 -0.0136 -0.3916
 4364SOL    HW124554   0.771   1.957   2.220  0.3188 -1.3477 -0.8361
 4364SOL    HW224555   0.682   1.905   2.112  1.8288  3.5277 -1.4752
 4365SOL     OW24556   4.469   3.925   2.969  0.5587 -0.0289 -0.6832
 4365SOL    HW124557   4.434   3.889   3.051  0.0435  2.1910  0.0782
 4365SOL    HW224558   4.561   3.945   2.988 -0.1373  1.8590  0.6698
 4366SOL     OW24559   3.364   2.527   1.905 -0.1301 -0.2120 -0.1369
 4366SOL    HW124560   3.332   2.562   1.822  0.6607 -1.7556 -1.1041
 4366SOL    HW224561   3.454   2.558   1.912 -0.3655 -0.4140  4.0780
 4367SOL     OW24562   0.387   3.011   6.736 -0.2181  0.2595  0.0243
 4367SOL    HW124563   0.444   3.078   6.773 -0.8533  0.3923  0.7703
 4367SOL    HW224564   0.376   3.044   6.647  1.5360 -0.6252 -0.5174
 4368SOL     OW24565   2.410   2.623   4.375  0.3942 -0.1999 -0.4228
 4368SOL    HW124566   2.365   2.664   4.449 -1.0066 -0.7775 -0.9757
 4368SOL    HW224567   2.451   2.696   4.328 -0.2308  1.1861  1.1970
 4369SOL     OW24568   0.107   3.427  16.712  0.3546 -0.1656  0.1682
 4369SOL    HW124569   0.102   3.358  16.646 -0.2679 -1.6114  1.7482
 4369SOL    HW224570   0.043   3.485  16.670  0.4557 -0.4951 -0.4516
 4370SOL     OW24571   2.413   1.487   0.072  0.0615 -0.3293 -0.0287
 4370SOL    HW124572   2.479   1.427   0.107  0.2948  0.6974  1.2839
 4370SOL    HW224573   2.425   1.461  17.672  1.6021 -0.8405  0.3182
 4371SOL     OW24574   1.481   1.446  10.423 -0.0701  0.4739 -0.0920
 4371SOL    HW124575   1.542   1.512  10.452  1.4986  0.0218 -2.3303
 4371SOL    HW224576   1.526   1.362  10.430  0.3374  0.8457  1.5367
 4372SOL     OW24577   2.554   2.544  15.979 -0.1125 -0.1181 -0.5009
 4372SOL    HW124578   2.461   2.522  15.968 -0.3364  1.2054 -1.2296
 4372SOL    HW224579   2.558   2.589  16.063 -0.8523 -3.2249  1.1947
 4373SOL     OW24580   2.703   0.654   5.723  0.6367 -0.1557  0.2100
 4373SOL    HW124581   2.656   0.583   5.679 -1.2942  1.0683  0.2942
 4373SOL    HW224582   2.749   0.606   5.793 -0.5847  3.2740  3.3775
 4374SOL     OW24583   3.192   2.962   8.754  0.6545  0.0991 -0.5656
 4374SOL    HW124584   3.123   3.025   8.733 -0.0947 -1.0378 -1.5237
 4374SOL    HW224585   3.252   3.020   8.801 -0.2958 -0.2756  1.1179
 4375SOL     OW24586   0.912   4.166   0.105  0.7371 -0.6457 -0.0738
 4375SOL    HW124587   0.952   4.100   0.048  2.5701 -0.5463  1.0967
 4375SOL    HW224588   0.980   4.230   0.126 -1.0536  1.0537  0.4396
 4376SOL     OW24589   3.430   0.681  17.532 -0.0751  0.8079  0.2831
 4376SOL    HW124590   3.359   0.743  17.512 -0.0669  1.1857  1.3940
 4376SOL    HW224591   3.392   0.620  17.596 -0.6815  0.8550 -0.0271
 4377SOL     OW24592   3.884   4.569   8.922  0.3864 -0.4417  0.1453
 4377SOL    HW124593   3.791   4.589   8.938  0.3045  1.1138 -2.2112
 4377SOL    HW224594   3.908   4.513   8.995  0.9931  0.1510  0.3914
 4378SOL     OW24595   0.430   2.579  10.169  0.1374 -0.1914  0.1008
 4378SOL    HW124596   0.500   2.517  10.148  0.9763 -0.1979  2.9575
 4378SOL    HW224597   0.401   2.602  10.081  1.7575  0.0559 -0.3768
 4379SOL     OW24598   2.260   1.751  14.951  0.8208 -0.1326  0.1154
 4379SOL    HW124599   2.262   1.772  15.045  0.7292 -0.7174  0.2486
 4379SOL    HW224600   2.168   1.724  14.951  0.3928  1.2777  1.7206
 4380SOL     OW24601   4.673   3.812   2.540 -0.5583  0.0450  0.3340
 4380SOL    HW124602   4.706   3.760   2.467 -1.2982  1.3186 -0.8911
 4380SOL    HW224603   4.589   3.842   2.506  0.6672  2.8605 -0.1636
 4381SOL     OW24604   2.391   3.997  15.243  0.5018 -0.7598  0.1207
 4381SOL    HW124605   2.318   4.050  15.209 -0.1504 -2.1150 -0.5960
 4381SOL    HW224606   2.343   3.914  15.251  0.3251 -1.0119 -3.3269
 4382SOL     OW24607   0.801   1.853   5.366  0.3176  0.3684 -0.1405
 4382SOL    HW124608   0.723   1.798   5.361 -0.5254  1.6024 -0.4413
 4382SOL    HW224609   0.859   1.794   5.318  0.4706  0.6161 -0.2558
 4383SOL     OW24610   0.329   1.957   2.417 -0.3104  0.1079  0.8370
 4383SOL    HW124611   0.334   1.871   2.376 -1.4641 -0.0842  1.1003
 4383SOL    HW224612   0.412   1.971   2.463  0.2424 -0.0475 -0.1161
 4384SOL     OW24613   3.049   2.960   8.454 -0.0308  0.1114  0.1395
 4384SOL    HW124614   3.141   2.979   8.475 -0.1129  0.3610  0.2707
 4384SOL    HW224615   3.060   2.866   8.438  0.0724 -0.2560  2.3498
 4385SOL     OW24616   2.903   2.699  15.384  0.0383  0.4764 -0.0453
 4385SOL    HW124617   2.883   2.790  15.361 -0.5618 -0.0508 -1.5545
 4385SOL    HW224618   2.845   2.660  15.320  2.6363 -1.8484 -0.9775
 4386SOL     OW24619   3.457   0.799  15.405 -0.0601 -0.0661 -0.2835
 4386SOL    HW124620   3.528   0.858  15.429  0.9489 -0.5181 -2.2281
 4386SOL    HW224621   3.462   0.720  15.459  2.5873 -0.4753 -1.1216
 4387SOL     OW24622   4.292   0.856  15.057 -0.8202 -0.5661 -0.8917
 4387SOL    HW124623   4.275   0.870  15.150  0.7004 -2.4342 -0.3325
 4387SOL    HW224624   4.209   0.877  15.013 -1.3762 -0.3279  0.2843
 4388SOL     OW24625   0.990   3.625   3.128  0.3338 -0.3930 -0.1294
 4388SOL    HW124626   1.046   3.567   3.077 -1.1739 -2.5322  0.6543
 4388SOL    HW224627   0.930   3.654   3.059 -1.3274 -0.3238  1.3154
 4389SOL     OW24628   0.458   0.834  11.320  0.3489  0.1362 -0.2057
 4389SOL    HW124629   0.438   0.845  11.227 -1.4060 -0.9985  0.0384
 4389SOL    HW224630   0.505   0.916  11.337  1.7002 -0.7406  0.2892
 4390SOL     OW24631   3.985   1.122   0.778  0.4890  0.0173  0.4632
 4390SOL    HW124632   3.961   1.102   0.688  0.1279 -1.6223  0.9163
 4390SOL    HW224633   3.964   1.035   0.812  0.6484 -0.0767  0.3225
 4391SOL     OW24634   3.924   3.629  15.240  0.3082  0.6390 -0.2169
 4391SOL    HW124635   3.877   3.709  15.218  1.3546  1.3524  0.1747
 4391SOL    HW224636   3.929   3.586  15.154 -1.1156 -2.0182  1.0271
 4392SOL     OW24637   1.334   3.934  15.138  0.2448  0.5903 -0.1526
 4392SOL    HW124638   1.319   3.959  15.229  1.9957  2.0185 -0.2543
 4392SOL    HW224639   1.386   3.856  15.155 -0.0025  0.4020 -0.2524
 4393SOL     OW24640   4.606   0.879   5.635 -0.1180 -0.6037  0.0759
 4393SOL    HW124641   4.518   0.903   5.664  0.3285 -1.8351  2.4664
 4393SOL    HW224642   4.590   0.797   5.588 -0.4609 -0.3519 -0.2425
 4394SOL     OW24643   0.821   1.265   3.616  0.0391 -0.4263 -0.2042
 4394SOL    HW124644   0.894   1.298   3.668  0.9809 -2.3789 -0.2808
 4394SOL    HW224645   0.759   1.248   3.686 -0.4975  0.7125 -0.4045
 4395SOL     OW24646   4.280   1.570   7.015  0.1800 -0.0692  0.0927
 4395SOL    HW124647   4.295   1.480   7.044  1.1992 -0.6607 -2.2830
 4395SOL    HW224648   4.228   1.599   7.090  1.8389 -0.5081  1.4199
 4396SOL     OW24649   0.049   4.251   2.602  0.0713 -0.3841  1.0914
 4396SOL    HW124650   4.697   4.190   2.600  0.7252 -1.2236  1.9010
 4396SOL    HW224651   0.113   4.184   2.578 -0.0837 -0.3323  0.5490
 4397SOL     OW24652   4.539   0.486   6.058  0.2760 -0.1130  0.1684
 4397SOL    HW124653   4.520   0.392   6.066  1.4687 -0.4874 -1.3435
 4397SOL    HW224654   4.452   0.524   6.066  0.8416  1.0614  0.6996
 4398SOL     OW24655   0.674   0.136   7.038 -0.3468 -0.0951 -0.1325
 4398SOL    HW124656   0.765   0.126   7.068 -0.0015 -0.5868 -1.3330
 4398SOL    HW224657   0.629   0.142   7.122  2.5881  0.5116  1.4053
 4399SOL     OW24658   2.696   2.195   3.448  0.2016  0.5759 -0.3037
 4399SOL    HW124659   2.728   2.121   3.397  0.3662 -0.6317  1.5550
 4399SOL    HW224660   2.633   2.153   3.507  1.4636  0.3217  0.8726
 4400SOL     OW24661   1.807   4.453   7.623 -0.3380 -0.2529  0.0768
 4400SOL    HW124662   1.842   4.374   7.666  2.2911  0.6777 -0.3506
 4400SOL    HW224663   1.882   4.482   7.572  0.6921 -0.8118  1.2659
 4401SOL     OW24664   4.272   3.256   4.808  0.2629 -0.4809 -0.3977
 4401SOL    HW124665   4.184   3.253   4.846  0.3234 -1.0962 -0.3126
 4401SOL    HW224666   4.254   3.229   4.718  1.2390  0.4054 -0.8581
 4402SOL     OW24667   1.601   0.951   4.041  0.2599 -0.5632  0.1471
 4402SOL    HW124668   1.609   0.882   4.108 -0.2405 -0.0141  0.7707
 4402SOL    HW224669   1.665   1.015   4.072  0.2578  0.6729 -2.4461
 4403SOL     OW24670   3.771   1.231   8.263  0.1815 -0.2791 -0.6406
 4403SOL    HW124671   3.855   1.184   8.261  0.8729  0.8746  1.4214
 4403SOL    HW224672   3.766   1.254   8.355 -1.0223  0.3418 -0.8717
 4404SOL     OW24673   0.216   4.093   7.541  0.3609  0.1361 -0.1311
 4404SOL    HW124674   0.220   4.053   7.628 -0.3775  0.3572  0.0100
 4404SOL    HW224675   0.191   4.025   7.478  3.7070 -2.2688  1.1745
 4405SOL     OW24676   0.050   4.364  12.162 -0.1988  0.2660  0.2497
 4405SOL    HW124677   0.018   4.356  12.252 -1.8599 -0.9331 -0.4543
 4405SOL    HW224678   0.050   4.275  12.128 -1.5245  0.8440 -1.2971
 4406SOL     OW24679   0.583   4.419  14.879 -0.0489 -0.0187  0.0353
 4406SOL    HW124680   0.580   4.487  14.812  3.3189  0.1718  0.0676
 4406SOL    HW224681   0.611   4.349  14.820 -1.5497 -0.6719  0.1005
 4407SOL     OW24682   4.650   2.820   8.872 -0.1317 -0.1658  0.1820
 4407SOL    HW124683   4.709   2.764   8.922  0.2288 -1.2171 -1.4286
 4407SOL    HW224684   4.592   2.753   8.836  0.4461  0.2348 -1.5142
 4408SOL     OW24685   1.064   4.270   0.869 -0.5555  0.2917  0.3380
 4408SOL    HW124686   1.116   4.217   0.929 -1.4795  0.7721  1.5709
 4408SOL    HW224687   1.082   4.215   0.793 -2.3488  2.0666 -1.3868
 4409SOL     OW24688   0.872   4.091  16.303  0.2300  0.0864 -0.5184
 4409SOL    HW124689   0.783   4.059  16.312 -0.0512  0.5974 -1.5221
 4409SOL    HW224690   0.912   4.038  16.234  2.9717  2.4021 -0.7166
 4410SOL     OW24691   2.980   1.673   3.274  0.1025  0.5309 -0.1358
 4410SOL    HW124692   3.029   1.733   3.331  1.0258  0.9373 -1.3590
 4410SOL    HW224693   2.895   1.717   3.282 -0.1467 -0.0517  0.3571
 4411SOL     OW24694   3.558   3.035   5.478  0.5256  0.0269  0.6041
 4411SOL    HW124695   3.617   3.083   5.419  2.8191 -0.5325  2.4822
 4411SOL    HW224696   3.613   3.003   5.549  0.9407 -0.5507  0.0222
 4412SOL     OW24697   1.030   1.944   9.655 -0.6938  0.1267 -0.4664
 4412SOL    HW124698   1.037   1.953   9.560 -2.7537 -1.8264 -0.8244
 4412SOL    HW224699   1.102   2.001   9.679  0.0907 -0.3030 -1.8257
 4413SOL     OW24700   1.117   4.322   4.818  0.8059  0.9358  0.6204
 4413SOL    HW124701   1.059   4.350   4.747  1.6378 -0.5495 -0.6316
 4413SOL    HW224702   1.053   4.327   4.889  1.2749 -0.1265  1.1181
 4414SOL     OW24703   1.832   0.810  14.250 -0.1526  0.3630  0.9752
 4414SOL    HW124704   1.825   0.844  14.160 -1.5236  1.3969  1.4741
 4414SOL    HW224705   1.750   0.762  14.255  0.7472 -1.1225  1.4289
 4415SOL     OW24706   1.979   2.414  11.468 -0.2164  0.0640 -0.0849
 4415SOL    HW124707   1.948   2.442  11.383 -0.6110  3.4982  1.2056
 4415SOL    HW224708   1.921   2.456  11.532 -0.0720  0.1700 -0.0238
 4416SOL     OW24709   1.006   4.424   8.849 -0.1149 -0.3415  0.0481
 4416SOL    HW124710   0.978   4.353   8.906 -0.2994  1.0466  1.6907
 4416SOL    HW224711   1.023   4.503   8.900 -1.5151 -0.0875  0.1137
 4417SOL     OW24712   0.977   0.319  12.059 -0.3358 -0.0640  0.0679
 4417SOL    HW124713   1.006   0.406  12.085 -0.8191  0.1378 -0.0782
 4417SOL    HW224714   0.882   0.315  12.072 -0.1259 -3.3242  0.6376
 4418SOL     OW24715   2.866   2.677   7.738  0.3134 -0.5172 -0.2427
 4418SOL    HW124716   2.933   2.741   7.762  0.5421 -2.2191  3.6614
 4418SOL    HW224717   2.875   2.680   7.643 -1.4675  1.6114 -0.3560
 4419SOL     OW24718   1.167   2.085   6.030  0.0692 -0.1268 -0.0544
 4419SOL    HW124719   1.155   2.172   5.992 -0.7208 -0.3244 -0.2472
 4419SOL    HW224720   1.123   2.025   5.970  0.1580 -1.6309  1.3942
 4420SOL     OW24721   1.920   4.396   5.521  0.6534  0.7944  0.5484
 4420SOL    HW124722   1.914   4.464   5.588  2.1068  1.5073 -0.0582
 4420SOL    HW224723   1.872   4.445   5.454  0.6419  0.9516  0.6727
 4421SOL     OW24724   2.181   1.722  11.076  0.0904  0.5096 -0.2732
 4421SOL    HW124725   2.236   1.757  11.006  1.0602 -0.8695 -0.1987
 4421SOL    HW224726   2.242   1.733  11.149  0.9463 -3.0157 -0.4564
 4422SOL     OW24727   4.144   4.601  17.313  0.1469  0.3582 -0.2956
 4422SOL    HW124728   4.167   4.691  17.338  0.6165  0.2610 -0.3712
 4422SOL    HW224729   4.055   4.607  17.281 -0.7719 -0.5110  2.0537
 4423SOL     OW24730   2.962   3.234   0.045 -0.0419  0.0255  0.3380
 4423SOL    HW124731   2.986   3.142   0.033 -0.7501 -0.4781  2.8934
 4423SOL    HW224732   3.043   3.274   0.012  0.4583  0.4353  2.0521
 4424SOL     OW24733   4.667   1.197  11.777 -0.2074 -0.2440  0.0434
 4424SOL    HW124734   4.706   1.142  11.844  0.8698 -0.7837 -1.0368
 4424SOL    HW224735   0.009   1.189  11.706 -1.4244 -0.9849 -0.9657
 4425SOL     OW24736   3.170   4.173   7.076  0.4549 -0.1660  0.2834
 4425SOL    HW124737   3.091   4.189   7.024 -1.2332 -1.2421  2.5055
 4425SOL    HW224738   3.195   4.091   7.034  2.0908  0.2574  0.4292
 4426SOL     OW24739   4.424   1.937   5.771  0.1030  0.6821 -0.0090
 4426SOL    HW124740   4.502   1.889   5.801  0.8930  1.4209 -0.8743
 4426SOL    HW224741   4.422   1.923   5.677 -1.0051 -1.1582  0.2826
 4427SOL     OW24742   0.916   3.099  14.198 -0.1512  0.6010 -0.3537
 4427SOL    HW124743   0.940   3.010  14.170  3.5174  1.7718 -0.9290
 4427SOL    HW224744   0.824   3.107  14.175 -0.5272 -2.5004  0.0670
 4428SOL     OW24745   4.540   0.207   5.116  0.4507  0.5886  0.1028
 4428SOL    HW124746   4.579   0.120   5.122 -0.4521  0.0483 -2.0851
 4428SOL    HW224747   4.476   0.199   5.187 -1.5288 -0.4630 -1.8080
 4429SOL     OW24748   4.537   4.551  15.796  0.0334  0.0299 -0.0772
 4429SOL    HW124749   4.627   4.564  15.826  0.3105 -0.7223 -0.6066
 4429SOL    HW224750   4.540   4.456  15.788  0.8502  0.2809 -2.5393
 4430SOL     OW24751   1.613   3.694  11.680 -0.2053 -0.0157 -0.1265
 4430SOL    HW124752   1.531   3.709  11.729 -0.3716 -1.4741  0.0450
 4430SOL    HW224753   1.677   3.680  11.750 -0.2225  0.8122  0.0531
 4431SOL     OW24754   2.326   2.139   4.608 -0.0395  0.2230 -0.1118
 4431SOL    HW124755   2.278   2.190   4.675  0.1040  1.5355 -1.0067
 4431SOL    HW224756   2.369   2.207   4.556  0.5587  1.2757  1.7472
 4432SOL     OW24757   1.400   4.248   4.208 -0.3376 -0.1312  0.0709
 4432SOL    HW124758   1.386   4.186   4.280 -1.8442 -3.3035 -2.9312
 4432SOL    HW224759   1.335   4.213   4.146 -2.7935  0.6827  2.1747
 4433SOL     OW24760   0.905   4.312   5.016 -0.0848  0.2116 -0.1898
 4433SOL    HW124761   0.917   4.355   5.101 -0.3971  0.5163 -0.3012
 4433SOL    HW224762   0.828   4.358   4.982  0.1186 -0.1039 -1.0695
 4434SOL     OW24763   1.961   4.128   4.882  0.1242  0.7492  0.9367
 4434SOL    HW124764   1.971   4.184   4.805 -1.2289 -2.5595 -1.6523
 4434SOL    HW224765   1.881   4.167   4.916 -0.4961 -0.2752  0.6544
 4435SOL     OW24766   2.019   0.220   6.597  0.0173 -0.2674  0.7540
 4435SOL    HW124767   2.005   0.311   6.621  1.0877 -0.3850  1.8651
 4435SOL    HW224768   2.072   0.187   6.671 -0.1710 -1.3368  0.4145
 4436SOL     OW24769   0.786   0.361   3.784 -0.4083 -0.6254  0.2312
 4436SOL    HW124770   0.832   0.362   3.868  0.8688 -1.5358 -0.4695
 4436SOL    HW224771   0.741   0.445   3.795 -1.2211 -0.9456 -0.7005
 4437SOL     OW24772   4.293   1.781   3.787 -0.2437  0.2588  0.1685
 4437SOL    HW124773   4.254   1.694   3.788 -1.7622  0.9198 -1.9029
 4437SOL    HW224774   4.251   1.829   3.858 -0.3404 -2.0908  1.7202
 4438SOL     OW24775   2.955   0.510   6.305 -0.1134 -0.3496  0.6146
 4438SOL    HW124776   2.866   0.519   6.339 -0.1433 -0.3269  0.5290
 4438SOL    HW224777   3.009   0.546   6.376 -0.7417 -0.3057  1.0612
 4439SOL     OW24778   0.216   1.504   6.252 -0.2602  0.3980 -0.3249
 4439SOL    HW124779   0.220   1.553   6.170 -0.9160  1.3355  0.1983
 4439SOL    HW224780   0.123   1.484   6.249 -0.0157 -0.5835 -1.1393
 4440SOL     OW24781   4.032   3.598   4.689  0.0433 -0.2018  0.0492
 4440SOL    HW124782   3.997   3.627   4.773 -0.1966 -2.1511  0.6102
 4440SOL    HW224783   4.086   3.671   4.659  0.9886 -1.2617 -0.8515
 4441SOL     OW24784   3.751   4.720   4.224  0.1287  0.5787  0.7988
 4441SOL    HW124785   3.817   4.677   4.171 -1.7206 -1.1184 -0.1365
 4441SOL    HW224786   3.721   4.649   4.282 -1.0338  0.1014 -0.3726
 4442SOL     OW24787   3.626   2.680   7.017  0.4808  0.6613  0.3228
 4442SOL    HW124788   3.550   2.623   7.025  0.2581  0.6235 -1.8625
 4442SOL    HW224789   3.646   2.687   7.110  1.1704 -1.5207  0.3365
 4443SOL     OW24790   1.546   3.179  11.106 -0.1445  0.2670 -0.5169
 4443SOL    HW124791   1.580   3.090  11.121 -0.0167  0.6701  1.5158
 4443SOL    HW224792   1.476   3.150  11.047  3.2690 -1.6492 -3.6434
 4444SOL     OW24793   0.061   0.486   6.521  0.1466  0.0997 -0.1466
 4444SOL    HW124794   0.050   0.392   6.506 -0.8441  0.0233  1.0691
 4444SOL    HW224795   0.030   0.524   6.438  0.9525 -0.7566 -0.8425
 4445SOL     OW24796   0.721   3.472  10.685 -0.5103  0.0176  0.3341
 4445SOL    HW124797   0.666   3.529  10.631  1.5675  1.3353 -0.3721
 4445SOL    HW224798   0.782   3.437  10.620  1.0978  0.4640  1.5891
 4446SOL     OW24799   4.719   0.151   2.555  0.7515 -0.1097 -0.0431
 4446SOL    HW124800   0.022   0.070   2.599  2.4111  0.6692  0.4471
 4446SOL    HW224801   4.649   0.121   2.498  1.3595 -0.4656 -0.6078
 4447SOL     OW24802   1.237   3.277   0.686  0.2158 -0.2299  0.1893
 4447SOL    HW124803   1.239   3.355   0.632 -1.0320 -1.2352 -1.3371
 4447SOL    HW224804   1.149   3.248   0.662  1.1397 -0.5822 -2.7858
 4448SOL     OW24805   0.269   3.533  10.254  0.1713 -0.7716  0.4988
 4448SOL    HW124806   0.201   3.475  10.221  0.2096 -1.5728  1.8349
 4448SOL    HW224807   0.347   3.477  10.249  0.1963 -0.8181  1.5117
 4449SOL     OW24808   4.124   3.071   7.660  0.7398 -0.1323 -0.1259
 4449SOL    HW124809   4.050   3.014   7.638  1.4353 -0.9646 -0.3283
 4449SOL    HW224810   4.162   3.081   7.572  0.8908 -1.4624 -0.2169
 4450SOL     OW24811   2.888   1.192   8.806 -0.1850  0.1787  0.3533
 4450SOL    HW124812   2.928   1.240   8.734 -0.3418 -1.9415 -1.1432
 4450SOL    HW224813   2.796   1.203   8.780 -0.1583 -0.7597 -0.1290
 4451SOL     OW24814   3.858   1.033   6.163 -0.1187  0.0756 -0.4941
 4451SOL    HW124815   3.928   1.064   6.105  1.4055 -2.7348 -0.1110
 4451SOL    HW224816   3.793   1.019   6.094 -0.3904  2.5279 -0.7569
 4452SOL     OW24817   0.739   3.460   6.305 -0.0022 -0.2726 -0.1562
 4452SOL    HW124818   0.694   3.540   6.279 -3.1862 -2.6928 -2.1234
 4452SOL    HW224819   0.826   3.496   6.321  0.6650 -1.2083 -1.6134
 4453SOL     OW24820   1.493   0.450  13.109  0.0731  0.2805  0.2875
 4453SOL    HW124821   1.422   0.430  13.170  0.4511  1.5516  1.1253
 4453SOL    HW224822   1.472   0.394  13.033 -0.4301  0.1956  0.4886
 4454SOL     OW24823   3.447   3.401  11.949  0.1038  0.0487 -0.1112
 4454SOL    HW124824   3.430   3.307  11.953  0.1917  0.1697  2.9940
 4454SOL    HW224825   3.442   3.418  12.043 -1.8488  1.1115 -0.3954
 4455SOL     OW24826   2.050   3.907   4.128 -0.1209 -0.2870  0.0926
 4455SOL    HW124827   2.015   3.866   4.049  0.4332  2.7381 -1.7629
 4455SOL    HW224828   2.131   3.861   4.146 -0.7858 -1.1189  0.9167
 4456SOL     OW24829   3.471   3.932   8.407 -0.5181  0.2772  0.9274
 4456SOL    HW124830   3.530   3.997   8.444  1.2595  0.4063 -2.2211
 4456SOL    HW224831   3.527   3.922   8.330  0.6026  0.4192  1.7228
 4457SOL     OW24832   4.042   2.316   4.331  0.8339 -0.1044 -0.6233
 4457SOL    HW124833   4.015   2.238   4.282  1.4547 -0.2667 -0.7126
 4457SOL    HW224834   4.001   2.390   4.287  0.8080  0.5796  0.5648
 4458SOL     OW24835   1.072   1.332  14.629  0.3166 -0.0171  0.7313
 4458SOL    HW124836   1.021   1.285  14.695 -1.0100 -0.9331 -0.9539
 4458SOL    HW224837   1.031   1.418  14.632  1.9420  0.9788 -5.1313
 4459SOL     OW24838   1.109   1.254   3.879 -0.3721  0.3371  0.6214
 4459SOL    HW124839   1.176   1.261   3.811  0.5839  0.6506  1.6100
 4459SOL    HW224840   1.067   1.170   3.857 -1.3767  1.2505 -0.9080
 4460SOL     OW24841   3.960   2.972   6.559  0.2680  0.5609  0.2767
 4460SOL    HW124842   4.024   3.020   6.611 -0.4886  1.6716  0.1813
 4460SOL    HW224843   3.945   2.893   6.611 -0.0420  0.3348 -0.1565
 4461SOL     OW24844   4.337   4.286   6.482 -0.2702  0.5860 -0.6790
 4461SOL    HW124845   4.346   4.309   6.574  0.4587 -1.0757 -0.3331
 4461SOL    HW224846   4.427   4.261   6.460  0.2287  1.9457 -0.2055
 4462SOL     OW24847   2.634   2.238  16.253 -0.2488 -0.1716 -0.4275
 4462SOL    HW124848   2.664   2.329  16.242  1.7302 -0.7781 -0.0413
 4462SOL    HW224849   2.541   2.261  16.251  0.1374  1.3061 -1.2493
 4463SOL     OW24850   4.625   1.686   1.795  0.2318  0.0289 -0.0336
 4463SOL    HW124851   4.643   1.641   1.713 -0.1378 -1.4200  0.6810
 4463SOL    HW224852   4.711   1.699   1.835  0.7914 -1.8458 -0.6625
 4464SOL     OW24853   3.394   0.806   8.920  0.5334 -0.2302  0.1096
 4464SOL    HW124854   3.438   0.724   8.942  4.0644  1.5770 -0.1909
 4464SOL    HW224855   3.349   0.777   8.841 -0.2904  0.5668  0.2966
 4465SOL     OW24856   1.002   3.961   8.550 -0.0743  0.5571  0.0721
 4465SOL    HW124857   1.048   3.964   8.634  3.3884  0.0555 -1.8267
 4465SOL    HW224858   1.040   3.888   8.501 -3.4340 -1.4964  0.4528
 4466SOL     OW24859   1.808   4.713  13.009  0.1914  0.3602  0.0972
 4466SOL    HW124860   1.806   4.685  13.100 -2.6485 -1.7483 -0.6072
 4466SOL    HW224861   1.866   4.648  12.969 -1.1999 -0.5186 -0.5225
 4467SOL     OW24862   3.024   0.267  11.838 -0.0515  0.0443 -0.2315
 4467SOL    HW124863   3.051   0.298  11.925  1.6262  0.0147 -0.7502
 4467SOL    HW224864   3.100   0.275  11.781  1.4960  1.5848  2.0218
 4468SOL     OW24865   0.016   4.102  15.947 -0.3586 -0.0318  0.1702
 4468SOL    HW124866   0.056   4.104  16.034 -2.0315 -2.0520  0.9845
 4468SOL    HW224867   4.673   4.032  15.954  0.0681 -0.0972  3.5904
 4469SOL     OW24868   3.612   0.756  17.341  0.3866  0.2477 -0.7679
 4469SOL    HW124869   3.550   0.743  17.269 -0.1650  1.3686 -0.4922
 4469SOL    HW224870   3.554   0.736  17.415 -0.0756 -1.4455 -1.5831
 4470SOL     OW24871   0.339   4.516  15.031  0.7636  0.2049 -0.6628
 4470SOL    HW124872   0.422   4.539  14.989  0.1440  0.2320 -1.8847
 4470SOL    HW224873   0.355   4.436  15.081  1.3409  0.9260  0.3024
 4471SOL     OW24874   2.261   1.645   5.924 -0.1635 -0.1253  0.0515
 4471SOL    HW124875   2.355   1.658   5.912 -0.3839  3.0146  1.7376
 4471SOL    HW224876   2.251   1.662   6.018 -0.2013  0.1143  0.0033
 4472SOL     OW24877   0.397   3.351   4.839 -0.7616 -0.3382 -0.2324
 4472SOL    HW124878   0.381   3.266   4.880  3.1449 -0.2601  1.5238
 4472SOL    HW224879   0.313   3.394   4.850  0.1854  1.6888 -0.9723
 4473SOL     OW24880   1.999   2.634   4.776 -0.3302 -0.2063  0.0738
 4473SOL    HW124881   1.961   2.554   4.810  0.4023 -1.2805 -1.6251
 4473SOL    HW224882   1.982   2.683   4.856  1.5142  1.9663 -0.8411
 4474SOL     OW24883   1.561   2.570   5.691  1.0153 -0.0285 -0.0080
 4474SOL    HW124884   1.555   2.652   5.739 -1.0902 -1.5172  2.2910
 4474SOL    HW224885   1.552   2.602   5.601  1.2195 -1.5612 -0.5718
 4475SOL     OW24886   3.225   4.421  10.967 -0.0846 -0.4368 -0.6019
 4475SOL    HW124887   3.166   4.359  11.011 -1.5834  1.6783  0.3714
 4475SOL    HW224888   3.308   4.396  11.007 -0.8932 -0.2253  1.2079
 4476SOL     OW24889   3.419   2.315   7.204 -0.3066 -0.1264  0.1146
 4476SOL    HW124890   3.447   2.319   7.295 -0.7365  1.0579  0.1928
 4476SOL    HW224891   3.420   2.221   7.187  1.1435  0.3514 -2.4338
 4477SOL     OW24892   1.988   4.059   6.056 -0.2455 -0.2840  0.2147
 4477SOL    HW124893   2.073   4.062   6.099  0.2803 -2.1549 -0.6828
 4477SOL    HW224894   2.012   4.035   5.967 -1.7555 -1.4729  0.1097
 4478SOL     OW24895   4.585   1.965   1.685 -0.4809 -0.1997 -0.2803
 4478SOL    HW124896   4.680   1.971   1.689 -0.5064  1.9501 -2.7305
 4478SOL    HW224897   4.563   1.872   1.686  0.2942 -0.3811 -0.3005
 4479SOL     OW24898   1.627   0.710   6.660 -0.0284 -0.4420  0.2108
 4479SOL    HW124899   1.599   0.721   6.569  1.4640 -0.1552 -0.2130
 4479SOL    HW224900   1.721   0.728   6.665 -0.4757  1.7980  0.4261
 4480SOL     OW24901   3.304   4.123   3.993 -0.4739 -0.5655 -0.4292
 4480SOL    HW124902   3.347   4.053   4.043  0.6044  3.0558  3.7433
 4480SOL    HW224903   3.374   4.151   3.934 -0.5752  0.2490 -0.1706
 4481SOL     OW24904   2.374   2.867  10.904  0.4217 -0.0154 -0.4687
 4481SOL    HW124905   2.364   2.898  10.814 -2.9718  3.0130  0.9518
 4481SOL    HW224906   2.418   2.785  10.881 -1.4894 -0.7200 -1.7115
 4482SOL     OW24907   4.199   0.337  12.923  0.5643  0.2374  0.3078
 4482SOL    HW124908   4.147   0.257  12.932  0.0122  0.5642  0.0282
 4482SOL    HW224909   4.237   0.310  12.839 -0.0706 -0.6109  0.2949
 4483SOL     OW24910   1.297   1.131   1.500  0.2090  0.2796  0.3152
 4483SOL    HW124911   1.240   1.201   1.470  2.4223  1.9929  0.0714
 4483SOL    HW224912   1.379   1.164   1.463 -0.3971  0.3276 -0.9938
 4484SOL     OW24913   4.069   3.828  13.726 -0.3221  0.1040  0.1474
 4484SOL    HW124914   4.099   3.834  13.635  0.7514 -1.4785  0.3768
 4484SOL    HW224915   4.097   3.740  13.753  1.5418  0.1758 -1.5187
 4485SOL     OW24916   1.844   4.431   3.249 -0.7746  0.1020  0.2783
 4485SOL    HW124917   1.825   4.481   3.329  1.6573  0.3687  0.6856
 4485SOL    HW224918   1.881   4.348   3.281  1.5121  1.7865  1.9822
 4486SOL     OW24919   4.334   3.604  15.454 -0.2282 -0.6778  0.1700
 4486SOL    HW124920   4.394   3.554  15.399 -0.3949 -1.9844  1.1763
 4486SOL    HW224921   4.285   3.658  15.392  0.2138 -2.0884 -1.4008
 4487SOL     OW24922   3.870   3.077   3.485  0.1036 -0.0373 -0.0237
 4487SOL    HW124923   3.786   3.032   3.479 -0.6168  1.3412 -0.1179
 4487SOL    HW224924   3.876   3.131   3.406 -0.0929 -1.6355 -1.1356
 4488SOL     OW24925   1.944   4.302  10.317 -0.0420 -0.7944  0.5816
 4488SOL    HW124926   1.917   4.354  10.242 -0.1280  2.0435  2.5671
 4488SOL    HW224927   2.036   4.329  10.317 -0.0235 -0.8561  0.4575
 4489SOL     OW24928   1.500   3.534  14.245  0.3334 -0.2132 -0.2420
 4489SOL    HW124929   1.483   3.564  14.155  0.4223  1.5897  0.3460
 4489SOL    HW224930   1.565   3.598  14.272 -1.4445  1.3293  0.3916
 4490SOL     OW24931   1.060   0.764   8.534 -0.3474 -0.1802 -0.2241
 4490SOL    HW124932   1.088   0.788   8.623  1.5161  0.7671 -1.0469
 4490SOL    HW224933   1.038   0.672   8.540  1.3903 -0.4798  1.5323
 4491SOL     OW24934   2.980   0.817   4.589  0.2047  0.0094  0.0474
 4491SOL    HW124935   3.045   0.777   4.647  0.9888  0.0838 -0.7628
 4491SOL    HW224936   2.971   0.905   4.626 -3.1534 -0.4611  0.2991
 4492SOL     OW24937   2.747   2.551   0.465  0.1396 -0.4957 -0.1032
 4492SOL    HW124938   2.756   2.592   0.379  1.3972  0.8238  0.6470
 4492SOL    HW224939   2.841   2.542   0.485  0.6820  1.0127 -2.0542
 4493SOL     OW24940   0.722   2.827  13.373  0.1062  0.2978 -0.1765
 4493SOL    HW124941   0.656   2.772  13.414  3.0334 -1.6797  1.9100
 4493SOL    HW224942   0.668   2.906  13.380 -0.5997 -0.3308  1.2739
 4494SOL     OW24943   3.132   1.035   6.657 -0.5847  0.6187  0.0516
 4494SOL    HW124944   3.212   0.984   6.672 -0.3411  0.5571 -1.5034
 4494SOL    HW224945   3.076   0.972   6.611  0.5484  0.3651 -0.9559
 4495SOL     OW24946   2.652   2.917   3.618  0.0084 -0.4461 -0.2367
 4495SOL    HW124947   2.620   2.959   3.538 -1.0112  0.0075  0.4041
 4495SOL    HW224948   2.699   2.844   3.578  1.2528 -0.6922  1.6769
 4496SOL     OW24949   2.825   1.968   0.535 -0.2316 -0.0964  0.3166
 4496SOL    HW124950   2.749   1.946   0.481 -1.2640 -0.5958  1.9528
 4496SOL    HW224951   2.855   1.886   0.573  0.1338  1.0645  2.5923
 4497SOL     OW24952   1.494   1.331  12.794  0.2861 -0.3889  0.1572
 4497SOL    HW124953   1.477   1.350  12.702 -0.6474  0.8643  0.5959
 4497SOL    HW224954   1.565   1.389  12.822 -1.5661  2.5529 -1.2725
 4498SOL     OW24955   3.194   1.787   1.230  0.2324  0.1289 -0.4687
 4498SOL    HW124956   3.251   1.738   1.289  0.3043  0.5546 -0.1863
 4498SOL    HW224957   3.156   1.715   1.181  2.7866 -2.7093  1.7417
 4499SOL     OW24958   0.175   4.418   7.045 -0.4061  0.3692 -0.2646
 4499SOL    HW124959   0.200   4.337   7.089  2.0011  1.3225  0.1172
 4499SOL    HW224960   0.251   4.425   6.988 -1.6558 -0.3141 -2.0283
 4500SOL     OW24961   4.577   0.982   1.599  0.4051 -0.0482 -0.3709
 4500SOL    HW124962   4.651   0.936   1.559  0.4655 -0.1305 -0.1650
 4500SOL    HW224963   4.603   1.074   1.595  0.3092  0.0513  1.4990
 4501SOL     OW24964   4.399   1.468  12.744 -0.0230 -0.0233 -1.0348
 4501SOL    HW124965   4.322   1.517  12.715 -0.5492 -0.2870 -0.0786
 4501SOL    HW224966   4.470   1.476  12.680  0.7008 -1.6778 -0.4499
 4502SOL     OW24967   0.886   2.203   9.331  0.0328 -0.0917  0.4180
 4502SOL    HW124968   0.812   2.259   9.308  0.5541  0.4897  0.1645
 4502SOL    HW224969   0.849   2.142   9.395  0.4650 -0.3081  0.4639
 4503SOL     OW24970   0.435   1.541  10.487 -0.0998  0.2459 -0.0631
 4503SOL    HW124971   0.528   1.521  10.477  0.0242 -0.7658  3.0155
 4503SOL    HW224972   0.409   1.465  10.435  1.0902 -2.1270  2.8450
 4504SOL     OW24973   3.752   2.932  16.255  0.1266  0.6348 -0.2713
 4504SOL    HW124974   3.715   2.983  16.182  1.6966 -1.0953 -2.2576
 4504SOL    HW224975   3.673   2.922  16.308  1.5328 -0.2889  1.6382
 4505SOL     OW24976   1.155   3.830   9.678 -0.0337 -0.7444  0.0124
 4505SOL    HW124977   1.103   3.905   9.707  0.9921 -0.5365  1.2937
 4505SOL    HW224978   1.220   3.824   9.748  1.6356  1.8057 -1.3185
 4506SOL     OW24979   4.274   4.600   7.959 -0.2989 -0.0181  0.6332
 4506SOL    HW124980   4.180   4.619   7.960 -0.5384 -1.2312  1.9777
 4506SOL    HW224981   4.281   4.573   7.868 -3.6327  0.3988  0.2545
 4507SOL     OW24982   3.106   3.390   7.586  0.3089 -0.5644 -0.4437
 4507SOL    HW124983   3.059   3.365   7.665  0.3815 -1.1759 -0.5933
 4507SOL    HW224984   3.110   3.485   7.593  1.5294 -0.6997  0.7036
 4508SOL     OW24985   3.189   0.810   2.081  0.4647  0.5463  0.3899
 4508SOL    HW124986   3.147   0.822   1.996  0.3767  0.0283  0.3579
 4508SOL    HW224987   3.242   0.889   2.081  0.6368  0.4283 -0.4216
 4509SOL     OW24988   2.656   1.937  10.752  0.6403  0.0761  0.4318
 4509SOL    HW124989   2.582   1.998  10.749  1.3531  0.8742 -0.9787
 4509SOL    HW224990   2.627   1.873  10.686 -2.3865  0.4157  1.4201
 4510SOL     OW24991   1.720   4.437   1.255  0.8564  0.3057  0.2103
 4510SOL    HW124992   1.717   4.491   1.334 -0.3895  2.0231 -1.0100
 4510SOL    HW224993   1.759   4.497   1.192 -0.4033  0.9464  0.0277
 4511SOL     OW24994   4.693   2.413   4.580 -0.3458  0.0219  0.0383
 4511SOL    HW124995   0.046   2.356   4.593 -1.8015 -1.7322  0.8267
 4511SOL    HW224996   4.679   2.456   4.664  0.4058  0.4040 -0.0372
 4512SOL     OW24997   4.175   2.477   3.030 -0.1047 -0.1376  0.2314
 4512SOL    HW124998   4.108   2.409   3.022 -1.1447  0.9474 -0.4159
 4512SOL    HW224999   4.184   2.514   2.942  2.9297 -1.1614  0.1378
 4513SOL     OW25000   3.549   3.192  15.167  0.3279  0.0092 -0.3980
 4513SOL    HW125001   3.492   3.218  15.095 -2.2685 -4.5587  0.0295
 4513SOL    HW225002   3.584   3.267  15.215 -0.6971  1.1323 -1.3895
 4514SOL     OW25003   1.657   0.173   0.143  0.2330 -0.3838 -0.1940
 4514SOL    HW125004   1.624   0.083   0.146  0.7344 -0.4438  2.9840
 4514SOL    HW225005   1.736   0.161   0.090  0.3927  0.9279 -0.2604
 4515SOL     OW25006   1.953   2.443  10.260  0.0218 -0.4317 -0.5415
 4515SOL    HW125007   1.986   2.434  10.350  1.9523  1.9320 -1.0256
 4515SOL    HW225008   1.951   2.353  10.226  1.5976 -1.0898  1.0977
 4516SOL     OW25009   4.157   4.367  17.442 -0.3122 -0.0090  0.2897
 4516SOL    HW125010   4.164   4.451  17.398  0.0076  0.2553  0.8326
 4516SOL    HW225011   4.093   4.326  17.384  0.2623  0.5788 -0.7475
 4517SOL     OW25012   2.587   1.157   8.741 -0.0759 -0.4814  0.2801
 4517SOL    HW125013   2.591   1.079   8.687 -0.1387 -1.2856  1.4338
 4517SOL    HW225014   2.529   1.130   8.813  0.9464 -2.6065  0.2862
 4518SOL     OW25015   2.845   1.079   4.139  0.8390 -0.3391 -0.0180
 4518SOL    HW125016   2.781   1.089   4.209  0.7226 -0.2534 -0.1368
 4518SOL    HW225017   2.780   1.053   4.073 -1.0175  0.4104  1.4896
 4519SOL     OW25018   1.033   0.354   7.512 -0.0116 -0.3067 -0.1208
 4519SOL    HW125019   1.002   0.428   7.564 -1.0187 -0.7264 -0.1232
 4519SOL    HW225020   1.070   0.297   7.579 -1.2588  0.8031  1.5071
 4520SOL     OW25021   3.215   4.390   2.794 -0.1177  0.1482 -0.1617
 4520SOL    HW125022   3.193   4.475   2.755  1.0521  0.4850 -0.0932
 4520SOL    HW225023   3.170   4.405   2.877 -0.0061 -0.3697 -0.0097
 4521SOL     OW25024   0.562   0.098   8.223 -0.1592 -0.1726  0.2119
 4521SOL    HW125025   0.495   0.060   8.280 -0.7843 -0.7340 -0.8903
 4521SOL    HW225026   0.632   0.124   8.282  0.7166 -0.6708 -0.6001
 4522SOL     OW25027   1.295   0.435   1.106 -0.4928  0.5508 -0.4976
 4522SOL    HW125028   1.212   0.421   1.150  0.2903 -2.2461  0.1003
 4522SOL    HW225029   1.360   0.413   1.173 -0.2460 -0.2794 -0.9996
 4523SOL     OW25030   3.106   1.191   6.065 -0.1132  0.4250 -0.1493
 4523SOL    HW125031   3.046   1.264   6.084  2.1212  2.0931  0.4998
 4523SOL    HW225032   3.055   1.123   6.021  0.1702  1.0589 -1.4522
 4524SOL     OW25033   2.704   4.301  16.417 -0.3356  0.4770  0.0108
 4524SOL    HW125034   2.727   4.387  16.452  1.3648  0.2497 -0.5375
 4524SOL    HW225035   2.792   4.276  16.388 -2.1895 -1.4945 -3.8394
 4525SOL     OW25036   2.600   1.684   0.509  0.0359 -0.1545  0.6604
 4525SOL    HW125037   2.582   1.595   0.541  0.5770 -0.8805 -1.0636
 4525SOL    HW225038   2.548   1.693   0.430 -0.3891 -1.1085  0.8316
 4526SOL     OW25039   1.876   3.588   0.414  0.1619 -0.0668  0.6999
 4526SOL    HW125040   1.783   3.608   0.429  0.1272  0.3408 -0.0868
 4526SOL    HW225041   1.912   3.610   0.500 -0.6215  2.6097  0.3332
 4527SOL     OW25042   2.581   3.971   6.667  0.1465  0.3253 -1.1399
 4527SOL    HW125043   2.605   3.972   6.574 -1.3299  0.6016 -1.5189
 4527SOL    HW225044   2.663   3.947   6.711  1.0080  0.1665 -2.8022
 4528SOL     OW25045   4.606   4.601   9.013  0.1174  0.0713 -0.1915
 4528SOL    HW125046   4.691   4.638   9.037  0.1273 -0.4767  0.6036
 4528SOL    HW225047   4.551   4.629   9.086  0.4178 -0.5439  0.2614
 4529SOL     OW25048   1.458   2.791   8.511  0.5370  0.5992 -0.8143
 4529SOL    HW125049   1.454   2.795   8.416  2.3426  1.0135 -0.8629
 4529SOL    HW225050   1.490   2.875   8.545  3.8360 -1.0932  0.2463
 4530SOL     OW25051   2.799   3.293   7.662  0.1369 -0.3147  0.3891
 4530SOL    HW125052   2.826   3.231   7.729  0.7472 -0.8325 -0.3293
 4530SOL    HW225053   2.705   3.281   7.675 -0.4245  2.9473 -0.6484
 4531SOL     OW25054   0.435   1.350   9.807 -0.0185  0.6460 -0.5131
 4531SOL    HW125055   0.366   1.286   9.824 -0.9432  2.5463  2.9961
 4531SOL    HW225056   0.476   1.329   9.890 -0.2009 -2.5985 -1.2578
 4532SOL     OW25057   4.416   0.372   1.555  0.5305 -0.2895 -0.2348
 4532SOL    HW125058   4.331   0.336   1.530 -0.2920  0.2248  1.7569
 4532SOL    HW225059   4.457   0.376   1.469 -0.2924  0.5377 -0.5865
 4533SOL     OW25060   0.136   1.342   8.870  0.0601 -0.2792 -0.1454
 4533SOL    HW125061   0.114   1.428   8.832  0.4738  0.2489  0.8307
 4533SOL    HW225062   0.151   1.284   8.795 -2.0403 -0.4181 -0.4652
 4534SOL     OW25063   1.434   1.498   7.087  0.3575 -0.6738  0.4017
 4534SOL    HW125064   1.436   1.594   7.089 -0.8269 -0.6672  0.9102
 4534SOL    HW225065   1.509   1.477   7.031  0.5240  1.8057 -0.2998
 4535SOL     OW25066   4.534   2.901   7.429  0.3359  0.2352 -0.1133
 4535SOL    HW125067   4.528   2.985   7.476  0.2148  0.3404 -0.3150
 4535SOL    HW225068   4.610   2.904   7.371 -0.5663  2.0196 -1.2213
 4536SOL     OW25069   0.458   2.007  16.480 -0.9274  0.2611  0.4228
 4536SOL    HW125070   0.484   1.928  16.527  0.3039 -0.3126 -1.2410
 4536SOL    HW225071   0.456   1.982  16.387  2.3747  1.2860  0.0802
 4537SOL     OW25072   0.780   1.892   7.142  0.0111  0.0328 -0.0317
 4537SOL    HW125073   0.779   1.983   7.111  0.6920  0.1846  0.3855
 4537SOL    HW225074   0.730   1.848   7.073 -1.0453  3.6784 -1.6089
 4538SOL     OW25075   4.470   2.067  14.171  0.2900  0.8687 -0.6614
 4538SOL    HW125076   4.478   1.975  14.149 -1.2073  1.0075 -1.8263
 4538SOL    HW225077   4.563   2.088  14.179 -0.1481  2.6593 -0.1812
 4539SOL     OW25078   3.753   0.366   3.289 -0.2123  0.5138 -0.0965
 4539SOL    HW125079   3.788   0.455   3.284  0.4228  0.3548  1.6073
 4539SOL    HW225080   3.670   0.381   3.243 -0.1860  1.0602  0.0341
 4540SOL     OW25081   4.288   4.304   8.848 -0.1698  0.1163  0.2787
 4540SOL    HW125082   4.378   4.325   8.872  0.3019 -1.1579 -0.3733
 4540SOL    HW225083   4.224   4.353   8.899  1.0928  1.2527  0.7539
 4541SOL     OW25084   4.644   4.029   9.078  0.0959 -0.1901 -0.3976
 4541SOL    HW125085   4.635   3.941   9.044 -1.2125  0.2606 -1.2252
 4541SOL    HW225086   4.722   4.049   9.026  0.0262 -0.2101 -0.5104
 4542SOL     OW25087   4.158   1.454   5.599  0.6870  0.6437 -0.2975
 4542SOL    HW125088   4.163   1.420   5.689  1.0164 -0.4676 -0.7419
 4542SOL    HW225089   4.191   1.376   5.554  0.3397  0.7822 -0.7807
 4543SOL     OW25090   2.561   0.912   1.000 -0.4659  0.2439 -0.3654
 4543SOL    HW125091   2.520   0.898   1.086  0.6782  0.8170  0.2764
 4543SOL    HW225092   2.616   0.835   0.987  0.1343  1.1150 -2.9295
 4544SOL     OW25093   2.160   0.592   3.767  0.0492  0.2703 -0.2192
 4544SOL    HW125094   2.194   0.528   3.830  3.2178  1.4610 -0.7091
 4544SOL    HW225095   2.244   0.625   3.735  1.2535 -1.8731  0.6869
 4545SOL     OW25096   2.478   3.672  17.268  0.0620 -0.2898 -1.0537
 4545SOL    HW125097   2.522   3.621  17.200 -0.2632 -0.8651 -0.8346
 4545SOL    HW225098   2.514   3.628  17.345 -0.9331  0.1688 -0.3264
 4546SOL     OW25099   0.795   3.495   8.867  0.0678 -0.2181 -0.3072
 4546SOL    HW125100   0.762   3.430   8.928  3.0472  0.4751  1.9889
 4546SOL    HW225101   0.807   3.440   8.789  1.5113  0.3734 -0.5055
 4547SOL     OW25102   0.641   3.852   2.442 -0.5744 -0.2202 -0.1564
 4547SOL    HW125103   0.710   3.793   2.413 -1.2691  0.7306 -3.7849
 4547SOL    HW225104   0.694   3.925   2.474 -1.5138 -0.1607  1.2773
 4548SOL     OW25105   2.355   3.142   7.864 -0.3618 -0.8212 -0.0109
 4548SOL    HW125106   2.267   3.159   7.832 -1.1670 -0.2261  2.5392
 4548SOL    HW225107   2.385   3.065   7.816 -0.6109 -1.6134  1.1272
 4549SOL     OW25108   2.750   1.959   6.260 -0.0782 -0.3084  0.1507
 4549SOL    HW125109   2.675   1.972   6.202 -0.1070  0.6494  0.3969
 4549SOL    HW225110   2.712   1.888   6.311  0.6890  0.0850  1.2849
 4550SOL     OW25111   2.770   0.376   5.258 -0.4438  0.1885  0.1731
 4550SOL    HW125112   2.722   0.294   5.249 -1.2540  0.9938 -2.8287
 4550SOL    HW225113   2.696   0.437   5.250 -0.8258 -0.1860  0.8522
 4551SOL     OW25114   3.252   1.899  14.497  0.0433  0.0141  0.0216
 4551SOL    HW125115   3.217   1.913  14.409 -0.8620 -1.8559  0.0668
 4551SOL    HW225116   3.176   1.846  14.524  1.2627 -1.7089  0.0953
 4552SOL     OW25117   1.780   3.755  11.911 -0.1920 -0.0861 -0.0546
 4552SOL    HW125118   1.841   3.774  11.983 -0.9581 -0.7814  0.7922
 4552SOL    HW225119   1.741   3.841  11.893  0.6937  0.3686  0.1966
 4553SOL     OW25120   2.432   2.935   8.196 -0.0544 -0.4287 -0.0927
 4553SOL    HW125121   2.482   2.930   8.278  1.4911 -0.0385 -1.0227
 4553SOL    HW225122   2.414   3.028   8.193 -0.0186 -0.3755  1.4159
 4554SOL     OW25123   2.704   3.121   5.729 -0.1498  0.0695  0.2157
 4554SOL    HW125124   2.661   3.059   5.788  0.1713  1.9749  2.4582
 4554SOL    HW225125   2.787   3.076   5.711 -0.3171 -0.4586  0.7598
 4555SOL     OW25126   0.001   2.355   6.062 -0.4342  0.4449  0.7337
 4555SOL    HW125127   4.710   2.367   5.968 -0.9634  1.4896  0.9359
 4555SOL    HW225128   0.056   2.277   6.062 -2.1320 -0.7622  0.5223
 4556SOL     OW25129   2.978   4.235   2.630 -0.6618  0.1091  0.3558
 4556SOL    HW125130   2.955   4.216   2.721 -0.2808  0.5861  0.5489
 4556SOL    HW225131   2.994   4.329   2.633  0.7201 -0.0782 -0.7232
 4557SOL     OW25132   0.200   3.236   0.150 -0.1399  0.3731 -0.2633
 4557SOL    HW125133   0.125   3.177   0.141  1.0538 -0.6934 -3.4210
 4557SOL    HW225134   0.173   3.300   0.215 -1.1947  0.4674 -0.8003
 4558SOL     OW25135   0.896   1.038   3.136  0.1130 -0.1233  0.8567
 4558SOL    HW125136   0.882   1.097   3.062 -0.7415 -3.4815 -1.6413
 4558SOL    HW225137   0.872   1.095   3.210 -0.5333  2.0709 -1.0542
 4559SOL     OW25138   2.461   1.705   7.765  0.2794 -0.0001  0.6474
 4559SOL    HW125139   2.452   1.699   7.670  0.4206 -1.0514  0.7024
 4559SOL    HW225140   2.472   1.801   7.767  0.3972 -0.0163  0.7665
 4560SOL     OW25141   0.378   4.110   5.046  0.6835 -0.3658  0.1189
 4560SOL    HW125142   0.366   4.105   4.951 -1.1145 -1.6781  0.3895
 4560SOL    HW225143   0.331   4.192   5.063  1.2349  0.0038 -0.1459
 4561SOL     OW25144   0.568   0.961   8.052 -0.3450  0.6305 -0.1154
 4561SOL    HW125145   0.553   0.867   8.046 -0.4267  0.6315  0.0617
 4561SOL    HW225146   0.659   0.966   8.022  0.4374 -0.8446  2.0222
 4562SOL     OW25147   0.768   1.883   9.011  0.1038  0.6676  0.2903
 4562SOL    HW125148   0.829   1.945   8.972  0.6369  0.7320  1.2128
 4562SOL    HW225149   0.815   1.806   9.044 -1.0374 -0.2974 -0.3204
 4563SOL     OW25150   1.848   3.662   6.065 -0.3134  0.4275  0.0763
 4563SOL    HW125151   1.849   3.578   6.018 -3.1709  0.7923 -0.6062
 4563SOL    HW225152   1.768   3.693   6.023  1.4401  2.4440 -1.7366
 4564SOL     OW25153   0.296   3.667   9.470 -0.0317  0.0255  0.2155
 4564SOL    HW125154   0.304   3.688   9.563  1.7747 -1.4409  0.3711
 4564SOL    HW225155   0.222   3.606   9.478 -1.1034  1.1719 -0.8513
 4565SOL     OW25156   1.726   0.659   3.840 -0.2148  0.5499 -0.3449
 4565SOL    HW125157   1.816   0.691   3.846 -0.5829  1.3972  0.7379
 4565SOL    HW225158   1.746   0.569   3.865 -2.8536 -0.0805 -0.5027
 4566SOL     OW25159   3.615   3.184   0.666  0.6795  0.8542  0.4005
 4566SOL    HW125160   3.617   3.280   0.669 -3.6334  0.9399 -0.1483
 4566SOL    HW225161   3.683   3.168   0.732  0.7945 -0.5893 -0.0815
 4567SOL     OW25162   0.609   1.456   7.709 -0.5725 -0.2203  0.6139
 4567SOL    HW125163   0.674   1.422   7.647 -1.0041 -0.5855  0.3619
 4567SOL    HW225164   0.619   1.551   7.696 -1.4717 -0.1991  0.0048
 4568SOL     OW25165   0.648   2.850   3.651 -0.2325  0.0554 -0.4510
 4568SOL    HW125166   0.578   2.799   3.609 -0.7107 -0.0179  0.4261
 4568SOL    HW225167   0.696   2.883   3.575  0.4118  0.3737  0.0986
 4569SOL     OW25168   4.229   4.133  10.842  0.4243  0.3965 -0.4858
 4569SOL    HW125169   4.137   4.121  10.867  0.7275 -0.2413  0.3327
 4569SOL    HW225170   4.282   4.057  10.866  0.0493  0.7476  1.4441
 4570SOL     OW25171   4.306   3.700  13.137  0.8447 -0.7919 -0.0579
 4570SOL    HW125172   4.213   3.702  13.160  1.3563 -0.8995  2.0623
 4570SOL    HW225173   4.333   3.791  13.149 -0.8251 -0.2232 -0.5313
 4571SOL     OW25174   2.533   4.028   6.919  0.1884 -1.1194 -0.3636
 4571SOL    HW125175   2.541   3.989   6.832  0.3406 -1.8135 -0.0352
 4571SOL    HW225176   2.625   4.045   6.937 -0.0280  1.6247 -1.8310
 4572SOL     OW25177   2.278   3.235   2.401 -0.1342  0.2870  0.0080
 4572SOL    HW125178   2.195   3.209   2.362  0.9818 -0.5223 -1.8484
 4572SOL    HW225179   2.338   3.221   2.328  0.8901  1.9443  0.5209
 4573SOL     OW25180   2.073   2.378   7.127 -0.3317  0.0076 -0.3507
 4573SOL    HW125181   1.995   2.394   7.181  0.1762  0.6370  0.1948
 4573SOL    HW225182   2.122   2.315   7.179 -0.5553 -1.1401 -1.5316
 4574SOL     OW25183   0.131   3.112   2.210 -0.3100  0.0080 -0.3799
 4574SOL    HW125184   0.140   3.207   2.202 -0.0400  0.1172  1.2461
 4574SOL    HW225185   0.106   3.091   2.119  0.6855 -1.9528 -0.1943
 4575SOL     OW25186   0.359   3.775   2.487 -0.1438 -0.1077 -0.0685
 4575SOL    HW125187   0.451   3.779   2.510  0.4810  1.1661 -2.8062
 4575SOL    HW225188   0.357   3.680   2.476 -1.4350  0.0946 -1.6917
 4576SOL     OW25189   2.107   4.163   5.123 -0.1087 -0.1155 -0.0372
 4576SOL    HW125190   2.059   4.138   5.044 -1.1848  1.4775  0.1035
 4576SOL    HW225191   2.053   4.239   5.146 -1.3476 -1.2255  0.7711
 4577SOL     OW25192   3.877   3.634   3.014  0.6126 -0.4659 -0.1307
 4577SOL    HW125193   3.859   3.702   3.080 -2.0833 -2.1608  0.8797
 4577SOL    HW225194   3.904   3.692   2.944  2.3109  1.2150  1.8972
 4578SOL     OW25195   3.343   0.738   8.646 -0.2709  0.3690  0.1385
 4578SOL    HW125196   3.413   0.798   8.620  1.1739 -1.5207 -0.3407
 4578SOL    HW225197   3.266   0.795   8.635  0.8864  1.2792 -3.0537
 4579SOL     OW25198   2.928   0.339  14.281  0.4825 -0.4900  0.3456
 4579SOL    HW125199   3.020   0.354  14.260  0.1567  0.1191 -0.6232
 4579SOL    HW225200   2.887   0.370  14.200  0.8655 -2.6184 -0.6606
 4580SOL     OW25201   1.025   0.408   5.121  0.4310  0.4683 -0.5529
 4580SOL    HW125202   0.959   0.463   5.079 -0.4759 -1.2656 -1.3898
 4580SOL    HW225203   1.085   0.466   5.169  0.4209  0.0093  0.0056
 4581SOL     OW25204   4.488   0.729   8.692 -0.3492 -0.0832  0.1857
 4581SOL    HW125205   4.530   0.657   8.645 -0.7285  0.4510 -0.9703
 4581SOL    HW225206   4.502   0.799   8.628  1.1708 -0.5633 -0.0200
 4582SOL     OW25207   2.791   4.660   3.262  0.5087  0.5505 -0.0354
 4582SOL    HW125208   2.765   4.611   3.339  2.7021 -0.1978  0.2329
 4582SOL    HW225209   2.753   4.601   3.196 -0.0467  0.9447 -0.0695
 4583SOL     OW25210   2.521   4.299   4.580  0.3329  0.0067 -0.1205
 4583SOL    HW125211   2.558   4.372   4.628 -1.9408  0.4620  0.9098
 4583SOL    HW225212   2.476   4.261   4.655  0.0246  1.9806  0.6736
 4584SOL     OW25213   3.125   0.934   4.372  0.4808  0.0787  0.8972
 4584SOL    HW125214   3.104   1.026   4.387 -0.3683  0.0158  0.1160
 4584SOL    HW225215   3.080   0.897   4.448 -0.0249 -0.0271  0.5417
 4585SOL     OW25216   3.075   0.453  17.114 -0.2691 -0.0211  0.4223
 4585SOL    HW125217   3.124   0.504  17.179 -1.8420  0.0343  1.5641
 4585SOL    HW225218   3.139   0.393  17.076  0.9640  1.0199  0.8247
 4586SOL     OW25219   1.415   3.991   6.062  0.1420  0.0492  1.2882
 4586SOL    HW125220   1.429   3.998   5.967  1.6697  1.9692  1.6655
 4586SOL    HW225221   1.332   3.943   6.067  0.4243 -0.5179  0.5440
 4587SOL     OW25222   0.016   4.265   6.714  0.5168 -0.1561 -0.0211
 4587SOL    HW125223   4.704   4.216   6.640  1.0571 -0.8768  0.2057
 4587SOL    HW225224   0.094   4.312   6.683 -0.3460  0.9777 -0.4897
 4588SOL     OW25225   3.495   1.859   1.209  0.1156 -0.2705 -0.0927
 4588SOL    HW125226   3.509   1.782   1.153  0.0124  1.5492 -2.5932
 4588SOL    HW225227   3.406   1.884   1.185 -0.1749 -2.8874 -1.7655
 4589SOL     OW25228   1.321   3.196   9.060  0.7062  0.3771 -0.2801
 4589SOL    HW125229   1.309   3.167   8.969 -0.0915 -1.6833  0.4910
 4589SOL    HW225230   1.296   3.288   9.048 -0.7706  0.0785  0.4404
 4590SOL     OW25231   0.018   3.438   2.909 -0.2300  0.2027 -0.4686
 4590SOL    HW125232   0.068   3.493   2.968  0.7104  0.2312 -1.2931
 4590SOL    HW225233   0.076   3.363   2.894 -0.8766 -0.4687  0.3580
 4591SOL     OW25234   3.008   4.491   6.178  0.0600  0.0957 -0.1448
 4591SOL    HW125235   3.048   4.564   6.131 -1.0357 -1.0453 -2.8635
 4591SOL    HW225236   3.069   4.418   6.171  0.2620  0.2452  0.0587
 4592SOL     OW25237   1.285   3.028  10.307  0.3543  0.4456 -0.3389
 4592SOL    HW125238   1.337   3.033  10.227  0.3296  1.3653 -0.3013
 4592SOL    HW225239   1.321   3.096  10.365  0.4868  1.4672 -1.6173
 4593SOL     OW25240   2.180   2.824  11.112  0.6236 -0.2887  0.0745
 4593SOL    HW125241   2.255   2.822  11.052 -1.1146  0.7243 -2.0937
 4593SOL    HW225242   2.166   2.917  11.127  0.2655 -0.1127 -1.3766
 4594SOL     OW25243   1.944   2.964   7.909 -0.0343 -0.4214 -0.2170
 4594SOL    HW125244   1.905   3.007   7.833  0.9110 -0.4181 -0.6975
 4594SOL    HW225245   1.911   2.875   7.896  1.7720 -1.0885 -0.1235
 4595SOL     OW25246   1.492   0.083  15.885 -0.1790 -0.4459 -0.8874
 4595SOL    HW125247   1.399   0.102  15.873  0.6273  2.7228 -2.2799
 4595SOL    HW225248   1.475   0.003  15.935  1.2875 -1.5174 -2.1035
 4596SOL     OW25249   2.295   2.206  10.547  0.0329  0.4457  0.2571
 4596SOL    HW125250   2.254   2.177  10.465  3.8304  0.2902 -1.6087
 4596SOL    HW225251   2.307   2.300  10.531  0.6941  0.9601  3.8867
 4597SOL     OW25252   3.194   3.843  14.985 -0.6310  0.3744 -0.5093
 4597SOL    HW125253   3.236   3.868  14.903  1.4405 -1.2882  0.0372
 4597SOL    HW225254   3.107   3.814  14.958 -0.0182 -0.7305 -1.2749
 4598SOL     OW25255   0.195   3.578   4.664 -0.3324 -0.2841  0.3226
 4598SOL    HW125256   0.111   3.601   4.625  1.5167  1.3392 -2.6731
 4598SOL    HW225257   0.166   3.516   4.731 -2.0335 -0.5911 -0.7051
 4599SOL     OW25258   0.053   3.619  14.859  0.0337 -0.4345  0.6453
 4599SOL    HW125259   0.034   3.706  14.823 -1.5229 -1.1356 -0.2688
 4599SOL    HW225260   0.108   3.608  14.782  0.5148  1.2757  0.7384
 4600SOL     OW25261   2.147   2.455   6.190  0.4188 -0.1395  0.6417
 4600SOL    HW125262   2.079   2.391   6.169 -0.9894  2.1483 -1.7893
 4600SOL    HW225263   2.207   2.405   6.246 -0.2367  0.1852  1.6356
 4601SOL     OW25264   4.712   0.326   8.350  0.4891 -0.2868  0.3338
 4601SOL    HW125265   0.019   0.251   8.299  1.3847  1.0401 -1.1258
 4601SOL    HW225266   4.656   0.290   8.419  1.3172 -0.6573  0.8105
 4602SOL     OW25267   1.008   4.184  12.582  0.7063  0.4820  0.1939
 4602SOL    HW125268   1.001   4.279  12.588  0.7301  0.5189 -0.3927
 4602SOL    HW225269   1.084   4.161  12.528 -0.1410  1.7861 -1.5400
 4603SOL     OW25270   2.616   3.341   6.728  0.8703 -0.0446  0.0234
 4603SOL    HW125271   2.589   3.347   6.819 -2.6309  0.9875 -1.0648
 4603SOL    HW225272   2.709   3.363   6.731  0.8131 -0.3982  3.5710
 4604SOL     OW25273   2.892   0.684   3.285 -0.3635 -0.6304 -0.1851
 4604SOL    HW125274   2.917   0.596   3.259 -0.0047 -1.3869  2.7143
 4604SOL    HW225275   2.919   0.697   3.376  1.7072  1.0572 -1.0587
 4605SOL     OW25276   3.545   2.241  12.945 -0.1207 -0.1741  0.1672
 4605SOL    HW125277   3.613   2.198  12.996 -1.0017 -1.2605  0.4288
 4605SOL    HW225278   3.540   2.319  13.000  2.1011  0.2474 -0.1997
 4606SOL     OW25279   2.145   4.263   7.059 -0.0801 -0.1361  0.4237
 4606SOL    HW125280   2.214   4.236   6.999 -0.8260 -1.4598  0.1500
 4606SOL    HW225281   2.131   4.352   7.028  0.3617 -0.1421  0.2112
 4607SOL     OW25282   4.518   3.050   5.382  0.1216 -0.4433  0.3602
 4607SOL    HW125283   4.532   3.136   5.342 -0.7510 -0.1848  0.6087
 4607SOL    HW225284   4.608   3.040   5.415 -0.0736 -1.1786  0.6831
 4608SOL     OW25285   2.875   4.215  14.710 -0.3346  0.5525 -0.6528
 4608SOL    HW125286   2.933   4.141  14.689 -0.5997 -0.0605  0.7648
 4608SOL    HW225287   2.821   4.177  14.779  1.0284  0.1849  0.2059
 4609SOL     OW25288   2.439   3.892  13.146  0.2862 -0.5050  0.5247
 4609SOL    HW125289   2.515   3.837  13.161 -0.8573 -2.4523 -0.8684
 4609SOL    HW225290   2.406   3.859  13.062 -0.8308 -0.6454  1.0146
 4610SOL     OW25291   2.902   3.400  17.197  0.7102  0.5293 -0.4398
 4610SOL    HW125292   2.938   3.423  17.111  0.5384  0.0720 -0.6358
 4610SOL    HW225293   2.809   3.378  17.189  0.7249  1.0479 -2.1130
 4611SOL     OW25294   3.305   2.882  10.829 -0.1275  0.0146 -0.4373
 4611SOL    HW125295   3.336   2.841  10.909  1.8814  1.8542 -0.2816
 4611SOL    HW225296   3.303   2.814  10.761 -1.1334 -1.0087  0.6012
 4612SOL     OW25297   1.174   2.841   9.013  0.0953  0.0951  0.4262
 4612SOL    HW125298   1.233   2.797   9.074  1.3766 -1.6055 -2.0520
 4612SOL    HW225299   1.205   2.814   8.926 -0.6824 -0.7437  0.4107
 4613SOL     OW25300   2.825   2.778   0.724  0.2025 -0.1013  0.2173
 4613SOL    HW125301   2.873   2.775   0.641  1.6476 -2.0544  1.1212
 4613SOL    HW225302   2.861   2.864   0.747  1.1652 -0.9980  2.0776
 4614SOL     OW25303   2.945   3.437  15.982 -0.4668 -0.0252  0.5753
 4614SOL    HW125304   3.017   3.379  16.005 -0.6554  0.8384  3.2447
 4614SOL    HW225305   2.907   3.385  15.911  0.2810 -3.9033  2.9938
 4615SOL     OW25306   1.792   3.756  11.289  0.8728 -0.0276 -0.3891
 4615SOL    HW125307   1.741   3.810  11.348  0.6021 -0.7175  0.0050
 4615SOL    HW225308   1.876   3.743  11.332  0.5248 -1.8501 -0.2646
 4616SOL     OW25309   1.872   4.154   0.239 -0.0012  0.2732 -0.2282
 4616SOL    HW125310   1.933   4.091   0.202 -0.8192 -0.3274 -0.5554
 4616SOL    HW225311   1.793   4.099   0.241  0.1601  0.1324  2.4655
 4617SOL     OW25312   3.194   0.027   4.548  0.3379  0.1026 -0.0975
 4617SOL    HW125313   3.270   0.078   4.519  0.5723  0.0426  0.4082
 4617SOL    HW225314   3.155   0.085   4.614 -2.2871 -0.0533 -1.5095
 4618SOL     OW25315   4.153   3.985   8.190 -0.0929 -0.4282 -0.0556
 4618SOL    HW125316   4.225   4.038   8.155 -2.0197  1.7904 -0.6740
 4618SOL    HW225317   4.104   3.964   8.110  1.8042 -1.5249 -0.9104
 4619SOL     OW25318   0.246   0.140   7.205 -0.4890 -0.0565 -0.0751
 4619SOL    HW125319   0.203   0.071   7.154 -1.1450 -0.1032  0.5426
 4619SOL    HW225320   0.214   0.212   7.151  2.0491 -1.1577 -3.0702
 4620SOL     OW25321   0.722   1.738  13.057  0.0121 -0.3610  0.6810
 4620SOL    HW125322   0.648   1.679  13.064 -0.0019 -0.5125 -0.7895
 4620SOL    HW225323   0.701   1.798  12.986 -0.7349 -2.3173 -0.7589
 4621SOL     OW25324   2.067   0.302   5.982  0.2493  0.0988  0.0802
 4621SOL    HW125325   2.044   0.352   5.903  2.1218  3.1564  1.4802
 4621SOL    HW225326   2.011   0.346   6.046  0.0783  0.1672 -0.1154
 4622SOL     OW25327   0.497   4.103   8.170 -0.4584  0.0429 -0.5422
 4622SOL    HW125328   0.451   4.019   8.177 -1.2262  0.5237  0.1512
 4622SOL    HW225329   0.434   4.155   8.120  0.2222 -0.9623 -2.4619
 4623SOL     OW25330   3.706   0.887  13.039 -0.1605  0.1799  0.0263
 4623SOL    HW125331   3.700   0.922  12.951 -0.8554 -0.4264 -0.1638
 4623SOL    HW225332   3.750   0.956  13.089 -1.2106 -0.6775  2.1594
 4624SOL     OW25333   4.424   3.104   0.202 -0.0950 -0.2541  0.0390
 4624SOL    HW125334   4.412   3.198   0.185  3.2531  0.3305  0.8480
 4624SOL    HW225335   4.342   3.071   0.167  0.3745 -0.2279 -1.0958
 4625SOL     OW25336   3.341   4.400   7.065  0.2290 -0.8067  0.7171
 4625SOL    HW125337   3.291   4.318   7.068 -1.4732  0.1978 -0.3117
 4625SOL    HW225338   3.388   4.394   6.982 -2.5058 -2.0767 -0.7558
 4626SOL     OW25339   3.744   1.135   3.984 -0.2356 -0.3071 -0.2031
 4626SOL    HW125340   3.761   1.222   4.021 -0.2323 -1.2945  2.0888
 4626SOL    HW225341   3.709   1.153   3.897  0.8807 -1.3619 -0.8708
 4627SOL     OW25342   2.679   1.681   0.113 -0.1273  0.2888 -0.4743
 4627SOL    HW125343   2.669   1.587   0.127  2.9406  0.1929  0.9887
 4627SOL    HW225344   2.642   1.699   0.027 -0.0825  3.4601  0.1682
 4628SOL     OW25345   0.205   4.331   2.074 -0.1758  0.0201  0.6119
 4628SOL    HW125346   0.238   4.398   2.014 -1.0192  0.0133  0.1379
 4628SOL    HW225347   0.120   4.370   2.094  0.0718 -0.8866  3.3757
 4629SOL     OW25348   2.910   3.545  10.996  0.3564  0.0348 -0.1554
 4629SOL    HW125349   2.888   3.615  10.935 -0.6581 -1.0436 -1.0144
 4629SOL    HW225350   2.829   3.499  11.019 -0.8490  1.8363 -0.8312
 4630SOL     OW25351   3.137   2.064   7.320 -0.3515 -0.2697  0.0111
 4630SOL    HW125352   3.045   2.067   7.346 -0.7050 -3.4950 -0.9142
 4630SOL    HW225353   3.170   2.139   7.369  2.0157 -1.2362 -0.0936
 4631SOL     OW25354   4.236   1.396   3.378 -0.0691  0.6067 -0.3329
 4631SOL    HW125355   4.306   1.384   3.315 -0.7046  0.5369 -1.0177
 4631SOL    HW225356   4.207   1.305   3.389 -1.6671  1.0071 -1.3260
 4632SOL     OW25357   1.755   1.214   0.358 -0.1726 -0.0980 -0.4409
 4632SOL    HW125358   1.813   1.174   0.422  0.1842  0.8155 -0.1870
 4632SOL    HW225359   1.801   1.298   0.348 -1.1444  0.3572 -1.1826
 4633SOL     OW25360   2.056   1.498   7.301  0.4802 -0.8527 -0.1814
 4633SOL    HW125361   2.100   1.430   7.353 -0.3741  0.4719  2.2593
 4633SOL    HW225362   2.057   1.460   7.213 -1.0774  0.9184 -0.9671
 4634SOL     OW25363   2.784   0.118  13.321 -0.3864 -0.7721 -0.0270
 4634SOL    HW125364   2.766   0.207  13.291  0.3728 -0.2838  0.9930
 4634SOL    HW225365   2.845   0.139  13.392  0.2448 -0.6588 -0.6034
 4635SOL     OW25366   4.288   1.972  17.058 -0.2563  0.2533 -0.0079
 4635SOL    HW125367   4.346   2.011  17.123  0.4586  0.0191 -0.4971
 4635SOL    HW225368   4.299   2.029  16.982  0.4351 -0.7007 -0.6260
 4636SOL     OW25369   0.538   2.364   3.323  0.1366 -0.2220  0.7354
 4636SOL    HW125370   0.582   2.419   3.388  2.2039  0.0847 -0.9286
 4636SOL    HW225371   0.446   2.378   3.345 -0.2757  0.9888 -1.7338
 4637SOL     OW25372   4.578   2.851   1.370 -0.1010  0.6668  0.0477
 4637SOL    HW125373   4.637   2.783   1.403  0.1865  0.4798 -0.8566
 4637SOL    HW225374   4.508   2.858   1.435  1.9061 -1.0900  2.4110
 4638SOL     OW25375   0.776   2.263   4.755  0.3683 -0.3204 -0.0591
 4638SOL    HW125376   0.729   2.186   4.722 -0.3417 -0.0787  0.3936
 4638SOL    HW225377   0.806   2.225   4.838  1.8283  1.4497  0.2084
 4639SOL     OW25378   0.323   2.116   0.436  0.0298 -0.3675 -0.0242
 4639SOL    HW125379   0.288   2.027   0.437 -0.5865 -0.1291 -0.3106
 4639SOL    HW225380   0.389   2.112   0.505 -0.3225  1.3019  0.4046
 4640SOL     OW25381   1.053   4.057   4.584 -0.3057  0.3462  0.0379
 4640SOL    HW125382   0.975   4.111   4.570  0.2279  0.8534 -0.9207
 4640SOL    HW225383   1.091   4.040   4.498  1.8694  0.3636  1.0097
 4641SOL     OW25384   2.666   3.825  16.405 -0.2441  0.1407 -0.3562
 4641SOL    HW125385   2.613   3.820  16.484  0.5978  0.5944  0.2280
 4641SOL    HW225386   2.598   3.789  16.347 -0.4286 -0.4472  0.2222
 4642SOL     OW25387   3.827   3.515   1.170  0.0472 -0.7310  0.1045
 4642SOL    HW125388   3.923   3.515   1.167  0.0711  2.0986  1.6721
 4642SOL    HW225389   3.817   3.574   1.244 -0.4248 -0.3625 -0.2551
 4643SOL     OW25390   1.814   3.933   3.359 -0.4306  0.5033  0.8019
 4643SOL    HW125391   1.793   3.879   3.436  2.2498 -1.0961  0.4139
 4643SOL    HW225392   1.733   3.975   3.333 -0.5053  0.6236  1.2202
 4644SOL     OW25393   0.867   0.746  15.644  0.7144 -0.4700  0.1253
 4644SOL    HW125394   0.799   0.743  15.576  0.2035  0.6373  0.5907
 4644SOL    HW225395   0.920   0.825  15.630  0.3839 -0.2381  0.1668
 4645SOL     OW25396   0.788   0.994  12.358  0.8503  0.1638  0.0738
 4645SOL    HW125397   0.800   1.076  12.405 -0.5552  0.4458 -0.0735
 4645SOL    HW225398   0.732   1.015  12.283 -1.5063 -3.0290  0.9627
 4646SOL     OW25399   0.468   3.890   7.513 -0.2593 -0.3273  0.1074
 4646SOL    HW125400   0.460   3.951   7.587 -0.8773  1.0011 -1.0471
 4646SOL    HW225401   0.546   3.835   7.512 -1.1183 -1.5614  1.9951
 4647SOL     OW25402   1.869   2.630   2.927  0.1691 -0.0740  0.4429
 4647SOL    HW125403   1.817   2.590   2.996 -0.6458 -2.4435 -1.5675
 4647SOL    HW225404   1.804   2.661   2.864 -0.7166  0.0008  1.3930
 4648SOL     OW25405   1.436   3.545   9.544  0.5790 -0.6104 -0.0395
 4648SOL    HW125406   1.484   3.491   9.607 -0.0433 -0.4510  0.5672
 4648SOL    HW225407   1.409   3.623   9.591 -0.8446 -1.3328  0.3283
 4649SOL     OW25408   1.590   3.628  11.159 -0.8897 -0.6490 -0.1163
 4649SOL    HW125409   1.674   3.634  11.204 -1.7949  2.4822  1.1208
 4649SOL    HW225410   1.605   3.710  11.113  0.9622 -0.6648  0.4362
 4650SOL     OW25411   3.557   3.792  16.581 -0.2066 -0.0159 -0.2249
 4650SOL    HW125412   3.547   3.706  16.539  3.5613 -0.0337 -1.0573
 4650SOL    HW225413   3.548   3.849  16.505 -0.2625 -0.6691 -0.7051
 4651SOL     OW25414   1.612   2.508   4.981 -0.4932 -0.3657  0.2837
 4651SOL    HW125415   1.640   2.598   4.969  1.0580 -0.8828 -0.0394
 4651SOL    HW225416   1.527   2.529   5.020  0.5127  2.2133  1.0540
 4652SOL     OW25417   0.020   0.412   9.247  0.5940  0.5489  0.5299
 4652SOL    HW125418   4.667   0.371   9.204  0.1253  1.8845  0.0943
 4652SOL    HW225419   0.083   0.340   9.258  0.6710  0.8900  2.3884
 4653SOL     OW25420   2.590   2.871   8.449  0.3695 -0.3947  0.2472
 4653SOL    HW125421   2.556   2.885   8.537  0.3679  1.9032 -0.1017
 4653SOL    HW225422   2.678   2.907   8.461  1.0915 -2.8654  2.1311
 4654SOL     OW25423   1.071   2.535  14.643 -0.2874 -0.0499  0.6278
 4654SOL    HW125424   1.127   2.463  14.672  2.7142  1.4673 -1.4242
 4654SOL    HW225425   1.069   2.521  14.548  1.5007  1.9715  0.2824
 4655SOL     OW25426   1.494   1.204   3.947  0.1635 -0.0902  0.4956
 4655SOL    HW125427   1.429   1.172   3.884 -0.8883  2.1056  0.4546
 4655SOL    HW225428   1.522   1.122   3.988  2.0257  0.2541 -0.0991
 4656SOL     OW25429   4.183   2.655   7.711  0.7305 -0.1054 -0.1828
 4656SOL    HW125430   4.177   2.734   7.657 -0.5522  0.3774  0.6613
 4656SOL    HW225431   4.126   2.592   7.665  1.7809 -0.3580 -1.1440
 4657SOL     OW25432   3.835   2.936   3.796 -0.4328 -0.5363 -0.3248
 4657SOL    HW125433   3.879   2.894   3.722  2.5650 -2.4431  2.5372
 4657SOL    HW225434   3.888   3.012   3.817 -1.3499  0.2102 -0.6846
 4658SOL     OW25435   2.887   4.659   9.420  0.2791  0.3061 -0.2040
 4658SOL    HW125436   2.854   4.603   9.489  2.1006  2.2844  2.2918
 4658SOL    HW225437   2.980   4.659   9.445  0.3529  1.7657 -0.4912
 4659SOL     OW25438   1.021   3.403   5.488 -0.3455 -0.1925  0.6986
 4659SOL    HW125439   1.006   3.352   5.408  1.3828 -0.7778  0.7488
 4659SOL    HW225440   0.981   3.485   5.462 -0.4362 -0.3254  0.4163
 4660SOL     OW25441   2.610   2.036   3.200 -0.8091  0.8394  0.3486
 4660SOL    HW125442   2.518   2.051   3.181 -1.2405 -1.1631  0.8123
 4660SOL    HW225443   2.650   2.062   3.117  2.5908 -0.1512  1.6764
 4661SOL     OW25444   4.657   3.646   4.575 -0.4262  0.4295 -0.0343
 4661SOL    HW125445   4.672   3.605   4.490 -2.4768 -2.2753  0.9060
 4661SOL    HW225446   4.563   3.635   4.587  0.0654 -0.5845  2.7614
 4662SOL     OW25447   1.228   4.223  16.550  0.1409  0.1929  0.6483
 4662SOL    HW125448   1.274   4.280  16.611  0.6910 -0.9585  1.3093
 4662SOL    HW225449   1.262   4.135  16.566 -0.4822 -0.4808 -1.6239
 4663SOL     OW25450   1.432   2.099   2.524  0.2132  0.6277  0.1583
 4663SOL    HW125451   1.494   2.027   2.518  0.1302  0.6086 -0.4435
 4663SOL    HW225452   1.441   2.128   2.615  2.3591  0.7369 -0.1056
 4664SOL     OW25453   4.013   2.440   7.413 -0.1449 -0.3638  0.3204
 4664SOL    HW125454   3.973   2.467   7.495 -0.0787 -3.3576  1.3449
 4664SOL    HW225455   4.085   2.383   7.440  0.9197  1.1245  0.6420
 4665SOL     OW25456   2.880   2.356  13.875 -0.0176  0.4244 -0.2888
 4665SOL    HW125457   2.895   2.424  13.809 -0.9188  1.2938  0.4038
 4665SOL    HW225458   2.938   2.377  13.948 -1.6110  0.5945  0.9239
 4666SOL     OW25459   2.250   1.117   0.241  0.1044  0.7716 -1.2836
 4666SOL    HW125460   2.298   1.174   0.301 -2.2784  1.9203 -0.4351
 4666SOL    HW225461   2.214   1.187   0.186  0.0142  1.1591 -0.7319
 4667SOL     OW25462   0.445   4.033   1.523 -0.2009 -0.0371 -0.1279
 4667SOL    HW125463   0.490   4.116   1.539  0.5679 -0.6091  0.6657
 4667SOL    HW225464   0.514   3.979   1.484 -0.7855 -1.1377  0.3689
 4668SOL     OW25465   2.816   1.220   5.638 -0.1166  0.1269 -0.2813
 4668SOL    HW125466   2.762   1.142   5.650  3.1257 -1.9388  0.7209
 4668SOL    HW225467   2.900   1.175   5.627  0.0925  0.3220  0.5078
 4669SOL     OW25468   2.586   4.509   1.303 -0.2269  0.6128  0.1807
 4669SOL    HW125469   2.500   4.500   1.261  0.3001 -1.2437 -0.4975
 4669SOL    HW225470   2.564   4.544   1.389 -0.1872 -0.0038  0.4390
 4670SOL     OW25471   3.079   4.523   4.438  0.3948 -0.2347 -0.7990
 4670SOL    HW125472   3.122   4.598   4.480  0.9292 -0.2606 -1.2999
 4670SOL    HW225473   2.999   4.501   4.486 -1.2201  0.1558 -3.2744
 4671SOL     OW25474   1.073   3.359   8.767  0.3235  0.1556  0.3496
 4671SOL    HW125475   1.169   3.351   8.766  0.3426  0.2675  1.9424
 4671SOL    HW225476   1.064   3.301   8.842  0.9827 -1.0096 -0.4592
 4672SOL     OW25477   3.861   3.643  14.784 -0.3628  0.4192  0.0566
 4672SOL    HW125478   3.837   3.684  14.701  1.8638 -0.0707 -0.8346
 4672SOL    HW225479   3.955   3.625  14.778 -1.0168 -2.1010 -2.4614
 4673SOL     OW25480   3.970   1.670   9.064 -0.4552 -0.0122  0.3368
 4673SOL    HW125481   4.027   1.615   9.011 -1.4805 -1.4840  0.7584
 4673SOL    HW225482   3.899   1.690   9.003 -0.3375 -0.4185  0.0662
 4674SOL     OW25483   1.933   4.197  16.618  0.0887 -0.4999 -0.3287
 4674SOL    HW125484   1.904   4.286  16.638  1.7716 -0.2277  0.9623
 4674SOL    HW225485   1.849   4.161  16.591 -0.5130 -1.6025  2.9770
 4675SOL     OW25486   4.187   1.444   2.397  0.3457  0.2965  0.2721
 4675SOL    HW125487   4.140   1.373   2.440  0.9288 -0.9894 -1.2283
 4675SOL    HW225488   4.208   1.415   2.308 -0.5036  1.7390 -0.4035
 4676SOL     OW25489   0.149   0.102   4.108  0.1067  0.4904  0.4266
 4676SOL    HW125490   0.187   0.014   4.111  1.6959  1.1626  0.3447
 4676SOL    HW225491   0.143   0.131   4.199 -1.7103 -1.5958  0.9845
 4677SOL     OW25492   4.512   3.335   7.950  0.0510  0.2537 -0.5587
 4677SOL    HW125493   4.544   3.267   8.008  0.8867  1.4976  0.4411
 4677SOL    HW225494   4.588   3.376   7.910 -0.2021  0.9610 -0.3222
 4678SOL     OW25495   1.906   2.727   0.598 -0.1152 -0.0715 -0.9595
 4678SOL    HW125496   1.931   2.812   0.562  0.0530  0.2469 -0.0845
 4678SOL    HW225497   1.816   2.715   0.568 -0.6308 -0.2216  0.6423
 4679SOL     OW25498   0.754   0.322  12.880  0.5137 -0.1105 -0.6562
 4679SOL    HW125499   0.700   0.391  12.842 -0.7933 -0.9854 -0.3928
 4679SOL    HW225500   0.774   0.266  12.805  0.9273  0.0932 -0.6992
 4680SOL     OW25501   2.886   1.641   5.683 -0.2080 -0.7778 -0.2880
 4680SOL    HW125502   2.811   1.631   5.624 -1.3876  0.2912  1.0196
 4680SOL    HW225503   2.923   1.721   5.644  2.1816 -1.3324  0.8642
 4681SOL     OW25504   3.020   0.691   4.226 -0.0002 -0.2202  0.0235
 4681SOL    HW125505   3.096   0.734   4.265 -0.1454 -1.0302  1.2248
 4681SOL    HW225506   3.044   0.707   4.135 -0.9897  1.1761  0.0041
 4682SOL     OW25507   3.179   3.654  17.364 -0.2939 -0.6801 -0.7778
 4682SOL    HW125508   3.148   3.563  17.373 -2.2404  0.2134  1.6730
 4682SOL    HW225509   3.129   3.680  17.287 -1.3878  0.8575  0.4469
 4683SOL     OW25510   0.102   2.006  16.057 -0.0473 -0.0938 -0.1092
 4683SOL    HW125511   0.184   1.965  16.084 -0.1181  1.1794  1.9773
 4683SOL    HW225512   0.121   2.078  15.996 -2.7252 -0.1660 -1.0269
 4684SOL     OW25513   3.368   3.072   1.538 -0.2322  0.5766  0.4673
 4684SOL    HW125514   3.327   3.125   1.470 -0.4347  0.1554  0.2612
 4684SOL    HW225515   3.363   3.142   1.603  0.1691  0.4484  0.6382
 4685SOL     OW25516   1.582   4.369   1.698 -0.0532  0.4126 -0.4358
 4685SOL    HW125517   1.571   4.277   1.676 -1.1164  0.2730  0.6895
 4685SOL    HW225518   1.556   4.374   1.790  2.2104 -1.9115  0.3234
 4686SOL     OW25519   2.377   3.955   5.809 -0.0144 -0.1034 -0.3498
 4686SOL    HW125520   2.344   3.956   5.899 -3.6246 -1.0539 -1.6814
 4686SOL    HW225521   2.298   3.989   5.766 -0.6287 -0.4545  0.5066
 4687SOL     OW25522   0.524   1.296   4.343 -0.5263 -0.5325 -0.1014
 4687SOL    HW125523   0.494   1.229   4.405 -0.3562 -1.0670 -0.5946
 4687SOL    HW225524   0.456   1.281   4.277 -1.3164  3.0918 -0.1022
 4688SOL     OW25525   3.269   2.264   6.500  0.4244  0.3645  0.0612
 4688SOL    HW125526   3.364   2.273   6.508  0.4263  0.7404 -0.4478
 4688SOL    HW225527   3.246   2.187   6.553 -0.0952 -0.8008 -1.8777
 4689SOL     OW25528   4.413   2.416  14.232 -0.2097  0.1785 -0.2577
 4689SOL    HW125529   4.383   2.469  14.305 -1.3580 -2.5849  1.3107
 4689SOL    HW225530   4.388   2.328  14.263 -1.3020  0.5200 -0.1724
 4690SOL     OW25531   4.675   1.108   7.025 -0.2026  0.0887 -0.2747
 4690SOL    HW125532   4.621   1.156   6.962 -0.8567 -1.9623 -1.2709
 4690SOL    HW225533   4.610   1.091   7.092  0.8309 -0.0385  0.6953
 4691SOL     OW25534   3.324   4.722   2.099  0.8843  0.2618  0.6631
 4691SOL    HW125535   3.397   4.689   2.046 -0.5902 -0.9508 -0.6275
 4691SOL    HW225536   3.330   4.693   2.190 -2.5593 -0.7549  0.5598
 4692SOL     OW25537   2.380   0.248   8.619 -0.2115 -0.2846 -0.1105
 4692SOL    HW125538   2.426   0.327   8.650 -1.3694  0.3769 -0.0906
 4692SOL    HW225539   2.378   0.196   8.699  2.4545 -1.1396 -0.5858
 4693SOL     OW25540   2.085   2.926   8.305  0.1891 -0.4348 -0.0409
 4693SOL    HW125541   2.125   2.846   8.339 -0.0532 -0.2548  0.6914
 4693SOL    HW225542   2.084   2.979   8.385 -0.7874  1.3692 -1.2315
 4694SOL     OW25543   2.891   1.158  15.185  0.2809 -0.0445 -0.2982
 4694SOL    HW125544   2.973   1.134  15.141  1.3447  1.1931  1.0236
 4694SOL    HW225545   2.927   1.224  15.244  0.3434 -1.0641  0.8017
 4695SOL     OW25546   0.547   0.722   5.166  0.1728  0.4425 -0.1846
 4695SOL    HW125547   0.544   0.680   5.080  0.3371  2.7243 -1.3014
 4695SOL    HW225548   0.588   0.666   5.232 -3.5698 -1.5189  0.4597
 4696SOL     OW25549   4.130   1.552   1.593 -0.3092 -0.2535  0.1586
 4696SOL    HW125550   4.144   1.642   1.622  1.9226 -1.0287  1.4810
 4696SOL    HW225551   4.186   1.557   1.516 -1.7197 -0.4277 -0.8820
 4697SOL     OW25552   2.886   1.474   8.878 -0.9667  0.6754 -0.2456
 4697SOL    HW125553   2.937   1.532   8.821 -0.4554  0.8644  0.3931
 4697SOL    HW225554   2.929   1.395   8.847  0.3925  0.7557  1.3731
 4698SOL     OW25555   3.755   0.300   3.833 -0.8499 -0.0076  0.3036
 4698SOL    HW125556   3.710   0.382   3.814 -0.2942  0.5744  1.4787
 4698SOL    HW225557   3.832   0.334   3.879 -1.0566  2.7895 -1.4531
 4699SOL     OW25558   2.042   2.782   7.547  0.0564 -0.4369  0.5060
 4699SOL    HW125559   1.999   2.865   7.526  1.8869 -0.6019 -3.8706
 4699SOL    HW225560   2.037   2.735   7.463  0.5091 -0.2496  0.3797
 4700SOL     OW25561   2.228   1.692   8.037  0.2798  0.2006  0.7091
 4700SOL    HW125562   2.308   1.687   7.984 -0.1609  0.1705  0.0534
 4700SOL    HW225563   2.252   1.730   8.121 -1.0120  2.7371 -0.0805
 4701SOL     OW25564   1.087   2.656  11.210  0.3733  0.4199  0.0488
 4701SOL    HW125565   1.135   2.584  11.168  0.9682  1.2157 -0.6264
 4701SOL    HW225566   0.999   2.618  11.217  1.1826 -1.4684 -0.1581
 4702SOL     OW25567   4.366   2.363   9.206 -0.0966  0.6692  0.7271
 4702SOL    HW125568   4.292   2.330   9.258 -0.6052  0.9549  0.1878
 4702SOL    HW225569   4.431   2.292   9.209 -1.1082 -0.3810 -1.7076
 4703SOL     OW25570   4.178   4.318   8.571  0.7230 -0.1720 -0.2996
 4703SOL    HW125571   4.110   4.377   8.603  0.4632 -0.9349  0.5689
 4703SOL    HW225572   4.196   4.278   8.656  2.7331 -1.4175 -1.3038
 4704SOL     OW25573   1.329   1.655   4.453 -0.3216  0.4179 -0.1457
 4704SOL    HW125574   1.375   1.728   4.411  0.2521 -0.6288 -1.3451
 4704SOL    HW225575   1.293   1.618   4.372  0.2803 -2.1478  0.7676
 4705SOL     OW25576   2.484   0.428   8.777 -0.3375 -0.2175  0.1202
 4705SOL    HW125577   2.515   0.415   8.867 -1.9454 -1.2736  0.5267
 4705SOL    HW225578   2.553   0.490   8.754 -2.1053  1.3847 -0.8498
 4706SOL     OW25579   0.150   2.279  13.459 -0.5119  0.3810 -0.0416
 4706SOL    HW125580   0.204   2.333  13.402 -0.1384  0.5711  0.4966
 4706SOL    HW225581   0.214   2.244  13.521  1.5562  1.0665 -1.7974
 4707SOL     OW25582   1.884   1.082   8.201 -0.5127  0.0720 -0.2782
 4707SOL    HW125583   1.892   0.987   8.202  0.0084  0.1207  0.3336
 4707SOL    HW225584   1.796   1.096   8.166 -0.4339 -1.1190 -0.9246
 4708SOL     OW25585   1.858   1.769   5.700  0.2202  0.1708 -0.6284
 4708SOL    HW125586   1.921   1.697   5.705 -2.3513 -1.8689  1.6541
 4708SOL    HW225587   1.810   1.761   5.782  0.8840 -1.8166 -0.4518
 4709SOL     OW25588   3.391   4.366   0.221 -0.0351 -0.2045 -0.4072
 4709SOL    HW125589   3.343   4.416   0.286 -0.6842 -0.0670 -0.9963
 4709SOL    HW225590   3.368   4.277   0.247  2.7824 -1.0581 -0.7943
 4710SOL     OW25591   0.104   4.397  15.406 -0.3894  0.3468  0.0143
 4710SOL    HW125592   0.086   4.316  15.452 -1.8015  0.1530 -0.8902
 4710SOL    HW225593   0.014   4.425  15.390 -0.4022  0.6008  0.5226
 4711SOL     OW25594   4.702   1.809   8.485 -0.7250 -0.4961 -0.0586
 4711SOL    HW125595   4.654   1.845   8.559 -1.7554 -0.8842 -0.5442
 4711SOL    HW225596   0.041   1.881   8.469 -0.0001 -0.9647  0.5556
 4712SOL     OW25597   1.895   4.474   8.861 -0.0648 -0.0656  0.0927
 4712SOL    HW125598   1.868   4.544   8.803 -1.2405  0.7756  1.6603
 4712SOL    HW225599   1.877   4.522   8.942  0.3702 -0.9510  0.7208
 4713SOL     OW25600   2.639   0.387   8.384  0.3569  0.4605 -0.1745
 4713SOL    HW125601   2.662   0.449   8.315 -0.5631  1.3593  0.3348
 4713SOL    HW225602   2.546   0.366   8.379 -0.1678  2.6965  0.0517
 4714SOL     OW25603   3.399   4.627  10.246  0.8427  0.0368  0.3005
 4714SOL    HW125604   3.308   4.602  10.262 -0.0583  2.4971 -1.1327
 4714SOL    HW225605   3.391   4.722  10.239 -1.5700 -0.2672 -1.0778
 4715SOL     OW25606   1.629   1.016   7.335 -0.3209  0.1328  0.3222
 4715SOL    HW125607   1.542   1.002   7.372 -0.0263  0.7265  1.2385
 4715SOL    HW225608   1.600   1.055   7.252  1.4670  0.7817 -0.0015
 4716SOL     OW25609   0.868   3.520   6.998 -0.3735  0.0549  0.0180
 4716SOL    HW125610   0.811   3.585   7.040  1.9165  2.2417 -0.3015
 4716SOL    HW225611   0.924   3.502   7.073  1.4865 -1.7669 -1.8144
 4717SOL     OW25612   2.516   2.464   7.282 -0.1172 -0.5746 -0.5640
 4717SOL    HW125613   2.456   2.437   7.212 -1.4169 -0.7720  0.6362
 4717SOL    HW225614   2.559   2.381   7.303  1.4506  0.5658  0.7665
 4718SOL     OW25615   2.365   0.905  11.021 -0.5762  0.7269  0.3387
 4718SOL    HW125616   2.446   0.857  11.040 -0.4331  0.3975 -1.1175
 4718SOL    HW225617   2.319   0.903  11.105 -1.2757 -0.6434 -0.0720
 4719SOL     OW25618   3.194   2.268   7.474 -0.0632  0.5906 -0.1474
 4719SOL    HW125619   3.139   2.328   7.523 -2.0013 -0.0644 -1.5173
 4719SOL    HW225620   3.179   2.187   7.523  1.9454 -0.1117 -0.6973
 4720SOL     OW25621   2.375   4.047   4.665  0.1909  0.0425  0.3927
 4720SOL    HW125622   2.360   4.030   4.572  0.6491 -1.7362  0.6411
 4720SOL    HW225623   2.314   3.994   4.716 -0.5019 -0.1872 -0.6972
 4721SOL     OW25624   2.748   2.422   1.592 -0.0989  0.1510 -0.5215
 4721SOL    HW125625   2.739   2.329   1.611  1.1988  0.0041 -0.6261
 4721SOL    HW225626   2.809   2.452   1.659 -1.5348  0.0354  0.8526
 4722SOL     OW25627   1.826   1.377   0.887  0.6073  0.2673  0.0889
 4722SOL    HW125628   1.799   1.376   0.979  0.7587  1.8844  0.1429
 4722SOL    HW225629   1.854   1.285   0.890  0.6448  0.2690 -0.2376
 4723SOL     OW25630   4.327   1.320   7.084  0.0394  0.4435  0.3298
 4723SOL    HW125631   4.332   1.260   7.159 -0.5230 -0.8587 -0.6799
 4723SOL    HW225632   4.394   1.290   7.023  0.5372 -0.0650  1.1325
 4724SOL     OW25633   1.025   3.716  17.644 -0.3223  0.1445 -0.3493
 4724SOL    HW125634   1.059   3.717  17.555  0.8162  0.6592  0.0887
 4724SOL    HW225635   0.935   3.743  17.627 -0.7979  0.3298  2.4552
 4725SOL     OW25636   2.730   0.968   4.919  0.1370 -0.2194 -0.0613
 4725SOL    HW125637   2.673   0.917   4.862  1.4974 -1.2434 -0.5124
 4725SOL    HW225638   2.674   1.014   4.982 -0.8244 -0.6272 -0.6176
 4726SOL     OW25639   0.224   1.493   6.821  0.3023 -0.3892  0.0227
 4726SOL    HW125640   0.213   1.501   6.916  0.0313  1.2227 -0.1394
 4726SOL    HW225641   0.173   1.565   6.784  2.8081  0.7053 -1.3013
 4727SOL     OW25642   0.283   1.413   3.084 -0.4330  0.1022 -0.1920
 4727SOL    HW125643   0.363   1.466   3.086 -0.7289  0.5087  0.7695
 4727SOL    HW225644   0.302   1.331   3.129  0.6800  0.9861  0.9400
 4728SOL     OW25645   3.958   4.566   6.992 -0.5412  0.4966  0.0131
 4728SOL    HW125646   4.016   4.544   6.919  2.2072 -0.0837  2.3814
 4728SOL    HW225647   3.878   4.603   6.956 -0.5958  0.7879  0.4349
 4729SOL     OW25648   4.019   0.799   6.253  0.0865 -0.0058  0.0732
 4729SOL    HW125649   3.970   0.741   6.311  0.0303  0.7524  0.7769
 4729SOL    HW225650   3.949   0.833   6.198 -0.3625 -2.8192 -1.0867
 4730SOL     OW25651   0.858   4.594   6.892  0.1322  0.1769  0.2831
 4730SOL    HW125652   0.928   4.646   6.931  0.7028 -1.7477  1.8177
 4730SOL    HW225653   0.900   4.556   6.815 -0.8376  0.2612 -0.2918
 4731SOL     OW25654   0.171   2.336  12.356  0.1467  0.0724 -0.4714
 4731SOL    HW125655   0.108   2.314  12.287  0.3255 -1.2898 -0.1951
 4731SOL    HW225656   0.187   2.429  12.341 -0.1123  0.5100  1.9786
 4732SOL     OW25657   2.563   2.212   6.871  0.0741  0.1891 -0.4711
 4732SOL    HW125658   2.539   2.225   6.779 -0.0297  1.2474 -0.2948
 4732SOL    HW225659   2.656   2.234   6.867  0.7030 -2.2743  0.4685
 4733SOL     OW25660   0.397   1.732   6.389 -0.3377 -0.1274 -0.0645
 4733SOL    HW125661   0.443   1.816   6.392  3.7373 -2.3590  0.6786
 4733SOL    HW225662   0.403   1.707   6.481 -0.2749  2.3991  0.6229
 4734SOL     OW25663   0.689   2.313   8.879 -0.1163  0.0421 -0.2107
 4734SOL    HW125664   0.606   2.266   8.872 -0.0413 -0.1843  0.3664
 4734SOL    HW225665   0.661   2.405   8.877  0.3463  0.1796 -0.3669
 4735SOL     OW25666   1.008   4.652   9.413 -0.3128  0.2345  0.2702
 4735SOL    HW125667   0.962   4.683   9.491 -1.9778 -1.5897  0.0203
 4735SOL    HW225668   0.944   4.678   9.347 -0.5273  1.2645  0.8902
 4736SOL     OW25669   2.928   2.964   5.706 -0.3000  0.1883 -0.3311
 4736SOL    HW125670   2.894   2.912   5.633 -0.8697 -1.7830  1.3441
 4736SOL    HW225671   2.970   2.891   5.751 -1.5903 -0.0321  0.5155
 4737SOL     OW25672   3.290   4.350   5.907  0.2843 -0.4309 -0.1855
 4737SOL    HW125673   3.307   4.388   5.821 -0.9251 -1.2575 -0.7892
 4737SOL    HW225674   3.336   4.411   5.965  0.1130 -1.4971  1.0610
 4738SOL     OW25675   2.714   0.140   8.130 -0.0866  0.3002 -0.4013
 4738SOL    HW125676   2.688   0.048   8.137 -0.9610  0.5553 -0.2964
 4738SOL    HW225677   2.664   0.177   8.057  1.1847  1.1307 -0.8501
 4739SOL     OW25678   0.989   4.621   3.801  0.1998  0.7705 -0.3470
 4739SOL    HW125679   1.084   4.609   3.791  0.0718  1.6412 -2.5910
 4739SOL    HW225680   0.975   4.681   3.729  0.7918  2.1689  0.6948
 4740SOL     OW25681   1.995   3.167   2.327 -1.0069  0.1560  0.0671
 4740SOL    HW125682   2.011   3.254   2.292  3.0597 -0.1835  1.0775
 4740SOL    HW225683   1.965   3.198   2.412 -0.1518  0.9703  0.0664
 4741SOL     OW25684   2.813   3.749  17.270 -0.4018  0.0196  0.5743
 4741SOL    HW125685   2.775   3.708  17.192 -2.7562  3.0492  0.0988
 4741SOL    HW225686   2.871   3.681  17.304 -0.3083  0.2102  0.7934
 4742SOL     OW25687   3.542   2.599   6.691  0.6671 -0.8367 -0.4280
 4742SOL    HW125688   3.598   2.531   6.653  1.5371  0.5267 -1.6294
 4742SOL    HW225689   3.600   2.672   6.713 -0.6668  0.8530 -2.4873
 4743SOL     OW25690   3.236   3.325   9.354  0.7683 -0.2100  0.5506
 4743SOL    HW125691   3.151   3.285   9.373  1.0104 -1.1646 -0.3766
 4743SOL    HW225692   3.280   3.330   9.439  0.9324  0.4855  0.4229
 4744SOL     OW25693   3.023   3.517  15.045 -0.0326 -0.3948 -0.0761
 4744SOL    HW125694   2.945   3.491  15.094  0.5919  1.3387  1.8226
 4744SOL    HW225695   2.991   3.592  14.993  0.2578 -0.4362 -0.3166
 4745SOL     OW25696   0.315   2.917   6.359  0.3945 -0.0580  0.2645
 4745SOL    HW125697   0.242   2.941   6.303  1.1235  1.8922  0.1399
 4745SOL    HW225698   0.385   2.874   6.309 -0.3480  0.1636 -0.9338
 4746SOL     OW25699   0.849   4.438  15.914 -0.4538  0.2496 -0.0732
 4746SOL    HW125700   0.818   4.350  15.936 -0.9504  0.1887 -1.0393
 4746SOL    HW225701   0.930   4.429  15.964 -1.5158  0.0855  1.6334
 4747SOL     OW25702   4.409   0.235   2.234  0.3638 -0.0609  0.2909
 4747SOL    HW125703   4.351   0.303   2.268 -0.7797 -1.6063  1.4754
 4747SOL    HW225704   4.386   0.232   2.142  0.1184 -0.3787  0.3609
 4748SOL     OW25705   1.436   3.350  11.293 -0.1830 -0.0149  0.2294
 4748SOL    HW125706   1.361   3.294  11.312 -0.0979 -0.1551  0.1460
 4748SOL    HW225707   1.494   3.296  11.239 -2.5120 -1.2169 -1.0470
 4749SOL     OW25708   3.661   3.078   2.124  0.2650  0.6866 -0.2707
 4749SOL    HW125709   3.679   3.024   2.047  2.5365  0.5399  0.3521
 4749SOL    HW225710   3.721   3.152   2.117  0.5679  0.4784  0.0959
 4750SOL     OW25711   0.093   0.158   5.355  0.5667 -0.2617 -0.2317
 4750SOL    HW125712   0.004   0.188   5.372  0.0749 -2.0402  0.3072
 4750SOL    HW225713   0.136   0.233   5.313  0.3356 -0.4412 -0.7736
 4751SOL     OW25714   3.568   2.025  10.894 -0.4530 -0.2198 -0.6988
 4751SOL    HW125715   3.582   2.093  10.828  3.1632 -0.2951 -0.0230
 4751SOL    HW225716   3.580   2.078  10.973 -2.1582 -0.7734 -0.0880
 4752SOL     OW25717   1.454   4.652   6.370 -0.3345 -0.2820 -0.4563
 4752SOL    HW125718   1.541   4.685   6.351 -0.4238 -0.9610 -2.0443
 4752SOL    HW225719   1.468   4.560   6.346 -2.2584 -1.3924  2.5804
 4753SOL     OW25720   3.841   3.613   3.757  0.1955  0.2167 -0.6098
 4753SOL    HW125721   3.871   3.609   3.666  2.0819 -0.3428  0.0464
 4753SOL    HW225722   3.893   3.689   3.783 -1.9196  0.9812  1.3775
 4754SOL     OW25723   2.917   0.198  14.512  0.6112  0.4869 -0.5071
 4754SOL    HW125724   2.897   0.232  14.424  2.3796 -0.0761 -1.1268
 4754SOL    HW225725   3.011   0.185  14.499 -0.1374 -3.4444 -1.8620
 4755SOL     OW25726   0.828   1.080   9.167  0.1820  0.1678  0.2374
 4755SOL    HW125727   0.856   1.043   9.084  0.2056 -1.3388  0.9077
 4755SOL    HW225728   0.769   1.011   9.196  0.5450 -0.4735 -0.5612
 4756SOL     OW25729   2.986   0.461   2.334  0.0416 -0.0037 -0.0117
 4756SOL    HW125730   2.932   0.383   2.344  0.8566 -0.7909 -1.7288
 4756SOL    HW225731   2.940   0.485   2.253  1.3106  0.4799 -0.6015
 4757SOL     OW25732   3.143   4.546  10.309  0.0933  0.6834 -0.4993
 4757SOL    HW125733   3.128   4.456  10.340  1.0998 -0.3016 -2.8640
 4757SOL    HW225734   3.103   4.592  10.382 -0.4852 -0.2415 -0.2353
 4758SOL     OW25735   3.906   4.617   6.355  0.0945  0.5850 -0.3042
 4758SOL    HW125736   3.942   4.561   6.424 -2.0224 -0.4315 -0.0133
 4758SOL    HW225737   3.977   4.627   6.293 -0.6959 -0.5014 -1.3878
 4759SOL     OW25738   4.310   0.158   5.284 -0.0871  0.5034 -0.4778
 4759SOL    HW125739   4.360   0.159   5.366 -1.9700  1.1059  0.6711
 4759SOL    HW225740   4.258   0.238   5.286 -0.5874  0.1151  1.6376
 4760SOL     OW25741   2.127   2.019  13.952 -0.5065  0.6844 -0.2041
 4760SOL    HW125742   2.112   1.938  14.002 -0.5084  1.5363  1.1749
 4760SOL    HW225743   2.054   2.076  13.976 -2.9055 -1.0683 -3.1907
 4761SOL     OW25744   1.488   0.533   4.996 -0.0908 -0.4794  0.0436
 4761SOL    HW125745   1.530   0.619   4.986 -1.6702  0.6166  3.1829
 4761SOL    HW225746   1.491   0.519   5.090 -2.7275  1.3444  0.3904
 4762SOL     OW25747   0.542   3.510   5.133 -0.3686 -0.4291 -0.3167
 4762SOL    HW125748   0.548   3.415   5.144  0.6673 -0.4401 -0.9836
 4762SOL    HW225749   0.493   3.512   5.050 -0.4738  2.3862 -0.1956
 4763SOL     OW25750   3.011   4.247   4.357  0.4776 -0.5634 -0.2508
 4763SOL    HW125751   2.944   4.281   4.416  1.2824  1.5504 -0.5460
 4763SOL    HW225752   3.082   4.234   4.420 -1.4768  4.6118  2.9769
 4764SOL     OW25753   4.651   3.170   8.161  0.1617  0.3152  0.0289
 4764SOL    HW125754   4.584   3.161   8.229 -0.5710  1.6008 -0.5263
 4764SOL    HW225755   0.011   3.167   8.210 -0.0110  2.3326  0.4518
 4765SOL     OW25756   1.981   1.217   3.216 -0.0462 -0.8716  0.1941
 4765SOL    HW125757   2.071   1.244   3.236  0.3582 -2.1008 -0.0014
 4765SOL    HW225758   1.972   1.151   3.285  0.8471 -2.4626 -1.2138
 4766SOL     OW25759   2.313   3.953   6.056  0.0267 -0.7866  0.0757
 4766SOL    HW125760   2.284   3.884   6.115  1.1130 -0.4300  1.0329
 4766SOL    HW225761   2.354   4.011   6.121  2.6791 -1.8917 -0.6269
 4767SOL     OW25762   1.051   0.435   6.512  0.1503 -0.0710  0.4376
 4767SOL    HW125763   0.957   0.426   6.526 -0.1333  1.5261 -0.3896
 4767SOL    HW225764   1.052   0.511   6.454 -2.1054  0.2105  0.7541
 4768SOL     OW25765   3.433   4.290   9.053  0.2958 -0.4108 -0.5747
 4768SOL    HW125766   3.410   4.198   9.050 -1.6662  0.1457 -2.3956
 4768SOL    HW225767   3.345   4.318   9.080  1.4723  1.8785  0.9332
 4769SOL     OW25768   0.579   1.698   5.310  0.1657  0.1460  0.3478
 4769SOL    HW125769   0.527   1.647   5.373  1.5385 -2.2833 -0.4564
 4769SOL    HW225770   0.541   1.675   5.225 -1.5536 -0.5015  1.2993
 4770SOL     OW25771   2.308   3.721   5.084  0.3536  0.5747  0.1021
 4770SOL    HW125772   2.381   3.667   5.114  0.6249  1.8148  1.6897
 4770SOL    HW225773   2.247   3.648   5.098  0.0921  1.0129  1.3278
 4771SOL     OW25774   1.828   2.339  15.347  0.3030 -0.4087  0.0144
 4771SOL    HW125775   1.922   2.348  15.334  0.4276  0.5825  1.5868
 4771SOL    HW225776   1.795   2.428  15.341  0.1948 -0.4662 -0.2570
 4772SOL     OW25777   2.151   3.710   6.079 -0.1315  0.0661 -0.7628
 4772SOL    HW125778   2.150   3.662   5.996 -1.5753  1.1752 -1.3854
 4772SOL    HW225779   2.060   3.733   6.098 -0.6010 -0.7556 -1.9989
 4773SOL     OW25780   1.690   1.075   3.202  0.4498 -0.1892 -0.1577
 4773SOL    HW125781   1.770   1.111   3.164 -0.2471 -0.9417 -2.3153
 4773SOL    HW225782   1.622   1.118   3.151  0.8795  0.6651 -0.0107
 4774SOL     OW25783   1.711   2.752   2.728  0.2717 -0.4093  0.2301
 4774SOL    HW125784   1.765   2.796   2.662  0.2920  0.3057  0.7200
 4774SOL    HW225785   1.676   2.677   2.680  0.4422  0.2636 -0.9596
 4775SOL     OW25786   2.877   1.795   3.784 -0.0651 -0.6653 -0.0299
 4775SOL    HW125787   2.892   1.710   3.744  0.7760 -0.3009 -0.5044
 4775SOL    HW225788   2.849   1.849   3.710 -1.3359 -2.2575 -0.7134
 4776SOL     OW25789   4.449   2.171   1.808 -0.4007 -0.1026  0.2377
 4776SOL    HW125790   4.501   2.118   1.747  0.2015  4.6282 -3.3774
 4776SOL    HW225791   4.505   2.154   1.884  0.3236  0.7704 -0.1012
 4777SOL     OW25792   0.600   4.153   2.770 -0.1676 -0.0774  0.4202
 4777SOL    HW125793   0.630   4.202   2.846 -1.7612  1.3697  0.1142
 4777SOL    HW225794   0.505   4.144   2.780 -0.2214  3.5416  3.0332
 4778SOL     OW25795   1.585   1.260   7.817 -0.2809  0.1306 -0.1985
 4778SOL    HW125796   1.594   1.264   7.722 -1.6373  1.3503 -0.2710
 4778SOL    HW225797   1.494   1.237   7.834 -0.1254  0.8732  1.6834
 4779SOL     OW25798   2.697   1.999   8.833 -0.6665  0.4863  0.2901
 4779SOL    HW125799   2.773   2.052   8.858  2.4804 -3.8973  0.2080
 4779SOL    HW225800   2.673   1.962   8.917  0.5574  1.6915  1.1705
 4780SOL     OW25801   0.685   1.968  11.614 -0.2517 -0.3431 -0.9364
 4780SOL    HW125802   0.609   2.006  11.569 -0.2617  0.7464  0.0223
 4780SOL    HW225803   0.757   1.976  11.552  1.4340 -3.8846  0.5775
 4781SOL     OW25804   4.033   2.961   7.002  0.2021 -0.0519  0.8147
 4781SOL    HW125805   3.970   2.904   6.957  1.2047 -0.6707  0.1916
 4781SOL    HW225806   4.007   2.950   7.093 -1.2087  0.3988  0.4722
 4782SOL     OW25807   0.389   2.758   2.260 -0.1329  0.0592 -0.2284
 4782SOL    HW125808   0.457   2.789   2.200 -1.1593  0.0384 -1.4057
 4782SOL    HW225809   0.311   2.766   2.204 -0.0219 -1.5014 -0.6207
 4783SOL     OW25810   2.537   0.049   6.089  0.1829 -0.7857 -0.0627
 4783SOL    HW125811   2.521   0.017   6.000  1.8236 -1.7256 -0.0148
 4783SOL    HW225812   2.463   0.111   6.094  1.1106  0.2943  0.2790
 4784SOL     OW25813   3.909   2.096   2.794  0.4110 -0.6290  0.4300
 4784SOL    HW125814   3.987   2.055   2.831  0.5891 -1.1596 -0.5321
 4784SOL    HW225815   3.919   2.068   2.703 -0.3723 -0.0412  0.1606
 4785SOL     OW25816   2.786   3.073  12.067 -0.0835 -0.0429 -0.0865
 4785SOL    HW125817   2.711   3.022  12.034  1.7083 -1.7815 -1.4371
 4785SOL    HW225818   2.774   3.160  12.028 -1.2496 -0.0213  0.3050
 4786SOL     OW25819   0.735   3.282   9.044 -0.2193 -0.1079  0.2659
 4786SOL    HW125820   0.749   3.236   8.961 -0.0498 -4.1977  2.5334
 4786SOL    HW225821   0.756   3.216   9.110 -1.7463  0.7494  1.6220
 4787SOL     OW25822   2.606   1.965  16.360  0.2264 -0.4326  0.0361
 4787SOL    HW125823   2.526   1.944  16.312  0.8845 -0.8068 -0.9099
 4787SOL    HW225824   2.641   2.036  16.305  1.0724  1.3648  2.9063
 4788SOL     OW25825   2.201   4.164   9.924 -0.3554  0.4243  0.3220
 4788SOL    HW125826   2.255   4.233   9.961  0.6518 -0.4498  0.4960
 4788SOL    HW225827   2.219   4.165   9.830 -2.9571 -0.1082 -0.2094
 4789SOL     OW25828   2.720   1.545  12.714  0.0513 -0.0375  0.7894
 4789SOL    HW125829   2.745   1.502  12.632 -3.0677 -0.0513 -0.1602
 4789SOL    HW225830   2.734   1.468  12.769 -0.1828 -0.0943  0.7719
 4790SOL     OW25831   1.833   0.938   9.717 -0.5672  0.4037 -0.0659
 4790SOL    HW125832   1.809   0.846   9.707  0.6335 -0.0661  1.2433
 4790SOL    HW225833   1.745   0.975   9.724 -0.0374  2.1437 -2.3451
 4791SOL     OW25834   1.160   1.169  14.415  0.7431 -0.2049  0.4567
 4791SOL    HW125835   1.254   1.174  14.398  0.5993  2.5461  0.4596
 4791SOL    HW225836   1.146   1.206  14.502  0.8043 -1.6378  1.0819
 4792SOL     OW25837   3.709   4.249   2.862  0.7068  0.3969  0.9968
 4792SOL    HW125838   3.761   4.225   2.786  1.8085  1.1640  1.5107
 4792SOL    HW225839   3.763   4.313   2.909 -0.9264  1.4903  1.3867
 4793SOL     OW25840   2.594   0.719   7.754 -0.1636 -0.1920  0.3338
 4793SOL    HW125841   2.685   0.750   7.751  0.0116 -0.8160 -1.2589
 4793SOL    HW225842   2.582   0.692   7.663  2.5072 -0.1153 -0.0466
 4794SOL     OW25843   1.796   1.273   7.109  0.0980  0.0481 -0.0784
 4794SOL    HW125844   1.844   1.205   7.062 -1.0723 -1.9013  1.5378
 4794SOL    HW225845   1.847   1.271   7.190  0.0375 -0.5338 -0.0572
 4795SOL     OW25846   3.287   2.302   2.861  0.5106 -0.1190 -0.5282
 4795SOL    HW125847   3.360   2.301   2.924 -2.1709  0.6041  2.5525
 4795SOL    HW225848   3.299   2.212   2.830  1.8705  1.2604 -4.0786
 4796SOL     OW25849   2.081   2.842   4.323 -0.2855  0.2814  0.2818
 4796SOL    HW125850   2.094   2.831   4.417 -0.4862 -0.4957  0.2207
 4796SOL    HW225851   2.136   2.918   4.306  2.1637 -1.4630  0.3553
 4797SOL     OW25852   3.692   0.241  13.044  0.0113  0.2302 -0.2408
 4797SOL    HW125853   3.762   0.181  13.070 -1.0449 -0.6476  0.5670
 4797SOL    HW225854   3.622   0.222  13.106  0.0849  0.8838  0.0425
 4798SOL     OW25855   0.808   2.640  10.800 -0.0503  0.4372  0.1412
 4798SOL    HW125856   0.751   2.685  10.862 -0.4454 -0.5769  0.5106
 4798SOL    HW225857   0.893   2.630  10.841  0.1273  0.0220 -0.3234
 4799SOL     OW25858   0.578   2.220   2.296  0.5726  0.0813  0.7142
 4799SOL    HW125859   0.571   2.315   2.295  1.5386  0.1397 -0.2924
 4799SOL    HW225860   0.518   2.188   2.227  0.5034 -1.2001  1.3688
 4800SOL     OW25861   4.429   0.861   3.444 -0.0691  0.0749 -0.2718
 4800SOL    HW125862   4.509   0.867   3.392  0.2451 -3.8679 -0.2976
 4800SOL    HW225863   4.391   0.788   3.395 -0.3503  0.5306 -0.7276
 4801SOL     OW25864   4.074   1.774   2.123  0.3312 -0.2574 -0.0263
 4801SOL    HW125865   4.084   1.723   2.204  2.5479  0.9890  0.4997
 4801SOL    HW225866   4.087   1.863   2.156  0.7485 -0.0292 -0.8124
 4802SOL     OW25867   1.078   1.664   2.668  0.1403 -0.0222 -0.2592
 4802SOL    HW125868   1.043   1.682   2.581 -0.7190  1.4128  0.3937
 4802SOL    HW225869   1.168   1.692   2.650  0.4466 -1.2859 -0.6637
 4803SOL     OW25870   2.943   1.530   2.246 -0.1034  0.5686 -0.6183
 4803SOL    HW125871   2.886   1.467   2.290 -3.0618  1.8881 -2.5420
 4803SOL    HW225872   2.893   1.610   2.262  0.5220  0.2737  2.7709
 4804SOL     OW25873   1.046   1.639   8.561  0.2392  0.4660 -0.1019
 4804SOL    HW125874   1.054   1.624   8.655  0.2585  4.2580  0.5115
 4804SOL    HW225875   0.990   1.716   8.561 -1.6198 -0.9155 -1.7290
 4805SOL     OW25876   1.935   3.123   6.353  0.6331  0.2145 -0.3643
 4805SOL    HW125877   1.906   3.153   6.439  0.9245 -0.3374 -0.0731
 4805SOL    HW225878   2.030   3.120   6.362  0.6909  1.0889 -0.6767
 4806SOL     OW25879   2.864   3.613   3.653 -0.4007  0.3512 -0.7213
 4806SOL    HW125880   2.799   3.683   3.663  2.2517  2.5272  1.2117
 4806SOL    HW225881   2.855   3.583   3.563 -0.6247  0.0225 -0.5904
 4807SOL     OW25882   2.098   2.225   3.072  0.2461 -0.3125  0.3593
 4807SOL    HW125883   2.011   2.217   3.111 -0.1339 -1.8703 -0.7962
 4807SOL    HW225884   2.099   2.307   3.024 -3.0544  0.0972  1.0241
 4808SOL     OW25885   4.507   3.493   5.450  0.2648 -0.6990 -0.1989
 4808SOL    HW125886   4.499   3.429   5.521  0.9876  0.5861  1.0532
 4808SOL    HW225887   4.423   3.497   5.406  0.6196 -1.8249 -0.9658
 4809SOL     OW25888   3.033   3.120   2.504  0.4008  0.2053 -0.4245
 4809SOL    HW125889   3.023   3.055   2.434 -0.4881 -0.6583  0.5049
 4809SOL    HW225890   3.108   3.171   2.475  0.2693  1.6991  1.8528
 4810SOL     OW25891   0.742   1.437   8.634  0.1574  0.4564 -0.9204
 4810SOL    HW125892   0.710   1.478   8.714 -2.4148 -1.4333 -0.9645
 4810SOL    HW225893   0.836   1.451   8.646 -0.2236  2.5413 -0.3748
 4811SOL     OW25894   4.371   2.440   5.193 -0.5876  0.2067  0.5531
 4811SOL    HW125895   4.373   2.355   5.239 -3.0179  0.8921  1.9360
 4811SOL    HW225896   4.279   2.460   5.177 -0.4946  0.4641  0.3370
 4812SOL     OW25897   1.949   1.774   8.449 -0.5224 -0.8963  0.1582
 4812SOL    HW125898   2.030   1.730   8.425 -1.0925 -1.5079 -0.6450
 4812SOL    HW225899   1.948   1.841   8.380  1.0972 -0.0114  1.0016
 4813SOL     OW25900   4.382   2.468   4.911  0.3301  0.2904  0.1707
 4813SOL    HW125901   4.325   2.392   4.928  2.3546 -1.4813 -1.0598
 4813SOL    HW225902   4.397   2.493   5.002 -0.7316  1.1193  0.1202
 4814SOL     OW25903   3.854   4.048  17.146  0.5049  0.2630  0.0663
 4814SOL    HW125904   3.817   4.021  17.229 -1.5266 -1.4631 -1.4231
 4814SOL    HW225905   3.851   3.962  17.105  0.3788  0.3748 -0.1576
 4815SOL     OW25906   0.459   2.124   7.591  0.4874 -0.1621 -0.6368
 4815SOL    HW125907   0.543   2.115   7.546  0.1815 -0.2636 -1.1876
 4815SOL    HW225908   0.463   2.038   7.631 -1.1213 -0.5790 -1.3520
 4816SOL     OW25909   1.952   3.858   2.024 -0.2081 -0.2703  0.1783
 4816SOL    HW125910   1.919   3.905   2.101 -0.2370  0.2541 -0.1530
 4816SOL    HW225911   1.947   3.915   1.948  0.1981 -1.2688 -0.5944
 4817SOL     OW25912   0.588   3.097  13.443 -0.3120 -0.7279  0.3843
 4817SOL    HW125913   0.568   3.189  13.460  2.2136 -0.0175 -0.5114
 4817SOL    HW225914   0.680   3.094  13.471  0.4349  0.2419 -1.9867
 4818SOL     OW25915   3.201   2.964   3.130 -0.1117 -0.6434 -0.7384
 4818SOL    HW125916   3.197   2.886   3.075  0.5758 -0.2917 -1.2934
 4818SOL    HW225917   3.285   2.997   3.097  0.1130  0.4379  0.9073
 4819SOL     OW25918   3.116   0.921  12.141  0.0968 -0.1056  0.8179
 4819SOL    HW125919   3.166   0.933  12.223  3.2256 -0.1392 -1.0858
 4819SOL    HW225920   3.182   0.883  12.083 -0.1176 -1.9117  1.7690
 4820SOL     OW25921   3.146   0.046  14.954 -0.4414  0.1185  0.1815
 4820SOL    HW125922   3.081   0.062  14.886  2.4888 -0.1305 -2.7316
 4820SOL    HW225923   3.215   0.107  14.927  0.9224 -1.1844  0.6677
 4821SOL     OW25924   1.015   1.285   2.379  0.6044 -0.3238 -0.4195
 4821SOL    HW125925   1.104   1.273   2.414 -0.1003  0.0322  1.5081
 4821SOL    HW225926   1.038   1.343   2.306  0.3038  1.1098  0.6187
 4822SOL     OW25927   4.297   2.199  15.985 -0.2406  0.0721 -0.1112
 4822SOL    HW125928   4.214   2.241  15.964 -0.7909  0.1674  2.2932
 4822SOL    HW225929   4.278   2.120  15.934  0.2696 -0.1018 -0.0353
 4823SOL     OW25930   4.629   4.662   1.371  0.1607  0.1777  0.2196
 4823SOL    HW125931   4.589   4.651   1.284 -0.7170  0.5694  0.5721
 4823SOL    HW225932   4.562   0.000   1.403  0.4080  0.5150  0.1002
 4824SOL     OW25933   3.006   4.083   6.603  0.7741 -0.1747  0.4232
 4824SOL    HW125934   3.029   4.008   6.657  1.2742 -0.0086  0.4434
 4824SOL    HW225935   2.980   4.038   6.522 -1.2300 -0.6399  1.3294
 4825SOL     OW25936   0.433   4.340   7.351  0.2762 -0.3302 -0.0703
 4825SOL    HW125937   0.435   4.304   7.262  0.5663 -0.4819 -0.0064
 4825SOL    HW225938   0.489   4.277   7.399 -0.1348 -0.8891 -0.3241
 4826SOL     OW25939   1.439   1.685   1.217 -0.0957  0.0101  0.5130
 4826SOL    HW125940   1.420   1.648   1.304 -0.6418 -0.1680  0.3168
 4826SOL    HW225941   1.412   1.612   1.162  1.0931  0.1541 -0.2473
 4827SOL     OW25942   2.244   3.247   2.918  0.3551 -0.3857 -0.6115
 4827SOL    HW125943   2.213   3.250   2.828  0.8639 -0.8926 -0.8037
 4827SOL    HW225944   2.164   3.268   2.967 -0.7584 -1.1067 -2.1352
 4828SOL     OW25945   4.037   3.816   7.008  0.3158 -0.0511  0.3284
 4828SOL    HW125946   4.053   3.756   6.936  0.0978 -0.4450  0.6127
 4828SOL    HW225947   4.004   3.893   6.961 -2.3845 -1.9796 -0.9052
 4829SOL     OW25948   0.783   1.587   1.890 -0.5334 -0.4712  0.0941
 4829SOL    HW125949   0.804   1.533   1.813  0.0078  0.8395 -0.6851
 4829SOL    HW225950   0.729   1.525   1.938 -2.4854  1.3051  0.1722
 4830SOL     OW25951   3.533   2.602  14.374 -0.4215 -0.0520  0.4337
 4830SOL    HW125952   3.539   2.562  14.460  3.7678 -0.1428  0.1016
 4830SOL    HW225953   3.592   2.545  14.324 -2.4658 -1.3521 -0.5155
 4831SOL     OW25954   2.626   3.050   2.812 -0.3327 -0.3813 -0.0765
 4831SOL    HW125955   2.697   2.986   2.801  1.2614  1.3325  0.2166
 4831SOL    HW225956   2.558   2.982   2.810  1.0204 -1.7238 -1.0118
 4832SOL     OW25957   0.114   1.723  11.572  0.3379 -0.5885 -0.4076
 4832SOL    HW125958   0.122   1.722  11.477 -1.1644 -0.6013 -0.5390
 4832SOL    HW225959   0.079   1.635  11.581 -1.2743  0.0103 -0.7501
 4833SOL     OW25960   0.043   1.658  12.966 -0.6003  0.3171  0.5412
 4833SOL    HW125961   0.072   1.693  13.050  0.5337  1.8804 -0.5098
 4833SOL    HW225962   4.693   1.599  12.987 -0.8334 -0.1124 -1.4999
 4834SOL     OW25963   0.935   3.667  14.836  0.0204  0.0697 -0.3030
 4834SOL    HW125964   1.015   3.659  14.784  0.4334  1.6022  0.0992
 4834SOL    HW225965   0.982   3.686  14.917  0.1031  1.5393 -0.6847
 4835SOL     OW25966   0.281   3.961   6.499  0.3359 -0.4485  0.1141
 4835SOL    HW125967   0.298   3.963   6.404  1.0428  0.5250  0.2624
 4835SOL    HW225968   0.210   3.898   6.510  1.3883 -1.0959  3.3846
 4836SOL     OW25969   0.478   1.267  16.932  0.0254  0.0290  0.0615
 4836SOL    HW125970   0.414   1.202  16.905 -0.3283  0.7057 -0.7364
 4836SOL    HW225971   0.453   1.290  17.021  1.5729  2.0351 -0.0007
 4837SOL     OW25972   1.697   4.239  11.258  0.0129 -0.5656  0.4593
 4837SOL    HW125973   1.646   4.263  11.335 -0.5067  1.2809 -0.4559
 4837SOL    HW225974   1.655   4.157  11.231 -3.8172  2.3033 -2.2767
 4838SOL     OW25975   0.107   2.643   2.508  0.2098  0.4966 -0.4386
 4838SOL    HW125976   0.061   2.664   2.426 -0.2889 -0.5111 -0.4124
 4838SOL    HW225977   0.139   2.559   2.476 -0.7403 -1.1422  2.9768
 4839SOL     OW25978   4.294   0.613   7.657 -0.1920 -0.1310 -0.1300
 4839SOL    HW125979   4.357   0.578   7.595  0.7561 -0.1011  0.8205
 4839SOL    HW225980   4.320   0.568   7.737 -0.7961 -1.4914 -0.6863
 4840SOL     OW25981   0.916   1.493  13.615 -0.3084 -0.5555 -0.9564
 4840SOL    HW125982   0.974   1.428  13.576 -0.2329 -0.2807 -1.2964
 4840SOL    HW225983   0.910   1.559  13.546  0.8644 -0.7125 -1.2045
 4841SOL     OW25984   3.267   4.594   4.755 -0.0972 -0.3122  0.6227
 4841SOL    HW125985   3.243   4.642   4.675 -1.9008  0.5940  1.7022
 4841SOL    HW225986   3.235   4.506   4.738  0.4723 -0.7112  1.6286
 4842SOL     OW25987   3.013   3.233  13.027 -0.4612 -0.3784  0.1181
 4842SOL    HW125988   3.050   3.318  13.002 -0.0891 -0.6234 -0.1497
 4842SOL    HW225989   2.945   3.221  12.960  1.2804 -3.2704 -1.0979
 4843SOL     OW25990   1.271   3.915  12.842  0.0203 -0.1947  0.3461
 4843SOL    HW125991   1.182   3.950  12.830  0.2599  0.8151  1.5205
 4843SOL    HW225992   1.245   3.836  12.889  0.4940 -1.7124 -1.9569
 4844SOL     OW25993   2.011   4.398   0.737 -0.8032 -0.0779  0.4278
 4844SOL    HW125994   1.976   4.385   0.825  3.1960  1.7176  2.2887
 4844SOL    HW225995   2.068   4.322   0.726 -1.6673 -0.8669  1.4476
 4845SOL     OW25996   3.467   1.840   6.398  0.2224 -0.0861 -0.4491
 4845SOL    HW125997   3.560   1.835   6.419  0.3318  0.8414 -0.7223
 4845SOL    HW225998   3.456   1.770   6.334 -1.0943 -3.1886  3.1423
 4846SOL     OW25999   2.796   1.733  16.420  0.4635 -0.5595 -0.4058
 4846SOL    HW126000   2.759   1.649  16.448 -0.6932 -0.1081 -0.5732
 4846SOL    HW226001   2.724   1.797  16.426  0.3924 -0.6973  0.2461
 4847SOL     OW26002   0.917   3.603   4.582 -0.1064  0.2681 -0.0427
 4847SOL    HW126003   0.963   3.652   4.513  0.8666 -0.1962  0.2826
 4847SOL    HW226004   0.897   3.664   4.653  1.7434  1.4572 -0.5459
 4848SOL     OW26005   2.481   4.252   7.552  0.0298  1.1023  0.1461
 4848SOL    HW126006   2.457   4.159   7.548 -1.5300  1.4217  2.0845
 4848SOL    HW226007   2.557   4.243   7.610 -0.0349 -0.1775  0.0450
 4849SOL     OW26008   0.236   2.002   9.074 -0.3818 -0.1703 -0.7291
 4849SOL    HW126009   0.214   1.918   9.114 -1.4757 -0.0093 -0.9915
 4849SOL    HW226010   0.244   1.975   8.982 -0.6048 -2.0834 -0.1757
 4850SOL     OW26011   3.610   3.569   4.149 -0.0821  0.1466  0.3896
 4850SOL    HW126012   3.526   3.547   4.189 -0.2250 -0.7749 -0.4165
 4850SOL    HW226013   3.584   3.599   4.062  0.5781  1.9258  0.8124
 4851SOL     OW26014   4.283   1.976  15.848 -0.2610  0.2381 -0.2127
 4851SOL    HW126015   4.327   1.972  15.763 -0.4882  3.0021 -0.4603
 4851SOL    HW226016   4.212   1.915  15.830  0.4682 -1.0530  1.2380
 4852SOL     OW26017   1.494   1.337  13.902  0.2034  0.6749  0.4474
 4852SOL    HW126018   1.509   1.333  13.808 -1.6993  1.4450  0.1201
 4852SOL    HW226019   1.510   1.245  13.925  0.2784  0.1838 -1.5672
 4853SOL     OW26020   1.873   4.214  16.003  0.1509  0.2913 -0.1836
 4853SOL    HW126021   1.908   4.234  15.916 -0.3100  0.2379 -0.3803
 4853SOL    HW226022   1.814   4.142  15.981  0.3398  0.1486 -0.2200
 4854SOL     OW26023   0.753   4.210   5.972  0.1635 -0.1797  0.7410
 4854SOL    HW126024   0.794   4.281   5.923  0.6696 -0.6572  0.4731
 4854SOL    HW226025   0.782   4.129   5.930 -0.0336 -0.0350  0.3264
 4855SOL     OW26026   3.555   3.146   3.924  0.4480  0.4644 -0.0103
 4855SOL    HW126027   3.622   3.102   3.977  0.0658  0.5221  0.5268
 4855SOL    HW226028   3.598   3.226   3.895 -2.8006  1.2038 -2.7774
 4856SOL     OW26029   1.134   0.331   2.059  0.6201 -0.3812  0.4874
 4856SOL    HW126030   1.087   0.355   2.138  0.4261  1.6700 -0.2559
 4856SOL    HW226031   1.112   0.410   2.009  0.7811 -0.6509 -0.0134
 4857SOL     OW26032   1.460   3.917   5.788  0.2401 -0.2914 -0.2722
 4857SOL    HW126033   1.554   3.898   5.786 -0.0041 -1.7421  1.4699
 4857SOL    HW226034   1.415   3.840   5.752  2.5513 -1.7148 -0.1184
 4858SOL     OW26035   1.560   2.275   2.207 -0.7497 -0.9075 -0.0349
 4858SOL    HW126036   1.638   2.225   2.180  0.1007 -0.1925  1.1007
 4858SOL    HW226037   1.490   2.211   2.196 -0.4320 -0.7087 -3.1565
 4859SOL     OW26038   3.302   2.316  16.039  0.0563 -0.1395  0.1925
 4859SOL    HW126039   3.348   2.363  15.969 -1.7707  0.9718 -0.2654
 4859SOL    HW226040   3.239   2.268  15.986  1.3210 -1.9491  0.3558
 4860SOL     OW26041   2.178   1.254   9.058  0.4310 -0.3133 -0.5447
 4860SOL    HW126042   2.098   1.213   9.027 -1.1213  3.3744 -1.3676
 4860SOL    HW226043   2.143   1.324   9.114  1.1889  0.0262 -0.4925
 4861SOL     OW26044   4.703   0.825   3.382  0.3479  0.5953  0.4147
 4861SOL    HW126045   0.025   0.753   3.338 -0.1461  1.3454 -1.3257
 4861SOL    HW226046   0.047   0.892   3.360 -1.1204  1.4297 -1.4316
 4862SOL     OW26047   4.042   1.717  13.016 -0.1014  0.5751  0.0219
 4862SOL    HW126048   4.094   1.790  12.983  0.4160  0.0426 -0.3433
 4862SOL    HW226049   3.965   1.730  12.960  1.3423  1.2025 -1.8187
 4863SOL     OW26050   4.090   0.332   8.625 -0.2956  0.3468 -0.8761
 4863SOL    HW126051   4.042   0.390   8.566 -0.5549 -0.4010 -1.3980
 4863SOL    HW226052   4.014   0.301   8.674 -1.1367  2.2790 -0.9645
 4864SOL     OW26053   0.988   4.665   5.062 -0.2914 -0.0227 -0.1380
 4864SOL    HW126054   0.919   0.009   5.052  0.7309  0.8719 -1.2534
 4864SOL    HW226055   1.005   4.648   4.969 -0.5854 -0.7416 -0.0560
 4865SOL     OW26056   2.030   3.625  14.134  0.4123  0.2101  0.4385
 4865SOL    HW126057   1.962   3.561  14.154  1.2407 -0.8614 -0.1752
 4865SOL    HW226058   2.097   3.597  14.196  1.0261  1.3774  0.3185
 4866SOL     OW26059   1.782   1.974   6.106  0.1770  0.3747  0.1545
 4866SOL    HW126060   1.743   2.046   6.056  1.7863  1.9779  1.2438
 4866SOL    HW226061   1.768   2.008   6.195 -1.0448  0.3700 -0.0310
 4867SOL     OW26062   4.195   2.394  11.720  0.1467  0.0060 -0.1746
 4867SOL    HW126063   4.155   2.480  11.736 -1.9454 -0.3761 -3.3549
 4867SOL    HW226064   4.209   2.361  11.808 -0.8795  1.5243  0.5626
 4868SOL     OW26065   0.989   4.694   4.797 -0.2214 -0.5783  0.5902
 4868SOL    HW126066   0.982   0.040   4.731 -4.9776  0.0929  1.7971
 4868SOL    HW226067   1.076   4.661   4.777 -0.5957 -1.2308  0.0384
 4869SOL     OW26068   4.623   3.202   0.433  0.4021 -0.2383  0.1139
 4869SOL    HW126069   4.677   3.241   0.364 -1.7238 -2.3411 -2.6912
 4869SOL    HW226070   4.531   3.227   0.428  1.1548  2.1953 -1.6872
 4870SOL     OW26071   3.100   2.464   2.736 -0.1338 -0.1281  0.3156
 4870SOL    HW126072   3.155   2.427   2.805  1.7499 -0.8244 -1.5955
 4870SOL    HW226073   3.069   2.380   2.703 -0.7710 -0.0369  0.6695
 4871SOL     OW26074   3.699   0.989  13.939 -0.0832  0.0562  0.2555
 4871SOL    HW126075   3.640   1.052  13.980  2.1761  3.2049 -1.2996
 4871SOL    HW226076   3.702   1.014  13.847 -0.2216  0.2666  0.3093
 4872SOL     OW26077   2.408   1.068   4.025  0.2892 -0.1481  0.1584
 4872SOL    HW126078   2.495   1.048   3.989  0.0352 -0.1790 -0.4378
 4872SOL    HW226079   2.411   1.163   4.028 -2.4850  0.0423 -2.5285
 4873SOL     OW26080   3.794   2.317  15.155  0.5636 -0.7012  0.2921
 4873SOL    HW126081   3.731   2.322  15.227 -0.9751  0.2024 -1.1182
 4873SOL    HW226082   3.777   2.229  15.121 -2.3021 -0.2239  0.4953
 4874SOL     OW26083   0.941   3.010   9.554 -0.4381  0.5620  0.1947
 4874SOL    HW126084   0.918   2.956   9.629  1.3105 -2.9210 -1.7912
 4874SOL    HW226085   0.991   2.950   9.499 -1.8326  0.4729 -0.9596
 4875SOL     OW26086   4.496   0.048   5.498 -0.5595 -0.1340  0.1358
 4875SOL    HW126087   4.572   0.004   5.536 -1.4778 -1.1898  0.7642
 4875SOL    HW226088   4.460   4.694   5.453  2.1380 -2.7379  2.3478
 4876SOL     OW26089   1.016   0.958   3.451 -0.5068  0.5444 -0.9798
 4876SOL    HW126090   1.010   1.042   3.495  0.2571  1.1497 -2.0377
 4876SOL    HW226091   1.087   0.978   3.389 -0.3112  1.6885 -0.3837
 4877SOL     OW26092   0.919   0.457   3.558  0.5685 -0.2563  0.2204
 4877SOL    HW126093   0.879   0.396   3.620 -2.1466 -0.3044 -1.5685
 4877SOL    HW226094   0.865   0.438   3.481  1.5967 -1.6915 -0.1275
 4878SOL     OW26095   2.320   4.385   8.669 -0.0958 -0.3952 -0.1773
 4878SOL    HW126096   2.291   4.463   8.716  1.3532 -0.9866  1.6901
 4878SOL    HW226097   2.413   4.398   8.690 -0.5854 -0.9389  2.3262
 4879SOL     OW26098   4.173   3.098   2.924 -0.3924  0.2072 -0.2062
 4879SOL    HW126099   4.230   3.172   2.945 -0.0980  0.1216 -0.7046
 4879SOL    HW226100   4.114   3.079   2.997  0.9837 -1.7344  0.3951
 4880SOL     OW26101   1.904   1.996   9.134  0.2289  0.2442 -0.0195
 4880SOL    HW126102   1.932   1.925   9.192 -0.6748 -0.8550 -0.9233
 4880SOL    HW226103   1.983   2.045   9.113  1.5316 -1.0859  1.7018
 4881SOL     OW26104   1.375   4.155   6.774  0.3387  0.3690 -0.0678
 4881SOL    HW126105   1.455   4.109   6.746  1.1880  3.0192 -1.9838
 4881SOL    HW226106   1.363   4.108   6.856  3.0347 -0.8962 -0.3866
 4882SOL     OW26107   0.789   4.005   4.505  0.1960  0.4827 -0.1975
 4882SOL    HW126108   0.744   3.951   4.441 -2.0007  2.9478 -0.6933
 4882SOL    HW226109   0.806   3.946   4.579 -1.0070 -1.0110 -1.1159
 4883SOL     OW26110   2.422   2.677   8.907 -0.2090  0.0259  0.1733
 4883SOL    HW126111   2.489   2.611   8.888  1.1460  1.6429 -0.6500
 4883SOL    HW226112   2.339   2.629   8.908 -1.1567  1.6463  0.4233
 4884SOL     OW26113   0.802   0.409   8.977 -0.0831 -0.1708 -0.0715
 4884SOL    HW126114   0.887   0.371   8.957 -0.0219  0.1801 -0.4751
 4884SOL    HW226115   0.807   0.397   9.072  3.6739 -1.1392 -0.3757
 4885SOL     OW26116   1.065   2.644   6.730 -0.2001  1.0033  0.2513
 4885SOL    HW126117   1.112   2.686   6.802 -0.3252 -1.9134  2.0243
 4885SOL    HW226118   1.106   2.681   6.651  1.3732  0.2449  0.7240
 4886SOL     OW26119   3.441   3.643   6.230 -0.0234 -0.2657 -0.1738
 4886SOL    HW126120   3.348   3.636   6.249  0.3367  1.0447  2.0696
 4886SOL    HW226121   3.478   3.719   6.275 -0.5623  0.4448 -0.9273
 4887SOL     OW26122   1.221   2.208  12.135  0.2128  0.0998 -0.1971
 4887SOL    HW126123   1.143   2.161  12.164 -0.4829  1.2082 -0.2927
 4887SOL    HW226124   1.225   2.174  12.046  1.4649  2.9980 -1.2495
 4888SOL     OW26125   4.280   0.218   7.428 -0.0538 -0.0928  0.1936
 4888SOL    HW126126   4.290   0.281   7.358 -2.0890  0.2782  0.2357
 4888SOL    HW226127   4.197   0.248   7.464  0.0052  1.9875 -1.4303
 4889SOL     OW26128   2.192   3.482   5.137  0.9401  0.1716 -0.1164
 4889SOL    HW126129   2.258   3.418   5.165  0.6781  0.1524  0.4437
 4889SOL    HW226130   2.152   3.424   5.073  0.0678 -0.2782  0.8398
 4890SOL     OW26131   4.191   1.592   3.022  0.5925 -0.1966  0.0672
 4890SOL    HW126132   4.145   1.605   3.105  0.6364 -3.0991  0.5480
 4890SOL    HW226133   4.145   1.519   2.981 -2.6446  2.5608 -1.2538
 4891SOL     OW26134   0.740   3.558  12.249 -0.2535 -0.5523  0.3832
 4891SOL    HW126135   0.791   3.550  12.330  0.6765 -0.7372 -0.2193
 4891SOL    HW226136   0.676   3.625  12.272  0.0411 -0.2259  0.2625
 4892SOL     OW26137   4.252   1.198  16.991  0.5348  0.5144 -0.0398
 4892SOL    HW126138   4.266   1.201  16.896 -1.0367  1.8604 -0.2341
 4892SOL    HW226139   4.176   1.140  16.996  1.1950 -0.4209 -0.8639
 4893SOL     OW26140   1.480   2.441  12.089 -0.1211  0.0521  0.3325
 4893SOL    HW126141   1.481   2.536  12.081  2.1695 -0.0860 -1.0125
 4893SOL    HW226142   1.399   2.425  12.041 -0.5987 -0.6602  1.3661
 4894SOL     OW26143   2.094   4.684   5.469 -0.2734 -0.4095 -0.3520
 4894SOL    HW126144   2.181   0.002   5.461 -0.3196 -0.4018 -0.8149
 4894SOL    HW226145   2.059   4.718   5.386 -1.6335  1.2886  0.9263
 4895SOL     OW26146   1.050   1.009   3.764  0.0121 -0.2486 -0.2167
 4895SOL    HW126147   1.085   0.928   3.728  0.1897  0.1749 -1.0016
 4895SOL    HW226148   0.957   1.003   3.740  0.1715  1.2739 -1.2011
 4896SOL     OW26149   1.721   0.061   4.706 -0.3489 -0.2396 -0.9184
 4896SOL    HW126150   1.634   0.093   4.728 -1.0870 -1.3714 -2.2274
 4896SOL    HW226151   1.696   4.698   4.671 -0.0958 -1.2666  1.4268
 4897SOL     OW26152   3.521   2.113   6.258 -0.3627 -0.5091  0.0263
 4897SOL    HW126153   3.486   2.035   6.299  0.9661 -0.5194  1.1384
 4897SOL    HW226154   3.589   2.088   6.195  0.2481 -3.9086  2.0618
 4898SOL     OW26155   3.383   0.055   7.437  0.4026 -0.0097 -0.6495
 4898SOL    HW126156   3.473   0.027   7.451  0.6202  0.2399 -1.5096
 4898SOL    HW226157   3.339   4.693   7.444 -1.2408  0.7782 -1.4477
 4899SOL     OW26158   2.758   0.218  17.489 -0.6246  0.5698  0.0648
 4899SOL    HW126159   2.700   0.279  17.535 -0.3010  1.6140 -0.8994
 4899SOL    HW226160   2.804   0.272  17.425  1.1589 -1.8755 -0.6877
 4900SOL     OW26161   1.418   1.885   9.060  0.1971 -0.3064 -0.4001
 4900SOL    HW126162   1.508   1.864   9.085 -0.1607 -1.4637 -0.1337
 4900SOL    HW226163   1.402   1.970   9.102 -0.9595  0.0142 -1.4636
 4901SOL     OW26164   2.331   4.527   7.029 -0.1631  0.0805 -0.3260
 4901SOL    HW126165   2.284   4.557   6.951 -0.6247 -2.2508 -0.9474
 4901SOL    HW226166   2.406   4.476   6.998  0.6651  2.1812 -1.7563
 4902SOL     OW26167   1.063   4.040   7.973 -0.2342 -0.1076 -0.6739
 4902SOL    HW126168   1.006   4.117   7.974  3.2290  2.4730  0.0458
 4902SOL    HW226169   1.146   4.088   7.971  0.4064 -1.2172 -0.4064
 4903SOL     OW26170   1.936   4.042   3.618  0.0234 -0.4093  0.2005
 4903SOL    HW126171   2.019   4.034   3.571 -0.4788 -0.1693 -0.7318
 4903SOL    HW226172   1.883   4.105   3.569 -1.4065 -1.6911  0.1020
 4904SOL     OW26173   3.774   1.727   3.255 -0.8110  0.4377  0.5564
 4904SOL    HW126174   3.828   1.650   3.238 -0.9046  0.3104  0.8267
 4904SOL    HW226175   3.804   1.752   3.343  0.7730 -2.5629  0.8897
 4905SOL     OW26176   1.400   0.769   6.784  0.1324  0.4800  0.4140
 4905SOL    HW126177   1.362   0.687   6.751  0.9390 -0.3677  1.5571
 4905SOL    HW226178   1.488   0.769   6.748  0.1143  0.0022  0.3650
 4906SOL     OW26179   2.053   3.830  10.538 -0.2291 -0.1109  0.0738
 4906SOL    HW126180   2.033   3.923  10.536 -2.3129 -0.5702  0.1634
 4906SOL    HW226181   2.140   3.820  10.499  0.4924 -2.7286  2.2881
 4907SOL     OW26182   0.325   0.229   5.802  0.0815 -0.2687 -0.1332
 4907SOL    HW126183   0.274   0.183   5.869  2.5611  0.2540  2.1351
 4907SOL    HW226184   0.319   0.319   5.835  0.4023 -0.0106 -0.7870
 4908SOL     OW26185   3.698   3.533   7.106 -0.0842 -0.4141  0.0680
 4908SOL    HW126186   3.621   3.482   7.080 -0.7187  0.4302  0.2885
 4908SOL    HW226187   3.735   3.474   7.172 -0.4201  0.0577  0.6826
 4909SOL     OW26188   4.370   0.610   8.395  0.5800 -0.0308 -0.2276
 4909SOL    HW126189   4.451   0.598   8.444  1.3958 -0.1888 -1.6207
 4909SOL    HW226190   4.360   0.522   8.358  0.4624  0.1281 -0.5688
 4910SOL     OW26191   0.467   1.943   0.857 -0.0584  0.1909 -0.0608
 4910SOL    HW126192   0.459   1.944   0.952 -0.7126 -0.5399 -0.1115
 4910SOL    HW226193   0.379   1.917   0.830  1.2329 -1.2390 -2.8679
 4911SOL     OW26194   3.080   0.710   3.940  0.0423 -0.1477 -0.7183
 4911SOL    HW126195   3.168   0.706   3.902  0.7307  2.1909  0.6128
 4911SOL    HW226196   3.033   0.721   3.857 -0.9831  0.1276 -0.0973
 4912SOL     OW26197   2.870   3.210   0.322 -0.6352 -0.2836  0.2422
 4912SOL    HW126198   2.954   3.253   0.330 -0.4211 -1.0301  1.9743
 4912SOL    HW226199   2.861   3.196   0.227 -0.6768  1.8130 -0.0551
 4913SOL     OW26200   1.756   4.287   2.533 -0.6287  0.1461 -0.1509
 4913SOL    HW126201   1.679   4.256   2.485 -0.5920  1.3730 -1.0245
 4913SOL    HW226202   1.807   4.325   2.461 -1.7562 -0.4216 -1.2675
 4914SOL     OW26203   1.922   1.728  17.284  0.0607 -0.2363 -0.1906
 4914SOL    HW126204   1.952   1.694  17.368  2.8588  0.6241 -0.8512
 4914SOL    HW226205   1.832   1.741  17.315  0.3030 -1.3289  0.9950
 4915SOL     OW26206   2.377   2.920   3.987 -1.0377  0.2812 -0.4508
 4915SOL    HW126207   2.436   2.971   3.932  2.1618  0.3018  3.0025
 4915SOL    HW226208   2.303   2.980   3.996 -0.3045  1.0763  0.2226
 4916SOL     OW26209   0.417   2.400  15.375 -0.1495  0.0865  0.4146
 4916SOL    HW126210   0.512   2.410  15.378 -0.0095 -0.8257 -1.1042
 4916SOL    HW226211   0.398   2.431  15.464  2.4035  1.9693  0.3305
 4917SOL     OW26212   2.820   1.558   8.202  0.4299  0.1846 -0.3808
 4917SOL    HW126213   2.747   1.575   8.261  2.5609 -1.8555  2.8643
 4917SOL    HW226214   2.871   1.494   8.251  0.7738 -0.4592 -1.5741
 4918SOL     OW26215   1.492   2.253   7.693  0.0959  0.0223  0.2945
 4918SOL    HW126216   1.499   2.166   7.733  2.0905 -1.3086 -3.0307
 4918SOL    HW226217   1.411   2.275   7.739 -0.7542 -1.3283 -0.5551
 4919SOL     OW26218   3.840   2.720  14.772  0.2154 -0.1049 -0.5428
 4919SOL    HW126219   3.820   2.676  14.854 -0.3704  1.6756  0.2754
 4919SOL    HW226220   3.894   2.653  14.731 -1.0182 -1.3232 -0.1599
 4920SOL     OW26221   1.047   1.434   4.082 -0.2765  0.3183  0.1095
 4920SOL    HW126222   0.970   1.399   4.126 -0.1960  0.3281  0.2607
 4920SOL    HW226223   1.057   1.370   4.011 -0.6265  1.9643 -1.4110
 4921SOL     OW26224   2.222   3.301   2.068 -0.2829 -0.6974 -0.1936
 4921SOL    HW126225   2.177   3.224   2.033 -1.0779 -0.2597 -0.1160
 4921SOL    HW226226   2.167   3.377   2.052 -1.4061 -1.2979  0.8114
 4922SOL     OW26227   3.182   2.264   6.027  0.1791  0.6716 -0.6247
 4922SOL    HW126228   3.269   2.238   5.997 -0.1669 -2.5523  1.1688
 4922SOL    HW226229   3.137   2.182   6.006 -0.9271  1.4477 -1.2833
 4923SOL     OW26230   3.232   0.067   8.504  0.1669 -0.2379  0.5056
 4923SOL    HW126231   3.231   0.149   8.554  0.7594 -0.2983  0.6180
 4923SOL    HW226232   3.194   4.722   8.561 -1.0796 -1.4596 -1.7535
 4924SOL     OW26233   4.538   1.676   6.111 -0.6324  0.2906  0.2969
 4924SOL    HW126234   4.593   1.690   6.188  0.1504 -1.1508 -0.0088
 4924SOL    HW226235   4.501   1.764   6.101  1.5851  1.2882  0.7932
 4925SOL     OW26236   3.933   0.547   5.040 -0.5317 -0.3314 -0.0775
 4925SOL    HW126237   3.959   0.638   5.046  0.5137 -0.6792  0.6094
 4925SOL    HW226238   3.865   0.541   5.107  1.0470  0.7429  1.5893
 4926SOL     OW26239   1.892   1.414  10.588 -0.1122 -0.7263 -0.5322
 4926SOL    HW126240   1.937   1.469  10.524  1.3513 -0.5440  0.6598
 4926SOL    HW226241   1.964   1.409  10.651 -0.4061 -0.8674 -0.2032
 4927SOL     OW26242   1.512   0.339   1.254 -0.0851 -0.5606 -0.1948
 4927SOL    HW126243   1.579   0.284   1.296 -0.6229  1.0875  2.8467
 4927SOL    HW226244   1.452   0.362   1.324  2.4244 -0.6893  2.0165
 4928SOL     OW26245   2.019   2.817   3.403 -0.1546 -0.4212  0.3174
 4928SOL    HW126246   2.114   2.818   3.412 -0.1459 -2.7075  0.5131
 4928SOL    HW226247   2.004   2.811   3.309 -0.8147 -2.7150  0.5643
 4929SOL     OW26248   3.253   4.193   8.264  0.0454 -0.0165 -0.0311
 4929SOL    HW126249   3.247   4.218   8.356 -1.0567  1.4552 -0.5060
 4929SOL    HW226250   3.339   4.151   8.268  0.3171  0.6526  1.0068
 4930SOL     OW26251   4.477   2.047   8.891  0.2696  0.4282  0.4569
 4930SOL    HW126252   4.533   2.087   8.957  0.1358  0.6969  0.4096
 4930SOL    HW226253   4.396   2.035   8.941 -0.2950 -1.3917 -0.8721
 4931SOL     OW26254   0.728   4.339   1.963 -0.3066  0.1568 -0.5129
 4931SOL    HW126255   0.766   4.380   2.041  0.0889 -0.3468 -0.4387
 4931SOL    HW226256   0.670   4.271   1.997  1.0926 -0.4657  0.6245
 4932SOL     OW26257   2.175   2.093   3.809 -0.4757 -0.0750  0.7940
 4932SOL    HW126258   2.223   2.163   3.853 -1.1243  0.8934 -0.0725
 4932SOL    HW226259   2.241   2.047   3.756 -0.6082 -1.0607  1.4778
 4933SOL     OW26260   3.257   3.552  14.944  0.6488 -0.0691  0.1635
 4933SOL    HW126261   3.236   3.581  14.855  2.8375  0.6098 -0.1142
 4933SOL    HW226262   3.169   3.526  14.973 -0.3394  0.0793 -2.7508
 4934SOL     OW26263   4.481   2.681   4.497  0.8375 -0.2203 -0.5377
 4934SOL    HW126264   4.566   2.693   4.455  2.1606  0.2983  2.2878
 4934SOL    HW226265   4.483   2.745   4.567  0.8675 -0.6581 -0.1391
 4935SOL     OW26266   0.883   4.360   5.304  0.0072 -0.8825 -0.0418
 4935SOL    HW126267   0.949   4.297   5.334  0.3774 -0.5418 -0.1371
 4935SOL    HW226268   0.801   4.315   5.320 -0.6283  0.6173  0.8626
 4936SOL     OW26269   1.522   1.592  16.991 -0.0153 -0.2283 -0.5541
 4936SOL    HW126270   1.484   1.652  17.056  0.3199 -0.8691  0.2399
 4936SOL    HW226271   1.481   1.630  16.913 -0.4101 -1.0822 -0.7565
 4937SOL     OW26272   2.167   0.147   7.647 -0.5436  0.2951  0.0430
 4937SOL    HW126273   2.250   0.164   7.692 -2.0515  0.0353  2.9628
 4937SOL    HW226274   2.115   0.140   7.727 -1.6855 -1.2357 -0.8354
 4938SOL     OW26275   0.122   1.073   3.354 -0.4260 -0.2557 -0.1380
 4938SOL    HW126276   0.188   1.127   3.397  1.2876 -1.8097 -0.8385
 4938SOL    HW226277   0.162   1.052   3.270 -1.7724 -0.1563 -0.7973
 4939SOL     OW26278   2.254   1.219  10.483  0.0994 -0.2864  0.1485
 4939SOL    HW126279   2.292   1.215  10.395  1.0040  2.7285  0.3966
 4939SOL    HW226280   2.284   1.306  10.510 -1.5651  0.7451 -1.2456
 4940SOL     OW26281   3.592   0.391   2.109 -0.0282  0.5817  0.3136
 4940SOL    HW126282   3.581   0.434   2.024 -1.2625  2.8440  1.6345
 4940SOL    HW226283   3.503   0.376   2.140  0.5123 -1.6968  0.7806
 4941SOL     OW26284   0.842   3.342   8.165 -0.4156 -0.4846 -0.3085
 4941SOL    HW126285   0.924   3.390   8.181 -0.9929  0.4375 -0.1280
 4941SOL    HW226286   0.786   3.406   8.209  0.3716  0.0119 -0.0334
 4942SOL     OW26287   0.284   0.735   2.903 -0.0235  0.2838 -0.0675
 4942SOL    HW126288   0.362   0.781   2.935  1.1596  0.0802 -2.6512
 4942SOL    HW226289   0.330   0.666   2.856 -1.3524 -0.0566 -0.8746
 4943SOL     OW26290   4.210   3.264  12.633  0.3403 -0.2272 -0.5185
 4943SOL    HW126291   4.167   3.185  12.666  1.6103 -0.7941 -0.1810
 4943SOL    HW226292   4.156   3.294  12.560 -0.1907  1.0902  0.4136
 4944SOL     OW26293   3.391   3.152   8.240 -0.5655 -0.1959 -0.1024
 4944SOL    HW126294   3.353   3.066   8.227 -1.0362 -0.2862  1.8513
 4944SOL    HW226295   3.325   3.186   8.301 -0.0683  1.0717 -0.2689
 4945SOL     OW26296   0.340   2.811  17.473  0.5482 -0.6018  0.0580
 4945SOL    HW126297   0.362   2.901  17.499  2.7338 -1.4652  1.2373
 4945SOL    HW226298   0.398   2.758  17.529 -0.3387 -0.8426  0.7507
 4946SOL     OW26299   3.260   3.696   3.026 -0.4598 -0.0194  0.1375
 4946SOL    HW126300   3.323   3.715   2.956  1.1985 -2.8062  0.8688
 4946SOL    HW226301   3.272   3.770   3.086 -2.1235  0.5015 -0.1845
 4947SOL     OW26302   3.382   2.757   4.320  0.4753  0.3989 -0.2881
 4947SOL    HW126303   3.329   2.741   4.398  0.9152  1.9638  0.3489
 4947SOL    HW226304   3.330   2.726   4.246  0.1169  0.0503  0.1115
 4948SOL     OW26305   0.360   0.505   9.984  0.5791 -0.3950 -0.7995
 4948SOL    HW126306   0.336   0.562   9.912 -3.7156  0.3654  1.1995
 4948SOL    HW226307   0.436   0.546  10.025  2.6030 -4.1327 -0.7689
 4949SOL     OW26308   3.789   2.950   2.916 -0.3355 -0.1086 -0.4160
 4949SOL    HW126309   3.870   2.978   2.958 -1.2178  0.3870  0.9395
 4949SOL    HW226310   3.779   3.015   2.846  0.4854  0.0220 -0.4053
 4950SOL     OW26311   4.486   3.093  12.572 -0.0098  0.0710  0.1662
 4950SOL    HW126312   4.488   3.175  12.622 -1.8053  0.2994 -0.1216
 4950SOL    HW226313   4.455   3.036  12.643  1.4023  1.0396  1.5675
 4951SOL     OW26314   0.632   3.669   6.670  0.9166  0.1290  0.4214
 4951SOL    HW126315   0.636   3.675   6.575  0.8339 -1.1975  0.3341
 4951SOL    HW226316   0.562   3.729   6.694 -1.7256 -1.7286 -2.8145
 4952SOL     OW26317   2.069   1.930   5.605  0.2647  0.2529  0.5206
 4952SOL    HW126318   1.993   1.895   5.651 -1.3614  0.9287 -1.6776
 4952SOL    HW226319   2.134   1.900   5.669 -1.0803  0.1883  1.8301
 4953SOL     OW26320   4.640   1.051   5.423  0.1026  0.1649  0.8081
 4953SOL    HW126321   4.656   0.994   5.498  1.8770  0.4476  0.6454
 4953SOL    HW226322   0.006   1.089   5.421 -0.5335  1.6079  0.5479
 4954SOL     OW26323   0.043   0.685   1.416  0.3893 -0.2199  0.0505
 4954SOL    HW126324   0.026   0.607   1.469  1.5505  0.6731  1.7452
 4954SOL    HW226325   0.093   0.735   1.480  2.2407  0.6113 -2.0342
 4955SOL     OW26326   3.627   4.674   8.696 -0.0103 -0.7141 -0.1775
 4955SOL    HW126327   3.616   0.029   8.752 -1.4985 -1.4441  0.5243
 4955SOL    HW226328   3.606   4.611   8.765 -1.6316  0.0010 -0.0235
 4956SOL     OW26329   1.392   2.312   3.555 -0.3653  0.3654  0.0014
 4956SOL    HW126330   1.329   2.242   3.569 -1.2146  0.7200 -2.0324
 4956SOL    HW226331   1.375   2.331   3.463  0.6723  1.5233  0.0465
 4957SOL     OW26332   0.160   1.191   0.119  0.9366 -0.0136 -0.0530
 4957SOL    HW126333   0.108   1.264   0.153 -1.5475 -0.7858 -2.2189
 4957SOL    HW226334   0.089   1.129   0.135  0.4250  0.2747 -1.1884
 4958SOL     OW26335   2.883   4.009   3.886  0.2319 -0.1655  0.0382
 4958SOL    HW126336   2.925   4.059   3.956  0.5434  1.8460 -1.6149
 4958SOL    HW226337   2.943   3.934   3.886 -2.0453 -1.9871 -2.7377
 4959SOL     OW26338   2.563   0.669  15.018 -0.5029  0.5801 -0.1652
 4959SOL    HW126339   2.618   0.598  14.984  0.7015 -0.5947  4.3322
 4959SOL    HW226340   2.481   0.620  15.028  0.0730 -0.4766 -0.6252
 4960SOL     OW26341   3.966   2.971   7.328 -0.2607  0.2150 -0.1918
 4960SOL    HW126342   4.058   2.994   7.336  0.3134 -2.2851  0.3657
 4960SOL    HW226343   3.966   2.886   7.285 -0.7421 -0.3620  0.9570
 4961SOL     OW26344   1.554   4.682   8.096  0.1508  0.1197  0.1792
 4961SOL    HW126345   1.461   4.664   8.084  0.2612 -0.7163  0.5447
 4961SOL    HW226346   1.593   4.623   8.032  0.4221 -0.4638  0.8841
 4962SOL     OW26347   3.949   0.437   6.078 -0.1515 -1.1470 -0.4690
 4962SOL    HW126348   3.903   0.485   6.009  0.2772 -0.8428 -0.5388
 4962SOL    HW226349   4.025   0.414   6.024  0.7849 -0.0242  0.3724
 4963SOL     OW26350   3.484   0.612   1.992 -0.2092 -0.6936 -0.7288
 4963SOL    HW126351   3.432   0.589   2.069 -0.9808  1.9839 -0.4602
 4963SOL    HW226352   3.442   0.691   1.961  1.0544  0.7513  1.1959
 4964SOL     OW26353   1.938   2.170   1.480  0.2295 -0.2542 -0.3804
 4964SOL    HW126354   1.845   2.170   1.499  0.7026 -0.5659  1.9541
 4964SOL    HW226355   1.967   2.140   1.566  0.4181 -1.5275 -0.8905
 4965SOL     OW26356   2.945   2.808   4.431  0.0394 -0.3863  0.4272
 4965SOL    HW126357   2.957   2.815   4.336 -1.7611  1.7576  0.3551
 4965SOL    HW226358   3.001   2.880   4.460  0.7625 -1.7151  2.2610
 4966SOL     OW26359   4.562   4.251   8.904  0.2751 -0.2434 -0.2131
 4966SOL    HW126360   4.577   4.212   8.818  0.5590  0.4749 -0.4845
 4966SOL    HW226361   4.651   4.268   8.933  0.7225 -2.7382 -0.1553
 4967SOL     OW26362   0.468   1.360   4.774 -0.3301  0.0906 -0.2606
 4967SOL    HW126363   0.516   1.389   4.851 -1.3438  0.4292  0.2416
 4967SOL    HW226364   0.527   1.384   4.702  0.7049 -2.4904 -0.2810
 4968SOL     OW26365   3.502   3.056  13.589 -0.2435  0.8995 -0.4959
 4968SOL    HW126366   3.410   3.080  13.597 -0.6272 -1.3048  1.3852
 4968SOL    HW226367   3.542   3.134  13.550  1.7849 -0.4420 -1.0883
 4969SOL     OW26368   3.180   1.569   4.866  0.1356  0.0599 -0.1107
 4969SOL    HW126369   3.127   1.512   4.921  0.5660 -0.5803 -0.3683
 4969SOL    HW226370   3.181   1.502   4.798  1.7393 -0.6795  0.6473
 4970SOL     OW26371   2.992   0.856   4.930 -0.0839 -0.5325  0.4915
 4970SOL    HW126372   2.913   0.903   4.904  0.1717  0.0121  0.7020
 4970SOL    HW226373   3.057   0.922   4.907  0.4432 -1.9336 -2.0395
 4971SOL     OW26374   4.292   0.567   3.455  1.1148  0.1987 -0.1843
 4971SOL    HW126375   4.284   0.471   3.455 -2.3069  0.4617 -3.2655
 4971SOL    HW226376   4.302   0.585   3.362  0.4343 -0.0137 -0.2973
 4972SOL     OW26377   1.659   2.420   6.782  0.2162  0.3915  0.3754
 4972SOL    HW126378   1.680   2.390   6.694  4.1088  0.6931  1.2099
 4972SOL    HW226379   1.643   2.512   6.765  0.8424  0.1185 -1.6732
 4973SOL     OW26380   3.548   3.500   3.433 -0.3479 -0.1023 -0.6004
 4973SOL    HW126381   3.485   3.465   3.370 -0.5881 -2.7515  1.0763
 4973SOL    HW226382   3.527   3.593   3.433 -1.5128 -0.3628 -0.8464
 4974SOL     OW26383   2.606   3.852   6.025  0.2262 -0.6331  0.2698
 4974SOL    HW126384   2.512   3.856   6.007 -0.0393 -0.0182  1.7217
 4974SOL    HW226385   2.608   3.793   6.101  4.4913  0.1079  0.7427
 4975SOL     OW26386   4.226   4.464  11.898  0.3524 -0.6922 -0.1767
 4975SOL    HW126387   4.179   4.492  11.977  2.2067 -0.0775  0.6973
 4975SOL    HW226388   4.180   4.507  11.826  0.1621 -0.6595 -0.0365
 4976SOL     OW26389   1.325   4.549   8.647  0.4599 -0.4599  0.1954
 4976SOL    HW126390   1.239   4.591   8.654  1.3478  1.2765  0.5820
 4976SOL    HW226391   1.337   4.521   8.556  2.0405 -0.9163  0.5335
 4977SOL     OW26392   1.631   4.493  16.847 -0.0283  0.2600 -0.7613
 4977SOL    HW126393   1.672   4.472  16.930  2.9417  1.4879 -1.9064
 4977SOL    HW226394   1.622   4.587  16.865 -2.1729 -0.9894  4.4768
 4978SOL     OW26395   0.340   2.091   3.621  0.1025  0.7320 -0.4613
 4978SOL    HW126396   0.260   2.084   3.569 -0.3257 -1.0826  0.4542
 4978SOL    HW226397   0.302   2.060   3.703  0.1315 -0.8829 -1.0769
 4979SOL     OW26398   1.813   1.858   7.678 -0.1309  0.1095 -0.1655
 4979SOL    HW126399   1.825   1.796   7.606 -0.2604  0.5681 -0.5773
 4979SOL    HW226400   1.895   1.866   7.728  0.8163 -1.0061 -1.5345
 4980SOL     OW26401   2.248   3.104   0.595 -0.1919 -0.0866 -0.2731
 4980SOL    HW126402   2.232   3.055   0.676 -1.3510 -0.7741 -0.9137
 4980SOL    HW226403   2.318   3.054   0.553 -0.1917 -0.5551  0.2941
 4981SOL     OW26404   2.329   1.969   8.179 -0.0985  0.1517 -0.4877
 4981SOL    HW126405   2.331   2.026   8.255  0.8754  0.9546 -1.1124
 4981SOL    HW226406   2.422   1.948   8.174 -0.4748 -1.5770 -0.3662
 4982SOL     OW26407   2.627   3.455   8.448  0.5009 -0.3196  0.0512
 4982SOL    HW126408   2.675   3.517   8.504  1.4719 -0.9234 -0.1163
 4982SOL    HW226409   2.538   3.484   8.466  0.4406 -0.7275  0.3873
 4983SOL     OW26410   0.825   2.271  16.316 -0.0844 -0.2438 -0.1605
 4983SOL    HW126411   0.764   2.329  16.270 -0.6817 -2.0339 -1.6413
 4983SOL    HW226412   0.873   2.329  16.375 -1.6810  0.2472  0.6828
 4984SOL     OW26413   2.091   1.682   9.053  0.1705  0.1869  0.1850
 4984SOL    HW126414   2.092   1.761   8.999  2.0455  0.7847  1.0951
 4984SOL    HW226415   2.080   1.723   9.138  0.5769 -1.4180  1.0099
 4985SOL     OW26416   0.226   0.450  12.241 -0.0466  0.2829 -0.0989
 4985SOL    HW126417   0.207   0.390  12.168  1.6935  1.2386 -1.3196
 4985SOL    HW226418   0.320   0.462  12.235 -0.4039  2.7930 -0.3992
 4986SOL     OW26419   3.316   1.319   5.911 -0.0152 -0.5654 -0.3202
 4986SOL    HW126420   3.343   1.266   5.987  2.8016  0.3466 -0.6668
 4986SOL    HW226421   3.283   1.390   5.966 -0.9779 -2.1318  1.1217
 4987SOL     OW26422   3.512   0.877   4.684  0.1016  0.4032 -0.2882
 4987SOL    HW126423   3.500   0.872   4.589  0.4093 -0.7327 -0.2588
 4987SOL    HW226424   3.534   0.970   4.690 -2.3943  1.0749 -1.2154
 4988SOL     OW26425   4.481   4.348   7.189 -0.1456 -1.1206  0.1848
 4988SOL    HW126426   4.536   4.345   7.110 -0.4525 -1.8994  0.0050
 4988SOL    HW226427   4.543   4.307   7.249 -2.2319 -2.1000  1.6574
 4989SOL     OW26428   2.095   2.120   1.056 -0.6864 -0.1839 -0.1166
 4989SOL    HW126429   2.010   2.142   1.096 -0.8202 -0.1440 -0.4196
 4989SOL    HW226430   2.126   2.207   1.028 -0.6756 -0.3033 -0.4715
 4990SOL     OW26431   1.042   0.700   4.773  0.4285  0.5639  0.2574
 4990SOL    HW126432   1.105   0.770   4.756 -0.4154  1.0275 -0.9587
 4990SOL    HW226433   1.101   0.634   4.810  0.8965  2.7423  3.3921
 4991SOL     OW26434   0.054   2.143  11.258  0.6778  0.4744 -0.2897
 4991SOL    HW126435   0.051   2.054  11.293  4.1263  0.7504  0.6977
 4991SOL    HW226436   4.683   2.165  11.249  0.1172 -2.6004 -2.1627
 4992SOL     OW26437   1.700   3.675   9.490  0.3384 -0.3898  0.5851
 4992SOL    HW126438   1.605   3.674   9.488  0.4020 -3.0609 -1.4804
 4992SOL    HW226439   1.715   3.693   9.583 -3.2629 -1.4009  1.3496
 4993SOL     OW26440   2.102   1.726   1.071  0.0081  0.5603 -0.0017
 4993SOL    HW126441   2.082   1.650   1.126  0.5702  0.4328  0.0222
 4993SOL    HW226442   2.115   1.797   1.133  1.2125 -0.5639  1.0350
 4994SOL     OW26443   1.255   4.129   1.030  0.0839  0.0646 -0.2436
 4994SOL    HW126444   1.330   4.117   0.971  1.6634  0.0509  1.7938
 4994SOL    HW226445   1.306   4.175   1.096 -0.6299 -0.8976  0.9713
 4995SOL     OW26446   4.540   1.829  12.138  0.2048  0.1839 -0.0871
 4995SOL    HW126447   4.622   1.799  12.098 -0.1523 -0.8151 -0.0552
 4995SOL    HW226448   4.508   1.751  12.183  1.0070  0.3124  0.6975
 4996SOL     OW26449   3.570   2.618   0.679  0.3579 -0.0523  0.6242
 4996SOL    HW126450   3.484   2.638   0.641  0.4908  1.8291  1.3566
 4996SOL    HW226451   3.618   2.578   0.606  1.5147  2.3968  0.0613
 4997SOL     OW26452   0.646   3.315  17.532 -0.0099 -0.1310  0.2057
 4997SOL    HW126453   0.694   3.396  17.511 -0.4703  0.0889  0.0104
 4997SOL    HW226454   0.582   3.314  17.461 -0.9864 -0.2868  1.0921
 4998SOL     OW26455   0.739   4.621  16.787 -0.2645 -0.3035 -0.4565
 4998SOL    HW126456   0.710   4.712  16.775  2.0231  0.5910  0.7331
 4998SOL    HW226457   0.771   4.603  16.698  0.6892  1.7691 -0.5546
 4999SOL     OW26458   2.061   1.362   8.731 -0.0839 -0.3282  0.6707
 4999SOL    HW126459   1.993   1.363   8.799 -1.4397 -1.4096 -0.6489
 4999SOL    HW226460   2.106   1.435   8.773 -1.0641  0.9187 -0.4731
 5000SOL     OW26461   4.011   0.458   4.793  0.1412 -0.5712  0.2093
 5000SOL    HW126462   3.985   0.478   4.883 -1.3157  2.3746 -0.8615
 5000SOL    HW226463   4.096   0.417   4.807  0.6081  0.3515  0.0438
 5001SOL     OW26464   2.580   1.539   7.941  0.4417  0.1626 -0.3926
 5001SOL    HW126465   2.513   1.568   7.879 -2.3096 -0.9929  2.0548
 5001SOL    HW226466   2.654   1.519   7.884  0.3294  1.4318 -0.9826
 5002SOL     OW26467   4.333   0.697  15.513  0.0032  0.2998  0.3918
 5002SOL    HW126468   4.367   0.641  15.583 -2.9955 -3.0768 -0.8546
 5002SOL    HW226469   4.410   0.717  15.459  0.2074  2.7142  1.5553
 5003SOL     OW26470   2.430   4.322  15.118 -0.1861  0.2011  0.2174
 5003SOL    HW126471   2.498   4.267  15.157 -0.9152  0.1924  1.4565
 5003SOL    HW226472   2.367   4.252  15.102  0.7316 -1.0471  2.0683
 5004SOL     OW26473   1.002   3.398   7.917  0.2316 -0.6456  0.1618
 5004SOL    HW126474   0.929   3.387   7.978 -0.0118  1.5926  0.2628
 5004SOL    HW226475   0.979   3.480   7.873  1.6642  1.4410  3.2776
 5005SOL     OW26476   3.672   2.667   7.300 -0.0988 -0.1638 -0.1328
 5005SOL    HW126477   3.706   2.580   7.324  1.0688  0.4427  0.3922
 5005SOL    HW226478   3.641   2.712   7.378  0.6470 -0.2379  0.2074
 5006SOL     OW26479   4.099   2.126  17.274 -0.5597  0.2160  0.1053
 5006SOL    HW126480   4.139   2.200  17.228  0.3007 -0.5919 -0.4638
 5006SOL    HW226481   4.097   2.060  17.205  0.5540  0.7328 -0.4169
 5007SOL     OW26482   2.630   4.353   9.504  0.1071  0.1555  0.4829
 5007SOL    HW126483   2.548   4.328   9.545 -0.3826 -0.8896 -1.1405
 5007SOL    HW226484   2.606   4.369   9.413 -0.9899 -3.3087  0.1442
 5008SOL     OW26485   3.379   2.770   3.981 -0.3402 -0.6425  0.3826
 5008SOL    HW126486   3.414   2.794   3.895 -0.1338  0.8594  0.8764
 5008SOL    HW226487   3.450   2.737   4.037 -0.0977  0.3606  0.6763
 5009SOL     OW26488   3.057   3.906   1.285  0.0338  0.0604  0.5684
 5009SOL    HW126489   3.065   4.000   1.269 -2.0284  0.8564  4.1823
 5009SOL    HW226490   2.963   3.913   1.305  0.0032 -1.3448  0.8830
 5010SOL     OW26491   4.198   3.122  14.499 -0.2586  0.1464 -0.4149
 5010SOL    HW126492   4.265   3.057  14.520 -1.0104  0.1522  2.0075
 5010SOL    HW226493   4.117   3.090  14.540 -0.3572  1.3057  0.3034
 5011SOL     OW26494   3.238   2.206  16.291 -0.6662  0.3574  0.5572
 5011SOL    HW126495   3.250   2.252  16.208  2.1524  3.6575  2.8077
 5011SOL    HW226496   3.317   2.152  16.281 -1.3249 -0.6919  1.1000
 5012SOL     OW26497   3.548   2.460   4.841 -0.2964  0.3006  0.4638
 5012SOL    HW126498   3.554   2.507   4.758 -0.0197  0.7282  0.7313
 5012SOL    HW226499   3.545   2.542   4.890  2.5783  0.9560 -0.4656
 5013SOL     OW26500   4.383   0.751   6.435  0.0533 -0.4680 -0.3405
 5013SOL    HW126501   4.433   0.793   6.504  0.6271 -2.2962  0.3611
 5013SOL    HW226502   4.455   0.755   6.372 -0.8422 -1.0565 -1.4030
 5014SOL     OW26503   0.272   4.585   8.098 -0.3504 -0.2874  0.4130
 5014SOL    HW126504   0.352   4.564   8.049 -1.4786 -0.9937 -1.1222
 5014SOL    HW226505   0.303   4.617   8.182 -3.9658  1.1760  1.1790
 5015SOL     OW26506   0.748   1.953   5.805 -0.7067 -0.3258  0.7618
 5015SOL    HW126507   0.840   1.969   5.786 -0.6161  1.0368  2.4132
 5015SOL    HW226508   0.732   2.011   5.879  0.9375  1.7738 -0.5374
 5016SOL     OW26509   2.573   4.471   7.935 -0.0518  0.2229  0.3096
 5016SOL    HW126510   2.638   4.433   7.995 -0.7263  2.2405  2.2915
 5016SOL    HW226511   2.635   4.521   7.882  1.7526 -1.3196  0.9689
 5017SOL     OW26512   1.997   3.369   5.665 -0.0213 -0.0065  0.0359
 5017SOL    HW126513   1.982   3.362   5.571 -0.2833 -0.7924  0.1402
 5017SOL    HW226514   2.067   3.305   5.679 -1.2095 -1.7665 -2.1720
 5018SOL     OW26515   2.982   0.274   7.027  0.1055 -0.8392  0.2522
 5018SOL    HW126516   2.934   0.203   6.984 -1.0256 -0.0768  0.2488
 5018SOL    HW226517   3.042   0.220   7.078  0.2451  0.2299  1.2336
 5019SOL     OW26518   0.055   4.312   8.674  0.7500  0.0507  0.0346
 5019SOL    HW126519   0.121   4.334   8.740  1.5492 -3.0680  0.2643
 5019SOL    HW226520   0.043   4.217   8.675 -2.5077  0.4725 -0.3243
 5020SOL     OW26521   2.594   3.796  12.068 -0.7489  0.2472  0.0177
 5020SOL    HW126522   2.608   3.803  11.974  0.7658 -0.9281  0.1685
 5020SOL    HW226523   2.555   3.883  12.077 -0.6967  0.2342  0.3740
 5021SOL     OW26524   0.425   3.900   5.206  0.4555 -0.3044  0.1851
 5021SOL    HW126525   0.344   3.850   5.202 -0.8919  1.9057 -0.1321
 5021SOL    HW226526   0.408   3.980   5.156 -0.8186  0.3817  1.7128
 5022SOL     OW26527   0.351   1.926   8.224 -0.8929  0.5095 -0.6009
 5022SOL    HW126528   0.337   1.965   8.138  1.3310  1.5286 -0.5082
 5022SOL    HW226529   0.416   1.856   8.208 -2.4472 -0.7202 -1.5496
 5023SOL     OW26530   2.094   1.093  13.759  0.0143  0.1762 -0.0969
 5023SOL    HW126531   2.155   1.165  13.744  0.9045 -0.4511  0.4798
 5023SOL    HW226532   2.114   1.032  13.689 -0.4977 -0.9666  0.7553
 5024SOL     OW26533   1.102   2.904   3.756 -0.4445  0.4431 -0.0879
 5024SOL    HW126534   1.088   2.831   3.695 -0.5532  1.1043 -0.8658
 5024SOL    HW226535   1.172   2.958   3.718  0.8166 -1.3624 -0.3244
 5025SOL     OW26536   2.249   4.398   6.045 -0.2688  0.3298 -0.4689
 5025SOL    HW126537   2.199   4.430   5.970 -0.9274 -1.1684 -0.6633
 5025SOL    HW226538   2.180   4.374   6.106 -1.0342  0.1643 -1.3958
 5026SOL     OW26539   4.395   0.763   2.168  0.3831  0.0612 -0.3203
 5026SOL    HW126540   4.328   0.711   2.124  0.1841  0.7752 -0.8663
 5026SOL    HW226541   4.437   0.705   2.232  0.5311  1.0570  0.4856
 5027SOL     OW26542   3.972   4.720   8.445  0.6170 -0.5002  0.6054
 5027SOL    HW126543   4.019   0.020   8.365  0.2260 -0.1233  0.4821
 5027SOL    HW226544   4.035   0.008   8.517 -0.9669  1.9331  1.6457
 5028SOL     OW26545   3.907   0.760   3.652  0.2262 -0.3785  0.1379
 5028SOL    HW126546   3.924   0.853   3.636 -0.7923 -0.0294  1.0878
 5028SOL    HW226547   3.997   0.740   3.681 -0.3968  1.1112  3.1333
 5029SOL     OW26548   4.490   4.036   7.006  0.1300 -0.3449  0.1449
 5029SOL    HW126549   4.544   4.098   6.957 -1.0511 -0.9146 -1.9208
 5029SOL    HW226550   4.474   3.975   6.933  0.6855 -1.3720  0.8749
 5030SOL     OW26551   3.635   0.161  16.534 -0.4835  0.0888  0.0629
 5030SOL    HW126552   3.704   0.160  16.467  1.0701 -1.6494  1.7199
 5030SOL    HW226553   3.569   0.220  16.496  0.9967  2.2630  0.8786
 5031SOL     OW26554   4.127   0.647   8.320 -0.1738  0.4184  0.1495
 5031SOL    HW126555   4.091   0.714   8.378  0.6524  0.9084  0.0964
 5031SOL    HW226556   4.220   0.657   8.340  0.3912  0.5536 -2.5024
 5032SOL     OW26557   1.266   2.658  10.871 -0.3626 -0.1884  0.4632
 5032SOL    HW126558   1.225   2.742  10.854  3.5285  1.5014 -0.5852
 5032SOL    HW226559   1.352   2.692  10.893  0.0538 -1.5802  0.9900
 5033SOL     OW26560   4.398   2.945   2.878 -0.5055  0.5424  0.6039
 5033SOL    HW126561   4.319   2.998   2.892  0.5379  1.3484  3.4622
 5033SOL    HW226562   4.422   2.989   2.797  0.9550 -3.0363 -0.8759
 5034SOL     OW26563   2.071   3.675   6.372 -0.4253  0.2496 -0.3151
 5034SOL    HW126564   2.142   3.710   6.318  0.8608 -2.1739 -0.1726
 5034SOL    HW226565   2.113   3.616   6.435 -0.2589  1.8372  1.0737
 5035SOL     OW26566   3.199   1.035   4.972  0.4798  0.2231 -0.4954
 5035SOL    HW126567   3.259   1.102   4.940  0.6106  0.3033 -0.0875
 5035SOL    HW226568   3.242   1.000   5.050  1.8814  1.0793 -0.9013
 5036SOL     OW26569   2.268   3.657   0.658  0.1191 -0.4978  0.0228
 5036SOL    HW126570   2.176   3.639   0.640  0.2381  0.7157 -1.8043
 5036SOL    HW226571   2.307   3.570   0.666  1.5886  0.2358  0.7868
 5037SOL     OW26572   2.975   0.323   1.803  0.5751 -0.0416 -0.1790
 5037SOL    HW126573   3.006   0.299   1.715 -0.4022 -2.4112  0.1029
 5037SOL    HW226574   3.030   0.284   1.871  1.8179  0.6801 -0.7728
 5038SOL     OW26575   1.774   0.430  16.116 -0.3551 -0.3580 -0.1459
 5038SOL    HW126576   1.788   0.417  16.209  1.4373  0.7742 -0.2567
 5038SOL    HW226577   1.743   0.342  16.096  2.4465 -1.2326 -0.5216
 5039SOL     OW26578   0.845   2.992   3.868  0.5926  0.0103 -0.0355
 5039SOL    HW126579   0.934   2.970   3.844  1.2191 -0.2409  2.5040
 5039SOL    HW226580   0.801   2.989   3.783  2.7330 -2.1498 -1.0648
 5040SOL     OW26581   1.793   4.610  15.651  0.0139  0.3227  0.5919
 5040SOL    HW126582   1.885   4.600  15.678 -0.1065  1.4800  1.4662
 5040SOL    HW226583   1.754   4.560  15.722  1.0916  0.2798  1.1642
 5041SOL     OW26584   1.272   1.025  15.447  0.3165 -0.1561 -0.6734
 5041SOL    HW126585   1.344   0.969  15.476  0.7561  1.4035  1.2594
 5041SOL    HW226586   1.301   1.114  15.469 -0.4749 -0.3017  1.0132
 5042SOL     OW26587   2.462   4.206   5.505 -0.0221  0.1182 -0.2235
 5042SOL    HW126588   2.411   4.283   5.530 -0.7368  0.1558 -1.7452
 5042SOL    HW226589   2.474   4.218   5.410  2.1571  0.2979  0.0799
 5043SOL     OW26590   0.151   0.274   3.219 -0.4819 -0.4986 -0.3011
 5043SOL    HW126591   0.088   0.315   3.158 -1.1832 -3.3778 -1.5092
 5043SOL    HW226592   0.200   0.214   3.163 -0.8204 -0.4997 -0.5968
 5044SOL     OW26593   3.714   0.283   5.431  0.0326  0.4920  0.1763
 5044SOL    HW126594   3.624   0.284   5.400  0.5505  0.4151 -1.3546
 5044SOL    HW226595   3.723   0.194   5.466 -1.6674 -0.3061 -1.4125
 5045SOL     OW26596   1.147   2.675   7.473  0.1683 -0.1271 -0.2236
 5045SOL    HW126597   1.202   2.632   7.539  0.3922 -0.9904 -0.9650
 5045SOL    HW226598   1.119   2.757   7.514  1.2794  0.3836 -0.5059
 5046SOL     OW26599   0.335   4.495  15.533 -0.0858  0.8935 -0.1631
 5046SOL    HW126600   0.269   4.473  15.467  0.6249 -0.7908 -0.3348
 5046SOL    HW226601   0.307   4.427  15.595 -0.8809  0.6145 -0.8171
 5047SOL     OW26602   1.824   2.626  15.375  0.0560  0.4281  0.0802
 5047SOL    HW126603   1.810   2.635  15.281 -1.0703  2.2348  0.4178
 5047SOL    HW226604   1.738   2.590  15.397 -0.4890  1.5084 -0.2821
 5048SOL     OW26605   4.557   1.045   8.993 -0.0482  0.6094  0.4624
 5048SOL    HW126606   4.551   1.037   9.088 -2.8477  1.6907  0.3958
 5048SOL    HW226607   4.483   0.990   8.968  0.3157 -0.0479  0.8517
 5049SOL     OW26608   2.277   3.754   6.598  0.4761  0.1148 -0.5206
 5049SOL    HW126609   2.240   3.819   6.658  0.5388  0.4885 -0.8859
 5049SOL    HW226610   2.259   3.676   6.650  0.4610 -0.2345 -1.0527
 5050SOL     OW26611   3.554   1.460   6.265  0.0410  0.1386 -0.0613
 5050SOL    HW126612   3.552   1.451   6.361 -2.0315 -0.0452 -0.1183
 5050SOL    HW226613   3.486   1.525   6.245  0.5594 -0.0547 -2.4100
 5051SOL     OW26614   0.178   2.189   5.154 -0.3076 -0.2095 -0.1489
 5051SOL    HW126615   0.248   2.196   5.088  0.5082  0.0840  0.7578
 5051SOL    HW226616   0.110   2.240   5.109 -0.1922 -0.3561 -0.4889
 5052SOL     OW26617   3.439   3.271   7.871 -0.2068  0.6676 -0.0063
 5052SOL    HW126618   3.449   3.217   7.792  2.8446  1.5545 -0.2434
 5052SOL    HW226619   3.469   3.355   7.838  0.2358  0.1767 -0.8707
 5053SOL     OW26620   2.768   4.643   4.461 -0.1554  0.3667  0.2268
 5053SOL    HW126621   2.673   4.644   4.460 -0.2122 -0.0447  3.4539
 5053SOL    HW226622   2.781   4.706   4.391  2.0507  0.0865  0.3696
 5054SOL     OW26623   0.417   2.284  17.097  0.1236  0.2822  0.0677
 5054SOL    HW126624   0.430   2.331  17.014 -0.9035 -0.9460 -0.7762
 5054SOL    HW226625   0.463   2.203  17.074 -0.8286  0.1162 -1.2372
 5055SOL     OW26626   4.390   3.373   0.313  0.4142 -0.4025 -0.4906
 5055SOL    HW126627   4.409   3.456   0.356  2.5938 -1.4212  0.5035
 5055SOL    HW226628   4.352   3.413   0.235 -1.2195  2.2337  1.6133
 5056SOL     OW26629   1.128   2.805   8.544  0.0871  0.2739  0.8807
 5056SOL    HW126630   1.220   2.812   8.518  0.1094  2.6418  1.6415
 5056SOL    HW226631   1.084   2.804   8.459 -0.5327  0.6194  1.1967
 5057SOL     OW26632   0.259   0.268   9.509  0.1810  0.1944  0.1577
 5057SOL    HW126633   0.196   0.274   9.581 -2.1472 -0.8553 -1.7872
 5057SOL    HW226634   0.311   0.346   9.530 -0.2659  0.6739 -0.4925
 5058SOL     OW26635   0.571   2.582  12.754 -0.2599 -0.6688 -0.1113
 5058SOL    HW126636   0.635   2.584  12.683 -1.7637 -2.4636 -1.5035
 5058SOL    HW226637   0.583   2.670  12.790  2.0073 -0.8650 -0.3769
 5059SOL     OW26638   2.792   4.424  17.104  0.0308 -0.0946  0.2864
 5059SOL    HW126639   2.714   4.445  17.052 -1.3972 -1.1530  2.0067
 5059SOL    HW226640   2.843   4.504  17.093 -1.5027  1.1760  2.5207
 5060SOL     OW26641   4.470   1.768  11.465  0.4833 -0.6992 -0.5055
 5060SOL    HW126642   4.512   1.682  11.461  1.8469  0.0524 -2.6353
 5060SOL    HW226643   4.539   1.834  11.472  0.8114 -1.3369  2.1222
 5061SOL     OW26644   4.242   2.288   7.455 -0.1452 -0.2612 -0.5130
 5061SOL    HW126645   4.307   2.243   7.402 -0.5845 -1.7108  0.1972
 5061SOL    HW226646   4.297   2.341   7.512 -1.4277 -1.0174  1.4093
 5062SOL     OW26647   3.311   2.680   6.851 -0.0652  0.0758  0.5622
 5062SOL    HW126648   3.333   2.646   6.938 -0.4250  0.8122  0.9380
 5062SOL    HW226649   3.376   2.648   6.788 -1.3833 -0.0245 -0.7472
 5063SOL     OW26650   2.583   3.798   7.348  0.2312  0.1670 -0.4118
 5063SOL    HW126651   2.591   3.888   7.319 -0.8053  0.8291  1.3739
 5063SOL    HW226652   2.674   3.773   7.367 -0.7766 -2.9283  0.4656
 5064SOL     OW26653   1.057   0.383   8.939 -0.6421  0.1427 -0.1329
 5064SOL    HW126654   1.128   0.320   8.954  1.8050  2.8819 -0.1416
 5064SOL    HW226655   1.114   0.460   8.947 -0.4088  0.1207 -1.4982
 5065SOL     OW26656   3.628   3.039   2.562 -0.2102 -0.6543 -0.1913
 5065SOL    HW126657   3.540   3.013   2.591 -0.2051  2.0850  2.2034
 5065SOL    HW226658   3.655   3.090   2.638 -2.4679  1.7526 -1.0142
 5066SOL     OW26659   0.787   2.094  11.355 -0.2978 -0.0240  0.4752
 5066SOL    HW126660   0.794   2.095  11.260 -1.6198 -3.4563  0.3631
 5066SOL    HW226661   0.696   2.123  11.358 -1.1067 -2.5078 -0.6632
 5067SOL     OW26662   3.142   0.355   4.442 -0.4062  0.1974 -0.3452
 5067SOL    HW126663   3.151   0.348   4.538 -0.4415  0.0437 -0.3523
 5067SOL    HW226664   3.049   0.339   4.432 -0.3991  0.8616 -1.4198
 5068SOL     OW26665   2.754   2.723   3.141  0.1385 -0.0435 -0.1349
 5068SOL    HW126666   2.744   2.793   3.076  0.8274  1.4847  1.3782
 5068SOL    HW226667   2.849   2.721   3.154  0.2237 -3.0403 -1.3790
 5069SOL     OW26668   4.464   3.508   3.323 -0.2071  0.1864 -0.0513
 5069SOL    HW126669   4.444   3.523   3.230  2.9460  3.1590 -0.2560
 5069SOL    HW226670   4.375   3.503   3.358  0.9644  0.5217  2.9667
 5070SOL     OW26671   3.021   1.748  17.232  0.5288 -0.1154 -0.3436
 5070SOL    HW126672   3.027   1.837  17.196  1.4961  0.0832  0.2870
 5070SOL    HW226673   3.112   1.738  17.261  0.3018 -1.3983 -0.0731
 5071SOL     OW26674   1.798   2.248   8.986 -0.5031 -0.2037  0.1224
 5071SOL    HW126675   1.831   2.269   9.073  2.3363 -0.8495 -0.7697
 5071SOL    HW226676   1.806   2.153   9.001 -0.6447 -0.2110  0.1447
 5072SOL     OW26677   0.094   4.251   3.121  0.2165  0.0100 -0.0948
 5072SOL    HW126678   0.089   4.321   3.186 -0.3776 -0.0723 -0.0567
 5072SOL    HW226679   0.031   4.277   3.054 -0.4334  1.4379  1.0703
 5073SOL     OW26680   3.508   3.357   7.035 -0.4935  0.2479  0.4762
 5073SOL    HW126681   3.413   3.350   7.030 -0.4271 -0.9988  1.0839
 5073SOL    HW226682   3.532   3.315   7.118  2.9077 -0.3651 -0.8344
 5074SOL     OW26683   4.677   1.127   8.248 -0.5259  0.4623  0.1133
 5074SOL    HW126684   4.702   1.161   8.162  1.6915 -0.6959  0.3111
 5074SOL    HW226685   4.581   1.133   8.247 -0.4082  2.4788  0.5478
 5075SOL     OW26686   1.209   0.205   6.439  0.3159  0.3533 -0.3260
 5075SOL    HW126687   1.138   0.269   6.437 -1.3187 -1.4094  1.2257
 5075SOL    HW226688   1.243   0.217   6.527 -1.1484 -2.0652  0.5607
 5076SOL     OW26689   4.491   1.255  16.498  0.2469  0.2322 -0.4464
 5076SOL    HW126690   4.535   1.263  16.583 -0.5958  0.4213 -0.0143
 5076SOL    HW226691   4.534   1.175  16.470 -0.1588 -0.4766  0.9565
 5077SOL     OW26692   1.530   1.606   8.568  0.4311  0.0050 -0.5166
 5077SOL    HW126693   1.441   1.591   8.537  0.1602  0.4876  0.0240
 5077SOL    HW226694   1.529   1.564   8.654  0.4872 -0.9166 -0.9715
 5078SOL     OW26695   0.276   4.688   6.669  0.3407  0.0252  0.0447
 5078SOL    HW126696   0.314   4.706   6.755  0.6131  0.1983 -0.1117
 5078SOL    HW226697   0.215   0.039   6.658 -0.6592 -1.0005 -1.2714
 5079SOL     OW26698   0.012   2.998  10.491  0.6332  0.2382 -0.2177
 5079SOL    HW126699   0.007   3.078  10.439 -2.0304 -0.4405 -1.0190
 5079SOL    HW226700   0.069   2.955  10.428  1.2251 -0.7417  0.9929
 5080SOL     OW26701   1.709   1.971  14.613 -0.3631  0.1025 -0.1299
 5080SOL    HW126702   1.679   1.931  14.531 -1.0658 -0.7482  0.5444
 5080SOL    HW226703   1.627   1.960  14.660  0.1693 -0.4653  0.6500
 5081SOL     OW26704   2.524   4.079   8.606  0.4063  0.3775 -0.6413
 5081SOL    HW126705   2.462   4.034   8.663  0.3324  1.4360  0.0960
 5081SOL    HW226706   2.490   4.072   8.516  0.5575 -0.8728 -0.5942
 5082SOL     OW26707   3.637   4.704   7.837  0.0423 -0.3595  0.2137
 5082SOL    HW126708   3.600   0.039   7.903 -1.7444 -1.7226  0.4079
 5082SOL    HW226709   3.610   4.617   7.867  1.0539 -1.3684 -1.7588
 5083SOL     OW26710   1.075   2.977   4.576  0.1120  0.0157  0.3618
 5083SOL    HW126711   1.146   2.931   4.620 -0.0358 -0.2300  0.3485
 5083SOL    HW226712   1.057   2.921   4.501 -3.2089  0.4767  0.7891
 5084SOL     OW26713   3.755   1.474   6.750 -0.2843  0.4013 -0.2298
 5084SOL    HW126714   3.726   1.399   6.802  1.3837  1.8951  2.8191
 5084SOL    HW226715   3.848   1.476   6.772 -0.3700 -0.2610  0.1854
 5085SOL     OW26716   3.410   3.491  15.414  0.3493 -0.3749  0.5763
 5085SOL    HW126717   3.424   3.585  15.410 -1.9067 -0.1970 -3.5844
 5085SOL    HW226718   3.497   3.468  15.383  0.8448  0.7503  1.1414
 5086SOL     OW26719   2.710   1.063   3.358  0.5526  0.2731 -0.7174
 5086SOL    HW126720   2.720   0.984   3.305 -2.8485  0.1497 -1.1348
 5086SOL    HW226721   2.804   1.069   3.374  0.4727 -0.7139  0.1315
 5087SOL     OW26722   1.720   2.136   5.558 -0.3998  0.1763  0.1261
 5087SOL    HW126723   1.668   2.203   5.602 -0.0320  1.3618 -1.2673
 5087SOL    HW226724   1.801   2.128   5.608 -0.0345  2.1445 -0.1726
 5088SOL     OW26725   0.773   2.435  16.682 -0.2112 -0.1924 -0.1574
 5088SOL    HW126726   0.697   2.382  16.658 -1.0709  0.1931  1.6571
 5088SOL    HW226727   0.740   2.520  16.709 -1.2157  0.0221 -2.0688
 5089SOL     OW26728   3.748   2.033   6.675  0.2705 -0.6752  0.5643
 5089SOL    HW126729   3.843   2.031   6.664 -0.0683  0.9881 -2.6892
 5089SOL    HW226730   3.721   1.944   6.698  1.0577 -0.5396  1.9909
 5090SOL     OW26731   1.623   2.793   5.972  0.0303  0.3974 -0.1981
 5090SOL    HW126732   1.702   2.836   6.006  1.4074 -1.0869 -1.5390
 5090SOL    HW226733   1.585   2.773   6.058 -0.8728  0.2002 -0.6485
 5091SOL     OW26734   3.995   0.703   9.015  0.4940  0.1244  0.1613
 5091SOL    HW126735   4.020   0.747   9.096  3.7755 -0.8379 -0.3217
 5091SOL    HW226736   3.910   0.666   9.037  0.7720 -0.2605  0.5878
 5092SOL     OW26737   1.501   1.189   3.012  0.4127 -0.3437 -0.0951
 5092SOL    HW126738   1.575   1.174   2.953  0.8085  1.7127 -0.1158
 5092SOL    HW226739   1.449   1.255   2.967  0.0676  0.1164  0.9846
 5093SOL     OW26740   2.268   2.141   8.378 -0.6232  0.0167  0.5687
 5093SOL    HW126741   2.284   2.227   8.338 -0.9710 -1.5172 -2.8081
 5093SOL    HW226742   2.182   2.141   8.421 -1.8336 -3.8377 -1.9136
 5094SOL     OW26743   3.658   0.596   6.093 -0.0033  0.1532 -0.4219
 5094SOL    HW126744   3.661   0.521   6.153  0.7849 -1.0078 -1.8949
 5094SOL    HW226745   3.735   0.592   6.036 -0.5339  1.9054 -1.2572
 5095SOL     OW26746   2.930   1.006   3.543 -0.2792 -0.1079  0.1914
 5095SOL    HW126747   2.900   1.022   3.632  1.0566  2.8021  0.1049
 5095SOL    HW226748   2.946   0.911   3.541 -0.0628 -0.0910  1.0287
 5096SOL     OW26749   0.581   4.343   2.974 -0.0652 -0.0374  0.1565
 5096SOL    HW126750   0.535   4.380   3.049  2.4981  0.7990  1.3166
 5096SOL    HW226751   0.630   4.269   3.011  0.8974  1.0842  1.1548
 5097SOL     OW26752   1.905   0.217  11.162  0.2239 -0.0676 -0.1564
 5097SOL    HW126753   1.858   0.172  11.092 -0.7401  1.1099 -0.2712
 5097SOL    HW226754   1.840   0.206  11.231  0.1263  1.1978 -0.0460
 5098SOL     OW26755   1.832   3.916   7.965  0.2899  0.2685  0.8781
 5098SOL    HW126756   1.849   3.997   8.014  2.7076  0.2958  0.0015
 5098SOL    HW226757   1.832   3.955   7.877  0.4772 -0.3710  0.5983
 5099SOL     OW26758   2.345   4.243  12.042 -0.2581  0.3062  0.4584
 5099SOL    HW126759   2.288   4.320  12.046 -0.8619 -0.0091 -2.0629
 5099SOL    HW226760   2.358   4.241  11.947 -2.5708  1.4817  0.1190
 5100SOL     OW26761   4.385   4.658   1.638  0.2927 -0.0064  0.8049
 5100SOL    HW126762   4.337   0.010   1.602 -2.6578 -1.6892  1.2003
 5100SOL    HW226763   4.385   4.609   1.556  1.0820 -0.9949  1.4006
 5101SOL     OW26764   3.919   0.833   3.091  0.0576  0.5822  0.5795
 5101SOL    HW126765   3.994   0.869   3.138  0.8543 -0.5391  0.1665
 5101SOL    HW226766   3.905   0.905   3.029  1.3420 -0.0142 -0.4016
 5102SOL     OW26767   0.540   4.042   9.291  0.2288 -0.0641 -0.0963
 5102SOL    HW126768   0.483   4.119   9.288  2.3035  1.3471 -2.8673
 5102SOL    HW226769   0.579   4.060   9.376  0.6188  2.4733 -0.8063
 5103SOL     OW26770   1.081   1.005   6.805  0.7141 -0.2562  0.0164
 5103SOL    HW126771   1.032   1.052   6.873 -0.3991 -1.0680 -0.2301
 5103SOL    HW226772   1.014   1.021   6.738  0.4303 -3.4622 -0.4380
 5104SOL     OW26773   0.949   1.761   2.452  0.0484 -0.5269  0.0688
 5104SOL    HW126774   0.917   1.850   2.463 -1.0622 -0.6950 -1.9071
 5104SOL    HW226775   0.927   1.736   2.363  0.5915  0.7462 -0.4189
 5105SOL     OW26776   0.639   1.241  13.957  0.4210 -0.1189 -0.1173
 5105SOL    HW126777   0.712   1.241  14.019  0.2484 -3.0384  0.1021
 5105SOL    HW226778   0.676   1.270  13.874 -2.1998  1.8448 -0.5891
 5106SOL     OW26779   1.178   4.708  15.225 -0.2991  0.7055  0.2046
 5106SOL    HW126780   1.245   4.678  15.287  0.3781 -1.6951 -1.6869
 5106SOL    HW226781   1.239   0.000  15.153  0.8255 -1.5892  0.6816
 5107SOL     OW26782   1.250   0.037  12.058 -0.0884  0.7547 -0.5734
 5107SOL    HW126783   1.188   0.019  11.987  1.1038  0.3253 -1.5120
 5107SOL    HW226784   1.260   4.672  12.097  1.8970  1.2486  0.0180
 5108SOL     OW26785   2.881   1.337   6.079  0.2900  0.2011  0.1856
 5108SOL    HW126786   2.792   1.307   6.094  0.2541 -0.2186 -0.8904
 5108SOL    HW226787   2.875   1.390   6.000 -0.3374 -0.5111 -0.2431
 5109SOL     OW26788   3.806   1.086  11.299 -0.2989  0.7972 -0.2609
 5109SOL    HW126789   3.850   1.135  11.229  0.8684  0.7518  0.4284
 5109SOL    HW226790   3.874   1.088  11.368 -2.0111 -1.3606  1.5124
 5110SOL     OW26791   4.560   0.186   8.534 -0.3947  0.1143  0.0066
 5110SOL    HW126792   4.636   0.131   8.556 -1.6729 -1.6997 -0.0532
 5110SOL    HW226793   4.495   0.132   8.579  1.8585 -2.5285  0.1664
 5111SOL     OW26794   1.986   3.006   4.623  0.1041  0.5254 -0.2130
 5111SOL    HW126795   2.045   3.050   4.683  1.2309  1.7350 -2.2201
 5111SOL    HW226796   1.969   3.066   4.551 -1.3306 -0.7826 -0.9716
 5112SOL     OW26797   1.428   3.584  10.662 -0.4655  0.1462 -0.0831
 5112SOL    HW126798   1.358   3.635  10.703 -0.9497 -0.2079 -0.4678
 5112SOL    HW226799   1.497   3.648  10.681 -0.4714 -0.4867  2.0838
 5113SOL     OW26800   1.122   1.983   5.537 -0.0974  0.1615  0.3063
 5113SOL    HW126801   1.178   2.011   5.464  0.9013 -3.0059 -0.1592
 5113SOL    HW226802   1.139   1.889   5.552  0.2483 -0.1330 -1.8280
 5114SOL     OW26803   3.968   2.166   5.595  0.1523 -0.3435  0.2528
 5114SOL    HW126804   4.009   2.193   5.677  0.9339 -2.5641  0.6013
 5114SOL    HW226805   3.982   2.245   5.543  0.4360 -0.3667  0.2940
 5115SOL     OW26806   0.869   0.102  17.082 -0.4429 -0.3802 -0.7378
 5115SOL    HW126807   0.811   0.127  17.010  0.7296  1.6367 -0.9924
 5115SOL    HW226808   0.828   0.022  17.116 -0.0084  0.0397  0.7700
 5116SOL     OW26809   1.242   2.239  10.395  0.6946 -0.1892  0.4649
 5116SOL    HW126810   1.298   2.270  10.323 -1.4642 -2.3570 -2.1787
 5116SOL    HW226811   1.158   2.263  10.357  1.4849 -0.7680 -1.6526
 5117SOL     OW26812   4.124   3.743   2.778 -0.5875  0.1854 -0.4944
 5117SOL    HW126813   4.109   3.649   2.769 -2.5375  0.2775  2.0232
 5117SOL    HW226814   4.215   3.739   2.747 -0.3640 -1.2349  0.2933
 5118SOL     OW26815   0.601   3.774  12.344 -0.0744  0.1520 -0.2869
 5118SOL    HW126816   0.533   3.829  12.384  0.4890  0.5567  0.1026
 5118SOL    HW226817   0.682   3.778  12.394  0.5676  2.2392 -1.5328
 5119SOL     OW26818   2.164   3.636   5.703  0.4013 -0.4588 -0.1401
 5119SOL    HW126819   2.101   3.566   5.714  1.4907 -1.3859  0.2353
 5119SOL    HW226820   2.239   3.598   5.658 -1.2474  0.2410 -3.4891
 5120SOL     OW26821   2.468   2.865  11.874  0.2589 -0.3822  1.0194
 5120SOL    HW126822   2.527   2.800  11.912  0.9953 -0.8709 -0.9960
 5120SOL    HW226823   2.382   2.829  11.898 -0.1619 -0.1565 -0.1551
 5121SOL     OW26824   0.335   3.178   5.128 -0.0694  0.2013 -0.2162
 5121SOL    HW126825   0.301   3.121   5.060  0.4071  0.1874 -0.4381
 5121SOL    HW226826   0.426   3.194   5.103 -0.1788  1.6626  0.2749
 5122SOL     OW26827   4.454   1.803  11.862  0.5486  0.6776  0.2523
 5122SOL    HW126828   4.548   1.789  11.847  0.7357  0.8739  1.2930
 5122SOL    HW226829   4.459   1.785  11.955 -0.7135 -0.5155  0.0929
 5123SOL     OW26830   3.330   4.022   8.642  0.0016 -0.3106 -0.0527
 5123SOL    HW126831   3.353   3.973   8.563  2.0694  1.2087 -0.3900
 5123SOL    HW226832   3.404   3.999   8.698  0.7125  0.1843 -0.8038
 5124SOL     OW26833   1.936   4.468   0.480 -0.1606 -0.7247 -0.1711
 5124SOL    HW126834   2.020   4.468   0.435  0.5337 -0.3921  1.1140
 5124SOL    HW226835   1.955   4.448   0.572 -1.9208 -0.1292  0.3160
 5125SOL     OW26836   1.679   2.004   8.875  0.0692  0.1405  0.4934
 5125SOL    HW126837   1.624   1.989   8.798  0.2606  2.8360 -0.1794
 5125SOL    HW226838   1.628   1.959   8.942  0.1883 -2.8132 -1.4030
 5126SOL     OW26839   4.583   2.575  11.215  0.3094  0.4857 -0.5757
 5126SOL    HW126840   4.614   2.566  11.125 -1.8960  2.7694 -1.5436
 5126SOL    HW226841   4.667   2.583  11.260  0.0301  0.8079 -0.1160
 5127SOL     OW26842   4.681   0.799   7.774 -0.2363 -0.3032  0.7403
 5127SOL    HW126843   0.015   0.786   7.850  0.2345 -1.2600  0.2176
 5127SOL    HW226844   4.592   0.799   7.809 -0.7829 -2.2862 -0.6840
 5128SOL     OW26845   1.338   2.105   6.229 -0.0717  0.1695 -0.3152
 5128SOL    HW126846   1.276   2.083   6.160  1.3390 -0.2864 -1.4352
 5128SOL    HW226847   1.416   2.123   6.176 -1.5256  1.3219 -2.0978
 5129SOL     OW26848   2.567   1.783  10.530 -0.3123 -0.2364 -0.4072
 5129SOL    HW126849   2.540   1.853  10.471  1.3187  2.3442  1.8826
 5129SOL    HW226850   2.609   1.730  10.463 -0.4004  0.7237 -1.2153
 5130SOL     OW26851   4.215   0.365   3.038 -0.5750 -0.9355 -0.3067
 5130SOL    HW126852   4.194   0.290   3.094  0.0630  1.4576  3.1196
 5130SOL    HW226853   4.133   0.414   3.043 -0.0582 -0.2071  1.1105
 5131SOL     OW26854   0.513   3.173   4.072 -0.2115  0.6971  0.7044
 5131SOL    HW126855   0.417   3.183   4.073 -0.7124 -4.3302  0.6095
 5131SOL    HW226856   0.512   3.132   3.985 -2.3422  2.7403 -0.2399
 5132SOL     OW26857   3.532   4.125   2.594  0.8653  0.4200 -0.2017
 5132SOL    HW126858   3.552   4.136   2.687 -1.9096 -0.3215  0.4793
 5132SOL    HW226859   3.615   4.085   2.569  0.0120 -0.4697 -1.5805
 5133SOL     OW26860   2.173   1.313   9.651 -0.0931  0.4345 -0.6568
 5133SOL    HW126861   2.091   1.312   9.700 -0.6011  2.0258 -1.5128
 5133SOL    HW226862   2.138   1.265   9.576  1.3513 -0.5378 -0.7210
 5134SOL     OW26863   3.198   0.259   2.271  0.1925  0.1152 -0.4017
 5134SOL    HW126864   3.144   0.337   2.287  1.0965  0.5709  0.4175
 5134SOL    HW226865   3.281   0.279   2.314 -0.1320  1.0334 -0.1981
 5135SOL     OW26866   3.007   2.932   3.650 -0.4441  0.6690  0.5311
 5135SOL    HW126867   2.976   2.879   3.576  0.1250  0.4657  0.4390
 5135SOL    HW226868   2.962   2.895   3.726 -2.3876  0.3347 -0.7545
 5136SOL     OW26869   2.951   2.515  15.917  0.0070 -0.0118  0.2913
 5136SOL    HW126870   2.909   2.544  15.836  0.2557  2.2829  0.9713
 5136SOL    HW226871   3.007   2.587  15.946 -0.7658 -0.2148  2.3446
 5137SOL     OW26872   0.401   3.174  11.274  0.1790  0.1858 -0.2703
 5137SOL    HW126873   0.435   3.120  11.345  1.6064  0.5511 -0.6715
 5137SOL    HW226874   0.327   3.219  11.315  0.4872  0.7145 -0.2822
 5138SOL     OW26875   0.510   4.146   0.760  0.0541  0.4062  0.4097
 5138SOL    HW126876   0.417   4.138   0.739  0.4636  0.7164 -1.5897
 5138SOL    HW226877   0.515   4.170   0.852 -1.2148  0.5288  0.4498
 5139SOL     OW26878   0.357   4.452   4.299  0.0967 -0.5108  0.8649
 5139SOL    HW126879   0.351   4.404   4.217  0.2487  0.5502  0.2347
 5139SOL    HW226880   0.275   4.439   4.347 -0.2800  1.0990  0.6642
 5140SOL     OW26881   2.503   1.093   1.319  0.1644  0.5734  0.2114
 5140SOL    HW126882   2.479   1.030   1.387  1.8727 -1.2950 -0.8870
 5140SOL    HW226883   2.599   1.099   1.315  0.2095  0.0568  0.4644
 5141SOL     OW26884   1.300   1.853   7.730 -0.4609  0.0705  0.1615
 5141SOL    HW126885   1.296   1.934   7.781  0.9163  0.0522  0.2859
 5141SOL    HW226886   1.370   1.884   7.673 -1.3475  0.9971 -0.4185
 5142SOL     OW26887   2.895   1.110  11.165  0.9667  0.0365 -0.6118
 5142SOL    HW126888   2.966   1.167  11.194  1.3792 -1.2483  0.8846
 5142SOL    HW226889   2.918   1.095  11.073  0.7292 -0.6813 -0.5514
 5143SOL     OW26890   4.641   2.396   7.236 -0.1527  0.0983  0.3393
 5143SOL    HW126891   4.581   2.339   7.285  0.3402 -0.9194 -0.2288
 5143SOL    HW226892   4.622   2.486   7.263  1.4453 -0.0556  2.0199
 5144SOL     OW26893   1.621   3.346   3.091  0.3935 -0.4457 -0.0560
 5144SOL    HW126894   1.577   3.427   3.066 -0.6904 -0.1553  2.8859
 5144SOL    HW226895   1.630   3.352   3.186  1.7298 -2.9522 -0.0053
 5145SOL     OW26896   4.569   0.456   5.009 -0.5860 -0.3998 -0.2584
 5145SOL    HW126897   4.654   0.475   4.969 -0.2345  1.0327  1.1488
 5145SOL    HW226898   4.570   0.367   5.042  0.2079  0.0058  0.8158
 5146SOL     OW26899   2.290   1.766  11.310 -0.1329  0.6696  0.4520
 5146SOL    HW126900   2.383   1.787  11.300 -0.1638 -0.9938 -3.4999
 5146SOL    HW226901   2.287   1.677  11.344 -2.1222  0.1409 -1.1283
 5147SOL     OW26902   1.761   4.635   9.229  0.0919  0.2343 -0.0810
 5147SOL    HW126903   1.680   4.674   9.195  0.7173  1.8793  0.3025
 5147SOL    HW226904   1.804   4.720   9.240 -0.9992  0.8193 -0.3295
 5148SOL     OW26905   0.536   4.607  15.769  0.4554  0.2104  0.2716
 5148SOL    HW126906   0.451   4.650  15.776  0.1834 -0.2396 -0.1903
 5148SOL    HW226907   0.579   4.668  15.708 -0.3326  2.1561  1.6647
 5149SOL     OW26908   2.751   1.660   4.322  0.0432 -0.3334 -0.2311
 5149SOL    HW126909   2.799   1.729   4.368 -0.9007  0.1141  0.0858
 5149SOL    HW226910   2.755   1.696   4.234  1.6737  0.6697  0.2545
 5150SOL     OW26911   2.908   0.076  13.954 -1.0008  0.7736 -0.1019
 5150SOL    HW126912   2.899   0.169  13.933 -1.5661  0.4951 -1.0830
 5150SOL    HW226913   2.888   0.030  13.872 -0.2059  0.4446 -0.1114
 5151SOL     OW26914   1.624   3.655   8.128 -0.3233  0.0928 -0.1434
 5151SOL    HW126915   1.671   3.584   8.172 -1.5406  0.0849  1.1230
 5151SOL    HW226916   1.628   3.725   8.193 -0.5088 -1.3841  1.4601
 5152SOL     OW26917   1.092   3.057   9.163 -0.6357 -0.1515  0.7984
 5152SOL    HW126918   1.162   3.115   9.133  0.2708 -1.2890  0.7316
 5152SOL    HW226919   1.106   2.980   9.109  2.7023 -0.3366  1.9203
 5153SOL     OW26920   0.306   4.094   4.788 -0.3764  0.1976 -0.1219
 5153SOL    HW126921   0.356   4.067   4.712 -0.1255  1.2494 -0.3317
 5153SOL    HW226922   0.280   4.180   4.754 -2.7707  0.0624  1.3609
 5154SOL     OW26923   1.312   0.244   7.040  0.1353  0.6020 -0.0423
 5154SOL    HW126924   1.400   0.279   7.056  0.4388 -0.9304  1.5831
 5154SOL    HW226925   1.288   0.227   7.130 -2.7928 -0.5247 -1.0573
 5155SOL     OW26926   3.076   0.673   6.979  0.6029  0.0564 -0.4001
 5155SOL    HW126927   3.067   0.613   6.906  2.8912 -0.2630 -0.4444
 5155SOL    HW226928   3.142   0.632   7.036 -0.1727 -0.2101  0.3022
 5156SOL     OW26929   3.051   4.634   5.357 -0.5461 -0.4317 -0.0621
 5156SOL    HW126930   3.032   4.600   5.269 -4.8619 -0.7826  1.0145
 5156SOL    HW226931   2.973   4.614   5.408 -0.1304  1.7138  1.3752
 5157SOL     OW26932   1.129   3.039   5.393 -0.0511 -0.3951  0.0176
 5157SOL    HW126933   1.081   3.030   5.311  1.8145 -0.2969 -1.0743
 5157SOL    HW226934   1.206   3.087   5.364 -0.5230  0.9594  0.9817
 5158SOL     OW26935   2.086   1.196   7.550  0.2253 -0.1102  0.3732
 5158SOL    HW126936   2.074   1.150   7.633  0.5633  3.0086  2.1546
 5158SOL    HW226937   2.178   1.223   7.546  0.9225 -2.9659 -2.0069
 5159SOL     OW26938   0.651   0.072   9.074  0.2266 -0.0865 -0.6306
 5159SOL    HW126939   0.616   4.705   9.067  3.2971 -1.1335 -2.7609
 5159SOL    HW226940   0.580   0.112   9.024  0.8553  1.1655 -0.5162
 5160SOL     OW26941   3.597   4.677   4.513 -0.2488 -0.1408 -0.1100
 5160SOL    HW126942   3.543   0.010   4.457  3.3017  3.1287 -0.3544
 5160SOL    HW226943   3.629   0.026   4.567 -1.6328  1.0040 -0.8134
 5161SOL     OW26944   0.012   3.656   4.967 -0.0464  0.1401 -0.3307
 5161SOL    HW126945   0.039   3.572   4.929 -2.8369 -0.8131 -0.2445
 5161SOL    HW226946   0.068   3.656   5.045  2.4550  1.4203 -2.1685
 5162SOL     OW26947   2.451   0.488   2.926 -0.0916 -0.2300  0.1001
 5162SOL    HW126948   2.411   0.549   2.865  0.6034 -0.9943 -1.1081
 5162SOL    HW226949   2.506   0.438   2.866 -1.4941 -0.1016 -1.2859
 5163SOL     OW26950   2.786   0.979  16.834  1.0472  0.2416 -0.0019
 5163SOL    HW126951   2.728   0.940  16.899  1.1916  0.7249  0.4152
 5163SOL    HW226952   2.734   1.049  16.795 -0.0511  0.4191  1.7923
 5164SOL     OW26953   3.208   0.782   2.422  0.1101  0.5952  0.4399
 5164SOL    HW126954   3.209   0.797   2.516 -0.9844  0.1615  0.5153
 5164SOL    HW226955   3.289   0.731   2.410 -1.0348 -0.6716 -1.9333
 5165SOL     OW26956   0.890   4.471   3.502  0.3881 -0.1150  0.4863
 5165SOL    HW126957   0.831   4.446   3.431  1.4255  0.5231 -0.5780
 5165SOL    HW226958   0.867   4.562   3.521  0.1211 -0.4845  1.9297
 5166SOL     OW26959   2.252   2.631   1.047  0.1853 -0.1298 -0.2670
 5166SOL    HW126960   2.204   2.551   1.023 -0.0373 -0.0025 -0.2420
 5166SOL    HW226961   2.340   2.622   1.010  0.7227  0.5080  0.8671
 5167SOL     OW26962   2.855   0.494   5.882  0.0335 -0.7212 -0.3931
 5167SOL    HW126963   2.819   0.439   5.951 -0.3480  1.2196  0.9529
 5167SOL    HW226964   2.916   0.540   5.939 -0.5864 -1.4960  0.8867
 5168SOL     OW26965   3.509   1.051  10.251 -0.0591 -0.0434 -0.4493
 5168SOL    HW126966   3.581   1.054  10.188 -1.1168 -2.4339 -1.7734
 5168SOL    HW226967   3.544   0.977  10.301 -1.0978  0.6132  1.2669
 5169SOL     OW26968   1.676   1.596  16.469  0.5429 -0.4995  0.4065
 5169SOL    HW126969   1.619   1.568  16.541 -0.6717  0.8859 -0.0110
 5169SOL    HW226970   1.763   1.569  16.497  0.6528  1.3113  1.8381
 5170SOL     OW26971   1.465   4.377   8.898 -0.3404  0.7492  0.0302
 5170SOL    HW126972   1.420   4.436   8.837 -1.4554 -1.8019 -1.6141
 5170SOL    HW226973   1.510   4.444   8.950  0.4973 -1.2669  1.9060
 5171SOL     OW26974   0.598   1.780  16.601  0.6232  0.2540  0.1979
 5171SOL    HW126975   0.615   1.702  16.549 -1.7453 -0.8462  1.0640
 5171SOL    HW226976   0.678   1.778  16.654  0.9227 -1.3713 -0.3470
 5172SOL     OW26977   2.530   0.448   5.627  0.1025  0.1707 -0.5898
 5172SOL    HW126978   2.449   0.477   5.585 -0.4090 -1.0291 -0.4287
 5172SOL    HW226979   2.510   0.356   5.638  1.1027  0.2243  1.6085
 5173SOL     OW26980   4.179   1.005   0.455 -0.3778 -0.5937 -0.6296
 5173SOL    HW126981   4.098   1.046   0.484  0.1966  0.2165 -0.1447
 5173SOL    HW226982   4.152   0.919   0.423 -1.4101 -0.4929 -0.0245
 5174SOL     OW26983   3.750   1.156   2.874 -0.1225 -0.4057  0.1406
 5174SOL    HW126984   3.843   1.142   2.857 -0.1467  1.0328 -1.2450
 5174SOL    HW226985   3.721   1.186   2.787  0.7434  0.0920  0.0189
 5175SOL     OW26986   0.991   0.034   3.553  0.0536 -0.2330  0.4103
 5175SOL    HW126987   0.986   4.716   3.466  2.7882  0.6837 -0.1465
 5175SOL    HW226988   1.054   0.105   3.547 -2.4283  1.9660  0.1850
 5176SOL     OW26989   3.772   3.142   4.683  0.2147  0.1037 -0.1408
 5176SOL    HW126990   3.850   3.195   4.699  1.6039 -1.0788 -2.9984
 5176SOL    HW226991   3.745   3.176   4.597  0.6896  1.0901  0.1037
 5177SOL     OW26992   2.415   1.789   1.780  0.2426  0.3991 -0.5225
 5177SOL    HW126993   2.408   1.883   1.798  1.5829  0.3994 -0.0109
 5177SOL    HW226994   2.474   1.787   1.705  0.1633 -1.8162 -0.5279
 5178SOL     OW26995   3.827   3.873   8.371  0.1487  0.0585 -0.3534
 5178SOL    HW126996   3.840   3.967   8.379  0.6085 -0.1493  1.2530
 5178SOL    HW226997   3.752   3.858   8.313 -0.0493 -1.0745  0.2094
 5179SOL     OW26998   3.824   0.381   6.933  0.2208  0.2796 -0.0894
 5179SOL    HW126999   3.834   0.434   7.012  2.8904 -0.3525 -0.0119
 5179SOL    HW227000   3.890   0.313   6.943 -0.7179 -0.9709 -2.2103
 5180SOL     OW27001   3.904   4.650   5.673  0.3359 -0.0199 -0.3477
 5180SOL    HW127002   3.831   4.622   5.728  1.4990  0.0025  1.2118
 5180SOL    HW227003   3.974   4.651   5.738 -0.9152 -0.8565  0.9878
 5181SOL     OW27004   0.485   2.272   4.135  0.1475 -0.3769  0.6491
 5181SOL    HW127005   0.514   2.278   4.226  0.5400  2.1203  0.3760
 5181SOL    HW227006   0.409   2.216   4.149 -0.1532  0.4086  2.1243
 5182SOL     OW27007   4.659   3.300   1.947 -0.3789 -0.2653 -0.5360
 5182SOL    HW127008   4.653   3.395   1.939 -0.3272 -0.3314 -1.3907
 5182SOL    HW227009   4.582   3.266   1.901  0.4290 -0.6341 -1.6246
 5183SOL     OW27010   0.967   3.657   2.661  0.4333 -0.1638 -0.5982
 5183SOL    HW127011   1.044   3.620   2.705 -2.7492 -4.1917  1.4929
 5183SOL    HW227012   1.009   3.741   2.641 -0.1458  0.4760  0.8515
 5184SOL     OW27013   4.309   0.081   2.863 -0.0471 -0.0506 -0.3983
 5184SOL    HW127014   4.255   0.021   2.914  0.5098 -0.1230  0.1037
 5184SOL    HW227015   4.268   0.164   2.887  0.7214  0.3771 -0.5673
 5185SOL     OW27016   0.532   0.652   5.681  0.1770 -0.0815 -0.1587
 5185SOL    HW127017   0.468   0.675   5.749  0.4126 -1.2193  0.4451
 5185SOL    HW227018   0.571   0.572   5.717  1.1767  0.0418 -0.9632
 5186SOL     OW27019   1.568   2.130   6.696 -0.4655  0.2263 -0.2116
 5186SOL    HW127020   1.587   2.206   6.751  1.1431 -0.1408 -0.2923
 5186SOL    HW227021   1.513   2.167   6.627 -0.6896  0.6761  0.2061
 5187SOL     OW27022   3.524   0.296   8.761 -0.2189 -0.0892  0.0161
 5187SOL    HW127023   3.510   0.362   8.828  1.1127  1.4406 -1.2107
 5187SOL    HW227024   3.521   0.215   8.812  1.3832  0.2073  0.5787
 5188SOL     OW27025   0.168   3.506   2.461 -0.0835  0.2729  0.7134
 5188SOL    HW127026   0.100   3.562   2.423  0.0644  0.3314  0.5317
 5188SOL    HW227027   0.169   3.440   2.391 -0.2218 -1.6677  2.5587
 5189SOL     OW27028   4.708   3.208   6.617  0.2943  0.2396 -0.1920
 5189SOL    HW127029   0.031   3.142   6.565 -0.1867 -0.5048  0.3458
 5189SOL    HW227030   4.670   3.253   6.542  0.8249  0.2637 -0.4449
 5190SOL     OW27031   2.537   4.438  16.997 -0.0265  0.1324  0.4618
 5190SOL    HW127032   2.479   4.452  16.922 -0.5996 -0.1875  0.8414
 5190SOL    HW227033   2.487   4.375  17.048  0.1466  0.5588  1.1497
 5191SOL     OW27034   4.614   4.642   5.180  0.3200  0.2230 -0.7234
 5191SOL    HW127035   4.708   4.624   5.177  0.3314 -0.1970  1.6234
 5191SOL    HW227036   4.574   4.556   5.194 -0.3021  0.3609 -1.6824
 5192SOL     OW27037   2.582   2.901   0.990  0.5504  0.7396  0.0148
 5192SOL    HW127038   2.618   2.817   0.961  0.2525  1.3240 -1.9965
 5192SOL    HW227039   2.631   2.902   1.073 -1.3074 -1.7051  1.1385
 5193SOL     OW27040   2.955   0.974   5.930  0.2398 -0.3307  0.4300
 5193SOL    HW127041   2.991   0.902   5.877  3.2862  1.0677  0.5595
 5193SOL    HW227042   2.871   0.987   5.886  0.4481  0.2064  0.1836
 5194SOL     OW27043   3.737   1.716   4.805  0.5922  0.2082  0.1554
 5194SOL    HW127044   3.664   1.674   4.759  0.1758  1.2134 -0.0961
 5194SOL    HW227045   3.703   1.761   4.882  4.4157  2.3259  0.6345
 5195SOL     OW27046   4.337   4.117   8.058  0.1979 -0.0730  0.0373
 5195SOL    HW127047   4.342   4.030   8.018 -0.2834  0.1747 -0.5483
 5195SOL    HW227048   4.430   4.135   8.072  0.3500 -2.7110  2.5619
 5196SOL     OW27049   2.865   1.363   3.984 -0.3372 -0.4806  0.1525
 5196SOL    HW127050   2.802   1.370   4.056 -0.0422  2.2291  0.1523
 5196SOL    HW227051   2.953   1.376   4.021  0.6896 -0.3387 -2.3651
 5197SOL     OW27052   4.461   4.298  17.214  0.5261  0.4290  0.1923
 5197SOL    HW127053   4.528   4.293  17.145 -0.2050  1.1518 -0.5682
 5197SOL    HW227054   4.386   4.339  17.172  0.4636  0.0457 -0.0721
 5198SOL     OW27055   1.062   4.239   8.613 -0.3644  0.1793 -0.0901
 5198SOL    HW127056   1.065   4.184   8.691 -2.6294 -0.0832 -0.1810
 5198SOL    HW227057   1.154   4.226   8.590 -0.9947 -1.0247 -1.9018
 5199SOL     OW27058   1.068   2.827  11.923  0.0320 -0.4506 -0.4178
 5199SOL    HW127059   1.056   2.913  11.881  0.9572  0.7568  1.8086
 5199SOL    HW227060   1.122   2.774  11.865 -0.8472 -0.5985 -1.1028
 5200SOL     OW27061   2.624   1.953   5.655  0.1705 -0.2601 -0.4383
 5200SOL    HW127062   2.717   1.934   5.642  0.4760  1.3803 -0.5514
 5200SOL    HW227063   2.632   2.045   5.678 -1.1241 -0.5441  1.1496
 5201SOL     OW27064   2.009   2.807   3.127  0.1381 -0.5110 -0.2181
 5201SOL    HW127065   2.081   2.861   3.095 -0.1103  0.6101  1.0830
 5201SOL    HW227066   1.952   2.810   3.050 -0.4405 -4.1130  0.0979
 5202SOL     OW27067   3.146   0.304  14.742  0.3110  0.1308  0.1979
 5202SOL    HW127068   3.156   0.260  14.657  0.9160  0.5597  0.0417
 5202SOL    HW227069   3.215   0.262  14.792  1.3169  0.3775 -0.9705
 5203SOL     OW27070   0.738   4.650   2.410  0.7780  0.6208  0.1803
 5203SOL    HW127071   0.716   0.011   2.451 -0.1522 -0.7093  2.3850
 5203SOL    HW227072   0.761   4.670   2.319 -0.4741 -0.3455 -0.3586
 5204SOL     OW27073   3.650   3.740   2.687 -0.0696  0.4445 -0.7719
 5204SOL    HW127074   3.687   3.827   2.701  0.1613  0.1631  0.3734
 5204SOL    HW227075   3.646   3.735   2.592  2.4614 -1.9015 -0.7605
 5205SOL     OW27076   0.809   0.849   2.611 -0.1857 -1.0200 -0.0389
 5205SOL    HW127077   0.752   0.785   2.569  0.0019 -1.3014  0.1423
 5205SOL    HW227078   0.852   0.803   2.682  2.1686  2.3536  0.7594
 5206SOL     OW27079   4.030   1.456   4.194  0.5423  0.1663 -0.5702
 5206SOL    HW127080   3.957   1.442   4.134 -1.6359  0.9270  1.8737
 5206SOL    HW227081   3.994   1.525   4.250 -0.7754  0.2071 -1.4689
 5207SOL     OW27082   4.425   2.036   4.845 -0.1152 -0.1580  0.4014
 5207SOL    HW127083   4.409   2.105   4.909  0.2720  0.3542 -0.0471
 5207SOL    HW227084   4.499   1.987   4.882  0.9910  0.1919 -1.3045
 5208SOL     OW27085   0.053   0.396   2.329 -0.8050 -0.2755  0.5688
 5208SOL    HW127086   0.113   0.322   2.340 -2.0095 -1.4468 -0.7936
 5208SOL    HW227087   0.072   0.439   2.412  1.1488  0.4647 -0.2687
 5209SOL     OW27088   2.400   0.983   6.147  0.0049 -0.0562  0.1762
 5209SOL    HW127089   2.392   0.955   6.056  1.0121 -0.9841  0.3851
 5209SOL    HW227090   2.359   0.913   6.198  1.1738  0.2590  1.5498
 5210SOL     OW27091   3.833   0.898   0.408  0.1240  0.5105  0.8703
 5210SOL    HW127092   3.916   0.855   0.391 -0.2518 -0.0588  0.4764
 5210SOL    HW227093   3.862   0.982   0.444  1.4004  0.4682 -0.0770
 5211SOL     OW27094   1.946   3.738   6.985 -0.1953  0.0469 -0.4763
 5211SOL    HW127095   1.945   3.706   6.895 -0.6525 -0.0538 -0.4332
 5211SOL    HW227096   2.034   3.704   7.003 -1.1079 -1.5905  0.8904
 5212SOL     OW27097   2.080   1.830  10.703  0.0930  0.1548 -0.1255
 5212SOL    HW127098   2.097   1.909  10.755 -0.5989  1.0196 -1.1973
 5212SOL    HW227099   2.048   1.875  10.625 -2.5200 -1.4089  0.0484
 5213SOL     OW27100   2.276   1.515  10.874 -0.4851  0.3660 -0.7645
 5213SOL    HW127101   2.252   1.605  10.851 -1.7665  0.7673  2.1493
 5213SOL    HW227102   2.271   1.521  10.969  0.7986 -0.6889 -0.6183
 5214SOL     OW27103   1.513   1.394   8.771 -0.2196  0.2199  0.1365
 5214SOL    HW127104   1.529   1.444   8.851  0.5230  0.5745 -0.2234
 5214SOL    HW227105   1.426   1.358   8.784 -0.5336  0.2890 -1.7768
 5215SOL     OW27106   3.746   2.547   8.605 -0.0084 -0.0023  0.4436
 5215SOL    HW127107   3.790   2.577   8.684 -1.2552 -0.7397  1.4300
 5215SOL    HW227108   3.745   2.627   8.552 -2.5324 -0.6450 -0.5256
 5216SOL     OW27109   2.556   3.481   1.180 -0.0930  0.4949  0.4863
 5216SOL    HW127110   2.572   3.530   1.099 -1.1076 -0.6646 -0.4093
 5216SOL    HW227111   2.601   3.401   1.151  1.9003  1.0940  1.9269
 5217SOL     OW27112   2.112   3.183   7.770 -0.8341 -0.0977 -0.5133
 5217SOL    HW127113   2.052   3.251   7.801 -2.2199 -0.7073 -1.8319
 5217SOL    HW227114   2.051   3.112   7.750 -0.9079 -0.8348  2.2676
 5218SOL     OW27115   1.339   4.277   3.041 -0.0105 -0.0227 -0.1872
 5218SOL    HW127116   1.267   4.334   3.068  0.1544 -0.2601  0.7562
 5218SOL    HW227117   1.297   4.229   2.970 -1.3051 -0.6450  0.9822
 5219SOL     OW27118   2.406   4.322   4.337  0.6767 -0.9802  0.2673
 5219SOL    HW127119   2.496   4.301   4.315  0.6665 -1.0168  0.2605
 5219SOL    HW227120   2.420   4.342   4.429 -0.8838  1.9120 -0.0907
 5220SOL     OW27121   0.092   1.889   0.004  0.0242  0.1088  0.0354
 5220SOL    HW127122   0.038   1.809   0.001 -1.2475  1.0641 -2.6646
 5220SOL    HW227123   0.142   1.879   0.085  0.0884 -1.9279 -0.2631
 5221SOL     OW27124   3.732   0.552   3.645  0.2139  0.1611 -0.2184
 5221SOL    HW127125   3.799   0.620   3.654 -0.0409  0.2280  1.2338
 5221SOL    HW227126   3.784   0.473   3.630  0.9177  0.2531  1.7916
 5222SOL     OW27127   3.751   1.301   8.532  0.0517 -0.2196  0.4681
 5222SOL    HW127128   3.794   1.277   8.614 -0.5482 -2.0937  0.2283
 5222SOL    HW227129   3.788   1.389   8.523 -1.3138  0.0227 -2.7755
 5223SOL     OW27130   3.476   2.253   4.530  0.3978  0.4859 -0.3300
 5223SOL    HW127131   3.534   2.181   4.506 -0.5634  0.3080 -2.0484
 5223SOL    HW227132   3.497   2.251   4.624  0.0817 -0.6709 -0.2927
 5224SOL     OW27133   2.080   2.513   0.763 -0.0422  0.2127  0.0624
 5224SOL    HW127134   2.161   2.555   0.733 -0.8187  1.1515 -0.6857
 5224SOL    HW227135   2.022   2.582   0.733  2.4074  0.4810 -4.0267
 5225SOL     OW27136   2.110   2.672   9.337  0.7753 -0.1317 -0.5199
 5225SOL    HW127137   2.143   2.589   9.370  0.8834  0.4576  0.8421
 5225SOL    HW227138   2.135   2.664   9.245 -0.1291 -0.1046 -0.7652
 5226SOL     OW27139   0.874   3.421  13.602  0.7669 -0.1532  0.3913
 5226SOL    HW127140   0.943   3.404  13.667 -0.8534 -1.8390  1.7029
 5226SOL    HW227141   0.876   3.516  13.597  3.4031 -0.2243  0.2229
 5227SOL     OW27142   4.426   2.367   9.830 -0.0421  0.1421 -0.4818
 5227SOL    HW127143   4.493   2.432   9.807 -0.8783  0.6569 -1.4615
 5227SOL    HW227144   4.342   2.412   9.824 -1.0444 -1.7571 -0.4323
 5228SOL     OW27145   0.501   1.017   5.886  0.6042  0.6498 -0.4163
 5228SOL    HW127146   0.536   0.951   5.946 -1.7925 -0.7759 -0.5455
 5228SOL    HW227147   0.582   1.051   5.849  1.1221 -0.7016 -0.5413
 5229SOL     OW27148   4.715   4.505   3.753  0.2894 -0.2281 -0.1315
 5229SOL    HW127149   4.696   4.558   3.831 -0.9653 -1.7093  0.5681
 5229SOL    HW227150   0.082   4.531   3.728  1.1994  1.0942  4.4832
 5230SOL     OW27151   3.914   2.346   8.797 -0.3206  0.5288 -0.0420
 5230SOL    HW127152   3.922   2.435   8.833 -2.3008  0.7528 -0.1396
 5230SOL    HW227153   3.852   2.308   8.860 -2.8093  4.1981 -0.2458
 5231SOL     OW27154   0.295   4.702  15.724 -0.5789 -0.2799  0.0389
 5231SOL    HW127155   0.325   4.642  15.656 -1.7260 -2.1697  1.1964
 5231SOL    HW227156   0.271   0.057  15.674 -1.3048  1.2094  2.6860
 5232SOL     OW27157   4.592   1.876   6.792  0.3843  0.1561 -0.2010
 5232SOL    HW127158   4.586   1.810   6.861  1.2624  0.5084  0.2017
 5232SOL    HW227159   4.502   1.877   6.757 -0.1902 -0.6155  1.2474
 5233SOL     OW27160   4.177   3.256   6.203  0.3630 -0.7003 -0.3972
 5233SOL    HW127161   4.243   3.240   6.270  0.2260  1.1710  0.1626
 5233SOL    HW227162   4.136   3.170   6.192 -0.2242 -0.6036  1.0483
 5234SOL     OW27163   0.154   4.115   6.907 -0.0345  0.0731 -0.3789
 5234SOL    HW127164   0.216   4.085   6.841  0.1718  0.3611 -0.3167
 5234SOL    HW227165   0.105   4.175   6.851 -0.7654 -1.5148 -1.4346
 5235SOL     OW27166   2.069   2.280   0.658 -0.2429 -0.6422 -1.5042
 5235SOL    HW127167   2.082   2.358   0.711  1.3278 -1.3733 -0.8292
 5235SOL    HW227168   2.084   2.306   0.567  0.2196 -0.8834 -1.5003
 5236SOL     OW27169   3.727   4.401   7.561  0.3943  0.3031 -0.4884
 5236SOL    HW127170   3.775   4.463   7.506  1.0379 -0.8958 -1.2939
 5236SOL    HW227171   3.642   4.412   7.518 -0.4259  0.2422  1.1212
 5237SOL     OW27172   2.320   1.592   7.466  0.2605  0.5141  0.1763
 5237SOL    HW127173   2.396   1.561   7.418 -0.7216  0.3187 -1.2573
 5237SOL    HW227174   2.286   1.650   7.398 -1.2879 -1.2418 -0.5522
 5238SOL     OW27175   2.326   4.494  13.253 -0.0108  0.2752 -0.1786
 5238SOL    HW127176   2.278   4.545  13.318  0.9229  0.3955  0.4181
 5238SOL    HW227177   2.395   4.556  13.226  0.3413  0.2351  0.6423
 5239SOL     OW27178   3.173   4.535   6.445  0.2369 -0.3907  0.1842
 5239SOL    HW127179   3.258   4.556   6.406  1.2340 -3.2266  0.7792
 5239SOL    HW227180   3.143   4.453   6.405 -0.8743  1.1315 -2.0826
 5240SOL     OW27181   1.861   3.798   5.275 -0.2600  0.0139 -0.1383
 5240SOL    HW127182   1.893   3.875   5.226  2.4059 -0.3800  0.9548
 5240SOL    HW227183   1.941   3.791   5.327 -0.2856 -1.9027 -0.3477
 5241SOL     OW27184   1.876   2.286   3.821  0.1527 -0.0399  0.2172
 5241SOL    HW127185   1.864   2.362   3.877  1.8855  0.2343  0.2265
 5241SOL    HW227186   1.784   2.260   3.824  0.3981 -1.0101 -0.5817
 5242SOL     OW27187   0.476   0.493   6.332 -0.2000 -0.0015  0.4009
 5242SOL    HW127188   0.571   0.501   6.324 -0.2920  1.4643  0.9157
 5242SOL    HW227189   0.466   0.415   6.277 -0.3780  0.7548 -0.6506
 5243SOL     OW27190   2.427   3.424   0.382 -0.4547 -0.2333  0.6307
 5243SOL    HW127191   2.349   3.475   0.358  0.7313  1.2101 -0.1342
 5243SOL    HW227192   2.443   3.369   0.305  0.3485  0.5417  0.2385
 5244SOL     OW27193   1.573   1.242  14.908  0.1504  0.1720  0.4606
 5244SOL    HW127194   1.503   1.223  14.845 -1.0570  1.5816  1.3495
 5244SOL    HW227195   1.571   1.150  14.931  0.8984 -0.6120 -2.5490
 5245SOL     OW27196   2.531   0.761   4.064 -0.3274  0.3586  0.1918
 5245SOL    HW127197   2.548   0.671   4.036 -2.7009  0.0993 -0.4689
 5245SOL    HW227198   2.579   0.768   4.146  1.5298 -1.4467 -0.7401
 5246SOL     OW27199   4.688   3.291  16.109 -0.1525 -0.0935  0.0085
 5246SOL    HW127200   4.682   3.381  16.077 -0.4899 -0.5944 -1.3302
 5246SOL    HW227201   4.671   3.312  16.201  0.6221  0.9922 -0.0968
 5247SOL     OW27202   0.540   3.064  17.579  0.1713  0.2592 -0.5420
 5247SOL    HW127203   0.581   3.150  17.577 -1.4718  1.0642  0.3809
 5247SOL    HW227204   0.531   3.050  17.485  2.2259  0.6068 -0.7965
 5248SOL     OW27205   0.590   1.643  14.310  0.0202  0.4596  0.1738
 5248SOL    HW127206   0.623   1.624  14.398  0.3951 -0.4857 -0.1728
 5248SOL    HW227207   0.519   1.703  14.336  0.7947 -0.6172  4.7033
 5249SOL     OW27208   4.550   3.580  13.225 -0.3632 -0.1424  0.3196
 5249SOL    HW127209   4.581   3.562  13.136 -2.1306 -0.5933 -0.2057
 5249SOL    HW227210   4.466   3.619  13.197 -0.2511 -0.4171 -0.4132
 5250SOL     OW27211   1.605   3.826  12.820  0.2023 -0.1154 -0.7967
 5250SOL    HW127212   1.523   3.830  12.869  0.6453 -1.4589  0.0651
 5250SOL    HW227213   1.599   3.901  12.761 -1.7015 -0.8273 -1.4868
 5251SOL     OW27214   0.649   2.667   7.346 -0.1520  0.4062  0.5886
 5251SOL    HW127215   0.670   2.760   7.335 -2.4097  0.6794 -1.4098
 5251SOL    HW227216   0.568   2.661   7.296  0.2356 -0.4364  0.0575
 5252SOL     OW27217   4.413   4.179   3.082 -0.0876  0.1080  0.0560
 5252SOL    HW127218   4.450   4.093   3.062 -1.6925  0.4249 -4.2103
 5252SOL    HW227219   4.339   4.168   3.023  0.2006 -1.8643  0.0517
 5253SOL     OW27220   2.470   2.958   6.995  0.2270  0.4036  0.0444
 5253SOL    HW127221   2.521   3.016   7.051  0.1776  0.3628  0.1306
 5253SOL    HW227222   2.389   2.957   7.044 -1.2845 -0.2479 -2.4467
 5254SOL     OW27223   3.592   0.711   3.854 -0.3999 -0.4768 -1.0126
 5254SOL    HW127224   3.672   0.757   3.879  0.4354 -1.8552 -1.1479
 5254SOL    HW227225   3.624   0.642   3.796  1.1629  1.9485 -3.0408
 5255SOL     OW27226   3.837   3.592   6.539 -0.1414 -0.0782 -0.2507
 5255SOL    HW127227   3.843   3.518   6.478  0.5948 -0.2096 -0.0195
 5255SOL    HW227228   3.869   3.551   6.619  0.1198  0.6309 -0.0004
 5256SOL     OW27229   4.004   3.991   7.244 -0.4561 -0.0454 -0.8951
 5256SOL    HW127230   4.092   4.015   7.274  0.1166 -0.4978 -2.2554
 5256SOL    HW227231   4.027   3.912   7.196  0.9962  0.5733 -1.2186
 5257SOL     OW27232   2.834   2.008   5.913  0.5067  0.4705  0.3731
 5257SOL    HW127233   2.772   1.946   5.951  2.7365 -1.9817 -0.0079
 5257SOL    HW227234   2.881   2.046   5.988 -2.3350  0.8356  1.9604
 5258SOL     OW27235   1.473   4.524   3.813 -0.3733 -0.5005  0.3087
 5258SOL    HW127236   1.409   4.560   3.751  1.4975 -1.0819 -1.9505
 5258SOL    HW227237   1.442   4.568   3.893 -1.4260  1.1107 -0.9624
 5259SOL     OW27238   0.905   0.670   5.036 -0.2805 -0.1056  0.4309
 5259SOL    HW127239   0.991   0.698   5.004  0.3610 -0.7558  1.5938
 5259SOL    HW227240   0.898   0.717   5.119 -0.0185  0.4160  0.1618
 5260SOL     OW27241   1.003   1.306  17.193 -0.0527 -0.1441  0.4785
 5260SOL    HW127242   1.035   1.334  17.279 -1.1792 -3.7938  2.0988
 5260SOL    HW227243   0.916   1.347  17.193  0.0322  0.0328  1.5027
 5261SOL     OW27244   1.204   4.193  11.873  0.3534  0.2339  0.2594
 5261SOL    HW127245   1.256   4.152  11.804 -0.1578  1.2846 -0.7501
 5261SOL    HW227246   1.137   4.130  11.899 -1.9338  2.9971  1.0378
 5262SOL     OW27247   0.572   4.027   7.751  0.1592 -0.3682 -0.1113
 5262SOL    HW127248   0.651   3.975   7.738 -0.7191 -1.6738 -0.2157
 5262SOL    HW227249   0.609   4.115   7.762  0.3383 -0.6659  1.6343
 5263SOL     OW27250   3.826   0.803  17.180  0.0222 -0.3135  0.1731
 5263SOL    HW127251   3.898   0.846  17.227  0.0040  1.2289 -1.2041
 5263SOL    HW227252   3.766   0.778  17.251  2.1838 -1.2427  1.6758
 5264SOL     OW27253   2.239   3.966   2.365  0.1137 -0.0585 -1.0041
 5264SOL    HW127254   2.185   4.044   2.355 -2.0688 -1.6311 -1.2326
 5264SOL    HW227255   2.266   3.970   2.457 -4.0725 -1.5019  0.2817
 5265SOL     OW27256   4.607   3.846   2.125 -1.0334  0.1240 -0.0901
 5265SOL    HW127257   4.547   3.906   2.168  0.2738 -0.6142  2.7897
 5265SOL    HW227258   4.562   3.824   2.043  0.8804 -1.7170 -0.6541
 5266SOL     OW27259   4.158   1.247   7.798 -0.0450 -0.0324  0.1288
 5266SOL    HW127260   4.179   1.160   7.762  1.4883  0.4584 -0.1558
 5266SOL    HW227261   4.192   1.298   7.725 -1.4597  2.5116  1.2435
 5267SOL     OW27262   2.864   2.101  16.166 -0.4418 -0.0120  0.3055
 5267SOL    HW127263   2.866   2.197  16.175 -1.3147  0.2411 -2.3457
 5267SOL    HW227264   2.868   2.095  16.071  1.3361 -0.4780  0.4199
 5268SOL     OW27265   2.174   3.697   8.211  0.2945  0.0629  0.3981
 5268SOL    HW127266   2.089   3.715   8.170  0.3575 -2.0737 -0.7096
 5268SOL    HW227267   2.202   3.787   8.195 -0.6104  0.1326 -0.7713
 5269SOL     OW27268   2.643   0.057   1.421 -0.0265 -0.5562  0.5833
 5269SOL    HW127269   2.737   0.039   1.419 -0.1447 -1.3318  2.4082
 5269SOL    HW227270   2.648   0.152   1.432  0.5430 -0.5177 -0.0347
 5270SOL     OW27271   3.157   2.538   9.000 -0.0865  0.4460  0.0745
 5270SOL    HW127272   3.223   2.576   9.059  1.3780 -1.7229 -0.1614
 5270SOL    HW227273   3.177   2.446   9.016  0.2358  1.2011  4.1762
 5271SOL     OW27274   3.030   1.094   2.559  0.2701  0.4937 -0.5199
 5271SOL    HW127275   3.059   1.036   2.629 -0.6685 -0.2160 -0.7298
 5271SOL    HW227276   3.034   1.042   2.479  0.5643 -0.8737  0.3942
 5272SOL     OW27277   0.921   1.226   8.039  0.7520 -0.2327 -0.3709
 5272SOL    HW127278   0.924   1.307   7.989 -0.6977  0.0254 -0.0492
 5272SOL    HW227279   0.930   1.252   8.131 -1.8494  1.0934 -0.4824
 5273SOL     OW27280   1.922   3.422  11.419 -0.7675  0.2206  0.4564
 5273SOL    HW127281   1.831   3.453  11.424 -0.7993  0.4294 -1.6536
 5273SOL    HW227282   1.941   3.416  11.513 -0.9943  0.2794  0.5076
 5274SOL     OW27283   0.482   1.031  11.975  0.0626 -0.0401 -0.9121
 5274SOL    HW127284   0.548   0.974  12.014 -0.8028 -1.6343 -1.7552
 5274SOL    HW227285   0.527   1.115  11.967 -1.9283  1.0162 -1.2092
 5275SOL     OW27286   2.625   1.594   8.759  0.3171  0.2887 -0.7794
 5275SOL    HW127287   2.589   1.520   8.712  0.9892  0.0088 -0.8519
 5275SOL    HW227288   2.702   1.553   8.798  0.2682  1.5647  0.6992
 5276SOL     OW27289   0.730   2.385  12.879  0.0771 -0.5758 -0.1361
 5276SOL    HW127290   0.706   2.362  12.968 -1.3279 -2.7305 -1.0635
 5276SOL    HW227291   0.670   2.455  12.853 -0.6244 -0.5717  1.4822
 5277SOL     OW27292   3.473   3.759   3.472  0.9989 -0.6651 -0.6500
 5277SOL    HW127293   3.534   3.739   3.543  0.4684 -1.1360 -0.3235
 5277SOL    HW227294   3.395   3.761   3.528 -0.3580  1.1819 -2.6036
 5278SOL     OW27295   0.603   3.107   8.592 -0.1928 -0.3481 -0.2308
 5278SOL    HW127296   0.652   3.049   8.534 -0.5713 -0.2883 -0.6159
 5278SOL    HW227297   0.659   3.105   8.669 -0.4854 -0.2377 -0.0138
 5279SOL     OW27298   0.413   2.974   1.015 -0.4202 -0.3891 -0.1466
 5279SOL    HW127299   0.349   2.990   0.945  0.1464  1.9585 -0.1221
 5279SOL    HW227300   0.362   2.920   1.075 -0.6694  0.0492  0.0286
 5280SOL     OW27301   2.707   3.062   3.326  0.5038 -0.1447  0.2037
 5280SOL    HW127302   2.730   3.089   3.237 -1.7630  1.1772  0.0047
 5280SOL    HW227303   2.797   3.044   3.354 -0.0179  1.0529  2.6979
 5281SOL     OW27304   2.626   3.906   2.509  0.6795  0.7191  0.6792
 5281SOL    HW127305   2.592   3.837   2.567  3.0343  0.9556  2.3667
 5281SOL    HW227306   2.685   3.855   2.453 -0.3956  1.5618 -1.2103
 5282SOL     OW27307   1.816   0.495   8.327 -0.4909 -0.1925 -0.1813
 5282SOL    HW127308   1.754   0.539   8.384  0.4987 -0.0321  0.7860
 5282SOL    HW227309   1.799   0.545   8.247  0.1090  0.5328  0.1464
 5283SOL     OW27310   1.607   3.462   7.727  0.0056 -0.1849  0.3459
 5283SOL    HW127311   1.689   3.414   7.741 -0.5405 -0.9102  1.0781
 5283SOL    HW227312   1.616   3.545   7.773 -1.3365 -0.7562  1.6574
 5284SOL     OW27313   2.735   0.605   8.823 -0.1798 -0.3305  0.1134
 5284SOL    HW127314   2.806   0.667   8.842  0.5920 -1.0108 -0.5323
 5284SOL    HW227315   2.773   0.556   8.750 -0.2569  0.7694 -0.6646
 5285SOL     OW27316   0.112   0.454  13.046 -0.0533 -0.1988 -0.0287
 5285SOL    HW127317   0.044   0.441  12.980  1.6175  0.3884 -1.8731
 5285SOL    HW227318   0.189   0.422  12.999  0.6460 -1.0052  1.6636
 5286SOL     OW27319   1.014   4.457  10.084 -0.1060 -0.0542  0.2069
 5286SOL    HW127320   0.968   4.536  10.115 -0.0825 -0.2863  0.8454
 5286SOL    HW227321   1.089   4.465  10.143 -0.6030 -2.1557  1.1214
 5287SOL     OW27322   0.656   2.503   4.946 -0.7406  0.2791  0.5934
 5287SOL    HW127323   0.688   2.452   5.021  1.4067  0.4759 -0.1988
 5287SOL    HW227324   0.705   2.585   4.944 -1.2597  0.5743 -0.4093
 5288SOL     OW27325   0.561   4.639  14.714  0.1257 -0.1868  0.0304
 5288SOL    HW127326   0.534   4.613  14.625 -1.7940  2.1802 -0.0986
 5288SOL    HW227327   0.619   4.711  14.692 -0.3631 -0.0233 -0.7563
 5289SOL     OW27328   2.646   3.398   2.007  0.6563 -0.0939 -0.6047
 5289SOL    HW127329   2.573   3.417   1.948  0.7676 -2.9203 -1.6521
 5289SOL    HW227330   2.628   3.461   2.077  3.0781  1.1735 -1.1075
 5290SOL     OW27331   3.891   0.965   5.256 -0.5315  0.1825  0.1816
 5290SOL    HW127332   3.813   1.015   5.233 -1.0802  0.8924  3.4905
 5290SOL    HW227333   3.961   1.031   5.261  0.5062 -0.8905 -0.0283
 5291SOL     OW27334   1.500   2.660   7.898  0.4590 -0.2251  0.3327
 5291SOL    HW127335   1.527   2.572   7.923 -0.5750 -1.0824 -1.5071
 5291SOL    HW227336   1.573   2.711   7.933  2.6022 -1.1293 -2.7605
 5292SOL     OW27337   0.118   4.631  16.603  0.7188 -0.0425 -0.3893
 5292SOL    HW127338   0.186   4.634  16.536  1.0233  1.7786 -0.0091
 5292SOL    HW227339   0.106   0.003  16.617 -1.8405 -0.2770 -1.1141
 5293SOL     OW27340   4.084   2.939   2.367 -0.2918 -0.1858  0.2599
 5293SOL    HW127341   3.999   2.971   2.396 -1.1506 -0.7373 -1.6102
 5293SOL    HW227342   4.076   2.846   2.390  0.2427 -0.0881  0.8376
 5294SOL     OW27343   4.632   2.807   8.326 -0.2406  0.0248  0.4258
 5294SOL    HW127344   4.595   2.744   8.388  3.5433 -1.0039  1.6596
 5294SOL    HW227345   4.549   2.845   8.298 -0.2947  0.8599  1.7134
 5295SOL     OW27346   3.391   2.469  15.825 -0.1247 -0.3946 -0.1033
 5295SOL    HW127347   3.471   2.515  15.851  0.0568 -0.5406 -0.3981
 5295SOL    HW227348   3.352   2.534  15.766  0.5904 -0.1075 -0.2723
 5296SOL     OW27349   2.566   3.828   3.560 -0.4807  0.5230  0.7131
 5296SOL    HW127350   2.492   3.867   3.605 -1.4811  1.2701 -1.5948
 5296SOL    HW227351   2.632   3.797   3.623  0.3320  0.2799 -0.2550
 5297SOL     OW27352   4.474   1.991   7.821 -0.2067  0.1938 -0.5512
 5297SOL    HW127353   4.524   2.072   7.834  0.5818 -0.2603 -0.7974
 5297SOL    HW227354   4.533   1.948   7.759 -1.3293  0.9284 -2.1308
 5298SOL     OW27355   0.523   3.949   3.289  0.2296  1.1108 -0.1694
 5298SOL    HW127356   0.600   4.004   3.302  0.0631  1.3070  0.0094
 5298SOL    HW227357   0.494   3.990   3.207  1.2057  0.4456 -0.8375
 5299SOL     OW27358   1.658   4.415   7.350  0.2815  0.3339  0.3804
 5299SOL    HW127359   1.592   4.347   7.366 -0.2662  0.0637 -3.2140
 5299SOL    HW227360   1.705   4.414   7.434 -1.0124  0.5266  1.1046
 5300SOL     OW27361   4.365   3.505  12.388  0.4804 -0.5073 -0.3539
 5300SOL    HW127362   4.375   3.509  12.293 -0.9335 -0.2812 -0.4952
 5300SOL    HW227363   4.444   3.455  12.407  0.8962  0.1059 -0.4781
 5301SOL     OW27364   2.980   4.278  14.369  0.0373  0.7349  0.5568
 5301SOL    HW127365   2.892   4.239  14.369  0.4274 -0.1582 -0.7925
 5301SOL    HW227366   2.991   4.292  14.275  1.6575 -1.3314  0.4186
 5302SOL     OW27367   3.797   0.632   3.233 -0.1369  0.3883  0.4491
 5302SOL    HW127368   3.845   0.687   3.171 -1.8710  1.4696  0.0528
 5302SOL    HW227369   3.708   0.644   3.200  1.1098  0.0272 -3.0563
 5303SOL     OW27370   2.893   0.171   9.274  0.0361 -0.2620  0.1285
 5303SOL    HW127371   2.883   0.118   9.353  2.6301 -0.4104  0.3523
 5303SOL    HW227372   2.952   0.238   9.310  1.6471 -0.6555 -1.8101
 5304SOL     OW27373   3.116   1.891   2.332  0.4882 -0.0479  0.0550
 5304SOL    HW127374   3.187   1.909   2.270 -0.3574  0.7701 -0.6734
 5304SOL    HW227375   3.044   1.919   2.276  0.2250 -0.8737 -0.0116
 5305SOL     OW27376   3.752   4.046  17.409 -0.6201 -0.2622  0.0436
 5305SOL    HW127377   3.696   4.085  17.476 -0.3003 -1.5055  1.0372
 5305SOL    HW227378   3.682   3.988  17.377 -0.3883 -1.3427  1.4808
 5306SOL     OW27379   0.314   4.225   3.367  0.6314 -0.0033 -0.5232
 5306SOL    HW127380   0.343   4.237   3.457 -0.9810  0.1802 -0.0249
 5306SOL    HW227381   0.340   4.133   3.366 -2.9376 -1.0197  1.4297
 5307SOL     OW27382   4.525   3.686  12.047  0.1336  0.2220 -0.4134
 5307SOL    HW127383   4.606   3.672  11.999  1.0458  1.4570  0.7760
 5307SOL    HW227384   4.493   3.596  12.047 -0.4488  0.4375  4.0208
 5308SOL     OW27385   1.894   0.095  15.866  0.1685 -0.1985 -0.1368
 5308SOL    HW127386   1.892   0.165  15.801  1.4240 -0.1304 -0.1075
 5308SOL    HW227387   1.909   0.017  15.811 -2.9858 -0.4857 -0.5683
 5309SOL     OW27388   1.316   0.990  13.635  0.0042 -0.1892  0.1973
 5309SOL    HW127389   1.309   1.035  13.550 -2.0066 -0.5051  0.1954
 5309SOL    HW227390   1.250   1.036  13.685  1.9110  2.1677  0.5337
 5310SOL     OW27391   4.383   2.153   2.735  0.9629  0.3607  0.4122
 5310SOL    HW127392   4.473   2.185   2.748  1.2302 -0.3661  0.3898
 5310SOL    HW227393   4.398   2.123   2.645 -1.0767  1.3862 -0.2562
 5311SOL     OW27394   3.878   1.239   6.352 -0.4701  0.0299 -0.0846
 5311SOL    HW127395   3.850   1.160   6.306 -1.1051  0.1464  0.0994
 5311SOL    HW227396   3.972   1.246   6.334 -0.6373 -1.1729 -1.3791
 5312SOL     OW27397   4.701   4.035   8.735 -0.2041 -0.6896  0.1872
 5312SOL    HW127398   0.039   3.962   8.751  0.0519 -0.7165 -0.9300
 5312SOL    HW227399   4.626   3.984   8.705 -2.1688  0.7424  2.7508
 5313SOL     OW27400   1.084   2.074   9.071  0.3703  0.1876 -0.2837
 5313SOL    HW127401   1.176   2.096   9.084  0.1406  0.3639  1.0560
 5313SOL    HW227402   1.050   2.163   9.066 -0.5732 -0.0289  2.2625
 5314SOL     OW27403   1.823   0.207   4.445 -0.5709  0.0270 -0.7863
 5314SOL    HW127404   1.771   0.129   4.431  0.0488 -0.2710 -1.4126
 5314SOL    HW227405   1.782   0.243   4.524  2.7191 -1.7466  1.7488
 5315SOL     OW27406   0.353   0.856   7.667 -0.4986 -0.3089  0.2687
 5315SOL    HW127407   0.417   0.916   7.629 -2.5170  1.7834  0.1388
 5315SOL    HW227408   0.300   0.922   7.711  0.4348  0.0128  0.9296
 5316SOL     OW27409   3.192   0.157   6.313  0.2487  0.0601  0.6593
 5316SOL    HW127410   3.108   0.161   6.267  2.2713  1.0562 -2.9251
 5316SOL    HW227411   3.242   0.232   6.280  1.5545 -0.1885  2.0945
 5317SOL     OW27412   2.138   2.545   3.800 -0.1768 -0.0845 -0.3529
 5317SOL    HW127413   2.065   2.592   3.760  1.0229  1.3080 -0.8767
 5317SOL    HW227414   2.202   2.615   3.794 -2.2547  1.5622 -3.0294
 5318SOL     OW27415   0.802   1.098   4.044 -0.1952 -0.5439  0.1169
 5318SOL    HW127416   0.784   1.017   4.091 -1.8006 -0.4124 -0.2580
 5318SOL    HW227417   0.841   1.155   4.110 -1.4172 -1.0393  1.2656
 5319SOL     OW27418   0.262   4.203   1.013  0.5805 -0.2395  0.0553
 5319SOL    HW127419   0.250   4.173   0.922 -0.6303  1.6027 -0.3968
 5319SOL    HW227420   0.232   4.131   1.069 -1.0087  0.2362 -0.1879
 5320SOL     OW27421   4.558   0.221   8.870  0.2997 -0.0729 -0.5590
 5320SOL    HW127422   4.499   0.285   8.830 -0.9338 -0.4773  0.6209
 5320SOL    HW227423   4.548   0.144   8.813  0.0410  0.0399 -0.6681
 5321SOL     OW27424   3.202   2.496   3.051  0.1306 -0.3827 -0.2284
 5321SOL    HW127425   3.173   2.414   3.011 -0.8664 -1.0114  1.7999
 5321SOL    HW227426   3.297   2.488   3.052 -0.0547 -2.3116  1.2531
 5322SOL     OW27427   2.252   2.694   0.666 -0.0258 -0.2394 -0.5930
 5322SOL    HW127428   2.348   2.688   0.675 -0.2002 -0.1299  1.3370
 5322SOL    HW227429   2.256   2.690   0.570 -1.5316 -3.4077 -0.5374
 5323SOL     OW27430   3.018   3.257  13.309 -0.0184 -0.4178  0.6832
 5323SOL    HW127431   2.938   3.309  13.307 -0.0103 -0.3683  1.6690
 5323SOL    HW227432   3.020   3.236  13.215  1.4613  2.7740  0.0065
 5324SOL     OW27433   3.273   1.610  13.523  0.0694  0.0634  0.1317
 5324SOL    HW127434   3.298   1.616  13.431  0.1458  0.5114  0.1841
 5324SOL    HW227435   3.250   1.517  13.529 -1.4045  0.4594  0.7612
 5325SOL     OW27436   4.068   2.163  16.246  0.0712  0.1044  0.1118
 5325SOL    HW127437   4.040   2.231  16.185 -1.4964 -2.2471 -1.7454
 5325SOL    HW227438   4.066   2.085  16.190 -2.0902 -0.2848  0.7202
 5326SOL     OW27439   4.460   2.875   6.182  0.0901 -0.2884  0.6850
 5326SOL    HW127440   4.457   2.852   6.274  0.1635 -0.5822  0.6131
 5326SOL    HW227441   4.430   2.792   6.146  2.0604 -0.0464 -1.5313
 5327SOL     OW27442   3.670   2.319   5.741 -0.1609  0.1063 -0.0333
 5327SOL    HW127443   3.663   2.229   5.772 -1.2621 -0.3295 -1.5319
 5327SOL    HW227444   3.636   2.297   5.654  1.5836 -0.3152 -0.6155
 5328SOL     OW27445   2.367   3.897   0.300 -0.0704 -0.3939  0.4409
 5328SOL    HW127446   2.407   3.982   0.283  0.9880 -0.5187  2.2185
 5328SOL    HW227447   2.367   3.913   0.395 -1.4075 -3.2143  0.9160
 5329SOL     OW27448   3.448   1.313   7.104  0.0897  0.0950  0.3561
 5329SOL    HW127449   3.417   1.246   7.044  1.0916 -0.8816  0.9355
 5329SOL    HW227450   3.412   1.399   7.082  0.0891 -0.6214 -2.3636
 5330SOL     OW27451   1.609   1.416   6.508 -0.3498 -0.8129  0.4411
 5330SOL    HW127452   1.700   1.446   6.508 -0.6719  0.2091 -1.3087
 5330SOL    HW227453   1.607   1.394   6.601  1.5872  1.3036  0.9874
 5331SOL     OW27454   1.224   0.717   7.207  0.2399  0.1194 -0.1436
 5331SOL    HW127455   1.251   0.772   7.134  1.0491 -0.0046  0.0580
 5331SOL    HW227456   1.132   0.699   7.187  0.3986 -2.2171  1.1790
 5332SOL     OW27457   0.407   4.175  17.067 -0.1033  0.5636  0.2300
 5332SOL    HW127458   0.432   4.134  16.985  0.5440  0.8430  0.2885
 5332SOL    HW227459   0.487   4.166  17.119  0.1479  0.0619 -0.2439
 5333SOL     OW27460   2.305   2.806   7.983  0.1832  0.5752  0.1547
 5333SOL    HW127461   2.338   2.853   7.906 -0.5245  0.2268 -0.3658
 5333SOL    HW227462   2.312   2.873   8.050 -0.2083 -1.5860  2.3511
 5334SOL     OW27463   3.845   3.337   5.243  0.2447  0.3323 -0.9561
 5334SOL    HW127464   3.913   3.307   5.304 -0.5022 -2.2757 -1.3881
 5334SOL    HW227465   3.828   3.255   5.197 -2.2706 -0.0584  0.6185
 5335SOL     OW27466   2.536   2.544   9.351  0.2309  0.5098 -0.5579
 5335SOL    HW127467   2.532   2.581   9.439  2.4809  2.3276 -1.2169
 5335SOL    HW227468   2.515   2.453   9.373  0.0840  0.6667 -0.0416
 5336SOL     OW27469   4.532   0.848  13.715 -0.3721 -0.0311 -0.2865
 5336SOL    HW127470   4.576   0.930  13.736  0.2676 -0.3659 -0.3449
 5336SOL    HW227471   4.567   0.790  13.783 -1.0619 -1.1046 -0.8471
 5337SOL     OW27472   1.609   4.188   2.866 -0.0997 -1.0823  0.1214
 5337SOL    HW127473   1.694   4.232   2.875 -0.1957 -0.9494  0.3581
 5337SOL    HW227474   1.580   4.205   2.955  0.3170  0.1440  0.0298
 5338SOL     OW27475   4.180   1.997   5.811  0.3969  0.0647 -0.3870
 5338SOL    HW127476   4.145   1.922   5.764 -0.0252 -0.8647  1.4219
 5338SOL    HW227477   4.272   1.974   5.827 -0.3743 -1.9491  1.0959
 5339SOL     OW27478   3.578   2.188   6.861  0.0582 -0.6159 -0.0824
 5339SOL    HW127479   3.524   2.246   6.807 -1.8751 -1.7671  0.6088
 5339SOL    HW227480   3.633   2.143   6.797  2.5144  1.6371  0.4320
 5340SOL     OW27481   3.901   3.328   0.776 -0.2597  0.6567 -0.1882
 5340SOL    HW127482   3.900   3.315   0.871 -1.0295  2.2031  0.0143
 5340SOL    HW227483   3.871   3.242   0.745  1.5110 -0.0018 -0.0921
 5341SOL     OW27484   3.364   0.208   7.659 -1.0118  0.4144 -0.5078
 5341SOL    HW127485   3.343   0.159   7.580 -1.2921  1.7680 -1.2712
 5341SOL    HW227486   3.338   0.141   7.722 -0.0813  0.3629 -0.1744
 5342SOL     OW27487   1.560   2.911   3.634 -0.5011 -0.1701  0.5085
 5342SOL    HW127488   1.545   2.817   3.636  1.7791 -0.6009 -3.8723
 5342SOL    HW227489   1.653   2.929   3.644 -0.6101  0.7855 -0.1485
 5343SOL     OW27490   2.765   1.142   2.608  0.1836 -0.0782  0.2085
 5343SOL    HW127491   2.727   1.105   2.529  0.3446  0.8213 -0.2882
 5343SOL    HW227492   2.860   1.139   2.599  0.2879 -0.6233  1.4226
 5344SOL     OW27493   1.641   1.710   3.268  0.0200 -0.3719  0.2207
 5344SOL    HW127494   1.671   1.796   3.298 -0.2384  0.6563 -2.4659
 5344SOL    HW227495   1.676   1.654   3.338 -2.6775 -1.7462  0.4377
 5345SOL     OW27496   2.954   1.357   9.799 -0.4156  0.3684  0.0007
 5345SOL    HW127497   2.933   1.303   9.875 -3.1234  1.2839 -0.0895
 5345SOL    HW227498   2.870   1.360   9.754  0.8841 -1.0722 -2.5608
 5346SOL     OW27499   1.540   0.480   1.548  0.3914  0.0758 -0.3663
 5346SOL    HW127500   1.460   0.436   1.520 -1.0399  1.8737  0.8752
 5346SOL    HW227501   1.589   0.406   1.584 -0.8646 -0.3546  0.4535
 5347SOL     OW27502   1.033   1.908  11.146 -0.5128  0.5593 -0.1114
 5347SOL    HW127503   0.965   1.974  11.130  1.2816  2.8003  1.4327
 5347SOL    HW227504   0.983   1.828  11.163  1.0094 -0.5957 -1.1221
 5348SOL     OW27505   3.341   4.451   4.362 -0.0205  0.1430 -0.4371
 5348SOL    HW127506   3.282   4.377   4.347 -1.6084  1.4793 -0.7924
 5348SOL    HW227507   3.303   4.524   4.314 -0.2174 -0.0218 -0.5328
 5349SOL     OW27508   1.843   2.444  11.250  0.3318 -0.0484  0.7622
 5349SOL    HW127509   1.866   2.352  11.235 -0.3720  0.0059 -0.5700
 5349SOL    HW227510   1.865   2.487  11.168  2.5531 -2.0508  0.3132
 5350SOL     OW27511   0.831   3.875  10.534 -0.4801 -0.0133 -0.3347
 5350SOL    HW127512   0.819   3.968  10.515  2.1432  0.1645 -1.1006
 5350SOL    HW227513   0.760   3.830  10.487  0.1984  0.4435 -1.7847
 5351SOL     OW27514   1.417   1.232   6.985 -0.0205  0.3074 -0.0510
 5351SOL    HW127515   1.446   1.161   7.042 -0.4452  0.8755  0.8768
 5351SOL    HW227516   1.390   1.294   7.053 -0.2044  0.7567 -0.5408
 5352SOL     OW27517   3.022   3.520  14.246 -0.2093  0.3235 -0.3546
 5352SOL    HW127518   2.975   3.437  14.252 -0.3224  0.3913 -0.3035
 5352SOL    HW227519   3.025   3.544  14.339 -0.6606  0.3558 -0.3514
 5353SOL     OW27520   1.030   0.203   3.228 -0.3174 -0.3254 -0.0920
 5353SOL    HW127521   1.116   0.165   3.210 -0.6424 -1.6846  1.2241
 5353SOL    HW227522   0.972   0.133   3.257  2.0246 -1.2756  2.3486
 5354SOL     OW27523   2.869   0.588  17.371 -0.0522  0.4142 -0.6921
 5354SOL    HW127524   2.930   0.653  17.404  0.1475 -0.4722  0.7253
 5354SOL    HW227525   2.839   0.626  17.289  0.7405 -0.1155 -1.2191
 5355SOL     OW27526   3.851   0.772   2.301 -0.1363  0.3100 -0.2011
 5355SOL    HW127527   3.921   0.813   2.250 -0.6176  2.1327  0.6049
 5355SOL    HW227528   3.871   0.679   2.295  0.5839  0.4619 -0.1349
 5356SOL     OW27529   3.010   4.410  14.600 -0.1962  0.4508 -0.4411
 5356SOL    HW127530   2.970   4.341  14.652  0.9369  0.8224  0.9119
 5356SOL    HW227531   3.000   4.363  14.517  2.5907  0.8809 -1.0476
 5357SOL     OW27532   2.709   1.849   2.093 -0.4431 -0.1242  0.4433
 5357SOL    HW127533   2.801   1.865   2.113 -0.1514  0.3136 -1.2629
 5357SOL    HW227534   2.676   1.939   2.101 -0.3702 -0.0962  0.4271
 5358SOL     OW27535   2.726   3.137   1.957 -0.2282 -0.9033 -0.2266
 5358SOL    HW127536   2.652   3.081   1.978  0.4906 -2.1671 -1.0209
 5358SOL    HW227537   2.713   3.217   2.007 -0.6260 -0.9469 -0.2643
 5359SOL     OW27538   1.397   0.872   0.838  0.2782 -0.0331  0.1909
 5359SOL    HW127539   1.397   0.786   0.880  0.4727  0.0720  0.4075
 5359SOL    HW227540   1.338   0.856   0.764  0.6585 -2.1567  0.3454
 5360SOL     OW27541   4.125   4.172   3.818  0.6981  0.5120 -0.0482
 5360SOL    HW127542   4.115   4.262   3.787  0.5993  1.3307  2.3601
 5360SOL    HW227543   4.103   4.187   3.910 -1.2921  0.0538 -0.4666
 5361SOL     OW27544   3.835   2.818   5.356  0.0442  0.1684  0.2521
 5361SOL    HW127545   3.810   2.862   5.438  2.3142 -0.3217  1.2116
 5361SOL    HW227546   3.744   2.804   5.329  0.7316 -2.0122 -0.8820
 5362SOL     OW27547   2.829   2.670  11.587 -0.6058  0.2844 -0.2071
 5362SOL    HW127548   2.815   2.750  11.638 -1.8678  0.5963 -1.0393
 5362SOL    HW227549   2.777   2.601  11.628  0.4406 -0.4081 -0.0323
 5363SOL     OW27550   2.292   1.471   9.435  0.8285 -0.0610  0.6268
 5363SOL    HW127551   2.223   1.454   9.371  0.1729  2.4149  0.6833
 5363SOL    HW227552   2.259   1.438   9.518 -0.0338 -0.9628 -0.0795
 5364SOL     OW27553   0.674   0.804   2.191 -0.4843  0.5654 -0.5784
 5364SOL    HW127554   0.607   0.771   2.131  1.1324 -0.7957 -1.6489
 5364SOL    HW227555   0.640   0.893   2.196 -1.5421  0.1259  0.0073
 5365SOL     OW27556   2.631   1.570   5.601 -0.6487 -0.0353  0.0509
 5365SOL    HW127557   2.616   1.503   5.667 -3.5546  0.3347 -0.2459
 5365SOL    HW227558   2.544   1.578   5.563 -0.7034  0.3012  0.2467
 5366SOL     OW27559   2.911   2.533   1.848  0.3532 -0.0124 -0.4086
 5366SOL    HW127560   2.980   2.570   1.793  1.9064  1.0812  2.2615
 5366SOL    HW227561   2.970   2.477   1.900 -0.4839 -1.5259 -1.0971
 5367SOL     OW27562   2.017   3.352   1.496 -0.1373  0.5472 -0.0611
 5367SOL    HW127563   2.078   3.407   1.544 -0.0584 -2.5397  3.3399
 5367SOL    HW227564   1.941   3.409   1.501 -0.9401 -0.7349  2.2011
 5368SOL     OW27565   0.518   0.237   6.195  0.1746  0.1621  0.5728
 5368SOL    HW127566   0.515   0.299   6.122 -0.4222 -2.9520 -2.0533
 5368SOL    HW227567   0.603   0.249   6.236  0.5057  3.2701 -1.0001
 5369SOL     OW27568   4.366   0.874   8.247  0.2258  0.2020 -0.0285
 5369SOL    HW127569   4.340   0.951   8.297  0.3075  0.9524 -1.1301
 5369SOL    HW227570   4.411   0.819   8.311  0.9466 -0.0174 -0.7244
 5370SOL     OW27571   3.382   4.523   6.674 -0.1349 -0.2437 -1.0389
 5370SOL    HW127572   3.463   4.486   6.707 -0.0395 -0.5889 -1.6592
 5370SOL    HW227573   3.364   4.455   6.609 -1.4780 -1.3277  0.4895
 5371SOL     OW27574   0.025   1.602   4.547 -0.1992 -0.0046 -0.3495
 5371SOL    HW127575   4.668   1.651   4.530  0.2634  0.2849 -1.6466
 5371SOL    HW227576   0.007   1.571   4.636  0.4448  1.3020  0.2280
 5372SOL     OW27577   3.760   3.954   6.137  0.1818 -0.2497 -0.2374
 5372SOL    HW127578   3.692   3.910   6.187 -0.3150 -0.8181 -1.4123
 5372SOL    HW227579   3.749   4.048   6.156 -2.3018 -0.7184  0.5973
 5373SOL     OW27580   4.441   1.858  13.977 -0.3162 -0.2312 -0.1864
 5373SOL    HW127581   4.362   1.836  13.928  0.1298  2.4189 -2.0628
 5373SOL    HW227582   4.489   1.919  13.921 -1.1815 -0.3924 -1.1170
 5374SOL     OW27583   0.749   3.975  11.802 -0.5316  0.0745  0.0636
 5374SOL    HW127584   0.672   4.021  11.768 -0.3067  0.3774 -0.0361
 5374SOL    HW227585   0.784   3.951  11.716 -1.2763 -1.4234  0.1843
 5375SOL     OW27586   2.656   1.231   4.512 -0.2832  0.2174  0.3270
 5375SOL    HW127587   2.708   1.279   4.449  1.3812 -1.9024  0.0879
 5375SOL    HW227588   2.593   1.184   4.457 -1.0242  0.4833  0.9432
 5376SOL     OW27589   1.434   1.038   4.353 -0.9268 -0.2604 -0.7343
 5376SOL    HW127590   1.511   0.990   4.384 -0.9062 -0.9377 -1.8297
 5376SOL    HW227591   1.384   0.962   4.322 -0.0830 -1.8333  1.7369
 5377SOL     OW27592   2.755   4.249   8.394  0.3326 -0.0613  0.3276
 5377SOL    HW127593   2.843   4.225   8.424 -0.0949 -0.4737  1.2615
 5377SOL    HW227594   2.705   4.175   8.427 -0.7898 -0.7816 -3.0367
 5378SOL     OW27595   0.915   2.961  14.952  0.9589 -0.3280  0.2738
 5378SOL    HW127596   0.945   2.886  14.901  0.4349  0.6107 -1.4353
 5378SOL    HW227597   0.998   2.985  14.993  1.3030  0.8887 -1.1362
 5379SOL     OW27598   0.228   1.157  17.557 -0.1654  0.0242 -0.1901
 5379SOL    HW127599   0.206   1.168  17.650 -1.6785 -1.4824 -0.3887
 5379SOL    HW227600   0.220   1.062  17.552  0.5072 -0.0104 -0.5999
 5380SOL     OW27601   4.348   3.014   5.605  0.6650  0.2274 -0.2743
 5380SOL    HW127602   4.393   2.936   5.636  0.3606 -0.0696 -0.5969
 5380SOL    HW227603   4.380   3.008   5.515 -1.9780  0.6187 -1.2352
 5381SOL     OW27604   1.194   3.033   2.436  0.1238  1.2344 -0.2523
 5381SOL    HW127605   1.275   2.985   2.457 -0.9453 -0.5999 -0.2712
 5381SOL    HW227606   1.177   3.101   2.501  0.2491 -0.1633  1.2432
 5382SOL     OW27607   3.700   3.179   2.807 -0.0239  0.9027  0.2452
 5382SOL    HW127608   3.619   3.224   2.831 -1.4996 -1.2542 -0.7238
 5382SOL    HW227609   3.760   3.253   2.793  1.6602 -0.4584  0.3098
 5383SOL     OW27610   3.328   3.491  16.217 -0.0630  0.0336 -0.0978
 5383SOL    HW127611   3.395   3.547  16.178 -1.7540  0.1825 -2.7919
 5383SOL    HW227612   3.313   3.430  16.146  1.2106  0.5723 -0.8386
 5384SOL     OW27613   3.904   1.262   3.684  0.1401  0.0805  0.8652
 5384SOL    HW127614   3.813   1.287   3.701  0.0840  0.9775 -0.7379
 5384SOL    HW227615   3.954   1.337   3.714  1.5271 -0.6379  0.3344
 5385SOL     OW27616   3.173   3.397  12.194  0.4024  0.1881 -0.2558
 5385SOL    HW127617   3.170   3.314  12.145  2.3085  0.5930 -1.0124
 5385SOL    HW227618   3.202   3.366  12.280 -1.3330 -0.5963  0.0640
 5386SOL     OW27619   2.376   0.066   5.401 -0.3740  0.3315  0.2977
 5386SOL    HW127620   2.324   0.145   5.385 -0.8621 -0.2036 -0.7976
 5386SOL    HW227621   2.381   0.021   5.316  0.7348 -0.5405  0.8314
 5387SOL     OW27622   3.077   0.520   2.590  0.0917 -0.0927  0.1843
 5387SOL    HW127623   3.052   0.603   2.631  0.3853 -0.0915  0.3619
 5387SOL    HW227624   3.036   0.519   2.504 -0.6066 -2.3403  0.5478
 5388SOL     OW27625   1.307   3.171   5.006  0.4252  0.9517  0.0660
 5388SOL    HW127626   1.361   3.092   5.001 -1.4665 -0.2583 -1.6205
 5388SOL    HW227627   1.335   3.209   4.923 -1.3517 -0.1236 -1.0345
 5389SOL     OW27628   2.174   4.547   6.815 -0.1577  0.3738 -0.1616
 5389SOL    HW127629   2.167   4.556   6.720 -2.1430 -1.1242 -0.1485
 5389SOL    HW227630   2.082   4.529   6.834 -0.0169 -1.3799 -1.1897
 5390SOL     OW27631   0.394   0.670   5.902 -0.0174 -0.6994 -0.1789
 5390SOL    HW127632   0.339   0.592   5.898  0.6395 -1.1713 -0.0175
 5390SOL    HW227633   0.327   0.737   5.915  1.5238  0.4364  1.8867
 5391SOL     OW27634   0.546   2.082   1.631 -0.1336  0.3108  0.3925
 5391SOL    HW127635   0.639   2.095   1.652 -0.2179  0.4235  0.6924
 5391SOL    HW227636   0.516   2.056   1.718 -0.8991  1.4563  0.4675
 5392SOL     OW27637   2.086   2.297   4.265 -0.4005  0.1844 -0.2819
 5392SOL    HW127638   2.001   2.253   4.262  1.5624 -3.6921  0.1945
 5392SOL    HW227639   2.091   2.326   4.174 -0.8666  0.6310 -0.1679
 5393SOL     OW27640   2.725   0.707   2.745  0.0473  0.4937 -0.4582
 5393SOL    HW127641   2.650   0.664   2.702 -0.7447  1.9159 -0.4952
 5393SOL    HW227642   2.685   0.794   2.746  1.6182  1.2062  0.5629
 5394SOL     OW27643   4.220   2.495   8.681 -0.6600 -0.3050  0.3221
 5394SOL    HW127644   4.171   2.575   8.700 -0.9577 -0.9464  2.2844
 5394SOL    HW227645   4.254   2.523   8.597  0.1378 -0.7230  0.5078
 5395SOL     OW27646   2.254   2.682   0.393  0.5393 -0.0966  0.5167
 5395SOL    HW127647   2.305   2.658   0.316  0.0368  1.7718 -0.4033
 5395SOL    HW227648   2.204   2.755   0.355 -0.5054 -0.0592  1.9457
 5396SOL     OW27649   1.588   0.956   7.888  0.4050  0.0129  0.3362
 5396SOL    HW127650   1.613   1.034   7.839  0.0018  0.1971  0.4278
 5396SOL    HW227651   1.515   0.922   7.836  0.1089  0.4479  0.4751
 5397SOL     OW27652   0.972   1.484  10.545  0.6066  0.1186  0.1983
 5397SOL    HW127653   0.980   1.395  10.580  0.5636  0.3482  0.7836
 5397SOL    HW227654   1.032   1.476  10.471  1.5560 -1.2763  1.1267
 5398SOL     OW27655   1.890   2.721   7.263  0.3295  0.0345  0.2289
 5398SOL    HW127656   1.857   2.667   7.191 -0.5472  1.0340 -0.1163
 5398SOL    HW227657   1.822   2.784   7.285  0.3670 -0.3087  1.3364
 5399SOL     OW27658   3.725   2.028   5.745  0.1222  0.1303  0.0301
 5399SOL    HW127659   3.712   1.937   5.717 -3.2405 -0.2303  2.7616
 5399SOL    HW227660   3.803   2.047   5.693  0.9254 -2.9189  0.1256
 5400SOL     OW27661   3.223   0.899   8.179 -0.0672  0.5311 -0.1167
 5400SOL    HW127662   3.259   0.839   8.113 -0.7535 -0.9319  0.8301
 5400SOL    HW227663   3.162   0.959   8.135 -0.9252 -0.5250 -0.3924
 5401SOL     OW27664   0.166   0.881   1.593 -0.2331 -0.3181 -0.2500
 5401SOL    HW127665   0.256   0.907   1.574 -0.8146  3.0021  1.6189
 5401SOL    HW227666   0.131   0.966   1.620 -0.8130 -0.8519  0.6721
 5402SOL     OW27667   3.431   2.374  11.043 -0.1139 -0.5357 -0.0501
 5402SOL    HW127668   3.488   2.316  11.093  0.6785  0.1675 -0.1310
 5402SOL    HW227669   3.356   2.394  11.098  1.0733  3.2702  0.2001
 5403SOL     OW27670   3.132   2.705   6.025  0.5939  0.2670  0.0901
 5403SOL    HW127671   3.216   2.690   6.068  1.1474  0.1549 -1.0255
 5403SOL    HW227672   3.099   2.616   6.026 -0.7342  0.7761  0.9767
 5404SOL     OW27673   1.542   0.658  10.445  0.2399 -0.0087 -0.1486
 5404SOL    HW127674   1.572   0.749  10.450 -0.0604  0.0853 -0.0227
 5404SOL    HW227675   1.619   0.607  10.469  0.6837  1.1696  0.9356
 5405SOL     OW27676   4.025   2.277   5.188 -0.5445  0.0777  0.6767
 5405SOL    HW127677   4.054   2.366   5.169 -1.0838  0.4777  1.7302
 5405SOL    HW227678   4.028   2.242   5.099 -3.6072 -0.7831  0.9409
 5406SOL     OW27679   0.772   1.557   5.580  0.0049 -0.8353 -0.0153
 5406SOL    HW127680   0.825   1.583   5.656  0.3250 -1.0731 -0.1567
 5406SOL    HW227681   0.810   1.619   5.518  0.8684 -2.2088 -0.8467
 5407SOL     OW27682   2.319   4.363   8.377 -0.2736 -0.3168  0.3685
 5407SOL    HW127683   2.309   4.451   8.342  0.3262 -0.5497 -0.3661
 5407SOL    HW227684   2.325   4.371   8.473  0.7017 -1.3987  0.4016
 5408SOL     OW27685   1.441   2.352   2.454 -0.4840 -0.1357 -0.3135
 5408SOL    HW127686   1.470   2.261   2.464  3.6705  1.2780  0.5980
 5408SOL    HW227687   1.471   2.368   2.364  1.2556 -1.8717 -0.0491
 5409SOL     OW27688   2.552   2.212   5.933  0.4760 -0.4879 -0.6444
 5409SOL    HW127689   2.605   2.137   5.958 -1.0583 -1.1688  0.5781
 5409SOL    HW227690   2.585   2.213   5.843 -0.5437  0.6578 -1.0078
 5410SOL     OW27691   1.741   2.955   4.777  1.2414 -0.0899  0.6668
 5410SOL    HW127692   1.700   3.041   4.784 -0.9097 -0.9903 -1.0660
 5410SOL    HW227693   1.820   2.972   4.726  0.6856  1.0211  0.1871
 5411SOL     OW27694   0.328   3.089  13.813  0.0171 -0.2182  0.6955
 5411SOL    HW127695   0.264   3.046  13.757  0.8168  0.3067 -0.6274
 5411SOL    HW227696   0.362   3.160  13.758 -1.3788  0.6571  0.9498
 5412SOL     OW27697   1.503   1.674   4.202  0.1372 -0.2319  0.1148
 5412SOL    HW127698   1.437   1.619   4.159 -0.4355 -0.6419  1.5038
 5412SOL    HW227699   1.546   1.613   4.262  1.4882 -0.8535 -1.4910
 5413SOL     OW27700   2.190   1.234  12.733  0.0279 -0.1357 -0.3833
 5413SOL    HW127701   2.235   1.270  12.657  1.4442 -1.0657 -0.0007
 5413SOL    HW227702   2.207   1.294  12.805 -1.3171  1.6005 -1.5349
 5414SOL     OW27703   3.446   0.525   4.587  0.0313  0.0912  0.3367
 5414SOL    HW127704   3.442   0.449   4.645  1.8935  0.1011  0.4911
 5414SOL    HW227705   3.486   0.478   4.514 -1.6874 -0.4088 -0.2867
 5415SOL     OW27706   1.784   1.963  17.103  0.3085 -0.4158 -0.0945
 5415SOL    HW127707   1.759   2.048  17.066 -0.1887 -0.2156  0.7036
 5415SOL    HW227708   1.806   1.992  17.192 -0.4657 -0.0663 -0.0183
 5416SOL     OW27709   1.687   2.794   7.014 -0.0258 -0.3315  0.4796
 5416SOL    HW127710   1.608   2.834   7.050  0.2347  2.1921 -1.7973
 5416SOL    HW227711   1.692   2.719   7.073  0.8708  0.9273  1.9911
 5417SOL     OW27712   2.714   1.163   0.012  0.2273  0.1197  0.2915
 5417SOL    HW127713   2.773   1.115  17.644 -0.6428 -0.9042  0.2580
 5417SOL    HW227714   2.673   1.088   0.055 -0.8950  0.4354 -0.2212
 5418SOL     OW27715   3.373   1.765  11.719  0.3685 -0.2944  0.3284
 5418SOL    HW127716   3.443   1.778  11.783 -0.2453  0.0102  0.9452
 5418SOL    HW227717   3.314   1.803  11.783  0.8638 -1.3497  1.4196
 5419SOL     OW27718   2.693   1.619   5.039 -0.4551 -0.1556  0.0675
 5419SOL    HW127719   2.771   1.569   5.065  1.1423  1.7891 -0.9836
 5419SOL    HW227720   2.699   1.694   5.098  0.1110 -0.4813  0.4287
 5420SOL     OW27721   4.147   3.455   2.784 -0.7465  0.4377 -0.2758
 5420SOL    HW127722   4.123   3.375   2.737  1.6330  0.1333 -0.9364
 5420SOL    HW227723   4.225   3.481   2.736 -1.3957  0.8915 -1.0826
 5421SOL     OW27724   0.648   2.693  10.564  0.3526 -0.2572 -0.3375
 5421SOL    HW127725   0.638   2.759  10.633  0.2825 -1.9787  1.2857
 5421SOL    HW227726   0.724   2.648  10.600  0.7683  0.8746  0.1956
 5422SOL     OW27727   4.467   3.704   4.866 -0.5047 -0.2593  0.0316
 5422SOL    HW127728   4.555   3.668   4.875 -1.0053 -1.5825 -0.2519
 5422SOL    HW227729   4.441   3.712   4.958  0.3465  0.7108  0.1841
 5423SOL     OW27730   1.967   0.194  12.427 -0.1468 -0.1924 -0.0046
 5423SOL    HW127731   1.954   0.131  12.356  0.7106 -1.4755  0.9589
 5423SOL    HW227732   2.011   0.137  12.491  0.8127  1.2708  0.6198
 5424SOL     OW27733   4.078   2.235  14.552 -0.0083  0.0990 -0.6783
 5424SOL    HW127734   4.046   2.313  14.508  0.1369  1.7272  2.0549
 5424SOL    HW227735   4.172   2.247  14.540 -0.1038  1.9988  0.3775
 5425SOL     OW27736   3.218   3.604   6.371 -0.5751  0.2052  0.5270
 5425SOL    HW127737   3.260   3.624   6.455  1.1548  0.9783 -0.5424
 5425SOL    HW227738   3.164   3.528   6.392 -1.2152  0.4566 -0.1846
 5426SOL     OW27739   3.228   3.250   9.079 -0.4292  0.1473 -0.2945
 5426SOL    HW127740   3.261   3.271   9.165  1.1299 -1.2425 -0.5456
 5426SOL    HW227741   3.138   3.279   9.092  0.2895  1.8965  0.7851
 5427SOL     OW27742   0.737   4.219   9.455  0.7924 -0.8344 -0.2984
 5427SOL    HW127743   0.826   4.208   9.487  0.6822 -1.6504 -0.2857
 5427SOL    HW227744   0.691   4.192   9.535  1.2291  0.4956  0.4093
 5428SOL     OW27745   1.752   1.091   6.214  0.1030 -0.1372  0.1260
 5428SOL    HW127746   1.786   1.020   6.268  0.6497  1.5051  1.9657
 5428SOL    HW227747   1.815   1.163   6.219 -0.1897  0.2554 -1.5960
 5429SOL     OW27748   1.308   4.635   3.594  0.5063 -0.9918  0.1709
 5429SOL    HW127749   1.302   0.006   3.617 -0.5092 -1.2871  1.1099
 5429SOL    HW227750   1.247   4.635   3.521 -0.0875 -2.6111  0.6785
 5430SOL     OW27751   1.118   0.964  12.820  0.6831 -0.6946  0.0081
 5430SOL    HW127752   1.080   1.036  12.769  1.1533 -0.7693 -0.4439
 5430SOL    HW227753   1.193   1.019  12.844  2.2472 -2.6031 -0.5292
 5431SOL     OW27754   2.860   2.542  12.451  0.1867  0.3550 -0.3710
 5431SOL    HW127755   2.767   2.521  12.465  0.3578 -0.4657 -0.4945
 5431SOL    HW227756   2.867   2.617  12.510 -1.1640  0.3705 -0.2288
 5432SOL     OW27757   0.753   1.339   7.513 -0.8017 -0.1295  0.1740
 5432SOL    HW127758   0.828   1.292   7.549  0.3853  1.5846 -0.1037
 5432SOL    HW227759   0.732   1.296   7.430  2.2739  0.9609 -1.1375
 5433SOL     OW27760   4.665   0.381  14.291  0.1278 -0.1886  0.3130
 5433SOL    HW127761   4.605   0.398  14.363 -0.4676 -0.8077 -0.0416
 5433SOL    HW227762   4.606   0.402  14.219  0.2632  1.1665  0.6077
 5434SOL     OW27763   4.419   0.995   0.277 -0.4007  0.9853  0.4882
 5434SOL    HW127764   4.346   0.993   0.215 -0.4486 -0.8600  0.6205
 5434SOL    HW227765   4.415   0.910   0.321  2.0393 -0.1642 -1.5764
 5435SOL     OW27766   2.841   1.018   2.931 -0.6149 -0.3162 -0.3781
 5435SOL    HW127767   2.871   1.090   2.986  0.8754 -0.2871 -1.2197
 5435SOL    HW227768   2.801   0.969   3.002 -1.2827  1.5577  0.5296
 5436SOL     OW27769   1.210   3.696   4.803 -0.2395 -0.2191 -0.2467
 5436SOL    HW127770   1.205   3.785   4.836 -1.5332 -1.3854  2.7067
 5436SOL    HW227771   1.259   3.650   4.872  2.0677 -3.7225 -4.2093
 5437SOL     OW27772   0.539   0.813  15.198 -0.3858  0.1265  0.4645
 5437SOL    HW127773   0.490   0.830  15.117  0.2577 -2.2770 -0.4358
 5437SOL    HW227774   0.526   0.892  15.250 -2.5735  0.0077  0.0659
 5438SOL     OW27775   0.124   0.789   8.122  0.6335  0.4072  0.0219
 5438SOL    HW127776   0.146   0.719   8.062  0.0653 -0.3854  0.7458
 5438SOL    HW227777   0.029   0.792   8.111  0.6348  1.0621  0.1419
 5439SOL     OW27778   4.687   2.717   2.312 -0.7134  0.3220  0.3409
 5439SOL    HW127779   0.011   2.772   2.248 -0.6802  2.0608  1.8920
 5439SOL    HW227780   4.624   2.674   2.254  0.9597 -1.0912 -0.4265
 5440SOL     OW27781   0.271   1.898  10.473  0.5767  0.5391  0.0214
 5440SOL    HW127782   0.249   1.987  10.501 -1.7686 -0.6667  2.0161
 5440SOL    HW227783   0.363   1.909  10.449  0.8934 -2.2567 -0.1242
 5441SOL     OW27784   3.625   1.064   9.992  1.0670  0.4460  0.2242
 5441SOL    HW127785   3.574   1.107   9.923 -2.0371 -1.4136  1.3588
 5441SOL    HW227786   3.710   1.075   9.950  1.5478 -0.2058  1.0472
 5442SOL     OW27787   0.599   3.098   0.261  0.1532  0.4688 -0.3021
 5442SOL    HW127788   0.517   3.090   0.308  0.2379  0.1486 -0.2126
 5442SOL    HW227789   0.580   3.163   0.193 -0.7742  1.0075  0.4640
 5443SOL     OW27790   4.559   4.238  15.766  0.0186  0.4038 -0.3959
 5443SOL    HW127791   4.560   4.146  15.740 -2.2306  0.1587  0.3913
 5443SOL    HW227792   4.634   4.234  15.825  2.1668 -1.6659 -3.2753
 5444SOL     OW27793   0.106   2.699  11.301  0.2705  0.4346 -0.2697
 5444SOL    HW127794   0.121   2.724  11.210  1.3636  1.1880  0.1212
 5444SOL    HW227795   0.072   2.783  11.331  1.3300  0.5406  0.5979
 5445SOL     OW27796   0.422   2.330   0.882 -0.2409 -0.6484  0.5114
 5445SOL    HW127797   0.481   2.299   0.951 -0.6573  0.9560  1.5694
 5445SOL    HW227798   0.401   2.411   0.927  2.4622  0.5215 -0.3251
 5446SOL     OW27799   1.180   3.989   4.810 -0.4497 -0.3505  0.1907
 5446SOL    HW127800   1.147   4.005   4.722 -0.3329  0.1121  0.2284
 5446SOL    HW227801   1.115   4.026   4.870 -0.3682  0.3377 -0.1380
 5447SOL     OW27802   1.610   0.669   8.466  0.1831 -0.2452  0.4555
 5447SOL    HW127803   1.586   0.649   8.557  0.3312 -0.8535  0.3615
 5447SOL    HW227804   1.535   0.711   8.427  1.4616  1.8795  0.2963
 5448SOL     OW27805   2.158   0.836   4.496  0.1887  0.3125 -0.6529
 5448SOL    HW127806   2.181   0.880   4.414  0.6295  0.0446 -0.6741
 5448SOL    HW227807   2.195   0.748   4.489  1.5726  0.9406 -1.1887
 5449SOL     OW27808   2.497   0.173   4.220  0.0239 -0.3158 -0.2502
 5449SOL    HW127809   2.445   0.094   4.204  0.2970 -0.0828 -2.2938
 5449SOL    HW227810   2.425   0.236   4.213  1.6542  1.3866 -1.4243
 5450SOL     OW27811   1.806   0.148   9.771 -0.1591  0.8705 -0.6987
 5450SOL    HW127812   1.861   0.215   9.812 -0.1618  0.1954  0.4146
 5450SOL    HW227813   1.855   0.133   9.690 -0.2870 -0.6066 -0.5019
 5451SOL     OW27814   1.862   3.807   6.502 -0.0614  0.5828  0.1762
 5451SOL    HW127815   1.941   3.782   6.453 -0.5081 -1.7240  0.6237
 5451SOL    HW227816   1.796   3.785   6.437  0.2468 -1.5486  0.5823
 5452SOL     OW27817   1.691   3.848  15.024  0.1841 -0.1543  0.5684
 5452SOL    HW127818   1.653   3.929  14.990 -0.9016  0.0407  2.2764
 5452SOL    HW227819   1.616   3.808  15.067 -0.5875  0.0968 -0.5480
 5453SOL     OW27820   0.542   1.718   8.289 -0.3284 -0.2171 -0.2106
 5453SOL    HW127821   0.559   1.725   8.382 -1.4933  1.8840 -0.1730
 5453SOL    HW227822   0.498   1.633   8.284 -2.4281  0.8013  1.0905
 5454SOL     OW27823   2.020   0.022   5.205  0.4980  0.3923 -0.2456
 5454SOL    HW127824   1.946   4.710   5.156  0.8323  0.0029 -0.4799
 5454SOL    HW227825   2.042   0.102   5.157 -3.4491  1.5626 -0.1335
 5455SOL     OW27826   2.198   0.629   5.665  0.5081  0.0740 -0.1920
 5455SOL    HW127827   2.265   0.684   5.705 -0.0240  1.5431 -1.3061
 5455SOL    HW227828   2.238   0.596   5.585 -0.4351  1.9977 -1.4583
 5456SOL     OW27829   3.185   4.627  17.211 -0.7763  0.2543  0.4077
 5456SOL    HW127830   3.164   4.628  17.304 -2.0574  0.9789  0.1086
 5456SOL    HW227831   3.218   4.716  17.199 -0.0045  0.1512  1.7709
 5457SOL     OW27832   0.679   1.184   7.283  0.0221  0.7993  0.2563
 5457SOL    HW127833   0.678   1.201   7.188 -1.3416 -0.3443  0.0774
 5457SOL    HW227834   0.587   1.191   7.308 -0.5651 -0.3982 -1.5316
 5458SOL     OW27835   2.669   3.716  16.816  0.6691 -0.4003 -0.2966
 5458SOL    HW127836   2.618   3.788  16.852  0.4646 -0.1097 -1.1782
 5458SOL    HW227837   2.718   3.761  16.747  0.9606 -0.6279 -0.2389
 5459SOL     OW27838   0.986   2.169   8.234 -0.1194  0.3764 -0.0417
 5459SOL    HW127839   1.038   2.178   8.314  1.6080 -2.0337 -0.8951
 5459SOL    HW227840   0.901   2.152   8.274  0.3634  0.7590  1.1517
 5460SOL     OW27841   0.799   4.272   4.519  0.2549 -0.1165 -0.6753
 5460SOL    HW127842   0.795   4.285   4.424  0.8136 -0.1054 -0.6943
 5460SOL    HW227843   0.782   4.178   4.523  1.0117 -0.3339 -2.2286
 5461SOL     OW27844   0.450   1.009   4.073 -0.4172 -0.6327  0.1285
 5461SOL    HW127845   0.409   1.095   4.073  4.1587  1.5220  1.3398
 5461SOL    HW227846   0.463   1.000   4.167 -0.4823 -1.6080  0.0453
 5462SOL     OW27847   2.268   2.741   5.487 -0.7477 -0.0136  0.1991
 5462SOL    HW127848   2.319   2.814   5.523 -2.1351  0.1888  1.7398
 5462SOL    HW227849   2.189   2.748   5.539 -1.6265  1.1975 -1.2908
 5463SOL     OW27850   2.247   1.787   3.345  0.0141  0.5489  0.1777
 5463SOL    HW127851   2.211   1.875   3.342 -2.3903 -0.3935  1.7831
 5463SOL    HW227852   2.228   1.758   3.256  1.6849 -0.4033  0.1241
 5464SOL     OW27853   1.731   3.493   9.965  0.1124 -0.0427  0.0276
 5464SOL    HW127854   1.818   3.532   9.976 -0.0809 -0.1490  1.8265
 5464SOL    HW227855   1.715   3.446  10.046  0.0894 -1.3597 -0.7302
 5465SOL     OW27856   1.228   4.622   5.424  0.5692  0.0210 -0.2583
 5465SOL    HW127857   1.244   4.547   5.366 -0.3919 -1.4386  1.3691
 5465SOL    HW227858   1.134   4.612   5.433  1.0896 -2.2188  2.7224
 5466SOL     OW27859   4.614   0.659   1.749 -0.3413  0.9042  0.1144
 5466SOL    HW127860   4.666   0.586   1.781 -1.8017 -0.4324 -0.5608
 5466SOL    HW227861   4.533   0.614   1.724  0.3957 -0.4805  0.2176
 5467SOL     OW27862   0.291   3.576   0.998 -0.1367  0.0010 -0.0187
 5467SOL    HW127863   0.318   3.601   0.909  3.6793  0.0184  1.1194
 5467SOL    HW227864   0.372   3.531   1.024  0.9815  0.4093 -2.6931
 5468SOL     OW27865   2.942   1.419   3.212 -0.3830  0.0533 -0.2472
 5468SOL    HW127866   2.871   1.446   3.154 -0.5426  0.7001  0.2498
 5468SOL    HW227867   2.979   1.504   3.235  0.7881  0.0482 -2.0960
 5469SOL     OW27868   3.443   1.254  12.878 -0.2849 -0.7554  0.2106
 5469SOL    HW127869   3.507   1.233  12.809  0.4759 -1.4779  1.1351
 5469SOL    HW227870   3.507   1.266  12.948  0.9630  0.6392 -1.1527
 5470SOL     OW27871   4.002   2.396   3.615  0.0404  0.6494 -0.2830
 5470SOL    HW127872   4.062   2.462   3.581 -0.2281  0.9747 -0.1316
 5470SOL    HW227873   3.928   2.448   3.647  0.6076  0.9327  0.5493
 5471SOL     OW27874   2.617   4.697   2.387 -0.0275  0.3611  0.0437
 5471SOL    HW127875   2.684   4.657   2.331 -5.4426 -1.7128 -4.9318
 5471SOL    HW227876   2.543   4.643   2.361 -1.2502  2.0821 -0.0531
 5472SOL     OW27877   0.509   0.083   5.633  0.3687  0.1147  0.2123
 5472SOL    HW127878   0.417   0.104   5.650  0.3755  0.8557 -0.6620
 5472SOL    HW227879   0.533   0.152   5.572  0.8870  2.9453  3.5965
 5473SOL     OW27880   1.685   3.173   0.389 -0.2131  0.2276 -0.0202
 5473SOL    HW127881   1.597   3.166   0.351  0.8868 -0.1521 -2.5484
 5473SOL    HW227882   1.670   3.209   0.476 -0.7754 -1.2750  0.5059
 5474SOL     OW27883   4.091   4.371   0.884 -0.9874 -0.6066 -0.0344
 5474SOL    HW127884   3.997   4.374   0.904 -1.3762 -1.7791 -1.7125
 5474SOL    HW227885   4.131   4.365   0.970  1.0409 -0.9482 -1.0062
 5475SOL     OW27886   0.623   3.147  14.135  0.0624  0.4828  0.3528
 5475SOL    HW127887   0.567   3.071  14.122 -0.0232  0.3726  1.3681
 5475SOL    HW227888   0.650   3.150  14.043  0.8025 -0.2104  0.5468
 5476SOL     OW27889   4.427   2.472   7.595 -0.7730 -0.0768 -0.1627
 5476SOL    HW127890   4.507   2.496   7.641  0.2573 -0.1685 -1.9136
 5476SOL    HW227891   4.376   2.552   7.613 -1.9978 -1.3465  1.9982
 5477SOL     OW27892   3.523   3.820   5.866  0.2089  0.3538 -0.4845
 5477SOL    HW127893   3.439   3.776   5.852 -0.9075  1.8602  1.5979
 5477SOL    HW227894   3.584   3.752   5.838 -0.9306 -0.3293 -1.3270
 5478SOL     OW27895   1.191   3.791  11.510 -0.0644 -0.6318 -0.0246
 5478SOL    HW127896   1.264   3.814  11.453 -0.1048  1.1467  0.6249
 5478SOL    HW227897   1.212   3.698  11.519  0.3893 -0.8914 -3.7083
 5479SOL     OW27898   0.450   1.557   7.489  0.1972 -0.5690 -0.7347
 5479SOL    HW127899   0.398   1.513   7.556  1.1266  1.0755  1.0574
 5479SOL    HW227900   0.437   1.649   7.515 -0.0675 -0.4453 -1.2936
 5480SOL     OW27901   0.739   3.299   6.061 -0.0529  1.2536  0.0852
 5480SOL    HW127902   0.806   3.340   6.006  0.0207  1.1246  0.0785
 5480SOL    HW227903   0.787   3.260   6.134 -0.0726  0.3730 -0.3714
 5481SOL     OW27904   3.713   1.553   5.883 -0.1639 -0.2313 -0.1803
 5481SOL    HW127905   3.664   1.487   5.834 -0.1186 -2.1239  2.3399
 5481SOL    HW227906   3.740   1.506   5.961  2.1227  0.5537 -0.5080
 5482SOL     OW27907   2.160   1.989   9.327 -0.6382  0.3280 -0.1854
 5482SOL    HW127908   2.106   1.914   9.301  0.8146 -1.4258  1.8239
 5482SOL    HW227909   2.191   1.966   9.415 -0.3858 -3.2744 -1.2110
 5483SOL     OW27910   0.831   3.926   1.250 -0.2333 -1.0318  0.0459
 5483SOL    HW127911   0.926   3.934   1.263 -0.6243  0.9579  1.7492
 5483SOL    HW227912   0.816   3.978   1.171 -0.0840 -1.7109 -0.4318
 5484SOL     OW27913   2.298   1.495  15.090 -0.3997 -0.2550  0.6701
 5484SOL    HW127914   2.380   1.508  15.137  0.9295 -1.9185 -1.1836
 5484SOL    HW227915   2.297   1.564  15.024  2.4274  1.3780  2.3319
 5485SOL     OW27916   0.092   2.987   6.196  0.2123  0.5892 -0.4463
 5485SOL    HW127917   0.099   3.060   6.135  1.3364  1.6932  0.9958
 5485SOL    HW227918   0.117   2.920   6.132 -1.4195  0.6247 -1.1280
 5486SOL     OW27919   4.015   1.730   7.055  0.4250  0.6049 -0.0293
 5486SOL    HW127920   3.978   1.817   7.037 -0.3957  0.4964  1.1496
 5486SOL    HW227921   3.972   1.716   7.139 -0.4927  0.1260 -0.5697
 5487SOL     OW27922   4.611   2.926   4.244 -0.0157  0.7678  0.0012
 5487SOL    HW127923   4.698   2.963   4.233 -0.0092  0.5425 -0.6865
 5487SOL    HW227924   4.611   2.854   4.182  0.8481 -0.8711  1.9149
 5488SOL     OW27925   3.072   0.426   7.966  0.2087 -0.5226 -0.0519
 5488SOL    HW127926   3.157   0.381   7.963  0.1848 -0.6041  0.4534
 5488SOL    HW227927   3.036   0.378   8.040  1.2795 -0.9372  0.2128
 5489SOL     OW27928   3.609   3.549   2.951 -0.0179  0.2120  0.2713
 5489SOL    HW127929   3.611   3.628   2.897  0.2165  0.4534  0.6282
 5489SOL    HW227930   3.680   3.564   3.014 -0.7903  3.4032  0.3795
 5490SOL     OW27931   1.990   4.152   7.268 -0.1221 -0.6531  0.0563
 5490SOL    HW127932   2.048   4.182   7.199 -0.4720 -0.0975  0.0076
 5490SOL    HW227933   1.928   4.099   7.218 -0.4529  0.7250 -0.9913
 5491SOL     OW27934   2.985   0.887   2.732 -0.1326  0.5086  0.2028
 5491SOL    HW127935   2.915   0.825   2.714  1.4791 -0.9457 -1.0165
 5491SOL    HW227936   2.946   0.936   2.805  0.4416  1.7343 -0.3106
 5492SOL     OW27937   2.684   3.087   5.254  0.3449 -0.2013 -0.7336
 5492SOL    HW127938   2.703   3.138   5.333 -0.2870  0.4054 -0.9677
 5492SOL    HW227939   2.618   3.025   5.286  0.0275  0.4220 -0.1523
 5493SOL     OW27940   3.214   0.372  17.371 -0.7650  0.4243 -0.1483
 5493SOL    HW127941   3.175   0.442  17.424 -1.3158  0.4963 -0.6465
 5493SOL    HW227942   3.271   0.409  17.304 -0.4316  0.0760 -0.0547
 5494SOL     OW27943   2.174   1.821  10.134 -0.2535 -0.2361  0.1568
 5494SOL    HW127944   2.123   1.794  10.058 -0.6875 -0.2124  0.4395
 5494SOL    HW227945   2.257   1.784  10.106  0.0191  1.0979 -0.8326
 5495SOL     OW27946   1.996   4.518   3.792 -0.4622  0.3555 -0.4459
 5495SOL    HW127947   1.907   4.546   3.771 -0.6548  0.2674  0.2488
 5495SOL    HW227948   2.031   4.519   3.703  2.8794  1.5794  0.8812
 5496SOL     OW27949   2.694   0.661   9.397  0.3292 -0.3622  0.4599
 5496SOL    HW127950   2.724   0.587   9.345  1.4895  0.7045 -0.3863
 5496SOL    HW227951   2.703   0.740   9.344 -0.0161 -1.8452 -1.7729
 5497SOL     OW27952   1.138   4.539   3.395  0.5431 -0.2788 -0.0399
 5497SOL    HW127953   1.083   4.488   3.454 -0.2053 -0.4510 -0.8946
 5497SOL    HW227954   1.111   4.499   3.313  0.3246  0.4535 -0.3220
 5498SOL     OW27955   1.378   0.339   5.503 -0.6673  0.1341  0.1433
 5498SOL    HW127956   1.453   0.364   5.448  0.4768 -0.8017  1.2814
 5498SOL    HW227957   1.332   0.423   5.506 -0.6122  0.1860 -0.6126
 5499SOL     OW27958   0.813   1.224   3.337  0.2622 -0.3277  0.1600
 5499SOL    HW127959   0.794   1.225   3.431 -1.9725 -3.3198 -0.2649
 5499SOL    HW227960   0.894   1.275   3.340  1.7488 -2.6115 -1.7307
 5500SOL     OW27961   2.100   3.536   7.957  0.3565 -0.5351 -0.4444
 5500SOL    HW127962   2.044   3.479   7.906  0.6118 -0.3446 -0.9336
 5500SOL    HW227963   2.104   3.501   8.046 -2.0872  1.1496  0.3360
 5501SOL     OW27964   3.333   0.754   6.420  0.6676 -0.0156 -0.0093
 5501SOL    HW127965   3.384   0.815   6.473  2.5843 -2.1204  0.5807
 5501SOL    HW227966   3.368   0.766   6.332  1.2331  0.8820  0.3318
 5502SOL     OW27967   0.000   2.127   4.787 -0.3923 -0.0555  0.1128
 5502SOL    HW127968   0.040   2.062   4.845 -2.6022 -0.7023  0.8875
 5502SOL    HW227969   4.657   2.084   4.732  1.0978 -1.7901 -0.3044
 5503SOL     OW27970   3.323   3.902  14.727  0.5129 -0.7630 -0.3254
 5503SOL    HW127971   3.365   3.817  14.742  0.8133 -0.2656  1.5859
 5503SOL    HW227972   3.394   3.948  14.683 -1.7962  1.8177 -1.3730
 5504SOL     OW27973   0.830   0.621   1.656 -0.3990  0.5092  0.2369
 5504SOL    HW127974   0.765   0.570   1.705 -2.0533  2.0266 -0.3701
 5504SOL    HW227975   0.828   0.705   1.701 -2.1854  0.2588  0.6451
 5505SOL     OW27976   2.448   3.694   7.571  0.3994  0.1957  0.2779
 5505SOL    HW127977   2.522   3.657   7.620 -1.9650 -1.2442  2.7702
 5505SOL    HW227978   2.498   3.733   7.499 -1.7109 -0.2316 -1.3872
 5506SOL     OW27979   3.850   0.019   5.188  0.1397  0.5631 -0.0121
 5506SOL    HW127980   3.841   0.003   5.282 -0.4626  1.4119  0.0762
 5506SOL    HW227981   3.938   0.057   5.180  0.6167 -1.2442 -3.3925
 5507SOL     OW27982   3.329   2.585  14.130 -0.4034 -0.0513 -0.1642
 5507SOL    HW127983   3.371   2.606  14.046 -1.7896 -0.3499 -0.9496
 5507SOL    HW227984   3.396   2.615  14.191 -0.4146 -4.0435  1.7615
 5508SOL     OW27985   0.409   0.943   2.167 -0.2869 -0.4901 -0.0217
 5508SOL    HW127986   0.384   0.856   2.136 -1.5082 -0.5705  1.1872
 5508SOL    HW227987   0.378   0.993   2.092  2.3116  1.3952  0.1476
 5509SOL     OW27988   2.976   1.438  12.782 -0.4658 -0.0900  0.3995
 5509SOL    HW127989   2.994   1.532  12.776  0.7269 -0.3534 -0.1545
 5509SOL    HW227990   3.061   1.398  12.764 -0.4212 -0.3584  1.1916
 5510SOL     OW27991   4.657   3.575  16.071 -0.0474  0.2730  0.3733
 5510SOL    HW127992   4.674   3.628  15.993 -0.1962 -0.4953 -0.1838
 5510SOL    HW227993   4.719   3.595  16.141  0.0799  2.3837 -0.3375
 5511SOL     OW27994   1.223   2.832   4.948  0.6358 -0.3727  0.4912
 5511SOL    HW127995   1.225   2.848   4.854 -1.0407  0.5421  0.6112
 5511SOL    HW227996   1.163   2.757   4.947 -2.6870  2.2904  1.9312
 5512SOL     OW27997   3.377   2.126  15.661  0.3661 -0.1989  0.1055
 5512SOL    HW127998   3.444   2.066  15.695 -0.8382 -1.3741  0.4200
 5512SOL    HW227999   3.357   2.170  15.744  0.3287 -0.4420  0.2252
 5513SOL     OW28000   0.858   3.461  10.462 -0.5632  0.5065 -0.1402
 5513SOL    HW128001   0.913   3.532  10.429 -1.0365  1.3784  0.9450
 5513SOL    HW228002   0.798   3.443  10.390 -0.2245 -0.2583 -0.2310
 5514SOL     OW28003   0.249   0.519   4.545 -0.0916  0.1958  0.7295
 5514SOL    HW128004   0.187   0.592   4.549  0.9679  1.1648 -0.9383
 5514SOL    HW228005   0.331   0.567   4.533  1.4658 -1.6314  4.1141
 5515SOL     OW28006   4.244   0.371   4.952  0.4922 -0.3475  0.1529
 5515SOL    HW128007   4.326   0.412   4.982 -1.2538  3.8630 -0.8220
 5515SOL    HW228008   4.205   0.369   5.040  0.1851 -2.4948 -0.0316
 5516SOL     OW28009   1.955   1.275   2.762  0.3704  0.0502  0.3636
 5516SOL    HW128010   1.989   1.351   2.714 -1.6065  0.8680  0.2758
 5516SOL    HW228011   2.018   1.269   2.833 -1.0698  0.0277  1.6283
 5517SOL     OW28012   3.788   1.369  10.856 -0.0276  0.2893 -0.1622
 5517SOL    HW128013   3.765   1.396  10.767 -3.1630 -0.8179  0.2971
 5517SOL    HW228014   3.706   1.392  10.901 -0.6903 -0.7826 -0.8079
 5518SOL     OW28015   1.889   3.560   1.253  0.3537 -0.3314 -0.0677
 5518SOL    HW128016   1.880   3.467   1.235  3.4557 -0.3964 -1.3711
 5518SOL    HW228017   1.840   3.569   1.335  2.0846  1.9594  0.7451
 5519SOL     OW28018   4.144   1.822  16.783 -0.1186 -0.2447  0.1409
 5519SOL    HW128019   4.186   1.743  16.820 -2.9630 -1.4393  0.8238
 5519SOL    HW228020   4.160   1.814  16.689 -0.3708  3.1280 -0.1824
 5520SOL     OW28021   1.125   3.901  14.362 -0.2944 -0.7345 -0.4949
 5520SOL    HW128022   1.139   3.815  14.403  1.0216  0.6763  2.0642
 5520SOL    HW228023   1.209   3.925  14.322 -0.3796  1.3208  0.5352
 5521SOL     OW28024   0.957   0.830   5.581  0.6936 -0.7403 -0.6078
 5521SOL    HW128025   0.988   0.803   5.668 -0.2237  1.6276  0.4620
 5521SOL    HW228026   0.871   0.790   5.582 -0.8407  2.5549  1.2296
 5522SOL     OW28027   2.672   2.736   0.126  0.0053 -0.2915  0.0914
 5522SOL    HW128028   2.637   2.696   0.047  2.1565  0.4806 -1.2471
 5522SOL    HW228029   2.589   2.773   0.157 -1.0898 -1.7140 -1.1509
 5523SOL     OW28030   0.164   3.256  17.078 -0.4516  0.0141 -0.7512
 5523SOL    HW128031   0.181   3.287  17.167 -0.2621  1.8610 -1.4280
 5523SOL    HW228032   0.071   3.237  17.074 -0.4073 -0.6591  1.6900
 5524SOL     OW28033   4.468   3.819   5.173 -0.6242  0.1074 -0.3652
 5524SOL    HW128034   4.443   3.873   5.248 -0.8723  0.1004 -0.4440
 5524SOL    HW228035   4.530   3.753   5.204 -2.0708 -0.4960  1.2317
 5525SOL     OW28036   0.834   0.695   3.628  0.9418 -0.1048  0.4729
 5525SOL    HW128037   0.825   0.721   3.720 -2.1038 -1.0564  0.4422
 5525SOL    HW228038   0.867   0.606   3.636 -2.4579 -1.1740  2.6725
 5526SOL     OW28039   3.157   2.693   8.367 -0.1221  0.0605  0.1196
 5526SOL    HW128040   3.171   2.696   8.461  0.5030  1.4420 -0.0123
 5526SOL    HW228041   3.098   2.619   8.354 -0.1834  0.1331 -0.0105
 5527SOL     OW28042   0.269   3.668   4.251  0.1982 -0.6216  0.0680
 5527SOL    HW128043   0.268   3.625   4.165  0.1705 -1.1087  0.3092
 5527SOL    HW228044   0.289   3.752   4.211  0.7588 -1.6417 -1.7820
 5528SOL     OW28045   3.844   2.930   4.427 -0.3102 -0.4062 -0.2290
 5528SOL    HW128046   3.765   2.909   4.377  0.3318  0.2797 -1.5173
 5528SOL    HW228047   3.861   3.021   4.402  3.2711 -0.8543  0.5177
 5529SOL     OW28048   0.868   1.730  10.266 -0.1693  0.1033 -0.1211
 5529SOL    HW128049   0.937   1.780  10.310 -1.0598  1.4984 -0.3157
 5529SOL    HW228050   0.915   1.651  10.237  2.3944  1.7515 -0.4633
 5530SOL     OW28051   4.424   2.808   5.790 -0.1335 -0.0901  0.1057
 5530SOL    HW128052   4.407   2.738   5.854 -0.4205  1.1885  1.4246
 5530SOL    HW228053   4.494   2.857   5.832  0.0852 -1.2667  1.1265
 5531SOL     OW28054   4.340   3.561   7.627  0.0377 -0.4812 -0.0311
 5531SOL    HW128055   4.253   3.601   7.621  0.0130 -0.2678  1.5360
 5531SOL    HW228056   4.368   3.579   7.717 -1.0375  0.2286  0.1627
 5532SOL     OW28057   0.568   2.292  16.574 -0.3755  0.0897  0.1467
 5532SOL    HW128058   0.516   2.333  16.505 -0.6055  1.4766  1.1559
 5532SOL    HW228059   0.578   2.202  16.541 -1.1004  0.6305 -1.5450
 5533SOL     OW28060   1.307   3.105   8.417  0.5869  0.2679  0.6282
 5533SOL    HW128061   1.363   3.181   8.403  0.1907  0.5921  0.7911
 5533SOL    HW228062   1.362   3.050   8.362  0.8666  0.3305  0.8438
 5534SOL     OW28063   1.974   2.839   9.722  0.0276 -0.2812  0.1635
 5534SOL    HW128064   2.049   2.787   9.694  1.9632  1.2604  2.4572
 5534SOL    HW228065   2.014   2.926   9.714  0.4652 -0.3796  1.1974
 5535SOL     OW28066   0.996   0.321   6.835  0.2874 -0.1743  0.2626
 5535SOL    HW128067   0.999   0.416   6.844 -3.1068 -0.1260  0.6554
 5535SOL    HW228068   0.975   0.299   6.926  1.8739 -0.2806  0.6104
 5536SOL     OW28069   3.533   0.926   8.560 -0.1962  0.1542  0.1593
 5536SOL    HW128070   3.541   0.947   8.467  1.1172  0.6517  0.3824
 5536SOL    HW228071   3.511   1.012   8.597 -0.6787  0.3272 -0.5308
 5537SOL     OW28072   2.903   1.111   7.933  0.5204  0.6143 -0.3042
 5537SOL    HW128073   2.915   1.035   7.990 -0.7967  2.4001  2.3490
 5537SOL    HW228074   2.829   1.141   7.986  1.5322 -1.9045  2.5404
 5538SOL     OW28075   3.330   2.484   1.430 -0.0932 -0.8909 -0.0504
 5538SOL    HW128076   3.303   2.393   1.444 -1.1761 -0.3883  1.1229
 5538SOL    HW228077   3.261   2.534   1.385  1.1226  0.1901 -0.7247
 5539SOL     OW28078   1.803   0.961   1.985 -0.3459 -0.5768  0.0926
 5539SOL    HW128079   1.727   0.910   2.012 -0.2453 -1.9502 -2.2681
 5539SOL    HW228080   1.869   0.892   1.994  0.1813  0.0684  1.1810
 5540SOL     OW28081   0.451   4.437   7.916  0.2018  0.3565 -0.1025
 5540SOL    HW128082   0.510   4.383   7.864  0.7847  0.9777 -0.0860
 5540SOL    HW228083   0.496   4.519   7.896  0.6109  0.8265  2.7273
 5541SOL     OW28084   0.911   2.714   3.087 -0.1147 -0.1999 -0.1985
 5541SOL    HW128085   0.973   2.783   3.065  0.3273 -0.7822 -0.7887
 5541SOL    HW228086   0.879   2.693   3.000 -2.0149 -0.4170  0.5480
 5542SOL     OW28087   0.875   2.002   9.881 -0.2670 -0.5770  0.1539
 5542SOL    HW128088   0.904   1.965   9.798 -0.0994 -0.9497  0.3756
 5542SOL    HW228089   0.958   2.020   9.925 -0.7073  1.9579 -0.0509
 5543SOL     OW28090   1.389   4.198  11.115 -0.2004 -0.0856 -0.0826
 5543SOL    HW128091   1.383   4.294  11.113 -0.5076 -0.0713  1.5948
 5543SOL    HW228092   1.360   4.182  11.025  1.0339  0.2280 -0.5410
 5544SOL     OW28093   0.639   4.428   4.308 -0.1835  0.7699  0.7440
 5544SOL    HW128094   0.666   4.495   4.246 -1.2131  0.1116 -0.4066
 5544SOL    HW228095   0.544   4.420   4.298 -0.1152 -1.2665  1.8069
 5545SOL     OW28096   2.142   3.505   4.251 -0.6542 -0.0586 -0.0135
 5545SOL    HW128097   2.170   3.523   4.161 -1.3675  2.3208  0.2490
 5545SOL    HW228098   2.185   3.425   4.282 -0.1787 -0.4226 -1.6154
 5546SOL     OW28099   0.766   1.348   2.253 -0.5594 -0.6208 -0.4805
 5546SOL    HW128100   0.836   1.362   2.317 -1.0680  0.7758 -0.2536
 5546SOL    HW228101   0.728   1.267   2.288  0.3936 -1.4090 -1.2805
 5547SOL     OW28102   3.596   4.027  11.454  0.7522  0.3322  0.3662
 5547SOL    HW128103   3.682   3.988  11.462 -0.6417 -2.5872  1.1661
 5547SOL    HW228104   3.543   3.952  11.428 -1.1009  1.9999 -0.7428
 5548SOL     OW28105   1.599   1.755  17.225 -0.3308  0.3049  0.5040
 5548SOL    HW128106   1.653   1.799  17.159 -1.5374 -0.2586 -0.8769
 5548SOL    HW228107   1.540   1.824  17.257  1.4353  1.1627  1.8972
 5549SOL     OW28108   3.531   0.658   8.296 -0.3299 -0.1200  0.1326
 5549SOL    HW128109   3.582   0.735   8.269 -0.2177 -0.7730 -1.5311
 5549SOL    HW228110   3.558   0.606   8.219  0.6248  0.7933 -0.1459
 5550SOL     OW28111   1.747   0.584   2.921  0.1079  0.2868  0.2012
 5550SOL    HW128112   1.679   0.537   2.872  1.3141 -0.2186 -0.9696
 5550SOL    HW228113   1.770   0.639   2.846  0.9859  0.6307  0.7264
 5551SOL     OW28114   2.970   1.709   4.725 -0.5762 -0.4251 -0.2361
 5551SOL    HW128115   3.042   1.684   4.783 -1.3036 -0.5338  0.6129
 5551SOL    HW228116   2.954   1.800   4.752 -0.0966 -0.7881  1.2804
 5552SOL     OW28117   3.842   3.797   5.705 -0.4470 -0.6815  0.6746
 5552SOL    HW128118   3.897   3.784   5.628 -2.9879 -2.4195 -0.8469
 5552SOL    HW228119   3.787   3.719   5.711 -1.6548  0.2191  1.3317
 5553SOL     OW28120   4.195   1.124   3.460 -0.4827  0.1750  0.7125
 5553SOL    HW128121   4.211   1.053   3.398  1.4164  0.8801  0.4007
 5553SOL    HW228122   4.279   1.130   3.505  0.7156 -1.5338 -1.2769
 5554SOL     OW28123   3.198   4.245   5.205 -1.0760  0.3705  0.2382
 5554SOL    HW128124   3.154   4.272   5.285 -1.8154 -1.3941  0.4267
 5554SOL    HW228125   3.283   4.215   5.239 -1.7029 -4.0840 -2.1194
 5555SOL     OW28126   2.364   3.845   2.125  0.1248  0.1562  0.5183
 5555SOL    HW128127   2.414   3.924   2.106 -1.7984  0.7564 -2.0370
 5555SOL    HW228128   2.318   3.874   2.203 -0.0964 -2.0230  1.2000
 5556SOL     OW28129   0.781   3.194   1.951 -0.5466 -0.1738 -0.0017
 5556SOL    HW128130   0.864   3.162   1.987 -0.9741 -2.9556 -1.5644
 5556SOL    HW228131   0.775   3.152   1.866 -0.1551  0.8633 -0.5428
 5557SOL     OW28132   0.495   0.115   4.194  0.0496 -0.0148 -0.3062
 5557SOL    HW128133   0.539   0.032   4.180  2.6716  0.8064  3.0871
 5557SOL    HW228134   0.412   0.088   4.233  0.3137 -1.4317 -0.7493
 5558SOL     OW28135   2.358   2.577   9.830  0.0530 -0.0346 -0.1066
 5558SOL    HW128136   2.322   2.586   9.919 -0.4720  0.5257 -0.3782
 5558SOL    HW228137   2.283   2.573   9.772  1.1967 -1.4635 -1.4598
 5559SOL     OW28138   4.314   2.022  11.827 -0.3529 -0.8000  0.3041
 5559SOL    HW128139   4.219   2.008  11.834 -0.5586 -0.1221 -1.2354
 5559SOL    HW228140   4.343   1.932  11.810  1.5336 -0.2605  0.7367
 5560SOL     OW28141   3.184   1.393   2.348  0.3745 -0.0482 -0.3959
 5560SOL    HW128142   3.213   1.323   2.290  1.2258 -1.8120  2.1485
 5560SOL    HW228143   3.094   1.408   2.319  0.0743 -0.8347  0.1417
 5561SOL     OW28144   2.460   1.717   0.278 -0.1119 -0.0853 -1.2619
 5561SOL    HW128145   2.375   1.678   0.256  0.0979 -1.7223  0.8462
 5561SOL    HW228146   2.518   1.677   0.213  1.3645  0.1460 -0.0818
 5562SOL     OW28147   0.998   1.068  17.073 -0.0145  0.9648 -0.8728
 5562SOL    HW128148   0.975   1.009  17.145  0.4176  0.2852 -1.2866
 5562SOL    HW228149   1.004   1.150  17.122 -0.4675  0.0762  0.6565
 5563SOL     OW28150   1.854   0.867   6.322  0.3278 -0.5219  0.3408
 5563SOL    HW128151   1.932   0.876   6.266 -0.1983  0.8335 -0.1639
 5563SOL    HW228152   1.833   0.774   6.334  0.0615 -0.0344  3.6414
 5564SOL     OW28153   0.423   1.599   5.514 -0.2484 -0.0351  0.1456
 5564SOL    HW128154   0.344   1.550   5.534 -0.8574  1.7851  2.1636
 5564SOL    HW228155   0.488   1.541   5.554 -1.7135 -1.4821  0.4242
 5565SOL     OW28156   1.367   4.085  17.225  0.2226 -0.3903 -0.1237
 5565SOL    HW128157   1.272   4.083  17.235  0.3232 -0.2968  0.9099
 5565SOL    HW228158   1.379   4.079  17.131  0.5403 -0.9562 -0.0426
 5566SOL     OW28159   3.738   0.748  15.702 -0.0816  0.0219  0.5002
 5566SOL    HW128160   3.759   0.832  15.743  1.0027  0.9248 -1.9106
 5566SOL    HW228161   3.805   0.745  15.634  0.9384 -4.3880  1.6885
 5567SOL     OW28162   0.546   2.039   5.617  0.3410  0.6159 -0.1086
 5567SOL    HW128163   0.459   2.016   5.650  0.2485  1.4944  0.2531
 5567SOL    HW228164   0.600   1.995   5.683  0.9201 -1.2296 -1.7996
 5568SOL     OW28165   3.460   3.646   0.720 -0.1932 -0.0917 -0.3880
 5568SOL    HW128166   3.439   3.619   0.631  0.2552 -1.3978 -0.1059
 5568SOL    HW228167   3.444   3.559   0.757  1.1911  0.4513  1.5081
 5569SOL     OW28168   2.846   0.096   4.671  0.2562 -0.4056  0.9093
 5569SOL    HW128169   2.805   0.029   4.725 -0.1662  1.3731  2.8336
 5569SOL    HW228170   2.830   0.060   4.584  2.7622 -0.4509  0.4742
 5570SOL     OW28171   4.234   2.156  13.031  0.5974 -0.1272  0.3251
 5570SOL    HW128172   4.289   2.131  13.105  1.5572  2.0520  0.3357
 5570SOL    HW228173   4.218   2.062  13.018 -2.8006  0.7578 -1.9412
 5571SOL     OW28174   4.694   3.340   5.823  0.4697  0.2242 -0.1730
 5571SOL    HW128175   0.031   3.266   5.807 -1.2925 -1.1612 -0.2297
 5571SOL    HW228176   4.673   3.370   5.734  0.7186 -2.2899 -1.0778
 5572SOL     OW28177   1.941   2.986   2.750 -0.6100  0.1046  0.2423
 5572SOL    HW128178   1.930   2.964   2.843  0.0178  0.8255  0.4795
 5572SOL    HW228179   1.930   3.081   2.745 -2.8480 -0.1047  1.0957
 5573SOL     OW28180   1.987   3.751  13.801 -0.1905  0.6285 -0.4982
 5573SOL    HW128181   1.913   3.706  13.843  0.8334 -0.0960  0.5342
 5573SOL    HW228182   1.941   3.825  13.762  0.0395  1.6473  1.1530
 5574SOL     OW28183   4.624   0.871  14.976 -0.3030  0.4744 -0.2207
 5574SOL    HW128184   4.641   0.804  15.042  2.6797  0.9009 -0.5595
 5574SOL    HW228185   4.596   0.950  15.023 -0.6126  0.1166  0.1993
 5575SOL     OW28186   2.889   3.596   9.480  0.0300 -0.4011  0.0127
 5575SOL    HW128187   2.977   3.579   9.513 -0.1397  0.7431  1.0173
 5575SOL    HW228188   2.916   3.592   9.388 -1.7748 -1.7317 -0.4716
 5576SOL     OW28189   0.994   0.505   7.903 -0.0025  0.1368 -0.1109
 5576SOL    HW128190   0.901   0.508   7.925  0.1799 -0.0583  0.6779
 5576SOL    HW228191   1.030   0.574   7.959 -0.4357  0.5923 -0.4056
 5577SOL     OW28192   4.222   0.686   8.053  0.2603 -0.8006  0.0948
 5577SOL    HW128193   4.284   0.759   8.060  0.7609 -1.3448  1.3878
 5577SOL    HW228194   4.184   0.691   8.140 -0.4762 -0.1898 -0.2626
 5578SOL     OW28195   3.278   2.725   3.298 -0.0308  0.3290  0.1753
 5578SOL    HW128196   3.267   2.762   3.386 -2.8016  0.4880 -0.2604
 5578SOL    HW228197   3.360   2.771   3.276  0.3987 -0.6421 -0.2617
 5579SOL     OW28198   2.362   3.042   0.964 -0.0178 -0.5951  0.0623
 5579SOL    HW128199   2.434   2.979   0.974  0.7870  0.1761 -0.8577
 5579SOL    HW228200   2.332   3.005   0.881  0.5701 -1.5559  0.2797
 5580SOL     OW28201   3.551   2.465   3.790 -0.3682 -0.1026 -0.2434
 5580SOL    HW128202   3.474   2.425   3.749 -1.0908  1.6018 -0.5526
 5580SOL    HW228203   3.520   2.554   3.805  1.3875  0.2271  1.4887
 5581SOL     OW28204   0.204   1.299  13.450  0.2958 -0.0941 -0.1513
 5581SOL    HW128205   0.168   1.220  13.492 -0.2289  0.6666  0.8269
 5581SOL    HW228206   0.195   1.357  13.525 -0.2493 -0.1702 -0.1627
 5582SOL     OW28207   3.961   0.487   3.947  0.2911 -0.2551  0.1076
 5582SOL    HW128208   4.056   0.487   3.940  0.3038 -0.1665  0.2821
 5582SOL    HW228209   3.951   0.582   3.945 -1.9126 -0.4784 -0.4900
 5583SOL     OW28210   3.476   1.094   3.238 -0.4928  0.5847 -0.0831
 5583SOL    HW128211   3.502   1.081   3.329 -0.9572  1.5550  0.1859
 5583SOL    HW228212   3.446   1.184   3.252 -1.9112  0.1744 -0.3849
 5584SOL     OW28213   2.343   0.603  14.813 -0.8834  0.1839 -0.0797
 5584SOL    HW128214   2.249   0.588  14.797 -1.2347  0.7292  1.4499
 5584SOL    HW228215   2.353   0.551  14.892 -3.3383 -1.1114 -0.6094
 5585SOL     OW28216   1.372   3.124   3.357  0.5274  0.0701  0.4898
 5585SOL    HW128217   1.424   3.064   3.304 -0.1484 -0.5106  0.4826
 5585SOL    HW228218   1.328   3.059   3.411  0.7408  0.7829  1.5208
 5586SOL     OW28219   2.866   0.260   2.983  0.2346  0.2437 -0.0612
 5586SOL    HW128220   2.861   0.309   3.066  0.3687  1.9740 -1.0680
 5586SOL    HW228221   2.858   0.332   2.920  1.4989 -0.0915 -0.6009
 5587SOL     OW28222   3.137   1.541  15.468  0.1699 -0.7776  0.3703
 5587SOL    HW128223   3.223   1.572  15.440  0.2091 -2.2948 -1.2098
 5587SOL    HW228224   3.086   1.621  15.481 -1.0204 -1.6580  1.0926
 5588SOL     OW28225   3.272   2.665   1.687  0.2507 -0.1313 -0.0336
 5588SOL    HW128226   3.351   2.718   1.680 -0.3492  0.9306  0.9978
 5588SOL    HW228227   3.246   2.662   1.595 -1.6384 -0.0121  0.4944
 5589SOL     OW28228   0.971   0.946   1.515 -0.4787 -0.0004  0.8219
 5589SOL    HW128229   1.059   0.957   1.552  0.0996 -1.9302  0.0131
 5589SOL    HW228230   0.968   0.851   1.532 -0.0024  0.0322  1.1274
 5590SOL     OW28231   2.040   1.094   2.281  0.0719  0.0948  0.0641
 5590SOL    HW128232   2.120   1.051   2.312  0.0836 -0.2917 -0.5026
 5590SOL    HW228233   1.984   1.067   2.354 -1.6628  0.3725 -1.1934
 5591SOL     OW28234   2.514   4.406   5.951  0.0987 -0.3799 -0.0853
 5591SOL    HW128235   2.604   4.408   5.982  0.3090 -1.2516 -0.6469
 5591SOL    HW228236   2.466   4.385   6.031  0.4890 -0.8327  0.0258
 5592SOL     OW28237   0.614   1.548  11.577 -0.1521 -0.1699  0.3166
 5592SOL    HW128238   0.565   1.629  11.564 -0.6029 -0.2201  1.7658
 5592SOL    HW228239   0.680   1.573  11.511 -0.1318 -1.5534 -0.1960
 5593SOL     OW28240   0.795   0.884   4.675  0.5237 -0.1310 -0.3972
 5593SOL    HW128241   0.836   0.802   4.648 -1.6191 -1.1580 -0.5794
 5593SOL    HW228242   0.855   0.925   4.737  0.3056 -0.3873 -0.0161
 5594SOL     OW28243   1.519   3.487   6.380  0.1817 -0.1533  0.1606
 5594SOL    HW128244   1.490   3.518   6.295 -2.8744 -0.1705  1.1971
 5594SOL    HW228245   1.443   3.468   6.435 -0.1218 -1.3588 -0.6905
 5595SOL     OW28246   4.695   3.148   3.495  0.1538 -0.6661  0.3729
 5595SOL    HW128247   4.642   3.138   3.416 -0.2331 -0.9456  0.6648
 5595SOL    HW228248   4.626   3.107   3.548 -1.3874  0.1482 -0.9942
 5596SOL     OW28249   0.118   0.916  17.572  0.3988  0.0966 -0.1413
 5596SOL    HW128250   0.091   0.837  17.618  0.2697  0.5004  0.4731
 5596SOL    HW228251   0.043   0.927  17.515 -0.9769 -1.0984  1.4511
 5597SOL     OW28252   4.105   1.451   3.899 -0.1799 -0.1739  0.1017
 5597SOL    HW128253   4.143   1.486   3.819 -0.2204 -2.0774 -0.7485
 5597SOL    HW228254   4.052   1.527   3.921  0.7921  0.7551 -0.7833
 5598SOL     OW28255   3.124   2.779   5.757  0.4277 -0.7637  0.4541
 5598SOL    HW128256   3.188   2.850   5.752  0.1360 -0.4166  1.6415
 5598SOL    HW228257   3.140   2.757   5.849  0.2535  1.2063  0.9586
 5599SOL     OW28258   0.009   2.012   4.463  0.2979 -0.2105 -0.0876
 5599SOL    HW128259   0.004   2.053   4.376 -0.7649  0.2517  0.1831
 5599SOL    HW228260   4.641   2.033   4.487  1.7300  1.0312  4.1925
 5600SOL     OW28261   1.095   3.867  10.965  0.0012  0.5239  0.1073
 5600SOL    HW128262   1.090   3.842  11.058 -0.4720  2.0245  0.4898
 5600SOL    HW228263   1.004   3.877  10.939 -1.2224 -1.6875  3.5262
 5601SOL     OW28264   3.939   3.183   5.721  0.2760 -0.2090  0.2263
 5601SOL    HW128265   3.898   3.268   5.738 -2.2727 -1.5500  0.7356
 5601SOL    HW228266   3.937   3.154   5.812 -0.0175 -0.2205  0.2179
 5602SOL     OW28267   4.525   1.501   5.484 -0.2750 -0.3987  0.5042
 5602SOL    HW128268   4.576   1.445   5.542 -1.6860  0.3527  2.4823
 5602SOL    HW228269   4.553   1.586   5.518  1.2932 -1.6162  2.2117
 5603SOL     OW28270   3.651   3.586   5.764  0.2232  0.7961  0.4964
 5603SOL    HW128271   3.636   3.546   5.850 -0.1958 -1.3521 -0.5844
 5603SOL    HW228272   3.710   3.529   5.714 -1.4058 -0.5092  0.0919
 5604SOL     OW28273   4.358   1.549   7.853 -0.2069 -0.2838  0.1529
 5604SOL    HW128274   4.315   1.485   7.910 -1.4656  0.7431  0.3498
 5604SOL    HW228275   4.300   1.571   7.780 -0.1072  1.7617  0.6969
 5605SOL     OW28276   3.991   0.127  10.618  0.3926  0.5382  0.3427
 5605SOL    HW128277   4.058   0.132  10.685 -0.6137  2.4630  1.2063
 5605SOL    HW228278   3.929   0.197  10.640 -1.7563 -0.9794 -0.7750
 5606SOL     OW28279   0.500   1.270   1.251 -0.1040 -0.1403  0.7769
 5606SOL    HW128280   0.498   1.352   1.301 -0.1927  2.4269 -3.4205
 5606SOL    HW228281   0.562   1.225   1.310 -0.1049 -0.8235  0.2500
 5607SOL     OW28282   1.453   4.651   4.042  0.6400 -0.1120 -0.1867
 5607SOL    HW128283   1.467   0.016   4.006  1.4064 -0.5750 -1.0143
 5607SOL    HW228284   1.431   4.683   4.129  0.6565  0.1772 -0.2900
 5608SOL     OW28285   2.318   4.498   8.019  0.1953 -0.3261 -0.1198
 5608SOL    HW128286   2.289   4.540   7.938 -2.6472  0.4959  1.3518
 5608SOL    HW228287   2.413   4.491   8.009  0.0146 -0.2448 -1.9583
 5609SOL     OW28288   2.095   2.365   3.986  0.6637  0.4929  0.3750
 5609SOL    HW128289   2.015   2.348   3.937  1.3159  1.9134 -1.1730
 5609SOL    HW228290   2.127   2.445   3.944 -0.2812 -0.2554 -1.7255
 5610SOL     OW28291   4.362   3.784   7.197 -0.2470  0.1137  0.3942
 5610SOL    HW128292   4.343   3.768   7.104 -0.3189 -0.0284  0.4322
 5610SOL    HW228293   4.291   3.742   7.245 -0.1230  0.7609  1.1313
 5611SOL     OW28294   1.301   2.638   9.459  0.1094  0.1449  0.0419
 5611SOL    HW128295   1.395   2.633   9.470 -0.0854  2.5391  2.6346
 5611SOL    HW228296   1.272   2.546   9.458  1.3607 -0.2678  3.1406
 5612SOL     OW28297   0.580   3.904   3.625  1.0784  0.0246  0.0034
 5612SOL    HW128298   0.559   3.903   3.532 -0.2950  0.3727  0.3027
 5612SOL    HW228299   0.674   3.916   3.632  1.0983  1.4582 -2.9683
 5613SOL     OW28300   0.368   4.669  12.797 -0.3217  0.1243  0.0333
 5613SOL    HW128301   0.329   0.020  12.846  2.2080  1.5745 -0.1286
 5613SOL    HW228302   0.453   4.658  12.840 -0.4753  1.5852  0.7440
 5614SOL     OW28303   1.616   4.393  16.037 -0.1512  0.5667  0.1023
 5614SOL    HW128304   1.597   4.415  16.129 -1.0497  1.2153 -0.2443
 5614SOL    HW228305   1.707   4.362  16.040 -0.5392 -0.5189  0.9266
 5615SOL     OW28306   2.950   1.903   5.683  0.3259 -0.7705  0.0594
 5615SOL    HW128307   2.905   1.917   5.766 -1.1465  2.8588 -1.3481
 5615SOL    HW228308   3.042   1.885   5.704 -0.1045 -1.0003  1.7586
 5616SOL     OW28309   2.983   3.155   7.225  0.6427  0.3670  0.0276
 5616SOL    HW128310   2.925   3.198   7.288 -1.5463 -0.6938 -1.2594
 5616SOL    HW228311   2.919   3.089   7.197 -0.2725  0.8601  0.9628
 5617SOL     OW28312   4.720   3.380   7.551  0.2894 -0.2233  0.5894
 5617SOL    HW128313   0.063   3.439   7.514  0.1309 -0.4882 -0.1080
 5617SOL    HW228314   4.641   3.420   7.515  1.0996  0.5109 -0.3858
 5618SOL     OW28315   1.012   2.286   6.794  0.0423 -0.3806 -0.3277
 5618SOL    HW128316   0.962   2.206   6.776  1.4733 -1.0503 -1.3116
 5618SOL    HW228317   1.094   2.250   6.826  0.0225 -3.2457 -3.5297
 5619SOL     OW28318   1.815   2.915  13.702  0.1590  0.5396  0.0985
 5619SOL    HW128319   1.899   2.959  13.715 -0.3736  0.8927  2.2626
 5619SOL    HW228320   1.793   2.887  13.790 -0.9751 -0.9234 -0.6594
 5620SOL     OW28321   1.933   1.668   6.304 -0.1960 -0.1162  0.2121
 5620SOL    HW128322   1.856   1.683   6.359  0.8366  4.0989  0.5070
 5620SOL    HW228323   1.976   1.602   6.359  1.9168  0.9047 -0.2237
 5621SOL     OW28324   0.777   2.967   4.375  0.4129  0.2351 -0.4190
 5621SOL    HW128325   0.832   2.972   4.453 -1.0605 -3.4526  0.8410
 5621SOL    HW228326   0.841   2.934   4.312 -1.8862 -3.7132 -0.6614
 5622SOL     OW28327   3.408   2.218   1.936 -0.1727 -0.3314  0.0822
 5622SOL    HW128328   3.471   2.148   1.954  1.5134  0.9444 -0.7506
 5622SOL    HW228329   3.444   2.225   1.847 -0.3843  1.2599  0.1159
 5623SOL     OW28330   4.627   0.775   9.577 -0.3085 -0.7889 -0.0108
 5623SOL    HW128331   4.670   0.750   9.496 -1.2678 -1.3235 -0.3526
 5623SOL    HW228332   4.559   0.708   9.582 -1.9723  0.9349  0.6115
 5624SOL     OW28333   0.908   1.968   8.062 -0.2910  0.8077 -0.5059
 5624SOL    HW128334   0.995   1.940   8.034 -0.9222 -0.1802 -1.5119
 5624SOL    HW228335   0.934   2.040   8.119 -1.1204 -0.9246  2.0587
 5625SOL     OW28336   2.203   3.681   7.025  0.0880  0.2646 -0.2486
 5625SOL    HW128337   2.208   3.622   7.101 -0.8101  2.3911  1.4817
 5625SOL    HW228338   2.252   3.760   7.046  0.3015  0.0326  0.1277
 5626SOL     OW28339   0.962   2.736  13.498 -0.3395 -0.1587  0.1367
 5626SOL    HW128340   0.882   2.771  13.460  0.0835 -0.5092 -1.0691
 5626SOL    HW228341   0.973   2.799  13.569  3.3552 -2.1546  1.3469
 5627SOL     OW28342   3.150   3.954  17.411  0.5440  0.8990 -0.2499
 5627SOL    HW128343   3.075   3.966  17.469  1.0730  1.1508  0.3839
 5627SOL    HW228344   3.217   3.999  17.462  2.7377 -1.6904 -0.8425
 5628SOL     OW28345   2.985   2.117   6.893 -0.1327 -0.2982  0.0863
 5628SOL    HW128346   3.068   2.130   6.940 -0.4399  3.6851 -0.4326
 5628SOL    HW228347   2.936   2.069   6.960 -0.6367  1.8443  1.2496
 5629SOL     OW28348   2.983   0.186   6.164 -0.1484 -0.4974 -0.5867
 5629SOL    HW128349   2.924   0.111   6.165 -1.4544  0.5481  1.9538
 5629SOL    HW228350   2.922   0.259   6.159 -1.5770 -1.5397  1.5669
 5630SOL     OW28351   1.606   2.683   8.236 -0.2529 -0.0036 -0.3096
 5630SOL    HW128352   1.602   2.591   8.261  2.2957 -0.0252  0.0015
 5630SOL    HW228353   1.671   2.714   8.299  1.2344  1.7573 -2.7021
 5631SOL     OW28354   3.219   3.836  16.198  0.3985  0.2151  0.0871
 5631SOL    HW128355   3.143   3.812  16.145 -0.2045 -0.0953  1.0865
 5631SOL    HW228356   3.176   3.822  16.283 -1.3892 -0.4981 -0.9389
 5632SOL     OW28357   1.198   2.405   2.829 -0.1618  0.5319  0.1631
 5632SOL    HW128358   1.286   2.375   2.805 -1.3476 -2.5474 -0.4387
 5632SOL    HW228359   1.214   2.427   2.920  0.2449 -0.7241  0.3960
 5633SOL     OW28360   3.960   1.262   5.382 -0.4794 -0.8842  0.0696
 5633SOL    HW128361   3.902   1.268   5.458  1.4882 -0.6301  1.5520
 5633SOL    HW228362   3.898   1.239   5.313  1.4223  0.9885 -2.2836
 5634SOL     OW28363   2.131   0.255   0.160  0.1177 -0.1727  0.2657
 5634SOL    HW128364   2.224   0.249   0.139 -0.0967 -0.0502 -0.6854
 5634SOL    HW228365   2.122   0.348   0.183 -0.6990 -0.1305 -0.2340
 5635SOL     OW28366   3.890   0.218   7.333 -0.0604  0.2373  0.2721
 5635SOL    HW128367   3.906   0.296   7.279  1.0024  0.7602  1.3621
 5635SOL    HW228368   3.973   0.173   7.316 -1.1419 -0.3106 -3.7188
 5636SOL     OW28369   1.282   4.611  15.621 -0.1662  0.6125  0.2667
 5636SOL    HW128370   1.363   4.661  15.618 -0.0256  0.2614 -1.6348
 5636SOL    HW228371   1.220   4.672  15.662  1.1259  1.2052  1.3264
 5637SOL     OW28372   1.227   0.920   4.643  0.2938 -0.2989  0.2246
 5637SOL    HW128373   1.205   0.999   4.593 -2.9414 -1.7075 -0.5185
 5637SOL    HW228374   1.182   0.850   4.597 -0.6889  0.3386  0.2183
 5638SOL     OW28375   0.945   2.132  12.281 -0.2012  0.4209  0.4303
 5638SOL    HW128376   0.950   2.054  12.336 -1.1583  0.2077  0.2134
 5638SOL    HW228377   0.888   2.189  12.332 -0.4854  0.5965 -0.0767
 5639SOL     OW28378   1.359   3.641   8.053 -0.0368 -0.6470  0.2967
 5639SOL    HW128379   1.351   3.696   8.132 -0.5075  0.6125 -0.6275
 5639SOL    HW228380   1.454   3.641   8.045 -0.0227 -1.4343  0.4499
 5640SOL     OW28381   2.730   4.174   8.784  0.1115  0.6118  0.8447
 5640SOL    HW128382   2.657   4.149   8.727  1.7129  2.0442 -1.8412
 5640SOL    HW228383   2.715   4.268   8.782  1.4682  0.7898 -0.9610
 5641SOL     OW28384   4.678   1.946   4.177  0.2425 -0.4367  0.1050
 5641SOL    HW128385   4.706   1.905   4.260  0.7945 -0.5233 -0.1204
 5641SOL    HW228386   4.633   1.874   4.134 -0.9467  0.9436 -0.9482
 5642SOL     OW28387   2.721   3.277  14.335 -0.3403 -0.1005  0.0397
 5642SOL    HW128388   2.810   3.248  14.314  0.5309  2.6466 -0.1089
 5642SOL    HW228389   2.675   3.194  14.322 -2.0526  0.5070  2.3220
 5643SOL     OW28390   4.555   4.455   2.342  0.2794  0.0817 -0.3758
 5643SOL    HW128391   4.603   4.465   2.260  1.8417  0.8594  0.6483
 5643SOL    HW228392   4.516   4.542   2.335  0.1149  0.1250  1.1377
 5644SOL     OW28393   1.721   3.589   4.342  0.2738 -0.0551  0.0374
 5644SOL    HW128394   1.751   3.639   4.266  0.2772 -2.7351 -1.7264
 5644SOL    HW228395   1.758   3.641   4.414 -1.0173 -0.0557  0.7058
 5645SOL     OW28396   3.099   1.015   0.033 -0.4015  0.3313  0.2464
 5645SOL    HW128397   3.161   1.020  17.651 -0.1260 -0.6518  0.4137
 5645SOL    HW228398   3.015   0.982   0.000 -1.4578  3.0754  0.2004
 5646SOL     OW28399   3.325   2.162   1.168 -0.4629  0.2699  0.5790
 5646SOL    HW128400   3.397   2.150   1.107 -0.5431  0.9390  0.3462
 5646SOL    HW228401   3.256   2.100   1.142 -0.6475  0.6038  0.2715
 5647SOL     OW28402   1.585   1.916   2.252 -0.0708  0.1967 -0.2551
 5647SOL    HW128403   1.629   1.978   2.194 -4.2189  3.1535 -0.2531
 5647SOL    HW228404   1.639   1.926   2.330 -1.4888  0.9719  0.6286
 5648SOL     OW28405   3.060   2.107   3.251 -0.2312  0.3509 -0.2327
 5648SOL    HW128406   3.026   2.058   3.176 -2.5675  0.0831  0.9942
 5648SOL    HW228407   3.151   2.079   3.238 -0.1977  1.2450 -1.8363
 5649SOL     OW28408   1.684   4.251   4.732  0.9498  0.0314  0.3489
 5649SOL    HW128409   1.592   4.229   4.717  1.0392  1.1459 -1.7546
 5649SOL    HW228410   1.680   4.317   4.801  2.2029  3.5926 -2.9532
 5650SOL     OW28411   0.953   1.530   9.533 -0.1432  0.8217  0.2062
 5650SOL    HW128412   0.940   1.560   9.623 -0.5807 -0.5282  0.5809
 5650SOL    HW228413   0.889   1.581   9.483  0.7810  0.7631 -1.0345
 5651SOL     OW28414   1.925   4.306   7.846 -0.2242 -0.3484  0.1501
 5651SOL    HW128415   2.018   4.304   7.824  0.1440  2.4105  1.4823
 5651SOL    HW228416   1.930   4.387   7.897 -1.7722 -0.3179  0.2411
 5652SOL     OW28417   3.471   0.634  11.235 -0.0069 -0.3147 -0.1652
 5652SOL    HW128418   3.535   0.692  11.275 -0.7461 -0.8635  1.8256
 5652SOL    HW228419   3.513   0.636  11.149  0.5221 -1.4009  0.0602
 5653SOL     OW28420   4.031   1.854  14.696  0.5371  0.0135  0.9103
 5653SOL    HW128421   4.091   1.796  14.744 -1.1363 -2.1312  0.3887
 5653SOL    HW228422   3.947   1.817  14.719  1.5094 -0.3689  3.8320
 5654SOL     OW28423   1.693   0.964   8.447 -0.2879 -0.2137  0.0302
 5654SOL    HW128424   1.678   0.987   8.356 -0.6267  2.0421  0.6339
 5654SOL    HW228425   1.690   0.869   8.447  0.7604 -0.2488 -0.4183
 5655SOL     OW28426   3.061   0.050  11.625 -0.1113 -0.3534  0.1457
 5655SOL    HW128427   3.123   0.114  11.661  1.2541 -1.3244 -0.4811
 5655SOL    HW228428   3.111   4.721  11.562 -0.9559 -1.3906  0.3287
 5656SOL     OW28429   3.967   2.993  14.589 -0.2625  0.0656 -0.0044
 5656SOL    HW128430   3.983   2.899  14.596 -0.6005  0.0221  0.1728
 5656SOL    HW228431   3.877   2.991  14.556  0.8038 -1.2223 -2.8431
 5657SOL     OW28432   3.445   0.239   2.331 -0.6694 -0.0130 -0.1883
 5657SOL    HW128433   3.506   0.273   2.397 -0.5977  0.4515 -0.4954
 5657SOL    HW228434   3.503   0.207   2.263 -0.7032  1.0971 -0.7389
 5658SOL     OW28435   1.733   4.278  10.493 -0.1600 -0.1368  0.1855
 5658SOL    HW128436   1.706   4.202  10.441  0.8746  0.1049 -0.6961
 5658SOL    HW228437   1.791   4.309  10.423 -0.0544  1.4946  1.0093
 5659SOL     OW28438   2.254   1.824   0.644 -0.0258  0.4552  0.6050
 5659SOL    HW128439   2.279   1.915   0.661  0.5435  0.6249 -1.2093
 5659SOL    HW228440   2.209   1.841   0.561  0.7465 -2.3079 -0.3566
 5660SOL     OW28441   2.428   2.250   9.436 -0.5626 -0.1511 -0.0453
 5660SOL    HW128442   2.389   2.165   9.416 -0.4802  0.0714 -1.1891
 5660SOL    HW228443   2.467   2.235   9.522  1.9025 -3.2571 -1.6800
 5661SOL     OW28444   2.203   4.346  10.345 -0.5816 -0.0129 -0.6126
 5661SOL    HW128445   2.212   4.426  10.293 -0.7017  0.0894 -0.4749
 5661SOL    HW228446   2.259   4.370  10.420  1.0884 -0.4264 -1.7341
 5662SOL     OW28447   2.708   1.835   8.611  0.9639 -0.4383  0.2009
 5662SOL    HW128448   2.679   1.752   8.651  0.1752 -0.7060 -0.9271
 5662SOL    HW228449   2.697   1.897   8.683  0.3143  0.3182 -0.5589
 5663SOL     OW28450   3.181   3.731   7.779  0.5526 -0.4613  0.0894
 5663SOL    HW128451   3.090   3.758   7.763  1.1026  0.7749 -0.9264
 5663SOL    HW228452   3.170   3.656   7.837  0.8802  0.3222  1.1778
 5664SOL     OW28453   0.085   1.327   5.386 -0.1212  0.1320  0.6356
 5664SOL    HW128454   0.157   1.273   5.418 -0.5581  0.4769  2.2144
 5664SOL    HW228455   0.021   1.319   5.458 -2.2526 -0.7364 -1.3527
 5665SOL     OW28456   2.377   3.639  11.297  0.3277 -0.2604  0.3246
 5665SOL    HW128457   2.463   3.599  11.310  0.9731  0.9472 -0.2499
 5665SOL    HW228458   2.367   3.704  11.365 -2.2236 -2.3870  1.9808
 5666SOL     OW28459   1.967   2.319  10.537  0.1938 -0.0121  0.6205
 5666SOL    HW128460   1.976   2.393  10.597  1.4183 -1.0193  1.6797
 5666SOL    HW228461   1.897   2.355  10.482 -1.9878 -2.3873  1.8149
 5667SOL     OW28462   3.044   4.404   8.642 -0.0065 -0.2414  0.8295
 5667SOL    HW128463   3.119   4.352   8.614 -0.6390 -0.6493 -0.1217
 5667SOL    HW228464   2.971   4.350   8.610  1.7083 -1.6293 -0.7041
 5668SOL     OW28465   3.944   4.451   7.248 -0.3432 -0.1258  0.3401
 5668SOL    HW128466   3.931   4.356   7.246 -0.0538 -0.1425 -0.4917
 5668SOL    HW228467   3.992   4.463   7.167  0.8254 -2.9618  0.6255
 5669SOL     OW28468   1.471   1.304  13.619 -0.3547  0.0374 -0.3745
 5669SOL    HW128469   1.439   1.339  13.535 -0.0850  0.6723 -0.2107
 5669SOL    HW228470   1.445   1.212  13.610  0.8273 -0.0566 -3.0297
 5670SOL     OW28471   2.520   1.199   5.361  0.2266  0.1542 -1.0193
 5670SOL    HW128472   2.480   1.282   5.338  3.1355  1.2668 -2.0349
 5670SOL    HW228473   2.580   1.183   5.288  1.4615 -2.9361  0.6387
 5671SOL     OW28474   0.557   0.972  14.894 -0.0409  0.5108 -0.1001
 5671SOL    HW128475   0.614   0.984  14.818 -1.8604 -0.2017 -1.5782
 5671SOL    HW228476   0.483   1.018  14.856 -0.9759  0.5560  1.8063
 5672SOL     OW28477   4.718   4.395   4.162 -0.1832  0.5384  0.1837
 5672SOL    HW128478   4.688   4.330   4.098 -1.4113  0.1724  1.1425
 5672SOL    HW228479   4.700   4.478   4.117 -1.2698  0.4432  0.4568
 5673SOL     OW28480   2.237   2.645   7.060 -0.9789 -0.4950  0.6118
 5673SOL    HW128481   2.189   2.566   7.083 -0.0467 -0.9460  0.9768
 5673SOL    HW228482   2.331   2.631   7.060 -1.1083 -1.3693 -0.8855
 5674SOL     OW28483   0.597   0.370   5.780 -0.7453  0.2204 -0.2576
 5674SOL    HW128484   0.675   0.318   5.801 -0.5453  1.2676  1.5881
 5674SOL    HW228485   0.565   0.314   5.709 -0.7629  0.5000 -0.4708
 5675SOL     OW28486   3.148   3.504  12.957  0.2194 -0.3632 -0.4355
 5675SOL    HW128487   3.076   3.513  12.893  0.6305  1.0279 -0.7107
 5675SOL    HW228488   3.221   3.528  12.900  1.6052 -2.5425  0.4346
 5676SOL     OW28489   1.699   1.167   4.162 -0.2609  0.5637  0.3750
 5676SOL    HW128490   1.730   1.212   4.241  0.6058 -0.9745  0.9279
 5676SOL    HW228491   1.680   1.251   4.121  0.2208  0.2930 -0.4148
 5677SOL     OW28492   0.430   1.981   1.856  0.2190 -0.3058 -0.3610
 5677SOL    HW128493   0.431   1.915   1.926  0.1179 -0.5730 -0.6081
 5677SOL    HW228494   0.387   2.055   1.898 -0.8700 -0.5621 -1.0046
 5678SOL     OW28495   4.053   0.026   7.165  0.2276  0.5238  0.3608
 5678SOL    HW128496   4.046   0.089   7.093  1.0475 -0.2685 -0.4115
 5678SOL    HW228497   4.039   4.666   7.119 -1.6117  0.8376  0.3737
 5679SOL     OW28498   3.608   1.183  14.877  0.4788 -0.5479 -0.5988
 5679SOL    HW128499   3.650   1.145  14.799  2.9231  0.9415 -0.0032
 5679SOL    HW228500   3.612   1.103  14.930 -1.1710  0.5877  1.2168
 5680SOL     OW28501   2.057   2.701  10.271 -0.5863 -0.4352  0.3085
 5680SOL    HW128502   2.020   2.671  10.354  0.1792 -1.0455  0.4267
 5680SOL    HW228503   2.124   2.756  10.309 -1.8446  1.5652 -0.3856
 5681SOL     OW28504   0.281   3.845   3.401 -0.6239 -0.1078 -0.2951
 5681SOL    HW128505   0.354   3.879   3.351 -0.5034 -1.3511 -0.9474
 5681SOL    HW228506   0.270   3.753   3.376  1.6922 -0.7231  0.9992
 5682SOL     OW28507   2.682   1.143   8.072  0.7413 -0.4237  0.7514
 5682SOL    HW128508   2.668   1.101   8.157  0.1550 -0.1061  0.8161
 5682SOL    HW228509   2.630   1.083   8.018 -0.0617 -0.5637  1.6671
 5683SOL     OW28510   1.034   2.372  11.326 -0.7147  0.0883 -0.5543
 5683SOL    HW128511   1.101   2.318  11.285  0.9708  1.3933  0.4322
 5683SOL    HW228512   1.002   2.317  11.398  0.7424  0.3101  0.2758
 5684SOL     OW28513   3.553   3.792   2.415  0.0231 -0.0224 -0.2434
 5684SOL    HW128514   3.497   3.868   2.408  0.1994  0.2539  1.2408
 5684SOL    HW228515   3.606   3.793   2.335 -0.2799  0.0012 -0.4443
 5685SOL     OW28516   1.050   1.468   6.381 -0.2813 -0.0093  0.8774
 5685SOL    HW128517   1.028   1.550   6.425  0.7540  0.7326  0.0195
 5685SOL    HW228518   0.959   1.440   6.380 -1.0375  2.5721 -0.8761
 5686SOL     OW28519   2.437   1.530   8.327  0.4583 -0.2430 -0.6542
 5686SOL    HW128520   2.467   1.610   8.285  0.9022 -1.3840 -2.5281
 5686SOL    HW228521   2.483   1.464   8.274 -0.5602 -0.0875 -1.7189
 5687SOL     OW28522   0.213   0.842   3.153  0.2395 -0.1564  0.6972
 5687SOL    HW128523   0.200   0.792   3.073  0.5176  1.6143 -0.4516
 5687SOL    HW228524   0.294   0.881   3.120  0.3011  0.3724  1.4692
 5688SOL     OW28525   2.085   2.612  17.612 -0.3724 -0.6998 -0.0598
 5688SOL    HW128526   2.028   2.687  17.624 -0.0612 -0.4859  0.0788
 5688SOL    HW228527   2.080   2.577   0.010  1.5301 -0.3433  0.1907
 5689SOL     OW28528   2.956   2.251   8.572 -0.4606  0.2768 -0.0371
 5689SOL    HW128529   2.955   2.170   8.521 -0.0712  0.4550 -0.3276
 5689SOL    HW228530   2.865   2.263   8.600 -0.6743  2.7792 -1.8663
 5690SOL     OW28531   2.968   0.036   5.783 -0.0672  0.3032 -0.0974
 5690SOL    HW128532   2.930   0.038   5.870  2.1359  0.9993  0.8551
 5690SOL    HW228533   2.897   0.010   5.724 -0.4405 -1.5946  1.1700
 5691SOL     OW28534   2.139   2.659  15.457 -0.3821 -0.3847 -0.0054
 5691SOL    HW128535   2.082   2.600  15.507 -0.3212 -0.9485 -0.6159
 5691SOL    HW228536   2.203   2.602  15.416  0.2080  0.4337 -0.2255
 5692SOL     OW28537   4.114   3.649   6.793  0.1888  0.1890 -0.0600
 5692SOL    HW128538   4.135   3.595   6.716 -0.9504 -1.2502  0.6597
 5692SOL    HW228539   4.195   3.643   6.844 -2.1404 -0.4771  3.4898
 5693SOL     OW28540   2.876   3.426   6.706 -0.7072  0.1208  0.2496
 5693SOL    HW128541   2.886   3.473   6.788 -0.5020  0.4976  0.0102
 5693SOL    HW228542   2.963   3.386   6.697  0.0652  1.8430  0.1435
 5694SOL     OW28543   0.052   4.337   1.128 -0.0930 -0.1839 -0.5146
 5694SOL    HW128544   0.109   4.319   1.053  1.5394 -1.8128  1.1297
 5694SOL    HW228545   0.098   4.285   1.193  1.5342  1.0051 -0.7215
 5695SOL     OW28546   3.278   1.332   8.027 -0.2239 -0.0331  0.2850
 5695SOL    HW128547   3.316   1.323   8.114  0.5892  0.5021 -0.0136
 5695SOL    HW228548   3.241   1.418   8.045 -0.7907 -0.1265 -0.4194
 5696SOL     OW28549   3.260   3.583   1.090  0.6573 -0.8823  0.4292
 5696SOL    HW128550   3.341   3.581   1.142  0.9267  0.3995  0.0576
 5696SOL    HW228551   3.297   3.576   1.002  0.0711  1.0116  0.0389
 5697SOL     OW28552   3.873   3.105  13.890  0.5898 -0.0210  0.2868
 5697SOL    HW128553   3.812   3.042  13.928  0.5178 -1.2573 -1.8999
 5697SOL    HW228554   3.912   3.134  13.973 -0.1073 -1.5075  1.1314
 5698SOL     OW28555   2.376   3.567   8.108  0.2703  0.3071 -0.4694
 5698SOL    HW128556   2.328   3.551   8.026 -1.4830 -0.8152  0.7660
 5698SOL    HW228557   2.309   3.609   8.163 -0.8662 -1.0002 -0.8437
 5699SOL     OW28558   0.984   3.474   5.167 -0.0336 -0.0748 -0.4761
 5699SOL    HW128559   1.074   3.444   5.181  0.0413  0.1709 -0.4277
 5699SOL    HW228560   0.944   3.391   5.190 -0.0043  0.1530  0.3731
 5700SOL     OW28561   1.007   2.921   5.596  0.1643 -0.1504 -0.5380
 5700SOL    HW128562   0.931   2.977   5.582 -0.0602  0.1007  1.5814
 5700SOL    HW228563   1.072   2.967   5.544 -0.9192  1.2992 -0.6298
 5701SOL     OW28564   3.163   0.492  10.094  0.1620 -0.6208  0.0301
 5701SOL    HW128565   3.208   0.575  10.107 -0.9471 -0.0137  0.0146
 5701SOL    HW228566   3.177   0.438  10.172  0.8413  0.1558  0.4377
 5702SOL     OW28567   4.243   2.645  13.217  0.0212  0.4443 -0.3429
 5702SOL    HW128568   4.285   2.594  13.286 -0.2588  1.3262  0.4839
 5702SOL    HW228569   4.163   2.683  13.254  0.5754  0.4171  0.8757
 5703SOL     OW28570   0.882   3.414   8.549  0.5305  0.2360 -0.0727
 5703SOL    HW128571   0.964   3.418   8.598  1.2220  1.3271 -1.3224
 5703SOL    HW228572   0.865   3.495   8.502 -0.3988 -1.0428 -1.9472
 5704SOL     OW28573   2.545   1.405  10.398 -0.9203 -0.4596  0.1022
 5704SOL    HW128574   2.484   1.380  10.467 -0.8271  0.4032  0.4980
 5704SOL    HW228575   2.494   1.461  10.341  0.6272  0.4331 -0.4050
 5705SOL     OW28576   1.540   4.503   6.035  0.0566  0.6037 -0.3113
 5705SOL    HW128577   1.584   4.580   6.070  0.2948 -0.8495  2.6749
 5705SOL    HW228578   1.540   4.447   6.114 -2.5026 -2.3457 -2.3711
 5706SOL     OW28579   3.628   2.103  16.783 -0.7025  0.0661 -0.0761
 5706SOL    HW128580   3.633   2.070  16.873  1.3967 -0.2745 -0.3166
 5706SOL    HW228581   3.721   2.099  16.761 -0.6793  0.8209 -0.1089
 5707SOL     OW28582   0.482   2.891   7.317  0.4058 -0.0329 -0.4527
 5707SOL    HW128583   0.444   2.899   7.404  0.9305 -3.4427  0.0986
 5707SOL    HW228584   0.437   2.964   7.274  0.5079 -0.6480 -1.5917
 5708SOL     OW28585   0.464   2.271  13.556 -0.4872  0.1811 -0.3009
 5708SOL    HW128586   0.395   2.266  13.622  2.2337 -1.5981  2.4122
 5708SOL    HW228587   0.455   2.183  13.521 -2.3018 -0.1625  1.0464
 5709SOL     OW28588   3.343   4.019   5.095  0.2163 -0.3260  0.5893
 5709SOL    HW128589   3.344   4.109   5.061  0.7388 -0.1326  1.1316
 5709SOL    HW228590   3.435   3.999   5.077  0.5160  3.0339 -1.6489
 5710SOL     OW28591   4.580   0.040   3.547 -0.1976 -0.0980  0.1426
 5710SOL    HW128592   4.669   0.036   3.583  0.7231  1.9202 -1.9074
 5710SOL    HW228593   4.546   4.680   3.581  0.8760 -0.6866 -0.1973
 5711SOL     OW28594   0.791   1.272   4.624  0.1808 -0.9456 -0.3213
 5711SOL    HW128595   0.741   1.339   4.578  0.4091  0.1386  0.9973
 5711SOL    HW228596   0.756   1.198   4.574  1.2083 -1.8657  0.3051
 5712SOL     OW28597   2.316   0.742  13.266  0.2623 -0.2861  0.7475
 5712SOL    HW128598   2.372   0.698  13.330 -0.5592 -2.6225 -0.1214
 5712SOL    HW228599   2.386   0.789  13.220 -0.2942  2.0423  2.3017
 5713SOL     OW28600   4.491   3.973   8.346 -0.0127 -0.4475 -0.3221
 5713SOL    HW128601   4.488   4.026   8.425  0.9547  1.4360 -1.5354
 5713SOL    HW228602   4.512   4.048   8.289  0.9276 -1.1359 -0.8820
 5714SOL     OW28603   2.808   0.206   3.299  0.3359 -0.3075 -0.3830
 5714SOL    HW128604   2.740   0.262   3.262  1.7751  2.8947  1.8069
 5714SOL    HW228605   2.773   0.121   3.273 -0.8844 -0.6632  2.4018
 5715SOL     OW28606   3.402   2.993   7.406 -1.5227 -0.1392  0.7573
 5715SOL    HW128607   3.402   2.904   7.441 -0.2804  0.0123  1.1562
 5715SOL    HW228608   3.407   3.046   7.485 -1.4568  1.1102 -0.0873
 5716SOL     OW28609   2.386   1.394  10.650  0.5914  0.0163  0.0724
 5716SOL    HW128610   2.413   1.479  10.616 -0.9083 -0.2484 -1.7883
 5716SOL    HW228611   2.352   1.422  10.736  2.3095  1.1400  0.3731
 5717SOL     OW28612   0.184   4.126   7.245 -0.0042 -0.3001 -0.5404
 5717SOL    HW128613   0.219   4.037   7.236 -0.7404 -0.6525  0.1487
 5717SOL    HW228614   0.266   4.176   7.255 -0.7993  1.5103 -3.0140
 5718SOL     OW28615   1.927   3.102   7.317 -0.6089  0.4010  0.0784
 5718SOL    HW128616   1.893   3.106   7.228  0.9819  0.5288 -0.5344
 5718SOL    HW228617   1.955   3.193   7.330 -0.4116  0.6969 -2.3398
 5719SOL     OW28618   4.590   1.119   3.306  0.0593  0.2309  0.1410
 5719SOL    HW128619   4.675   1.094   3.341  0.6277  0.5825 -0.9663
 5719SOL    HW228620   4.585   1.208   3.342  0.6057  0.9659 -1.5813
 5720SOL     OW28621   2.500   2.289   5.460 -0.3692 -0.2589 -0.6077
 5720SOL    HW128622   2.425   2.240   5.427 -0.5560  0.1789 -0.8269
 5720SOL    HW228623   2.543   2.325   5.383 -0.5947  0.5200 -0.3628
 5721SOL     OW28624   0.282   0.958   6.793 -0.2849  0.3873 -0.1564
 5721SOL    HW128625   0.276   0.864   6.773 -2.0727  0.8180 -1.6430
 5721SOL    HW228626   0.200   0.997   6.761 -0.5654 -0.6575 -0.7118
 5722SOL     OW28627   2.326   1.539   3.840  0.1119  0.2063 -0.3319
 5722SOL    HW128628   2.277   1.579   3.768 -2.5785 -1.1654  0.7226
 5722SOL    HW228629   2.383   1.613   3.861 -1.7609  1.3592  0.6486
 5723SOL     OW28630   1.270   1.369   8.861  0.0883  0.4773  0.6717
 5723SOL    HW128631   1.278   1.461   8.888 -2.5505  1.0799 -0.6187
 5723SOL    HW228632   1.192   1.337   8.907 -0.3213  1.2386  0.5093
 5724SOL     OW28633   1.314   0.810   1.811 -0.7253  0.6008 -0.4655
 5724SOL    HW128634   1.244   0.805   1.746 -2.4543  0.5916  1.4004
 5724SOL    HW228635   1.376   0.756   1.762 -0.0519 -0.3794  1.4729
 5725SOL     OW28636   4.445   0.596   4.036  0.4558 -0.2311 -0.0870
 5725SOL    HW128637   4.501   0.671   4.058  0.0074  0.2859 -0.7037
 5725SOL    HW228638   4.506   0.525   4.017  0.8425  0.2991 -0.8593
 5726SOL     OW28639   0.278   1.028   1.930  0.0556  0.4047 -0.1825
 5726SOL    HW128640   0.197   0.977   1.926  0.9514 -1.0912  0.5287
 5726SOL    HW228641   0.289   1.050   1.838  0.4870  5.1092  0.9972
 5727SOL     OW28642   0.339   4.457   1.864  0.2268 -0.0348 -0.1435
 5727SOL    HW128643   0.296   4.417   1.788 -2.5240 -0.3791  1.5818
 5727SOL    HW228644   0.403   4.513   1.821  0.4504 -0.1971 -0.0195
 5728SOL     OW28645   0.474   0.393   1.971  0.2649  0.0518 -0.2000
 5728SOL    HW128646   0.398   0.383   1.913  0.0089  1.6845 -0.1604
 5728SOL    HW228647   0.447   0.340   2.046  0.1452  2.0547  1.1765
 5729SOL     OW28648   3.296   0.921  17.505  0.4568  0.4955 -0.2953
 5729SOL    HW128649   3.249   0.984  17.449  1.5745  0.8437 -0.8513
 5729SOL    HW228650   3.368   0.976  17.536  1.9242 -0.6555 -1.6285
 5730SOL     OW28651   0.417   3.836   1.231  0.0550 -0.0099  0.1672
 5730SOL    HW128652   0.489   3.852   1.292 -0.0519  0.7460  0.0897
 5730SOL    HW228653   0.466   3.826   1.149 -1.5560 -2.8548 -0.4593
 5731SOL     OW28654   2.743   1.804   3.235 -0.2804  0.1601  0.1374
 5731SOL    HW128655   2.687   1.739   3.194  0.2339 -0.5653  0.6018
 5731SOL    HW228656   2.687   1.880   3.217 -2.0129 -0.7307  1.8962
 5732SOL     OW28657   0.698   0.521   4.581  0.2246 -0.0632 -0.1799
 5732SOL    HW128658   0.787   0.493   4.557 -0.1444 -0.6213 -0.8851
 5732SOL    HW228659   0.720   0.551   4.669  1.7695 -1.4017 -0.1095
 5733SOL     OW28660   2.188   0.015  10.676  0.1905 -0.4971  0.1402
 5733SOL    HW128661   2.206   0.020  10.770 -1.6075 -1.3083  0.5427
 5733SOL    HW228662   2.109   4.684  10.686  0.7960 -1.4107  0.0209
 5734SOL     OW28663   1.234   3.660  12.950  0.1038 -0.0916 -0.4166
 5734SOL    HW128664   1.325   3.635  12.969  0.3657  1.7589  0.7508
 5734SOL    HW228665   1.185   3.601  13.007  0.6897 -0.4470 -0.2810
 5735SOL     OW28666   2.383   1.825   2.592  0.1861  0.0931 -0.0568
 5735SOL    HW128667   2.357   1.859   2.506  0.3414 -0.6970 -0.4132
 5735SOL    HW228668   2.369   1.733   2.570 -1.4984 -0.1359  1.9418
 5736SOL     OW28669   1.028   3.358   4.840 -0.2441 -0.2546  0.0437
 5736SOL    HW128670   0.967   3.371   4.913  1.1798 -0.0320  1.2018
 5736SOL    HW228671   1.101   3.413   4.869 -0.2474 -0.1679 -0.1153
 5737SOL     OW28672   3.574   3.513   9.674  0.4582 -0.7080 -0.1989
 5737SOL    HW128673   3.667   3.532   9.671  0.8294 -2.4805 -0.0565
 5737SOL    HW228674   3.556   3.584   9.736  0.1284 -1.5662  0.7097
 5738SOL     OW28675   0.873   1.505   8.043 -0.4558  0.2454 -0.6769
 5738SOL    HW128676   0.787   1.473   8.017 -0.9862  1.1067 -0.0069
 5738SOL    HW228677   0.843   1.580   8.095 -0.3085  0.8171 -1.4093
 5739SOL     OW28678   2.611   4.589   8.274  0.7409 -0.1767  0.0472
 5739SOL    HW128679   2.651   4.565   8.358 -1.6967 -0.4285  1.1404
 5739SOL    HW228680   2.575   4.674   8.300 -0.9364 -0.6284 -0.7823
 5740SOL     OW28681   2.606   3.230  17.505 -0.0553  0.1465  0.6663
 5740SOL    HW128682   2.543   3.220  17.433  0.1171  0.3711  0.4863
 5740SOL    HW228683   2.625   3.138  17.526  1.0655  0.4147  0.8168
 5741SOL     OW28684   1.751   1.948   1.084  0.2066  0.5432  0.1011
 5741SOL    HW128685   1.708   1.863   1.075  0.3677  0.4730 -0.0106
 5741SOL    HW228686   1.782   1.949   1.174  1.4484  1.9200 -0.3282
 5742SOL     OW28687   3.761   0.596   4.475 -0.3325  0.5111  0.2575
 5742SOL    HW128688   3.784   0.525   4.535  0.2301 -1.7938 -2.6890
 5742SOL    HW228689   3.691   0.556   4.424 -0.2872 -0.4006  0.9148
 5743SOL     OW28690   2.839   3.454  16.237  0.2082 -0.2414  0.4895
 5743SOL    HW128691   2.880   3.442  16.151 -0.8696 -0.3804  0.0003
 5743SOL    HW228692   2.780   3.379  16.232 -1.3474  1.1150 -1.8534
 5744SOL     OW28693   4.331   1.648   7.548  0.8195  0.0516 -0.0738
 5744SOL    HW128694   4.269   1.653   7.475  0.3784 -3.0575  0.0799
 5744SOL    HW228695   4.323   1.734   7.588 -1.0734  0.0405 -0.4630
 5745SOL     OW28696   0.455   2.542   4.010 -0.2535 -0.1374  0.2904
 5745SOL    HW128697   0.494   2.558   4.097  1.4042 -1.6527 -0.1694
 5745SOL    HW228698   0.511   2.473   3.974  0.0871 -0.0970  0.7393
 5746SOL     OW28699   3.515   2.829   2.421  0.3055  0.0169 -0.3108
 5746SOL    HW128700   3.566   2.909   2.432 -1.4764  0.8021  2.1543
 5746SOL    HW228701   3.583   2.767   2.395 -1.2407 -1.0240 -1.9345
 5747SOL     OW28702   0.847   3.133   8.825  0.4577  0.5864 -0.0138
 5747SOL    HW128703   0.886   3.179   8.750 -0.7825  1.8463  0.1082
 5747SOL    HW228704   0.862   3.039   8.816  1.8227  0.8833 -0.8122
 5748SOL     OW28705   2.357   3.557  10.251  0.0661 -0.5224  0.1269
 5748SOL    HW128706   2.286   3.540  10.189 -1.0082  1.0414  0.9225
 5748SOL    HW228707   2.324   3.515  10.330 -0.2459 -0.9215 -0.2163
 5749SOL     OW28708   3.958   1.184   3.191  0.5349  0.0879  0.6079
 5749SOL    HW128709   3.879   1.145   3.230 -0.2087  1.9103  0.8883
 5749SOL    HW228710   3.937   1.277   3.196  2.1398  0.4481  0.6011
 5750SOL     OW28711   4.576   0.211  10.089  0.1950  0.0092 -0.2310
 5750SOL    HW128712   4.670   0.203  10.073 -0.0620 -0.9630 -1.3026
 5750SOL    HW228713   4.578   0.219  10.184  1.7171  0.3463 -0.2924
 5751SOL     OW28714   0.971   0.244   5.787  0.3784  0.2316  0.4987
 5751SOL    HW128715   0.896   0.188   5.766 -0.3494  1.1372  0.7214
 5751SOL    HW228716   1.021   0.243   5.705  2.4393 -2.6176  1.7947
 5752SOL     OW28717   3.034   0.657   8.769  0.1051 -0.3995 -0.9749
 5752SOL    HW128718   2.987   0.738   8.787  0.9485 -0.5471  1.8145
 5752SOL    HW228719   3.044   0.669   8.674 -0.7020  2.6097 -0.6691
 5753SOL     OW28720   3.050   4.555   7.006  0.5493  0.6419 -0.7501
 5753SOL    HW128721   3.072   4.522   6.919  0.8791  3.0343 -1.5745
 5753SOL    HW228722   3.095   4.496   7.066  1.0056  0.5949 -1.1392
 5754SOL     OW28723   2.349   3.105   4.967 -0.0100 -0.3999  0.1955
 5754SOL    HW128724   2.361   3.068   5.055 -0.4978 -0.0933  0.3887
 5754SOL    HW228725   2.383   3.034   4.913  2.8148  0.1160  1.2609
 5755SOL     OW28726   4.706   1.503  13.350 -0.6295  0.1596  0.5685
 5755SOL    HW128727   4.663   1.438  13.406 -2.1140 -0.2082 -1.0046
 5755SOL    HW228728   0.009   1.573  13.411  0.9844  1.6514 -1.8153
 5756SOL     OW28729   0.723   1.283   6.120  0.2588 -0.6222 -0.2894
 5756SOL    HW128730   0.634   1.258   6.146  0.4257  0.1178  1.0104
 5756SOL    HW228731   0.751   1.337   6.194  0.2615 -0.9627 -0.0378
 5757SOL     OW28732   1.836   2.482   8.858  0.3295  0.2675  0.0991
 5757SOL    HW128733   1.790   2.412   8.904  2.9424 -2.3136 -1.2013
 5757SOL    HW228734   1.876   2.529   8.931  0.8523 -1.9948  1.2897
 5758SOL     OW28735   1.917   1.811   7.204 -0.2384  0.2678  0.1009
 5758SOL    HW128736   1.888   1.888   7.251  0.0529  0.7131 -0.4482
 5758SOL    HW228737   1.829   1.780   7.182 -0.3726  0.0401  0.9525
 5759SOL     OW28738   4.439   1.942   6.084  0.3240 -0.1243 -0.0708
 5759SOL    HW128739   4.520   1.982   6.052  0.6501  0.2925  1.2638
 5759SOL    HW228740   4.383   2.019   6.077 -0.8277 -1.0365 -0.8363
 5760SOL     OW28741   1.822   4.697  15.339 -0.1187  0.1484 -0.3809
 5760SOL    HW128742   1.898   4.639  15.338 -1.0401 -1.0904  1.4854
 5760SOL    HW228743   1.784   4.695  15.427 -0.4651 -0.8367 -0.5529
 5761SOL     OW28744   3.717   1.472   5.089  0.3200 -0.2769 -0.6767
 5761SOL    HW128745   3.760   1.492   5.172  0.7540  0.4916 -1.0899
 5761SOL    HW228746   3.777   1.504   5.022  2.2062 -4.6329 -1.0805
 5762SOL     OW28747   0.979   0.600   6.930 -0.6260 -1.1431 -0.0811
 5762SOL    HW128748   0.988   0.593   7.025 -1.1942 -0.0009  0.0628
 5762SOL    HW228749   0.888   0.627   6.918 -0.3491 -0.0998  0.0888
 5763SOL     OW28750   2.434   2.008   6.350 -0.4223 -0.1937  0.2703
 5763SOL    HW128751   2.347   1.971   6.365 -0.3649 -0.7201 -0.6561
 5763SOL    HW228752   2.498   1.937   6.355  0.3348  0.6021  1.8034
 5764SOL     OW28753   4.475   1.097  11.122 -0.7163  0.5051 -0.0666
 5764SOL    HW128754   4.492   1.042  11.199  2.2322  1.4502 -0.0512
 5764SOL    HW228755   4.551   1.155  11.115  2.5233 -3.7289 -0.6485
 5765SOL     OW28756   0.815   2.390   3.112  0.0370 -0.4591  0.0971
 5765SOL    HW128757   0.891   2.344   3.149 -0.3401 -2.1326 -1.1926
 5765SOL    HW228758   0.862   2.429   3.038 -1.9816 -2.0104 -2.0029
 5766SOL     OW28759   3.275   2.205  14.871  0.5753  0.5605  0.3656
 5766SOL    HW128760   3.229   2.227  14.790  1.4770  0.8233 -0.0718
 5766SOL    HW228761   3.207   2.162  14.924 -0.9411  1.1408 -1.1090
 5767SOL     OW28762   0.956   3.089  10.586 -0.6313  0.0442  0.6867
 5767SOL    HW128763   0.865   3.060  10.590 -0.7064  0.2544  0.4406
 5767SOL    HW228764   0.958   3.096  10.491  1.4439  0.7687  0.7847
 5768SOL     OW28765   3.427   1.219   3.539  0.7999 -0.2238  0.7155
 5768SOL    HW128766   3.351   1.161   3.533  0.8315 -0.1636 -0.1753
 5768SOL    HW228767   3.410   1.264   3.457  0.6992 -0.8708  0.3784
 5769SOL     OW28768   0.766   0.589   4.246 -0.0510  0.2589 -0.3660
 5769SOL    HW128769   0.739   0.539   4.169 -1.6323 -1.7526  1.4588
 5769SOL    HW228770   0.712   0.568   4.323  1.8606 -0.5758  0.7527
 5770SOL     OW28771   1.048   4.372  16.080  0.6193  0.1839  0.1602
 5770SOL    HW128772   1.052   4.286  16.037  0.4642 -0.4899  1.5010
 5770SOL    HW228773   1.053   4.348  16.172  0.1261 -3.1493 -0.6755
 5771SOL     OW28774   1.832   3.967   2.256  0.3747  0.0568 -0.5501
 5771SOL    HW128775   1.871   3.983   2.342 -0.0755 -0.2620 -0.2862
 5771SOL    HW228776   1.752   4.019   2.258  0.6324  0.5220 -2.0097
 5772SOL     OW28777   4.545   0.028   2.397  0.0781 -0.0691  0.6650
 5772SOL    HW128778   4.463   0.035   2.446 -1.1979  0.8356 -1.6209
 5772SOL    HW228779   4.511   0.070   2.318  1.8965 -2.1851 -1.2642
 5773SOL     OW28780   2.509   3.517   2.763  0.4134  0.0558  0.2828
 5773SOL    HW128781   2.545   3.483   2.682 -0.1932  0.7767 -0.2932
 5773SOL    HW228782   2.522   3.442   2.820  2.7271 -0.0798 -0.4303
 5774SOL     OW28783   3.542   2.581   4.610  0.0652 -0.7342  0.0783
 5774SOL    HW128784   3.600   2.527   4.556 -0.7326  0.6066 -2.1088
 5774SOL    HW228785   3.456   2.562   4.572  0.1196 -2.2236  0.7221
 5775SOL     OW28786   1.948   4.022  10.256  0.4527  0.6993  0.9896
 5775SOL    HW128787   1.985   4.094  10.205  2.2141  0.9258  2.5743
 5775SOL    HW228788   1.966   4.050  10.346  0.3589 -0.2076  1.2868
 5776SOL     OW28789   0.751   0.255   2.997  0.5918 -0.2795  0.9868
 5776SOL    HW128790   0.754   0.330   3.057  3.4409  1.8423 -1.8160
 5776SOL    HW228791   0.822   0.288   2.942 -0.7891 -1.1140 -1.2573
 5777SOL     OW28792   0.109   2.732  10.564  0.0600 -0.1330 -0.4460
 5777SOL    HW128793   0.024   2.745  10.522 -0.5389  1.4269  1.2695
 5777SOL    HW228794   0.080   2.738  10.655 -1.7105 -3.1657 -0.7988
 5778SOL     OW28795   2.260   3.539   2.958 -0.4041 -0.2970 -0.2608
 5778SOL    HW128796   2.167   3.562   2.963 -0.2434  0.2773  0.2111
 5778SOL    HW228797   2.278   3.447   2.972 -0.5790 -0.1288  1.0750
 5779SOL     OW28798   0.041   1.974   3.022  0.4145 -0.3322 -0.1209
 5779SOL    HW128799   0.040   1.961   2.927 -1.2209  1.3943 -0.3520
 5779SOL    HW228800   4.671   1.997   3.034  1.4240  3.7597 -0.1558
 5780SOL     OW28801   4.711   1.828   2.356  0.1364  0.7822 -0.4285
 5780SOL    HW128802   0.048   1.866   2.291  1.9753  1.0818  1.4056
 5780SOL    HW228803   4.683   1.747   2.315  0.9317  0.5340 -0.4677
 5781SOL     OW28804   2.799   2.896  11.747 -0.1914  0.3480  0.0130
 5781SOL    HW128805   2.752   2.881  11.830 -2.7015 -1.7865 -1.7761
 5781SOL    HW228806   2.738   2.960  11.710 -2.0492  0.2590  2.8534
 5782SOL     OW28807   0.624   4.563   5.609 -0.0459  0.0232 -0.1125
 5782SOL    HW128808   0.587   4.589   5.525 -0.5323  2.3813  0.8109
 5782SOL    HW228809   0.593   4.643   5.653 -3.3176  0.2193 -2.8635
 5783SOL     OW28810   2.791   2.492   1.355  0.4252 -0.8541  0.1838
 5783SOL    HW128811   2.747   2.461   1.434  1.6965 -0.0689  1.1986
 5783SOL    HW228812   2.759   2.580   1.338 -1.1967 -2.0754 -3.1642
 5784SOL     OW28813   3.923   3.719  15.747  0.1606  0.1956  0.0541
 5784SOL    HW128814   3.995   3.783  15.752  1.5114 -1.1657 -1.9616
 5784SOL    HW228815   3.912   3.706  15.652 -2.1964 -0.2414  0.3915
 5785SOL     OW28816   3.423   1.795   6.836 -0.6073  0.0876 -0.0737
 5785SOL    HW128817   3.505   1.775   6.792  0.3086 -0.4508  1.8831
 5785SOL    HW228818   3.376   1.847   6.771 -1.9647 -0.0052  0.8258
 5786SOL     OW28819   4.584   2.769   2.742  0.3842  0.2566 -1.0327
 5786SOL    HW128820   4.517   2.837   2.743  1.3955  1.2378 -0.7470
 5786SOL    HW228821   4.654   2.811   2.694  1.3830 -1.3316 -0.9812
 5787SOL     OW28822   3.326   0.569   6.702  0.2259  0.3751  0.5931
 5787SOL    HW128823   3.400   0.520   6.667  1.2668  3.5194 -1.6517
 5787SOL    HW228824   3.299   0.505   6.768 -2.3587  0.9016  0.0104
 5788SOL     OW28825   1.580   2.218   0.591  0.0485  0.0727 -0.2411
 5788SOL    HW128826   1.673   2.213   0.613 -0.1570 -2.8282 -0.0469
 5788SOL    HW228827   1.577   2.269   0.511 -1.6219 -1.5328 -1.1842
 5789SOL     OW28828   4.556   2.954  10.740 -0.2115  0.1038 -0.3831
 5789SOL    HW128829   4.601   2.876  10.771  0.0464  0.3763 -0.0735
 5789SOL    HW228830   4.604   2.977  10.660  2.3118  0.9048  1.3726
 5790SOL     OW28831   2.070   0.456  14.108  0.3845 -0.1504  0.3768
 5790SOL    HW128832   2.010   0.428  14.038  0.0266  3.5260 -0.7612
 5790SOL    HW228833   2.058   0.383  14.170 -0.1360  0.4966  1.0334
 5791SOL     OW28834   2.633   2.799  11.439  0.3443 -0.2090  0.1298
 5791SOL    HW128835   2.710   2.743  11.440  0.3467 -0.2247 -0.9795
 5791SOL    HW228836   2.609   2.805  11.347 -1.1777 -0.5708  0.4996
 5792SOL     OW28837   4.483   3.610   0.396  0.2487 -0.8900 -0.0376
 5792SOL    HW128838   4.533   3.624   0.477 -0.1002 -3.2312  0.5748
 5792SOL    HW228839   4.552   3.625   0.331 -0.1354 -2.0167 -0.6925
 5793SOL     OW28840   2.553   2.823   4.793  0.5709  0.1262  0.3101
 5793SOL    HW128841   2.579   2.840   4.702 -0.2119  1.2356  0.2913
 5793SOL    HW228842   2.459   2.804   4.796  0.2464  1.9131  1.5791
 5794SOL     OW28843   0.223   2.820  10.873  0.5813 -0.1644  0.1093
 5794SOL    HW128844   0.265   2.883  10.814  0.8181 -1.1741 -0.7861
 5794SOL    HW228845   0.287   2.810  10.943  0.4917  0.7187  0.3238
 5795SOL     OW28846   3.184   1.304   3.812  0.0979 -0.4852 -0.1839
 5795SOL    HW128847   3.227   1.220   3.823  0.7013 -0.4294 -2.1793
 5795SOL    HW228848   3.145   1.318   3.899  0.2454  1.4572 -0.4114
 5796SOL     OW28849   1.836   4.047   0.925 -0.6592  0.0821  0.6012
 5796SOL    HW128850   1.908   4.061   0.987  0.2349  0.6933 -0.5704
 5796SOL    HW228851   1.808   4.138   0.915  0.5436  0.0715 -2.8586
 5797SOL     OW28852   0.217   0.407   1.859 -0.2134  0.1101 -0.3605
 5797SOL    HW128853   0.220   0.500   1.835  1.0463 -0.2183 -1.4540
 5797SOL    HW228854   0.139   0.410   1.915 -0.0599 -3.0624  0.0349
 5798SOL     OW28855   1.064   0.737   6.710 -0.5952  0.3467 -0.1552
 5798SOL    HW128856   1.046   0.706   6.798  2.5490 -1.6823 -0.2199
 5798SOL    HW228857   1.058   0.831   6.730 -0.7358  0.6212 -1.4901
 5799SOL     OW28858   0.818   3.996  16.939  0.1861  0.2008  0.1888
 5799SOL    HW128859   0.733   4.018  16.900  0.5304 -1.6976 -1.6255
 5799SOL    HW228860   0.886   4.051  16.898 -0.2538  0.1821 -0.5717
 5800SOL     OW28861   3.881   2.684   4.612 -0.4085 -0.1329  0.8171
 5800SOL    HW128862   3.878   2.590   4.629  0.0272 -0.4167 -0.6768
 5800SOL    HW228863   3.964   2.675   4.565 -2.0707  1.7216 -2.3883
 5801SOL     OW28864   4.614   0.163   4.727 -0.8202 -0.6809 -0.3385
 5801SOL    HW128865   4.521   0.141   4.730 -1.2121  1.0755  0.7505
 5801SOL    HW228866   4.620   0.244   4.778  1.5307  0.3486 -2.2438
 5802SOL     OW28867   0.530   3.343   7.637 -0.1147  0.1425 -0.2898
 5802SOL    HW128868   0.481   3.383   7.708  1.5390 -0.2788  1.0756
 5802SOL    HW228869   0.471   3.356   7.562  0.8929  1.6500 -0.8221
 5803SOL     OW28870   4.087   2.193   4.661  1.1292  0.1428 -0.4743
 5803SOL    HW128871   4.148   2.205   4.589  0.1470 -0.0831 -1.3366
 5803SOL    HW228872   4.081   2.097   4.660  1.4808  0.0902  1.7140
 5804SOL     OW28873   3.895   2.004   3.136 -0.3098 -0.1682 -0.5101
 5804SOL    HW128874   3.825   1.972   3.194  2.3738  1.4851  3.6352
 5804SOL    HW228875   3.961   1.978   3.200 -0.7050 -1.2715 -0.5496
 5805SOL     OW28876   0.918   1.987   3.139 -0.1915 -0.3564  0.1717
 5805SOL    HW128877   0.831   1.949   3.126 -0.4792 -0.4865  2.3589
 5805SOL    HW228878   0.940   1.936   3.217 -1.3171 -0.9887  0.0815
 5806SOL     OW28879   1.938   1.130   5.877 -0.3546 -0.2559 -0.2996
 5806SOL    HW128880   2.014   1.130   5.935 -0.0179 -0.3813 -0.7427
 5806SOL    HW228881   1.935   1.040   5.844  1.6173 -0.5095  0.2297
 5807SOL     OW28882   4.418   0.996   2.498  0.2092  0.5550 -0.7134
 5807SOL    HW128883   4.346   0.934   2.486 -1.3561  1.8672  1.8756
 5807SOL    HW228884   4.491   0.934   2.493  0.1717  0.3911  0.9875
 5808SOL     OW28885   1.073   2.938   7.116 -0.5455 -0.1690  0.2384
 5808SOL    HW128886   1.008   2.868   7.112  0.9940 -1.5195 -0.7436
 5808SOL    HW228887   1.147   2.883   7.140  0.4674  1.0882  0.0186
 5809SOL     OW28888   2.431   0.155   2.922  0.3942 -0.0268 -0.0209
 5809SOL    HW128889   2.470   0.227   2.873  3.7211 -0.1396  2.5103
 5809SOL    HW228890   2.341   0.166   2.891 -0.0275 -3.1407  0.0386
 5810SOL     OW28891   0.086   1.801   7.801 -0.1521 -1.2394  0.7745
 5810SOL    HW128892   0.006   1.770   7.843 -2.2971  0.9954 -1.6314
 5810SOL    HW228893   0.104   1.878   7.855 -0.0244 -0.8314  0.1508
 5811SOL     OW28894   2.388   0.821   3.794 -0.8120 -0.5003  0.0122
 5811SOL    HW128895   2.306   0.869   3.805 -0.0156  0.6486  0.9292
 5811SOL    HW228896   2.414   0.817   3.886 -1.8082 -0.6114  0.2922
 5812SOL     OW28897   3.888   2.440   4.894 -0.2441 -0.0123  0.2622
 5812SOL    HW128898   3.841   2.360   4.920  0.6795 -0.3782  0.7781
 5812SOL    HW228899   3.855   2.449   4.805 -1.2167 -1.6657  0.4422
 5813SOL     OW28900   1.925   1.721  11.025 -0.1265  0.0736 -0.2003
 5813SOL    HW128901   1.872   1.795  11.055  2.8824  1.7036  0.9987
 5813SOL    HW228902   2.014   1.731  11.057 -0.7045 -1.4035  1.8718
 5814SOL     OW28903   2.021   0.682   4.206 -0.5425 -0.5558  0.0409
 5814SOL    HW128904   1.960   0.613   4.180 -0.5900 -0.0035 -1.3019
 5814SOL    HW228905   2.104   0.658   4.166 -0.9541 -3.8801  1.1314
 5815SOL     OW28906   1.916   0.523   8.613 -0.2593 -0.1059 -0.3387
 5815SOL    HW128907   1.926   0.561   8.701 -1.4026 -1.3154  0.3264
 5815SOL    HW228908   1.972   0.446   8.623 -1.1192 -0.4427  2.0967
 5816SOL     OW28909   4.058   3.907   7.945 -0.3434  0.0601  0.3242
 5816SOL    HW128910   4.032   3.865   7.863  0.1362  1.6319 -0.6286
 5816SOL    HW228911   4.017   3.993   7.932  0.5343 -0.0691 -3.1664
 5817SOL     OW28912   2.981   3.261   3.983 -0.3236  0.0373 -0.1084
 5817SOL    HW128913   3.040   3.310   3.927 -1.0375  1.7975  0.6770
 5817SOL    HW228914   2.900   3.288   3.940 -0.3665  1.7083  1.0266
 5818SOL     OW28915   0.335   1.964   5.818  0.4609  0.2971 -0.2795
 5818SOL    HW128916   0.324   1.887   5.762  0.3232  1.3103 -1.6430
 5818SOL    HW228917   0.354   1.934   5.907  1.8704 -1.5560 -1.2186
 5819SOL     OW28918   0.031   0.859  17.230  0.7834 -0.1479  0.1393
 5819SOL    HW128919   4.700   0.893  17.302  2.2869  2.5226 -0.0160
 5819SOL    HW228920   4.688   0.871  17.160  1.2745  2.3017  0.0885
 5820SOL     OW28921   0.854   0.389  10.252  0.2987 -0.6786 -0.5760
 5820SOL    HW128922   0.942   0.399  10.216  0.3521 -4.4562 -1.4376
 5820SOL    HW228923   0.891   0.348  10.330 -1.3431  1.0811  1.1413
 5821SOL     OW28924   3.097   1.904   8.292  0.1831 -0.0497 -0.1071
 5821SOL    HW128925   3.037   1.943   8.356 -0.9383 -0.2002 -1.0621
 5821SOL    HW228926   3.180   1.935   8.326  1.3316 -1.7845 -1.3382
 5822SOL     OW28927   3.136   3.095   6.058 -0.2716  0.0317 -0.0019
 5822SOL    HW128928   3.085   3.141   6.124  0.1693  0.9773 -0.3247
 5822SOL    HW228929   3.115   3.140   5.976  2.0979 -1.7030 -1.5956
 5823SOL     OW28930   1.897   3.217   2.889  0.0327 -0.3165  0.3576
 5823SOL    HW128931   1.962   3.244   2.954 -0.6967  1.8786  0.1630
 5823SOL    HW228932   1.885   3.297   2.838  2.5963 -0.2054 -0.0603
 5824SOL     OW28933   3.723   1.218   5.220 -0.4794 -0.2274 -0.1114
 5824SOL    HW128934   3.711   1.301   5.173 -1.3220  0.5444  1.4633
 5824SOL    HW228935   3.644   1.226   5.273  0.0995  0.7531  0.6168
 5825SOL     OW28936   3.384   1.259   2.873  0.2844 -0.1145  0.0687
 5825SOL    HW128937   3.460   1.303   2.911  0.6464 -0.2856 -0.4576
 5825SOL    HW228938   3.304   1.306   2.897  0.6919  0.2577  0.6849
 5826SOL     OW28939   2.787   2.198  16.463  0.6169 -0.1134  0.0793
 5826SOL    HW128940   2.808   2.106  16.443  1.1629  0.2300 -0.9052
 5826SOL    HW228941   2.710   2.212  16.408  1.5080  1.0048 -0.8819
 5827SOL     OW28942   3.220   1.053  11.786  0.1095 -0.3980 -0.4783
 5827SOL    HW128943   3.271   1.062  11.705  0.4566  1.7843 -0.0290
 5827SOL    HW228944   3.153   1.119  11.771 -1.7425 -2.3014 -0.4946
 5828SOL     OW28945   1.221   3.392   7.528 -0.5199 -0.6212 -0.3975
 5828SOL    HW128946   1.246   3.380   7.620  0.4456  1.0452 -0.4248
 5828SOL    HW228947   1.285   3.462   7.510 -1.3710  0.1876 -0.2781
 5829SOL     OW28948   4.264   1.848  11.307  0.2857 -0.3544 -0.0940
 5829SOL    HW128949   4.231   1.918  11.362  0.7942  1.4351 -2.0285
 5829SOL    HW228950   4.335   1.811  11.359 -0.2388 -2.1194 -0.6528
 5830SOL     OW28951   1.558   3.729   3.295 -0.4335  0.2494  0.3113
 5830SOL    HW128952   1.572   3.822   3.278 -0.1545  0.7244  3.2194
 5830SOL    HW228953   1.469   3.715   3.263 -0.0647 -0.4503 -0.4088
 5831SOL     OW28954   2.198   1.543   5.057  0.6464 -0.4956 -0.3836
 5831SOL    HW128955   2.109   1.513   5.039  0.5553 -1.3162  1.4360
 5831SOL    HW228956   2.172   1.622   5.104  1.4336  0.6378 -1.8604
 5832SOL     OW28957   0.352   3.220   8.707 -0.1625  0.1931  0.0654
 5832SOL    HW128958   0.428   3.185   8.660 -0.0682 -0.2975  0.5765
 5832SOL    HW228959   0.376   3.204   8.798 -1.8764  1.1649  0.6745
 5833SOL     OW28960   0.651   0.837  12.565  0.0250  0.0084  0.8777
 5833SOL    HW128961   0.568   0.844  12.519  1.2719 -0.3106 -1.4017
 5833SOL    HW228962   0.707   0.878  12.500 -0.5578 -0.4164  0.1066
 5834SOL     OW28963   0.773   2.958   2.150 -0.1944  0.8383 -0.0098
 5834SOL    HW128964   0.759   2.924   2.061 -1.5353  1.3623  0.0114
 5834SOL    HW228965   0.859   2.999   2.154  0.7752 -1.4949  3.6572
 5835SOL     OW28966   1.847   3.476   5.045 -0.4213  0.3182  0.2819
 5835SOL    HW128967   1.830   3.497   5.137 -1.6093  0.8140 -0.0478
 5835SOL    HW228968   1.941   3.494   5.043 -0.4196  0.4005  1.0190
 5836SOL     OW28969   0.442   2.648  17.659  0.0060 -0.4166 -0.1406
 5836SOL    HW128970   0.534   2.628  17.645  0.0916  2.3960 -3.7620
 5836SOL    HW228971   0.439   2.645   0.063  0.6523  0.4264 -0.0913
 5837SOL     OW28972   1.695   0.726   5.334 -0.3135  0.4390 -0.3154
 5837SOL    HW128973   1.779   0.735   5.289 -0.2821  1.0461 -0.1305
 5837SOL    HW228974   1.710   0.677   5.415  1.2514 -0.5587 -1.2087
 5838SOL     OW28975   0.667   4.119  16.637 -0.1425 -0.1658  0.3260
 5838SOL    HW128976   0.652   4.068  16.558 -4.7136  1.7604  0.0004
 5838SOL    HW228977   0.634   4.202  16.602 -0.6723 -1.5198 -2.3396
 5839SOL     OW28978   1.503   3.650   3.655 -0.1935  0.1320  0.0145
 5839SOL    HW128979   1.493   3.574   3.597 -0.4777  0.3517 -0.2218
 5839SOL    HW228980   1.533   3.616   3.740  1.8917 -0.3147 -0.8926
 5840SOL     OW28981   2.633   2.082   8.382  0.1839  0.4056 -0.5245
 5840SOL    HW128982   2.606   2.043   8.465  1.4917  1.8549  0.5939
 5840SOL    HW228983   2.611   2.174   8.397  1.9718  1.0006 -1.4234
 5841SOL     OW28984   0.737   4.118   3.349 -0.2491  0.1405  0.3439
 5841SOL    HW128985   0.711   4.210   3.359 -0.4643  0.1954 -0.7302
 5841SOL    HW228986   0.820   4.123   3.396  0.1950 -0.6214 -0.3612
 5842SOL     OW28987   1.425   1.893   6.359  0.2190 -0.2172  0.4763
 5842SOL    HW128988   1.394   1.913   6.448  1.5978 -0.8981  1.1086
 5842SOL    HW228989   1.392   1.963   6.303  1.8667  0.2847  0.1326
 5843SOL     OW28990   2.844   2.073   0.005 -0.2474  0.1273  0.8077
 5843SOL    HW128991   2.818   2.052  17.606 -2.1181  0.8732  1.1721
 5843SOL    HW228992   2.938   2.088  17.684 -0.3408  1.4187  1.6596
 5844SOL     OW28993   2.180   1.251  15.101  0.2443  0.0106 -0.1694
 5844SOL    HW128994   2.226   1.335  15.097 -0.8678  0.6320  0.2275
 5844SOL    HW228995   2.243   1.186  15.133 -1.3763 -1.2819  0.3736
 5845SOL     OW28996   1.107   1.437   2.166  0.5180 -0.6748  0.0385
 5845SOL    HW128997   1.163   1.395   2.101  1.5648  0.4505  0.2205
 5845SOL    HW228998   1.094   1.530   2.146 -0.7382 -1.0449 -0.8900
 5846SOL     OW28999   0.175   1.392   1.400 -0.2770 -0.0713 -0.1622
 5846SOL    HW129000   0.188   1.299   1.380 -0.0043  0.1779 -1.1168
 5846SOL    HW229001   0.263   1.428   1.391 -1.5552  2.8446 -0.7013
 5847SOL     OW29002   4.414   2.431  13.035 -0.5770  0.1493 -0.4146
 5847SOL    HW129003   4.410   2.338  13.013 -1.1832  0.0311  0.1728
 5847SOL    HW229004   4.494   2.444  13.085 -0.3808 -2.7505  0.0243
 5848SOL     OW29005   0.634   2.267   5.496  0.1776 -0.0793  0.4247
 5848SOL    HW129006   0.728   2.249   5.495  0.2363  0.2742 -1.0023
 5848SOL    HW229007   0.593   2.192   5.538 -2.2393  1.4300  0.7875
 5849SOL     OW29008   2.426   3.985   7.631 -0.0367  0.4726  0.3656
 5849SOL    HW129009   2.482   3.908   7.644  0.6248  1.0409  0.9371
 5849SOL    HW229010   2.409   4.005   7.723  0.4432  1.4797  0.2350
 5850SOL     OW29011   2.072   2.454   2.940 -0.3520 -0.5269 -0.1625
 5850SOL    HW129012   2.147   2.515   2.935 -0.6144 -0.2092 -0.2143
 5850SOL    HW229013   2.005   2.521   2.930  0.9464  0.7790 -0.2311
 5851SOL     OW29014   1.149   1.464   7.172  0.3226 -0.5495  0.8224
 5851SOL    HW129015   1.202   1.483   7.095 -0.2843  0.7562  0.7278
 5851SOL    HW229016   1.088   1.538   7.175 -2.0119 -2.5272  2.3421
 5852SOL     OW29017   3.212   3.720   5.441  0.0130 -0.0760 -0.2236
 5852SOL    HW129018   3.221   3.682   5.528  3.0902 -0.5246 -0.7171
 5852SOL    HW229019   3.200   3.814   5.450  1.5011  0.1546 -0.6263
 5853SOL     OW29020   1.897   3.392   9.082  0.9655 -0.8686 -0.5538
 5853SOL    HW129021   1.947   3.461   9.125  2.9205 -2.2381 -0.6376
 5853SOL    HW229022   1.835   3.439   9.026  1.0722 -1.8945 -1.5328
 5854SOL     OW29023   0.719   1.161   7.006 -0.9274 -0.0948  0.2445
 5854SOL    HW129024   0.644   1.101   6.999 -1.9362  0.9070  2.8532
 5854SOL    HW229025   0.723   1.193   6.916 -0.4716  0.0255  0.3087
 5855SOL     OW29026   1.002   3.073  10.293  0.2989  0.4927 -0.0232
 5855SOL    HW129027   1.006   3.164  10.265 -2.5217  0.3491 -0.8626
 5855SOL    HW229028   1.096   3.052  10.299  0.3909  1.3226  1.6027
 5856SOL     OW29029   3.200   1.486   0.390 -0.2113 -0.2145  0.3684
 5856SOL    HW129030   3.109   1.473   0.366 -0.1415  0.7611 -0.4489
 5856SOL    HW229031   3.222   1.578   0.371 -0.1380 -0.4119 -0.5023
 5857SOL     OW29032   4.200   2.471  11.340 -0.5586  0.0467  0.0146
 5857SOL    HW129033   4.233   2.440  11.256  1.4927  2.2352  0.0360
 5857SOL    HW229034   4.219   2.565  11.340 -1.7413  0.2922  0.0412
 5858SOL     OW29035   1.385   0.039   7.768  0.2153  0.5396 -0.2954
 5858SOL    HW129036   1.444   4.698   7.727 -1.7634 -1.4538 -0.0566
 5858SOL    HW229037   1.445   0.076   7.833 -0.6217  1.5943 -0.1331
 5859SOL     OW29038   1.507   1.290   3.491  0.0420  0.1522  0.1576
 5859SOL    HW129039   1.555   1.207   3.497 -0.7992 -0.5241 -2.3434
 5859SOL    HW229040   1.476   1.286   3.400  2.3705 -0.5004 -0.5955
 5860SOL     OW29041   1.017   1.472   5.305 -0.1115  0.4003 -0.2339
 5860SOL    HW129042   1.009   1.402   5.370 -0.4530  1.1645  0.5557
 5860SOL    HW229043   0.934   1.456   5.260 -0.2056  0.3751 -0.0512
 5861SOL     OW29044   3.711   4.399   6.370 -0.2498 -0.2700 -0.1215
 5861SOL    HW129045   3.789   4.389   6.425  0.6840 -3.5093 -2.0663
 5861SOL    HW229046   3.725   4.478   6.316 -1.7960 -0.6774 -1.1132
 5862SOL     OW29047   3.507   0.544   3.527 -0.2614 -0.9747  0.2193
 5862SOL    HW129048   3.596   0.560   3.558  0.2062 -0.9427 -1.1137
 5862SOL    HW229049   3.463   0.629   3.535  0.6205 -0.4800 -0.1952
 5863SOL     OW29050   2.941   2.746  16.581  0.1673 -0.1023  0.7376
 5863SOL    HW129051   2.961   2.666  16.532 -1.5612 -0.2156  0.2124
 5863SOL    HW229052   2.847   2.743  16.597 -0.5108  1.4580 -2.9451
 5864SOL     OW29053   0.668   1.841   1.924 -0.3457  0.1223  0.0410
 5864SOL    HW129054   0.629   1.880   1.846  0.6303 -0.5448 -0.7823
 5864SOL    HW229055   0.676   1.750   1.896  0.7426  0.3182 -0.2902
 5865SOL     OW29056   0.019   3.735   8.959  0.3977  0.3204  0.2448
 5865SOL    HW129057   0.067   3.785   8.893  0.5613 -0.5382 -0.2862
 5865SOL    HW229058   0.095   3.714   9.014 -0.9007 -1.5393  1.3460
 5866SOL     OW29059   0.406   3.434  14.027  0.5497  0.1484  0.3617
 5866SOL    HW129060   0.497   3.433  13.998  0.9871 -1.4982  1.7753
 5866SOL    HW229061   0.384   3.527  14.034 -2.2698 -0.4220 -0.6479
 5867SOL     OW29062   0.780   0.232   8.355 -0.5645  0.2007 -0.3379
 5867SOL    HW129063   0.872   0.231   8.380 -0.3000 -1.1581 -1.4184
 5867SOL    HW229064   0.773   0.311   8.301  1.2961 -0.9013 -2.1407
 5868SOL     OW29065   4.648   3.560   1.983 -0.2811 -0.3819 -0.0986
 5868SOL    HW129066   4.599   3.638   1.958  0.3074 -0.7156 -2.2512
 5868SOL    HW229067   0.005   3.602   2.018 -0.8697 -0.6671  1.5738
 5869SOL     OW29068   1.178   0.835  13.866  0.1587 -0.0559 -0.0808
 5869SOL    HW129069   1.133   0.870  13.943 -0.5960  1.0332 -1.0083
 5869SOL    HW229070   1.186   0.913  13.810  0.1357  0.1626  0.2193
 5870SOL     OW29071   0.324   0.856   7.253  0.1697 -0.2036  0.0771
 5870SOL    HW129072   0.279   0.774   7.273 -1.7010  0.4028 -1.6736
 5870SOL    HW229073   0.257   0.922   7.272  0.0817 -0.4057  0.4641
 5871SOL     OW29074   4.682   4.701   4.367 -0.5227 -0.1734 -0.0844
 5871SOL    HW129075   4.668   4.625   4.310  1.8985 -2.4026  2.2751
 5871SOL    HW229076   4.606   4.682   4.423 -0.1703 -0.5315  0.2771
 5872SOL     OW29077   0.329   0.562   9.546 -0.4631 -0.0875  0.0221
 5872SOL    HW129078   0.300   0.640   9.499  1.1981  1.2393  1.1838
 5872SOL    HW229079   0.339   0.602   9.633  1.4457  1.1029 -0.7376
 5873SOL     OW29080   1.046   1.920   9.312 -0.0673  0.4523  0.1125
 5873SOL    HW129081   1.043   1.828   9.285  2.1448 -0.0721  1.6671
 5873SOL    HW229082   1.040   1.957   9.224 -3.7089  2.6054  1.2752
 5874SOL     OW29083   2.605   0.386   7.719 -0.3268  0.0537 -0.1403
 5874SOL    HW129084   2.646   0.469   7.696 -0.3607 -0.0881 -0.7023
 5874SOL    HW229085   2.551   0.409   7.795  1.0598  1.1020  0.5163
 5875SOL     OW29086   4.605   1.732   7.329 -0.5146 -0.4851  0.4920
 5875SOL    HW129087   4.531   1.794   7.330 -1.4751 -1.6493  1.3170
 5875SOL    HW229088   4.621   1.737   7.423  2.5642 -0.2354 -0.0645
 5876SOL     OW29089   4.202   2.721  10.643 -0.2093 -0.4001 -0.5131
 5876SOL    HW129090   4.169   2.765  10.564  0.7940  0.2019 -0.5973
 5876SOL    HW229091   4.146   2.772  10.703 -1.0556  1.9650 -3.2858
 5877SOL     OW29092   2.233   3.068   4.285 -0.9404 -0.0639 -0.5248
 5877SOL    HW129093   2.229   3.133   4.215 -0.8958 -0.2897 -0.7389
 5877SOL    HW229094   2.179   3.122   4.342  0.0325  1.0833 -0.6888
 5878SOL     OW29095   1.774   3.727   4.105 -0.2979 -0.6652 -0.1133
 5878SOL    HW129096   1.699   3.720   4.046  0.6356  1.7813 -1.5651
 5878SOL    HW229097   1.844   3.723   4.041  2.4893  1.0690  2.8032
 5879SOL     OW29098   4.212   1.809   6.231 -0.0919  0.3277  0.0665
 5879SOL    HW129099   4.288   1.782   6.281 -0.8725  0.7872  1.4932
 5879SOL    HW229100   4.245   1.889   6.190 -0.1576 -0.1187 -0.8619
 5880SOL     OW29101   4.451   3.296   5.625 -0.1311 -0.4114  0.2799
 5880SOL    HW129102   4.357   3.316   5.618 -0.4040 -1.6957  0.2709
 5880SOL    HW229103   4.459   3.209   5.665 -1.6355 -1.2730 -1.2946
 5881SOL     OW29104   0.311   2.592   4.659  0.2736  0.4383 -0.0701
 5881SOL    HW129105   0.324   2.576   4.566  1.6830  0.8126  0.0615
 5881SOL    HW229106   0.269   2.508   4.678 -0.0239  0.7782  0.8160
 5882SOL     OW29107   4.534   2.766   0.091 -0.1023  0.1487 -0.1819
 5882SOL    HW129108   4.513   2.800   0.177 -1.2310 -0.1998 -0.3229
 5882SOL    HW229109   4.607   2.711   0.119  0.5291  0.8310 -0.4685
 5883SOL     OW29110   2.978   3.069   3.290  0.1416  0.0430 -0.5480
 5883SOL    HW129111   3.025   3.129   3.348 -1.8689 -1.0786  2.2428
 5883SOL    HW229112   3.051   3.031   3.240  0.1683 -0.9869  0.2745
 5884SOL     OW29113   0.716   4.608   3.016  0.7505  0.0949  0.2504
 5884SOL    HW129114   0.695   4.516   3.000  3.7101 -1.2195  3.6703
 5884SOL    HW229115   0.807   4.602   3.048  1.4857 -2.9363 -2.4688
 5885SOL     OW29116   3.688   3.588   4.808  0.0515 -0.1838  0.1042
 5885SOL    HW129117   3.762   3.530   4.828 -0.3313 -1.0639 -1.0137
 5885SOL    HW229118   3.618   3.534   4.844 -1.8297  1.4856 -1.0888
 5886SOL     OW29119   4.202   0.149  17.261  0.0505  0.0272  0.3702
 5886SOL    HW129120   4.274   0.210  17.277 -0.5940  0.3489  2.0419
 5886SOL    HW229121   4.195   0.126  17.168 -0.9388  2.7925 -0.2330
 5887SOL     OW29122   3.145   3.701   1.884  0.1051  0.3030  0.7079
 5887SOL    HW129123   3.239   3.712   1.865  0.1475 -2.0031 -0.4640
 5887SOL    HW229124   3.154   3.666   1.973 -0.1224 -1.0239  0.1995
 5888SOL     OW29125   2.328   0.418   8.322 -0.1102  0.1953  0.0489
 5888SOL    HW129126   2.248   0.459   8.356 -0.2716 -0.3913  0.3669
 5888SOL    HW229127   2.323   0.449   8.231 -0.2959  0.4013  0.1303
 5889SOL     OW29128   1.510   2.115   5.380 -0.0779  0.0543 -0.0512
 5889SOL    HW129129   1.485   2.024   5.392 -2.2754  0.7096  0.4337
 5889SOL    HW229130   1.582   2.111   5.443 -1.2735  2.4678  1.4834
 5890SOL     OW29131   2.403   1.086   8.434  0.4467  0.1506 -0.3061
 5890SOL    HW129132   2.345   1.157   8.463  1.4798  0.1157  1.8533
 5890SOL    HW229133   2.334   1.029   8.399 -0.7800  1.8724 -0.6847
 5891SOL     OW29134   3.379   1.687   4.703 -0.3517  0.6591 -0.2367
 5891SOL    HW129135   3.383   1.782   4.712 -1.2265  0.3543  3.2849
 5891SOL    HW229136   3.317   1.659   4.770  0.6858  0.2707  0.5496
 5892SOL     OW29137   1.894   2.848   0.038 -0.5840  0.0068  0.1904
 5892SOL    HW129138   1.868   2.883   0.123 -0.4670  2.8175 -0.9446
 5892SOL    HW229139   1.863   2.917  17.671 -1.0371  0.1359  0.5807
 5893SOL     OW29140   4.127   0.546   7.279  0.0241  0.7489  0.4592
 5893SOL    HW129141   4.121   0.478   7.347  2.9187  0.8086  0.7578
 5893SOL    HW229142   4.221   0.536   7.261  0.2671 -1.7326  3.0560
 5894SOL     OW29143   1.194   0.735   8.114  0.1057 -0.2215 -0.6359
 5894SOL    HW129144   1.151   0.821   8.117 -0.4545 -0.4743 -1.3498
 5894SOL    HW229145   1.251   0.742   8.038  1.6239 -1.9922  0.3486
 5895SOL     OW29146   3.631   4.272  14.724 -0.1492  0.4584  0.0519
 5895SOL    HW129147   3.579   4.304  14.798  0.2034 -1.4349  1.1300
 5895SOL    HW229148   3.636   4.351  14.671 -0.6280  0.9828  0.7927
 5896SOL     OW29149   1.819   4.550  13.569 -0.3062  0.2269  0.3714
 5896SOL    HW129150   1.855   4.526  13.655 -2.7839 -2.5711  0.6319
 5896SOL    HW229151   1.839   4.476  13.511  2.2973  0.7313  0.6439
 5897SOL     OW29152   3.660   3.851   2.155  0.3254 -0.5173  0.2457
 5897SOL    HW129153   3.724   3.790   2.117 -0.4464 -0.0947 -1.7200
 5897SOL    HW229154   3.607   3.870   2.078 -1.7846  1.1936  2.1458
 5898SOL     OW29155   2.510   3.113  11.926 -0.3499 -0.3906 -0.3107
 5898SOL    HW129156   2.565   3.142  11.853 -0.9885  1.4092 -0.0932
 5898SOL    HW229157   2.487   3.024  11.901  1.3219 -0.4941 -1.5099
 5899SOL     OW29158   4.105   1.611   6.770 -0.4097  0.4666  0.1785
 5899SOL    HW129159   4.026   1.646   6.812 -1.6255 -3.0234  0.7825
 5899SOL    HW229160   4.135   1.558   6.844 -0.6276  0.4577  0.2623
 5900SOL     OW29161   2.559   3.468  14.244 -0.1452  0.2320  0.0446
 5900SOL    HW129162   2.467   3.440  14.251 -0.0292 -0.4427 -1.0288
 5900SOL    HW229163   2.600   3.392  14.285  3.2576  1.8317 -0.3722
 5901SOL     OW29164   4.378   2.565   8.466  0.5534  0.3491 -0.3720
 5901SOL    HW129165   4.350   2.626   8.399  1.9567 -0.0175 -1.2858
 5901SOL    HW229166   4.391   2.488   8.411 -3.1014  0.2983 -1.1814
 5902SOL     OW29167   1.619   1.047   0.914  0.4027  0.8253  0.1379
 5902SOL    HW129168   1.688   1.043   0.848  0.8956 -1.1978  0.7616
 5902SOL    HW229169   1.546   0.993   0.884  0.5380  0.6771  0.0743
 5903SOL     OW29170   4.062   3.891  15.577  0.3475 -0.2023  0.2637
 5903SOL    HW129171   4.024   3.960  15.633 -2.2442 -1.6430  0.2705
 5903SOL    HW229172   3.988   3.863  15.524  0.5389  1.0028 -0.6443
 5904SOL     OW29173   3.043   0.829   5.612  0.0603  0.1942  0.7993
 5904SOL    HW129174   3.114   0.807   5.552 -2.0891 -1.9778 -0.9473
 5904SOL    HW229175   3.002   0.744   5.631  1.4552 -0.9577 -1.4020
 5905SOL     OW29176   0.668   0.686   7.516 -0.2181  0.0829  0.0132
 5905SOL    HW129177   0.755   0.712   7.488  0.4619 -2.3728 -0.1877
 5905SOL    HW229178   0.685   0.593   7.536  2.3692  0.0577 -2.4048
 5906SOL     OW29179   1.033   0.646  14.589 -0.3206 -0.0048 -0.3672
 5906SOL    HW129180   0.999   0.577  14.647 -1.0294  1.3665  0.8600
 5906SOL    HW229181   1.044   0.608  14.502  1.9298 -0.9571  0.3317
 5907SOL     OW29182   0.323   3.470   0.025  0.6567 -0.4560  0.3496
 5907SOL    HW129183   0.293   3.389   0.067 -0.4038  1.2178  2.8463
 5907SOL    HW229184   0.248   3.494  17.660  0.7212 -1.1090 -0.0145
 5908SOL     OW29185   3.997   2.008  16.485 -0.0364 -0.6220 -0.2578
 5908SOL    HW129186   3.958   2.050  16.409 -1.8312  1.3218  1.7324
 5908SOL    HW229187   3.967   2.057  16.562  1.2947 -0.2923  0.0646
 5909SOL     OW29188   0.082   4.585  15.895  0.2895 -0.3608  0.2626
 5909SOL    HW129189   0.160   4.622  15.853 -0.7581  1.1714 -0.3340
 5909SOL    HW229190   0.108   4.574  15.986 -0.4964 -2.2277  0.2563
 5910SOL     OW29191   1.545   2.881   2.899 -0.1796  0.4808  0.2112
 5910SOL    HW129192   1.602   2.838   2.836  0.8340  0.7155  0.9646
 5910SOL    HW229193   1.504   2.939   2.835 -2.9928 -2.0324 -0.2686
 5911SOL     OW29194   2.816   1.150  15.814 -0.1967  0.0712 -0.2744
 5911SOL    HW129195   2.833   1.191  15.729  0.5319  1.7345  0.6762
 5911SOL    HW229196   2.752   1.084  15.788 -1.6576  0.6856  1.7817
 5912SOL     OW29197   0.611   3.180  15.893 -0.3210 -0.0403  0.5261
 5912SOL    HW129198   0.524   3.142  15.905  0.3397 -1.8537 -0.3758
 5912SOL    HW229199   0.597   3.272  15.914  1.4430  0.6185 -1.1211
 5913SOL     OW29200   0.056   0.514   8.697  0.4199 -0.2900 -0.0523
 5913SOL    HW129201   0.080   0.560   8.617 -0.9513  0.3192 -0.1143
 5913SOL    HW229202   4.687   0.490   8.681 -0.2032  1.1866  1.2298
 5914SOL     OW29203   4.139   3.958   1.905  0.4295  0.2972  0.0842
 5914SOL    HW129204   4.162   4.005   1.985 -0.1303  0.1416  0.3381
 5914SOL    HW229205   4.221   3.948   1.856 -0.4067 -2.0796 -0.8466
 5915SOL     OW29206   4.514   4.308   3.314  0.6888 -0.3403  0.1145
 5915SOL    HW129207   4.527   4.230   3.367 -0.8947  0.1050  1.1839
 5915SOL    HW229208   4.480   4.266   3.235  0.7309 -0.2573  0.0533
 5916SOL     OW29209   2.883   3.938   4.304 -0.2656  0.3355  0.5584
 5916SOL    HW129210   2.931   3.987   4.370 -1.2563 -1.5357  2.6587
 5916SOL    HW229211   2.954   3.927   4.240 -0.2683 -0.5333  0.7142
 5917SOL     OW29212   0.888   0.617   5.812 -0.1101 -1.0454  0.2383
 5917SOL    HW129213   0.862   0.691   5.867 -0.9245 -1.1131 -0.0550
 5917SOL    HW229214   0.917   0.556   5.879  0.2803  0.5377  1.4953
 5918SOL     OW29215   0.322   3.939   4.115 -0.0154 -0.7625  0.3736
 5918SOL    HW129216   0.237   3.926   4.073 -0.3820  0.3063  0.7707
 5918SOL    HW229217   0.372   3.948   4.034 -0.4487 -2.7938 -0.1197
 5919SOL     OW29218   2.277   1.223   3.296 -0.1938 -0.1774  0.6653
 5919SOL    HW129219   2.370   1.230   3.315  0.3290 -0.8932 -1.7270
 5919SOL    HW229220   2.256   1.290   3.362 -1.4933 -0.1342  0.2058
 5920SOL     OW29221   1.377   4.674   6.972  0.4555  0.2283 -0.0812
 5920SOL    HW129222   1.284   4.696   6.979  0.7232  1.6391 -0.9489
 5920SOL    HW229223   1.352   4.582   6.974 -0.6219  0.5457  0.9653
 5921SOL     OW29224   3.076   4.560  12.523 -0.3674  0.0728  0.8950
 5921SOL    HW129225   3.146   4.519  12.573 -2.1156 -0.5084  2.8823
 5921SOL    HW229226   3.123   4.617  12.462 -1.3994 -0.5039 -0.4374
 5922SOL     OW29227   0.483   3.298   2.970 -0.1382  0.1425  0.2914
 5922SOL    HW129228   0.433   3.227   3.009 -0.5862  0.3367  0.0700
 5922SOL    HW229229   0.569   3.261   2.988 -1.3508 -2.8211 -0.0567
 5923SOL     OW29230   1.282   0.572   6.659  0.2206  0.4341 -0.1232
 5923SOL    HW129231   1.273   0.487   6.702  0.0066  0.3944 -0.2503
 5923SOL    HW229232   1.199   0.618   6.672  0.7205  0.9821  1.2337
 5924SOL     OW29233   0.352   2.395  13.332  0.2293  0.4347 -0.1852
 5924SOL    HW129234   0.402   2.350  13.400 -0.3849 -1.0644 -0.7345
 5924SOL    HW229235   0.418   2.404  13.263  1.6443 -0.4686  1.0418
 5925SOL     OW29236   4.722   0.506   6.251  0.1867 -0.0491 -0.4403
 5925SOL    HW129237   0.029   0.430   6.200  1.0640  0.3012 -0.4619
 5925SOL    HW229238   4.646   0.518   6.194  0.0156 -0.9745 -0.4123
 5926SOL     OW29239   3.499   3.165   4.740  0.2877 -0.2123  0.2590
 5926SOL    HW129240   3.588   3.132   4.725  1.2222  1.3033  2.4254
 5926SOL    HW229241   3.511   3.233   4.807  0.4148 -1.5384  1.5785
 5927SOL     OW29242   1.241   2.176   6.886 -0.0237 -0.5645  0.0852
 5927SOL    HW129243   1.292   2.257   6.888 -0.0889 -0.5657  2.5656
 5927SOL    HW229244   1.296   2.119   6.832  1.1414  0.0254  0.6448
 5928SOL     OW29245   1.877   0.420   6.128 -0.3516  0.1970 -0.4850
 5928SOL    HW129246   1.889   0.372   6.209 -1.1239  0.1001 -0.4259
 5928SOL    HW229247   1.852   0.506   6.161  0.0708  1.0484 -2.3522
 5929SOL     OW29248   3.178   3.889   6.691 -0.3662  0.0981 -0.0445
 5929SOL    HW129249   3.216   3.813   6.649 -0.9770  0.8251 -1.8977
 5929SOL    HW229250   3.246   3.952   6.668  0.3036 -1.3451 -1.9630
 5930SOL     OW29251   4.185   3.918   4.267 -0.4344 -0.1548 -0.0141
 5930SOL    HW129252   4.172   4.012   4.262 -0.4174 -0.1870 -0.6706
 5930SOL    HW229253   4.137   3.875   4.196  0.6687  1.5588 -1.7966
 5931SOL     OW29254   4.596   1.487  13.094 -0.5922  0.1754  0.2046
 5931SOL    HW129255   4.638   1.485  13.180  0.1482  1.6339 -0.1301
 5931SOL    HW229256   4.596   1.394  13.071 -2.6586  0.3268 -0.4030
 5932SOL     OW29257   0.901   2.279   7.753  0.0580 -0.7194  0.3803
 5932SOL    HW129258   0.868   2.304   7.839  0.6921  1.4167 -0.0011
 5932SOL    HW229259   0.880   2.185   7.748  0.0217 -0.6139 -1.4120
 5933SOL     OW29260   4.045   3.485   6.218 -0.1061  0.0622  0.2004
 5933SOL    HW129261   4.118   3.424   6.210 -0.5283 -0.5197  0.7617
 5933SOL    HW229262   3.992   3.438   6.283  0.5743  0.5823  1.1114
 5934SOL     OW29263   0.889   0.932   9.656  0.5274 -0.1422 -0.3587
 5934SOL    HW129264   0.857   1.016   9.687  0.7536 -0.1996  0.0346
 5934SOL    HW229265   0.932   0.914   9.739 -1.2763 -1.8457  0.2137
 5935SOL     OW29266   2.700   3.799  13.178 -0.1549  0.4054 -0.0029
 5935SOL    HW129267   2.740   3.860  13.240 -1.3241 -0.3270  1.4658
 5935SOL    HW229268   2.780   3.787  13.126  0.1552 -1.6804  0.9236
 5936SOL     OW29269   1.595   1.940   7.983  0.1688 -0.3723  0.3472
 5936SOL    HW129270   1.690   1.942   7.993  0.0527  1.4308  0.9243
 5936SOL    HW229271   1.564   1.896   8.062  0.6050 -0.8808  0.2335
 5937SOL     OW29272   3.301   2.412   5.762 -0.2376 -0.4224  0.1188
 5937SOL    HW129273   3.246   2.338   5.734 -0.2540  0.0087 -0.9669
 5937SOL    HW229274   3.350   2.375   5.835  1.2310 -0.4275 -0.8844
 5938SOL     OW29275   0.124   0.683   7.005  0.4359 -0.3841  0.2633
 5938SOL    HW129276   0.106   0.670   7.099  1.8462 -1.2762  0.4026
 5938SOL    HW229277   0.210   0.643   6.993  0.0460 -0.0067 -3.4878
 5939SOL     OW29278   2.090   2.846   1.040 -0.0662  0.4489  0.0229
 5939SOL    HW129279   2.076   2.853   1.134 -3.8029  3.2195 -0.7098
 5939SOL    HW229280   2.143   2.767   1.042  0.2036  0.5640 -2.7372
 5940SOL     OW29281   1.944   2.852  15.325  0.3564 -0.3970 -0.1482
 5940SOL    HW129282   1.898   2.777  15.363 -0.7883  0.2220 -0.3144
 5940SOL    HW229283   1.890   2.866  15.247  1.5647 -0.0837 -0.9245
 5941SOL     OW29284   1.104   0.809   8.786 -0.1726 -0.2497 -0.6867
 5941SOL    HW129285   1.121   0.869   8.859  2.6722 -0.6318 -1.0294
 5941SOL    HW229286   1.108   0.731   8.842  0.7983  1.5771  1.8172
 5942SOL     OW29287   1.703   1.434   5.207 -0.2681  0.8845 -0.2148
 5942SOL    HW129288   1.657   1.465   5.285  0.6512  0.0227  0.6663
 5942SOL    HW229289   1.631   1.422   5.144  0.3615 -0.1587 -0.7294
 5943SOL     OW29290   0.575   0.816  12.161 -0.1313  0.0191  0.0267
 5943SOL    HW129291   0.545   0.890  12.214 -0.0016 -0.0860  0.2444
 5943SOL    HW229292   0.491   0.770  12.170  0.3758 -0.8807  0.1139
 5944SOL     OW29293   0.574   3.309   8.309  0.5445 -0.7643  0.9433
 5944SOL    HW129294   0.513   3.368   8.266 -0.9199 -2.0311  1.2706
 5944SOL    HW229295   0.541   3.305   8.399 -0.1101 -0.0759  0.7267
 5945SOL     OW29296   2.806   1.409   5.803  0.1658 -0.4446 -0.3641
 5945SOL    HW129297   2.801   1.337   5.740 -0.0233 -1.1141  0.4154
 5945SOL    HW229298   2.862   1.468   5.752  1.6262 -0.3201  1.3932
 5946SOL     OW29299   1.489   2.948   6.650 -0.0704  0.3589 -0.2037
 5946SOL    HW129300   1.571   2.949   6.700 -0.5849  1.0508  0.6273
 5946SOL    HW229301   1.462   2.856   6.658  1.7430  0.0751  2.7596
 5947SOL     OW29302   0.638   1.345   9.607 -0.6684  0.4342  0.1135
 5947SOL    HW129303   0.563   1.343   9.666 -1.0815 -0.5767 -0.4543
 5947SOL    HW229304   0.673   1.431   9.631  0.7679 -0.3337  0.7800
 5948SOL     OW29305   1.617   2.954  14.114 -0.4925  0.4075 -0.5276
 5948SOL    HW129306   1.653   2.973  14.201 -0.2605  0.5613 -0.6597
 5948SOL    HW229307   1.537   3.001  14.138  1.3110  1.3715  3.6765
 5949SOL     OW29308   0.346   1.803   7.538  0.3753  0.0316  0.2800
 5949SOL    HW129309   0.302   1.888   7.545  2.0531  0.8026  1.5103
 5949SOL    HW229310   0.281   1.760   7.482  2.8707 -0.9233 -1.8317
 5950SOL     OW29311   3.140   3.244   8.402 -0.2130 -0.1895  0.2953
 5950SOL    HW129312   3.088   3.166   8.420  1.0712 -1.2266 -0.4828
 5950SOL    HW229313   3.077   3.292   8.348 -1.0149 -0.1906  1.2380
 5951SOL     OW29314   0.193   0.032   0.208  0.0652 -0.6036 -0.1073
 5951SOL    HW129315   0.234   4.696   0.144 -2.7579 -1.6973 -0.9242
 5951SOL    HW229316   0.103   0.037   0.174 -0.2740 -0.8107  0.7546
 5952SOL     OW29317   4.667   0.721  14.514  0.1817  0.2161  0.6294
 5952SOL    HW129318   0.000   0.741  14.589  0.5888  0.2764  0.3108
 5952SOL    HW229319   4.707   0.635  14.506  3.6487  1.7541  1.5786
 5953SOL     OW29320   3.525   4.279   3.889  0.1509  0.3289  0.0875
 5953SOL    HW129321   3.543   4.327   3.808  0.5538  1.2753  0.7501
 5953SOL    HW229322   3.598   4.320   3.935  0.8923 -0.2626 -0.5423
 5954SOL     OW29323   2.601   1.126   5.110  0.0923 -0.3000  0.5079
 5954SOL    HW129324   2.519   1.102   5.069  0.1659 -1.0128  0.7778
 5954SOL    HW229325   2.616   1.216   5.081 -1.1897 -0.1828  0.2275
 5955SOL     OW29326   1.849   0.813   5.653 -0.2035 -0.1201 -0.0404
 5955SOL    HW129327   1.794   0.737   5.633 -0.9217  0.9424 -2.1038
 5955SOL    HW229328   1.907   0.805   5.577  1.0530 -1.8658  1.1132
 5956SOL     OW29329   1.706   2.437   6.502 -0.4666  0.7920 -0.5738
 5956SOL    HW129330   1.741   2.523   6.477  0.6836  0.2385 -0.8423
 5956SOL    HW229331   1.727   2.379   6.429  0.0828 -0.3274  0.4848
 5957SOL     OW29332   4.281   1.277  12.405  0.3932 -0.2919  0.5880
 5957SOL    HW129333   4.328   1.348  12.360 -0.9400  1.7815  2.4640
 5957SOL    HW229334   4.315   1.203  12.355 -1.8620 -2.1895  1.8798
 5958SOL     OW29335   3.794   1.839   3.806 -0.0893 -0.0280  0.2172
 5958SOL    HW129336   3.808   1.856   3.712 -0.0110  1.4248  0.4818
 5958SOL    HW229337   3.725   1.903   3.825  2.0653  2.2153  0.4700
 5959SOL     OW29338   3.932   1.487   1.836  0.1518 -0.5614  0.2818
 5959SOL    HW129339   3.980   1.491   1.753 -2.4944  1.2892 -1.1779
 5959SOL    HW229340   3.971   1.550   1.897  0.7974 -0.7083  0.0156
 5960SOL     OW29341   2.436   3.575  14.578  0.6997 -0.6000  0.0261
 5960SOL    HW129342   2.384   3.499  14.552 -0.2759  0.2135 -0.3531
 5960SOL    HW229343   2.415   3.641  14.512  1.4875  1.0106  1.3683
 5961SOL     OW29344   3.692   4.313  17.688  0.5225 -0.2227 -0.1871
 5961SOL    HW129345   3.742   4.366  17.625  1.4590  1.1475  1.7266
 5961SOL    HW229346   3.706   4.369   0.073 -1.7688  0.9983 -0.6689
 5962SOL     OW29347   0.012   0.556   4.074 -0.5274  0.6296  0.5314
 5962SOL    HW129348   0.045   0.600   4.152  0.9546  1.1085 -0.3754
 5962SOL    HW229349   0.096   0.549   4.028 -0.9626 -0.7225 -0.0777
 5963SOL     OW29350   4.230   3.114   5.832  0.0467 -0.0949  0.5227
 5963SOL    HW129351   4.259   3.083   5.746  0.3139  1.6022 -0.0049
 5963SOL    HW229352   4.307   3.084   5.880  2.1260  1.5275 -1.8361
 5964SOL     OW29353   0.567   1.076  16.543  0.1397 -0.2206 -0.8186
 5964SOL    HW129354   0.565   1.047  16.634  2.0700 -0.6501 -0.9169
 5964SOL    HW229355   0.600   0.996  16.502 -2.0660 -0.6371 -1.7761
 5965SOL     OW29356   4.110   2.778   6.348  0.0419  0.3983  0.4725
 5965SOL    HW129357   4.135   2.698   6.394  2.8565  1.0351  0.0715
 5965SOL    HW229358   4.123   2.839   6.421 -0.3729  2.4739 -1.1742
 5966SOL     OW29359   4.307   4.622   8.908 -0.1426  0.0100  0.8229
 5966SOL    HW129360   4.329   4.700   8.959  2.4009 -0.6472  0.7543
 5966SOL    HW229361   4.394   4.599   8.876 -0.0625  0.5681  0.6502
 5967SOL     OW29362   4.612   3.718   3.882 -0.3312 -0.3200  0.3469
 5967SOL    HW129363   4.538   3.683   3.931 -1.9922  2.9379  0.2023
 5967SOL    HW229364   4.572   3.726   3.796 -0.7176  1.3121  0.6715
 5968SOL     OW29365   2.200   0.801  10.784  0.2543  0.0310  0.4333
 5968SOL    HW129366   2.279   0.847  10.754  0.1381 -0.2605 -0.3164
 5968SOL    HW229367   2.201   0.822  10.877 -1.3425 -0.3634  0.5277
 5969SOL     OW29368   1.636   1.525   4.521  0.2502  0.2820 -0.5885
 5969SOL    HW129369   1.675   1.605   4.486 -0.9313 -0.2952 -3.2746
 5969SOL    HW229370   1.668   1.508   4.609  1.2586  1.0802 -0.8090
 5970SOL     OW29371   0.420   4.087   4.539 -0.6457  0.3779  0.0598
 5970SOL    HW129372   0.475   4.160   4.567 -0.1097 -0.4354  1.1531
 5970SOL    HW229373   0.442   4.081   4.446 -1.4787 -0.1780 -0.0951
 5971SOL     OW29374   1.373   4.130  16.957  0.0102 -0.5150 -0.1860
 5971SOL    HW129375   1.418   4.094  16.880  1.9945  0.4642  0.5280
 5971SOL    HW229376   1.360   4.218  16.922  0.2088 -0.2874  0.3171
 5972SOL     OW29377   1.751   3.674  13.562  0.2298  0.0547  0.5665
 5972SOL    HW129378   1.799   3.726  13.497 -1.8630  1.5946  0.2792
 5972SOL    HW229379   1.724   3.743  13.622 -1.8820 -0.7621  0.5306
 5973SOL     OW29380   4.508   3.853   6.731  0.2011 -0.2496 -0.1309
 5973SOL    HW129381   4.454   3.869   6.653  0.8062 -0.7323 -0.6468
 5973SOL    HW229382   4.502   3.759   6.716 -3.6427 -0.1141  0.4276
 5974SOL     OW29383   1.319   1.156  12.933  0.1195  0.1262  0.4253
 5974SOL    HW129384   1.363   1.107  13.003 -0.2389  0.3968  0.8368
 5974SOL    HW229385   1.387   1.220  12.912  0.1416 -0.3130 -0.8205
 5975SOL     OW29386   0.177   3.334   7.759 -1.0497 -0.4018 -0.4005
 5975SOL    HW129387   0.138   3.349   7.673  1.3078  1.5426 -1.1338
 5975SOL    HW229388   0.232   3.412   7.758  0.8643 -1.7367  1.2402
 5976SOL     OW29389   2.162   4.197   4.427  0.3619 -0.5129  0.9254
 5976SOL    HW129390   2.192   4.267   4.369 -0.6232 -0.8559  0.0134
 5976SOL    HW229391   2.222   4.129   4.396  1.7924  1.3791 -0.4887
 5977SOL     OW29392   1.569   4.204   4.997  0.1086 -0.5276 -0.4613
 5977SOL    HW129393   1.534   4.226   4.911 -0.2395 -0.4465 -0.2996
 5977SOL    HW229394   1.510   4.133   5.023  0.4403 -1.2039 -1.5757
 5978SOL     OW29395   2.330   0.903   1.204 -0.2201  0.5846  0.5751
 5978SOL    HW129396   2.404   0.961   1.221  0.6650 -0.5518  0.6348
 5978SOL    HW229397   2.254   0.960   1.202 -0.6171  0.0127 -1.1939
 5979SOL     OW29398   3.715   0.371   6.248 -0.0384 -0.2656 -0.4799
 5979SOL    HW129399   3.801   0.398   6.215 -1.3968  3.8618 -0.7523
 5979SOL    HW229400   3.720   0.276   6.240  0.4687 -0.2773 -0.0340
 5980SOL     OW29401   1.184   1.593  13.642  0.4160  0.3677  0.0880
 5980SOL    HW129402   1.174   1.516  13.698 -0.2607  0.4545  0.0923
 5980SOL    HW229403   1.131   1.654  13.693 -0.4901  0.7129 -1.2580
 5981SOL     OW29404   0.854   2.617   5.429 -0.0665 -0.1846 -0.2946
 5981SOL    HW129405   0.877   2.545   5.370 -0.5732 -0.6955  0.1381
 5981SOL    HW229406   0.905   2.687   5.387 -0.2820 -1.0391 -1.9828
 5982SOL     OW29407   2.817   0.468   8.619  0.1459  0.8410 -0.4695
 5982SOL    HW129408   2.896   0.499   8.574  0.4233  0.9851  0.1126
 5982SOL    HW229409   2.774   0.420   8.549 -0.0329 -0.1345  0.3071
 5983SOL     OW29410   1.510   0.767  12.350 -0.3584 -0.5686 -0.6973
 5983SOL    HW129411   1.516   0.853  12.307 -1.7636 -1.0195 -1.7809
 5983SOL    HW229412   1.425   0.771  12.392 -0.8228  2.2119 -1.8629
 5984SOL     OW29413   2.699   1.536  14.008  0.4723 -0.6917  0.7272
 5984SOL    HW129414   2.648   1.588  14.069  0.8483  1.4281 -0.7783
 5984SOL    HW229415   2.776   1.592  14.004 -1.7687  2.3902  0.3086
 5985SOL     OW29416   3.824   3.264   1.441 -0.0645  0.3561 -0.3225
 5985SOL    HW129417   3.756   3.331   1.443 -0.1139  0.2653  1.0033
 5985SOL    HW229418   3.777   3.187   1.472 -1.0023  2.3864  3.2656
 5986SOL     OW29419   2.916   1.011   7.295 -0.0260 -0.4661 -0.9532
 5986SOL    HW129420   2.827   0.979   7.312 -0.5259  1.2157 -0.3865
 5986SOL    HW229421   2.920   1.007   7.200 -1.1500  1.0309 -1.0497
 5987SOL     OW29422   3.437   2.284   7.762 -0.0832  0.1837 -0.1057
 5987SOL    HW129423   3.376   2.317   7.828 -0.8097  0.2550 -0.8090
 5987SOL    HW229424   3.405   2.195   7.751  0.6019  0.1816 -2.0383
 5988SOL     OW29425   4.237   4.294   6.787  0.2551 -0.5400 -0.4479
 5988SOL    HW129426   4.190   4.372   6.757 -0.6810 -1.0871 -0.4082
 5988SOL    HW229427   4.329   4.319   6.788 -0.6306  2.6588 -0.0030
 5989SOL     OW29428   1.785   1.441   1.140 -0.0774  0.1398  0.1082
 5989SOL    HW129429   1.873   1.406   1.155 -0.3453 -1.0018 -0.9628
 5989SOL    HW229430   1.730   1.371   1.176  3.5069 -1.9394  1.5639
 5990SOL     OW29431   2.562   2.300   2.045  0.5042  0.4654  0.1955
 5990SOL    HW129432   2.593   2.377   1.998 -0.6537  2.7401  3.1875
 5990SOL    HW229433   2.478   2.284   2.001  1.3118 -1.6816 -0.5895
 5991SOL     OW29434   4.099   0.858   8.571 -0.4680 -0.9724 -0.3345
 5991SOL    HW129435   4.047   0.781   8.546 -0.9109 -0.6244 -0.4790
 5991SOL    HW229436   4.074   0.877   8.661 -2.0927 -0.1237 -0.9592
 5992SOL     OW29437   2.528   2.958   0.515 -0.1199 -0.1957 -0.3040
 5992SOL    HW129438   2.595   3.026   0.505  0.2447 -0.0562  3.0352
 5992SOL    HW229439   2.511   2.930   0.425  2.2242 -1.8491 -0.2373
 5993SOL     OW29440   2.508   0.794  12.662 -0.0141 -0.0753  0.0548
 5993SOL    HW129441   2.416   0.768  12.669 -0.0949 -0.7533 -3.4536
 5993SOL    HW229442   2.510   0.888  12.646 -5.4048 -0.1431 -0.9516
 5994SOL     OW29443   0.293   0.762   0.939 -0.0285  0.1196 -0.0144
 5994SOL    HW129444   0.381   0.732   0.963  0.0799 -0.1964 -0.7819
 5994SOL    HW229445   0.251   0.761   1.025  0.8195 -0.6576  0.3908
 5995SOL     OW29446   1.484   4.604   3.046  0.1528 -0.0793 -1.2482
 5995SOL    HW129447   1.570   4.598   3.004  0.3238 -3.3027 -0.4674
 5995SOL    HW229448   1.503   4.617   3.138 -0.0378  0.3656 -1.2761
 5996SOL     OW29449   1.411   4.238   4.762 -0.4169 -0.7185  0.0360
 5996SOL    HW129450   1.370   4.170   4.709 -2.5010  1.9594 -1.7795
 5996SOL    HW229451   1.331   4.276   4.800  0.0315  0.2449  0.0180
 5997SOL     OW29452   3.919   3.493  16.693 -0.4365  0.4045 -0.0513
 5997SOL    HW129453   3.838   3.517  16.647 -1.1278 -0.9625  0.4449
 5997SOL    HW229454   3.962   3.440  16.626  1.2761  0.8015  0.7368
 5998SOL     OW29455   1.106   2.419   3.449  0.3796 -0.0524  0.0636
 5998SOL    HW129456   1.080   2.428   3.541 -1.0756  0.1832 -0.3809
 5998SOL    HW229457   1.079   2.329   3.430  1.2394 -0.0577 -1.1235
 5999SOL     OW29458   3.940   3.120  17.037 -0.1056  0.1124  0.0610
 5999SOL    HW129459   4.001   3.047  17.045 -1.1622 -0.7872 -0.2044
 5999SOL    HW229460   3.853   3.080  17.037 -0.0791  0.0561 -1.7479
 6000SOL     OW29461   0.367   4.509   4.603  0.6111 -0.5862 -0.2333
 6000SOL    HW129462   0.411   4.453   4.539 -0.0751 -2.2843  0.7912
 6000SOL    HW229463   0.442   4.559   4.635  1.3426  0.6883 -3.9872
 6001SOL     OW29464   4.045   2.455  14.374  0.0143 -0.0956 -0.6206
 6001SOL    HW129465   4.043   2.525  14.308 -0.7484 -0.9852 -1.5356
 6001SOL    HW229466   4.041   2.376  14.320  2.0887 -0.5780 -0.0635
 6002SOL     OW29467   0.399   3.626   4.900  0.2136 -0.0868  0.0557
 6002SOL    HW129468   0.425   3.705   4.852 -0.6668  0.7847  1.0360
 6002SOL    HW229469   0.396   3.549   4.842 -3.7828  2.3285 -2.9182
 6003SOL     OW29470   1.311   4.481   7.515  0.2941 -0.3760  0.1148
 6003SOL    HW129471   1.216   4.484   7.519  0.3865  0.9841  1.3355
 6003SOL    HW229472   1.340   4.571   7.534  1.4523 -0.6505 -0.3125
 6004SOL     OW29473   2.926   3.670  15.742  0.4245 -0.1342  0.1429
 6004SOL    HW129474   2.925   3.576  15.725  0.1939 -0.0215 -0.4762
 6004SOL    HW229475   2.988   3.685  15.671  0.4635 -0.5915  0.0793
 6005SOL     OW29476   0.456   2.713   3.520  0.3265  0.0326 -0.1996
 6005SOL    HW129477   0.431   2.621   3.517  1.1265 -0.2479  1.8538
 6005SOL    HW229478   0.410   2.738   3.440  0.1402  1.3933  0.3293
 6006SOL     OW29479   3.044   2.967  11.859 -0.3490 -0.2989  0.6867
 6006SOL    HW129480   2.963   2.933  11.821  0.6873 -2.5945  0.5591
 6006SOL    HW229481   3.060   3.043  11.803  0.0958 -2.0185 -1.4969
 6007SOL     OW29482   2.205   3.108   6.393  0.0633  0.1374 -0.4645
 6007SOL    HW129483   2.247   3.151   6.467 -0.1402  0.8712 -0.7814
 6007SOL    HW229484   2.273   3.052   6.356 -0.3456  0.7947 -2.1896
 6008SOL     OW29485   3.268   0.323   8.586  0.2143 -0.5159 -0.3469
 6008SOL    HW129486   3.362   0.323   8.600  0.0414  2.3073  0.7298
 6008SOL    HW229487   3.231   0.365   8.664  0.5827  0.5839 -0.7744
 6009SOL     OW29488   3.064   0.890   3.104  0.0746  0.2550  0.2514
 6009SOL    HW129489   2.989   0.946   3.125 -1.0321 -0.7468 -0.9763
 6009SOL    HW229490   3.128   0.960   3.091  0.0073  0.5266  1.4237
 6010SOL     OW29491   4.325   2.013   8.659  0.1313  0.2046 -0.1144
 6010SOL    HW129492   4.363   2.013   8.747 -1.1559 -2.3898  0.4229
 6010SOL    HW229493   4.272   2.092   8.669  0.4306  0.5713 -1.4704
 6011SOL     OW29494   0.468   2.857  11.086 -0.4782 -0.6132 -0.0559
 6011SOL    HW129495   0.543   2.799  11.098 -0.5816 -0.7557 -0.0973
 6011SOL    HW229496   0.420   2.849  11.168  0.1132  0.0266  0.3496
 6012SOL     OW29497   4.104   0.590  17.211 -0.2935 -0.2431 -0.3834
 6012SOL    HW129498   4.159   0.523  17.251  0.9981  1.1218  0.1693
 6012SOL    HW229499   4.035   0.609  17.275  0.7685 -0.3048  0.7953
 6013SOL     OW29500   1.643   0.097   7.420  0.7501  0.1221  0.3567
 6013SOL    HW129501   1.738   0.103   7.410  0.5725  0.4025 -1.1207
 6013SOL    HW229502   1.604   0.100   7.333  2.4500 -0.0243 -0.4096
 6014SOL     OW29503   0.834   3.157  13.556  0.2150  0.2798 -0.3220
 6014SOL    HW129504   0.837   3.252  13.571 -0.9579  0.0955  0.9684
 6014SOL    HW229505   0.924   3.132  13.533  0.1378 -0.6305  0.4214
 6015SOL     OW29506   1.097   0.793   9.883 -0.1168  0.0072  0.0108
 6015SOL    HW129507   1.126   0.725   9.823 -0.4854 -0.1271 -0.0152
 6015SOL    HW229508   1.040   0.734   9.932  1.6156  0.1307  2.1703
 6016SOL     OW29509   3.658   2.754   6.381 -0.3350 -0.3743 -0.8471
 6016SOL    HW129510   3.585   2.816   6.377  0.8537  1.0466 -0.7907
 6016SOL    HW229511   3.726   2.800   6.431 -1.1656 -0.7789  0.6356
 6017SOL     OW29512   4.239   4.232   5.094 -0.2896  0.9666 -0.0174
 6017SOL    HW129513   4.200   4.187   5.169  1.7026 -2.0205 -0.7589
 6017SOL    HW229514   4.278   4.160   5.043 -1.7871  0.7839 -0.9139
 6018SOL     OW29515   2.128   3.584   2.486  0.5004 -0.6787  0.5013
 6018SOL    HW129516   2.167   3.604   2.571  0.1067 -0.6770  0.6824
 6018SOL    HW229517   2.038   3.611   2.503  0.2539  0.4728 -2.7183
 6019SOL     OW29518   4.615   0.912   2.104 -0.3450  0.1559  0.8565
 6019SOL    HW129519   4.547   0.854   2.138 -0.5557  0.0035  0.1828
 6019SOL    HW229520   4.680   0.893   2.171  2.5953  1.0932 -1.6876
 6020SOL     OW29521   2.584   3.490  17.501  0.1715 -0.9290 -0.3193
 6020SOL    HW129522   2.603   3.397  17.509  0.8806 -0.7461  0.1664
 6020SOL    HW229523   2.500   3.494  17.546  0.2126  0.3183 -0.3470
 6021SOL     OW29524   0.756   1.494   7.187 -0.3982  0.5426 -0.5648
 6021SOL    HW129525   0.704   1.485   7.107 -2.1358 -3.2792  0.9523
 6021SOL    HW229526   0.703   1.565   7.224 -1.6886 -0.7889  0.1384
 6022SOL     OW29527   4.368   4.243  10.499 -0.0339  0.0058 -0.2537
 6022SOL    HW129528   4.386   4.311  10.565  0.2724 -1.8683  1.6215
 6022SOL    HW229529   4.312   4.287  10.436  0.8087  0.0220 -1.0009
 6023SOL     OW29530   4.506   2.926   1.100 -0.3776 -0.1056  0.3499
 6023SOL    HW129531   4.555   2.938   1.181 -0.6914  0.0645  0.5135
 6023SOL    HW229532   4.423   2.968   1.123 -0.1091  0.4239  0.3398
 6024SOL     OW29533   4.535   3.056   8.968  0.1680 -0.4217 -0.5748
 6024SOL    HW129534   4.570   2.968   8.960  0.1828 -0.5450  0.8038
 6024SOL    HW229535   4.614   3.104   8.992 -0.2365  0.5344 -1.1298
 6025SOL     OW29536   3.230   0.241   7.309 -0.1277 -0.3146 -0.0554
 6025SOL    HW129537   3.276   0.162   7.338 -1.2682 -0.2919  1.8156
 6025SOL    HW229538   3.158   0.203   7.260 -1.6376  0.0687  1.8608
 6026SOL     OW29539   0.810   0.164   0.435  0.0725  0.2125 -0.2985
 6026SOL    HW129540   0.734   0.122   0.396  0.3536  0.2895 -0.9259
 6026SOL    HW229541   0.817   0.231   0.367 -1.8943  1.6042  0.8647
 6027SOL     OW29542   0.354   2.671   7.652 -0.0139 -0.0985 -0.4366
 6027SOL    HW129543   0.294   2.655   7.726 -0.5911 -0.5076 -0.9902
 6027SOL    HW229544   0.434   2.689   7.700 -0.1320 -0.0987 -0.2375
 6028SOL     OW29545   1.420   1.066   1.820 -0.6037 -0.3606  0.0117
 6028SOL    HW129546   1.385   0.977   1.820  0.0459 -0.6089  3.3683
 6028SOL    HW229547   1.349   1.113   1.776 -1.4538  0.4725  2.2737
 6029SOL     OW29548   3.353   3.094   0.401 -0.1264 -0.1693 -0.1979
 6029SOL    HW129549   3.336   3.033   0.328 -1.2837 -0.8088  0.6123
 6029SOL    HW229550   3.386   3.026   0.459  1.6852 -0.2413 -1.3236
 6030SOL     OW29551   2.222   3.660  16.948  0.1989  0.2599 -0.1948
 6030SOL    HW129552   2.144   3.703  16.984  0.1265 -0.8019  0.8989
 6030SOL    HW229553   2.200   3.672  16.856 -0.5169  2.0734  0.1909
 6031SOL     OW29554   0.843   0.759  12.857  0.5015 -0.3284  0.0914
 6031SOL    HW129555   0.807   0.838  12.816  2.3684 -0.2191 -1.3751
 6031SOL    HW229556   0.922   0.799  12.893  0.8655 -0.1389 -0.9082
 6032SOL     OW29557   3.685   0.792   3.434  0.1987 -0.1254  0.1663
 6032SOL    HW129558   3.740   0.801   3.512 -0.9670 -0.1040  0.9962
 6032SOL    HW229559   3.712   0.709   3.396  0.4226  0.1352 -0.2450
 6033SOL     OW29560   0.982   4.067  16.566 -0.0775 -0.9905 -0.0741
 6033SOL    HW129561   0.933   4.102  16.491 -1.5342  4.2707  3.3352
 6033SOL    HW229562   0.974   4.138  16.630 -0.6666  0.2529 -1.5027
 6034SOL     OW29563   1.944   0.617  12.634 -0.2442 -0.1759 -0.2776
 6034SOL    HW129564   1.990   0.602  12.717 -0.5979  0.0074 -0.0524
 6034SOL    HW229565   1.854   0.587  12.648 -0.0581 -0.5771  0.0565
 6035SOL     OW29566   0.555   0.872   3.852 -0.5604  0.4666 -0.8240
 6035SOL    HW129567   0.503   0.915   3.919 -1.6466 -2.6485  0.3403
 6035SOL    HW229568   0.534   0.918   3.771 -0.8323  0.6004 -0.6762
 6036SOL     OW29569   1.354   4.591   8.368 -0.5146  0.6350 -0.0205
 6036SOL    HW129570   1.374   4.679   8.400  1.4477 -0.0037  0.5421
 6036SOL    HW229571   1.290   4.602   8.298 -1.1666 -0.3504  0.4194
 6037SOL     OW29572   1.416   2.169  12.835 -0.4298 -0.4458 -0.1256
 6037SOL    HW129573   1.466   2.211  12.765 -0.0097  0.2157  0.5727
 6037SOL    HW229574   1.382   2.089  12.794  2.4284 -1.7788  0.1245
 6038SOL     OW29575   3.550   0.468  13.979  0.1772  0.0210 -0.1855
 6038SOL    HW129576   3.631   0.480  14.028  0.9780  0.9323 -1.7537
 6038SOL    HW229577   3.557   0.556  13.940 -1.0242 -0.3984 -1.3341
 6039SOL     OW29578   0.324   2.516   6.242  0.4050 -0.5596  0.0331
 6039SOL    HW129579   0.292   2.517   6.332  1.4891  0.0781  0.4144
 6039SOL    HW229580   0.380   2.438   6.249  0.6432 -0.2302  1.7514
 6040SOL     OW29581   1.323   2.286   8.040  0.3630 -0.0929 -0.1398
 6040SOL    HW129582   1.412   2.323   8.041 -0.3048  1.4968 -0.8004
 6040SOL    HW229583   1.315   2.231   8.118 -2.7062 -2.4583 -2.1404
 6041SOL     OW29584   0.063   0.449   4.744  0.2713 -0.2073 -0.7050
 6041SOL    HW129585   0.067   0.527   4.799  2.9938 -1.3488  0.6712
 6041SOL    HW229586   0.116   0.480   4.670  2.9273 -2.4975  0.2706
 6042SOL     OW29587   3.931   3.801   2.458  1.1370  0.6250  0.1395
 6042SOL    HW129588   4.013   3.775   2.498  0.4132  0.1187  1.2902
 6042SOL    HW229589   3.941   3.875   2.398 -0.3946  0.7397  0.0172
 6043SOL     OW29590   1.145   2.552  14.081 -0.4497  0.1764  0.0644
 6043SOL    HW129591   1.084   2.618  14.048 -1.4840  0.6762  2.9718
 6043SOL    HW229592   1.175   2.501  14.006 -1.5631 -1.5414  0.8002
 6044SOL     OW29593   3.698   1.620   2.625 -0.1481 -0.0751  0.5197
 6044SOL    HW129594   3.780   1.653   2.662 -0.2958  1.3969 -0.4473
 6044SOL    HW229595   3.730   1.575   2.547 -0.8239 -0.4301  0.4440
 6045SOL     OW29596   3.314   2.370   6.876 -0.1037  0.1587  0.1894
 6045SOL    HW129597   3.243   2.331   6.926 -1.1772  1.7237 -0.1260
 6045SOL    HW229598   3.340   2.442   6.934  0.3713 -0.7952  1.1689
 6046SOL     OW29599   1.273   4.622   1.007  0.2345  0.0395  0.7589
 6046SOL    HW129600   1.212   4.586   0.942  1.7306  0.6585 -1.0061
 6046SOL    HW229601   1.221   4.679   1.065  1.3009  0.3429  1.4137
 6047SOL     OW29602   3.816   2.153   7.622 -0.1828 -0.1872  0.0550
 6047SOL    HW129603   3.759   2.227   7.603  0.4479 -0.2513 -2.1022
 6047SOL    HW229604   3.814   2.151   7.718 -1.3330  1.1453  0.0604
 6048SOL     OW29605   0.435   1.625   6.673 -0.3794 -0.6806 -0.0235
 6048SOL    HW129606   0.364   1.582   6.721  0.8854 -0.4770  2.0477
 6048SOL    HW229607   0.414   1.719   6.679 -0.4746 -0.9158  3.1987
 6049SOL     OW29608   0.653   3.328   2.737  0.1903 -0.3394 -0.3101
 6049SOL    HW129609   0.586   3.296   2.797  0.9509  0.5549  1.0232
 6049SOL    HW229610   0.616   3.404   2.691 -1.0099 -1.0130 -0.4520
 6050SOL     OW29611   4.169   2.585   9.133  0.1168 -0.3077  0.8961
 6050SOL    HW129612   4.196   2.552   9.048 -1.2587 -1.0172  0.7286
 6050SOL    HW229613   4.124   2.507   9.165 -0.1359 -0.2521  0.6808
 6051SOL     OW29614   1.840   4.115   8.571 -0.0500  0.5033 -0.1221
 6051SOL    HW129615   1.919   4.167   8.580  0.3430 -0.1867  0.3903
 6051SOL    HW229616   1.813   4.113   8.663  0.0908  2.8085 -0.0471
 6052SOL     OW29617   2.987   1.975   4.236 -0.6305  0.0821 -0.0675
 6052SOL    HW129618   2.936   1.913   4.287 -0.1944  0.3353  0.6695
 6052SOL    HW229619   2.948   2.057   4.267  0.8696 -0.5211  3.3850
 6053SOL     OW29620   2.042   3.135   9.513 -0.3020 -0.6556  0.3774
 6053SOL    HW129621   2.094   3.180   9.580 -2.5456  0.4062  1.3864
 6053SOL    HW229622   2.100   3.059   9.502  0.0578 -0.2306 -0.6890
 6054SOL     OW29623   1.592   1.591  10.188 -0.3321  0.4847  0.0889
 6054SOL    HW129624   1.533   1.524  10.221 -2.4628  2.7497  0.8451
 6054SOL    HW229625   1.670   1.569  10.239 -0.3040 -0.3687 -0.3253
 6055SOL     OW29626   3.416   1.953   8.845 -0.0062 -0.8047 -0.0905
 6055SOL    HW129627   3.384   2.035   8.806  0.0985 -0.6862  0.0714
 6055SOL    HW229628   3.385   1.890   8.779  0.6647  0.5586 -1.7253
 6056SOL     OW29629   0.524   2.873   8.780 -0.1548 -0.2432  0.5754
 6056SOL    HW129630   0.536   2.898   8.689  0.1181  1.3112  1.0244
 6056SOL    HW229631   0.429   2.870   8.794 -0.0721  0.6986  1.4078
 6057SOL     OW29632   4.340   2.123   3.056  0.0936  0.2006 -0.0922
 6057SOL    HW129633   4.378   2.166   2.979  0.0092 -0.1355 -0.3229
 6057SOL    HW229634   4.419   2.104   3.106 -1.3395 -1.6214  1.4719
 6058SOL     OW29635   4.330   4.377   4.669  0.1197 -0.7734  0.4929
 6058SOL    HW129636   4.336   4.293   4.625  3.1478 -0.9489  1.2839
 6058SOL    HW229637   4.257   4.356   4.728 -0.0490 -0.1438  0.5102
 6059SOL     OW29638   2.839   1.989   7.872 -0.1126 -0.0143  0.4140
 6059SOL    HW129639   2.867   1.918   7.814  1.3954  0.1807  0.8864
 6059SOL    HW229640   2.859   1.958   7.960  4.5751 -0.6152 -0.8663
 6060SOL     OW29641   1.887   2.315   9.244 -0.0971  0.5411  0.6251
 6060SOL    HW129642   1.911   2.233   9.289  1.7784  0.6514 -0.1679
 6060SOL    HW229643   1.808   2.333   9.295 -1.0554 -1.0863 -0.2835
 6061SOL     OW29644   2.852   2.782   3.458  0.1757  0.5173 -0.4226
 6061SOL    HW129645   2.896   2.808   3.377  0.6775  0.7362 -0.0828
 6061SOL    HW229646   2.823   2.695   3.430  0.4668  0.6537 -1.1607
 6062SOL     OW29647   0.893   2.727   7.045 -0.3101  0.1451  0.2419
 6062SOL    HW129648   0.883   2.650   6.990  1.1742  0.2353 -0.1448
 6062SOL    HW229649   0.813   2.726   7.098 -0.8233 -0.1934 -0.5409
 6063SOL     OW29650   2.265   4.408   7.404  0.5590 -0.8516 -0.1405
 6063SOL    HW129651   2.347   4.374   7.441  1.1883 -0.4837 -1.1901
 6063SOL    HW229652   2.296   4.486   7.357  1.4064 -1.4973 -0.6450
 6064SOL     OW29653   1.145   0.070   8.690  0.0139  0.8160 -0.1086
 6064SOL    HW129654   1.069   0.064   8.632  0.0053  3.1985 -0.3401
 6064SOL    HW229655   1.102   0.081   8.775  0.3392  2.4594 -0.1503
 6065SOL     OW29656   1.744   2.697  10.281  0.3616  0.5609 -0.2764
 6065SOL    HW129657   1.721   2.638  10.353  2.6004 -1.2647 -1.0699
 6065SOL    HW229658   1.771   2.770  10.337 -1.2701  1.9970 -1.3683
 6066SOL     OW29659   1.819   4.128   1.508  0.0803 -0.1569 -0.2024
 6066SOL    HW129660   1.732   4.156   1.535  0.6208  1.5206 -0.1783
 6066SOL    HW229661   1.852   4.063   1.570  2.9408  0.8047 -0.6956
 6067SOL     OW29662   1.964   1.389   2.314 -0.2309 -0.5431  0.7868
 6067SOL    HW129663   2.003   1.303   2.332 -0.0935  0.3031  4.4562
 6067SOL    HW229664   1.870   1.376   2.310  0.1173 -2.0153 -2.3082
 6068SOL     OW29665   2.901   0.829  15.302  0.3235  0.0145 -0.0516
 6068SOL    HW129666   2.854   0.899  15.346  0.5334 -0.4134  0.8571
 6068SOL    HW229667   2.943   0.870  15.226  2.2387 -0.8129  0.5490
 6069SOL     OW29668   1.800   3.187  11.918 -0.4288  0.4479 -0.0119
 6069SOL    HW129669   1.822   3.207  12.009  1.3587  0.0631 -0.3607
 6069SOL    HW229670   1.845   3.105  11.899 -1.3985 -0.1883  0.3991
 6070SOL     OW29671   1.898   2.161  11.236  0.4491  0.0239 -0.1595
 6070SOL    HW129672   1.839   2.139  11.308  1.2927 -0.3284  0.4243
 6070SOL    HW229673   1.887   2.086  11.178  1.8547 -0.1867 -0.1417
 6071SOL     OW29674   1.474   4.186   7.227  0.2427  0.1134 -0.5789
 6071SOL    HW129675   1.389   4.151   7.199 -1.6817  2.8072  1.8622
 6071SOL    HW229676   1.454   4.191   7.320  3.7112 -2.1930  0.2754
 6072SOL     OW29677   4.418   3.639  12.901 -0.3218  0.4965 -0.1082
 6072SOL    HW129678   4.374   3.672  12.980 -0.5447  1.6215 -0.6878
 6072SOL    HW229679   4.350   3.649  12.834 -1.2180  0.5467  0.7961
 6073SOL     OW29680   1.776   4.461   4.263  0.2464 -0.3688  0.0503
 6073SOL    HW129681   1.833   4.475   4.187 -0.9258 -2.1394 -1.1503
 6073SOL    HW229682   1.731   4.378   4.247  0.2481 -0.1030 -1.2957
 6074SOL     OW29683   3.474   2.055  14.970 -0.1919  0.4623  0.3917
 6074SOL    HW129684   3.471   1.995  14.896 -0.2694 -0.6251  1.2694
 6074SOL    HW229685   3.392   2.100  14.950  0.3819  1.2275 -0.2300
 6075SOL     OW29686   0.474   3.556   3.131 -0.2466  0.4587  0.5968
 6075SOL    HW129687   0.453   3.641   3.094 -1.6373 -0.5014 -0.8154
 6075SOL    HW229688   0.482   3.494   3.058  0.2667 -0.7121  1.6331
 6076SOL     OW29689   1.677   0.482   7.917 -0.4167 -0.2073  0.6632
 6076SOL    HW129690   1.720   0.517   7.995  0.4846  1.0677 -0.4005
 6076SOL    HW229691   1.719   0.535   7.849 -0.5350  0.5462  1.1702
 6077SOL     OW29692   3.965   3.435  15.033 -0.4544 -0.4056 -0.3701
 6077SOL    HW129693   3.889   3.389  14.997 -0.3489 -1.1423  0.3373
 6077SOL    HW229694   4.033   3.368  15.027  0.8430  1.0032 -1.3221
 6078SOL     OW29695   2.925   1.829   8.103  0.0893  0.3646  0.0370
 6078SOL    HW129696   2.974   1.859   8.180 -1.5235  0.0258  1.1883
 6078SOL    HW229697   2.920   1.735   8.122 -0.8525  0.0985 -1.5575
 6079SOL     OW29698   2.714   4.271   2.429 -0.6771 -0.0480  0.0585
 6079SOL    HW129699   2.621   4.291   2.438 -0.8715 -0.3002 -1.3172
 6079SOL    HW229700   2.738   4.360   2.403  0.1605 -0.0848  0.7172
 6080SOL     OW29701   0.214   0.367   4.008 -1.0181  0.0628  0.4713
 6080SOL    HW129702   0.222   0.333   3.919 -0.4241  0.4988  0.3568
 6080SOL    HW229703   0.215   0.280   4.049 -0.1346  0.4365  1.2487
 6081SOL     OW29704   2.957   1.900  16.559 -0.2555  0.2985  0.0602
 6081SOL    HW129705   2.975   1.936  16.472  0.1188  1.1513  0.4914
 6081SOL    HW229706   2.903   1.827  16.531  1.4151 -0.4065 -1.3674
 6082SOL     OW29707   3.849   0.292  14.943 -0.0895  0.4175  0.0099
 6082SOL    HW129708   3.908   0.217  14.937 -2.2331 -1.3500  0.9813
 6082SOL    HW229709   3.918   0.355  14.922 -0.1939 -0.0424 -1.7444
 6083SOL     OW29710   0.729   2.888   4.102  0.4911  0.1381 -0.4148
 6083SOL    HW129711   0.747   2.940   4.024 -1.2851  1.7188  0.2417
 6083SOL    HW229712   0.789   2.815   4.086  2.4751  1.7990 -0.5958
 6084SOL     OW29713   0.641   3.688   4.721  0.2869 -0.2680  0.7706
 6084SOL    HW129714   0.715   3.748   4.722  1.5111 -1.7791  1.3598
 6084SOL    HW229715   0.561   3.739   4.707  1.9064  2.2949  1.0137
 6085SOL     OW29716   3.596   2.748   1.449 -0.6197  0.1909 -0.0757
 6085SOL    HW129717   3.528   2.757   1.382  0.5089 -0.5387 -1.3462
 6085SOL    HW229718   3.652   2.699   1.388 -0.4422 -0.7751  0.8823
 6086SOL     OW29719   2.687   2.923  10.163 -0.3204  0.1574  0.0320
 6086SOL    HW129720   2.712   3.000  10.214  1.5829 -0.7871  0.5368
 6086SOL    HW229721   2.601   2.959  10.140 -0.2841 -0.2939 -0.8043
 6087SOL     OW29722   3.453   0.371  16.437  0.1036  0.0014  0.1923
 6087SOL    HW129723   3.532   0.379  16.384 -0.3697 -2.0416 -0.8195
 6087SOL    HW229724   3.388   0.395  16.371  1.7795 -0.7553 -1.7255
 6088SOL     OW29725   4.109   0.045   5.124 -0.4657 -0.3406  0.1390
 6088SOL    HW129726   4.181   0.064   5.184 -0.7850  2.0086 -0.2227
 6088SOL    HW229727   4.146   4.707   5.060  0.8180 -0.1545  0.7196
 6089SOL     OW29728   2.185   1.190   8.559  0.5769 -0.4224  0.1554
 6089SOL    HW129729   2.104   1.201   8.508  0.0192 -0.2751  1.0714
 6089SOL    HW229730   2.164   1.261   8.619  0.8498 -0.8105  0.7079
 6090SOL     OW29731   1.887   1.945   5.052 -0.4924 -0.0233  0.1356
 6090SOL    HW129732   1.826   1.883   5.092 -0.5792  0.4992  0.8112
 6090SOL    HW229733   1.880   1.921   4.960 -1.0750  1.3001 -0.1681
 6091SOL     OW29734   2.278   4.681   2.414 -0.1827 -0.9860  0.4897
 6091SOL    HW129735   2.306   4.649   2.328  1.6268  3.9318 -0.7646
 6091SOL    HW229736   2.277   0.051   2.390  1.2728 -0.7794  1.2391
 6092SOL     OW29737   4.576   3.019   6.823 -0.0880 -0.7083 -0.4204
 6092SOL    HW129738   4.593   3.102   6.778 -1.5423 -0.5374 -0.6543
 6092SOL    HW229739   4.616   3.038   6.908 -2.0304  0.6186  0.1856
 6093SOL     OW29740   2.200   1.304   8.185  1.0392  0.2011 -0.2003
 6093SOL    HW129741   2.281   1.348   8.212  1.0972  0.5132 -0.8806
 6093SOL    HW229742   2.134   1.360   8.225  1.0524 -0.1006  0.2419
 6094SOL     OW29743   3.154   3.406   6.066  0.8768  0.3029  0.0403
 6094SOL    HW129744   3.246   3.386   6.084  0.6459  0.5773  1.5556
 6094SOL    HW229745   3.107   3.348   6.126  1.8457 -1.0977 -0.5753
 6095SOL     OW29746   0.894   2.697   6.439 -0.4305 -0.1498  0.0651
 6095SOL    HW129747   0.902   2.774   6.495  2.8960  0.0826 -0.7379
 6095SOL    HW229748   0.978   2.655   6.459 -0.8417  0.5320  3.2480
 6096SOL     OW29749   1.249   2.364   9.465 -0.2590  0.3641 -0.6434
 6096SOL    HW129750   1.252   2.271   9.490  0.2441 -0.7767 -4.8487
 6096SOL    HW229751   1.195   2.358   9.386  0.2896  1.1279 -1.0825
 6097SOL     OW29752   0.506   1.564   6.217  0.4814  0.2230 -0.2275
 6097SOL    HW129753   0.472   1.484   6.258 -1.8456  0.7682 -1.0958
 6097SOL    HW229754   0.457   1.627   6.269  2.5025  1.3735  0.2891
 6098SOL     OW29755   3.899   2.884   1.004  0.0858 -0.2206  0.1795
 6098SOL    HW129756   3.952   2.843   1.072 -0.1879 -0.7141  0.0957
 6098SOL    HW229757   3.822   2.829   1.017 -0.7804  0.9877  0.0890
 6099SOL     OW29758   1.192   2.887   8.072  0.1401 -0.7336  0.3979
 6099SOL    HW129759   1.117   2.881   8.012 -0.2129  3.8937  0.3511
 6099SOL    HW229760   1.196   2.980   8.093 -1.0426 -0.3960 -0.8256
 6100SOL     OW29761   1.323   1.233   2.693 -0.1063 -0.2039  0.0017
 6100SOL    HW129762   1.365   1.177   2.627  0.7065  0.9592 -0.4670
 6100SOL    HW229763   1.238   1.189   2.698  1.2624 -2.5692  2.1785
 6101SOL     OW29764   1.770   2.467  13.634 -0.1062 -0.9162  0.0132
 6101SOL    HW129765   1.797   2.376  13.644  2.4527 -0.1601 -0.1178
 6101SOL    HW229766   1.833   2.512  13.691  1.0122 -1.4688 -0.7938
 6102SOL     OW29767   3.062   1.392   8.682 -0.0080  0.4315 -0.1262
 6102SOL    HW129768   3.044   1.480   8.647 -1.8953 -0.0167 -0.2898
 6102SOL    HW229769   3.121   1.353   8.618 -0.1916  0.0211 -0.0436
 6103SOL     OW29770   4.453   1.100   2.030  0.5804 -0.2358 -0.1343
 6103SOL    HW129771   4.505   1.026   2.062  1.6918  0.4661 -0.3275
 6103SOL    HW229772   4.412   1.063   1.951  1.8113 -0.2856 -0.7541
 6104SOL     OW29773   2.732   2.140   4.399 -0.6517 -0.2615  0.2310
 6104SOL    HW129774   2.685   2.205   4.450  0.8184  1.4695 -0.6372
 6104SOL    HW229775   2.787   2.181   4.333 -1.5608  0.2249 -0.2299
 6105SOL     OW29776   0.326   0.546   1.567  0.0279 -0.3031 -0.0788
 6105SOL    HW129777   0.346   0.592   1.485 -0.6373  0.5970  0.2607
 6105SOL    HW229778   0.330   0.455   1.540 -1.6352 -0.7638  1.2287
 6106SOL     OW29779   3.624   2.572   1.928 -0.1213  0.3271  0.1607
 6106SOL    HW129780   3.624   2.641   1.995  0.3553  1.0664 -0.5998
 6106SOL    HW229781   3.688   2.613   1.869 -3.1898  0.5792 -2.9641
 6107SOL     OW29782   4.170   4.453   8.320 -0.2271 -0.0135 -0.3199
 6107SOL    HW129783   4.140   4.399   8.393 -2.0611  0.8357 -0.4303
 6107SOL    HW229784   4.169   4.396   8.243 -2.6920 -2.3570  1.4410
 6108SOL     OW29785   2.185   3.460   8.659 -0.2092 -0.4341  0.0611
 6108SOL    HW129786   2.143   3.437   8.742  1.3942 -1.0552  0.6915
 6108SOL    HW229787   2.132   3.537   8.636 -1.3005 -1.3176 -0.4016
 6109SOL     OW29788   3.455   3.147   7.624 -0.0148  0.4030  0.4283
 6109SOL    HW129789   3.483   3.206   7.553  1.6290  0.0376  0.7722
 6109SOL    HW229790   3.543   3.110   7.637 -0.2473 -0.7724 -1.3428
 6110SOL     OW29791   2.412   2.247   9.021  0.2496 -0.0754  0.1566
 6110SOL    HW129792   2.414   2.162   8.977  0.9466 -0.9786  1.9391
 6110SOL    HW229793   2.507   2.255   9.031  0.0666 -0.1772  1.9187
 6111SOL     OW29794   4.390   2.785   9.162 -0.0551 -0.0179  0.1291
 6111SOL    HW129795   4.317   2.725   9.173  0.8014 -0.9971  0.4811
 6111SOL    HW229796   4.448   2.726   9.114 -2.3846 -1.1114 -1.3223
 6112SOL     OW29797   1.456   1.396   6.273 -0.4854  0.4003  0.1610
 6112SOL    HW129798   1.467   1.302   6.286  2.0370  0.5547 -0.9668
 6112SOL    HW229799   1.493   1.421   6.358 -1.6455 -0.2408  0.8644
 6113SOL     OW29800   4.642   1.113  10.481  0.0547  0.2179  0.1310
 6113SOL    HW129801   4.632   1.186  10.542 -5.1028  0.8935 -1.5911
 6113SOL    HW229802   4.557   1.112  10.439 -0.1464 -1.1064  0.5567
 6114SOL     OW29803   2.424   3.214   8.110 -0.3513  0.1790 -0.1901
 6114SOL    HW129804   2.404   3.188   8.020 -1.0193  1.8682 -0.5456
 6114SOL    HW229805   2.518   3.199   8.117 -0.3134 -0.2735 -1.6861
 6115SOL     OW29806   0.563   2.048  17.405  0.4317 -0.5215  0.3845
 6115SOL    HW129807   0.528   2.041  17.317  0.2687 -0.5727  0.4539
 6115SOL    HW229808   0.520   1.968  17.434  1.2143 -1.2518 -0.5152
 6116SOL     OW29809   0.661   3.360   5.587 -0.4816 -0.2112  0.0054
 6116SOL    HW129810   0.569   3.341   5.606 -0.0571 -2.4062 -0.1479
 6116SOL    HW229811   0.662   3.411   5.507 -0.1283 -2.0994 -1.1902
 6117SOL     OW29812   1.100   3.709  16.177  0.2927  0.1924  0.2484
 6117SOL    HW129813   1.066   3.781  16.123  0.6265  0.7107  0.7275
 6117SOL    HW229814   1.067   3.730  16.264 -2.0344 -0.4541 -0.4740
 6118SOL     OW29815   1.625   3.747   2.047 -0.2738 -0.4785  0.4220
 6118SOL    HW129816   1.685   3.711   2.113  1.2898 -0.4221 -0.9731
 6118SOL    HW229817   1.638   3.839   2.067 -4.4266 -0.1842  1.6573
 6119SOL     OW29818   1.160   0.669   2.318 -0.1740 -0.1784  0.0595
 6119SOL    HW129819   1.074   0.710   2.319  0.1241  0.3679  3.5151
 6119SOL    HW229820   1.136   0.585   2.357 -0.1956  0.1678  0.7874
 6120SOL     OW29821   4.682   1.526   9.467 -0.1839 -0.3327 -0.0817
 6120SOL    HW129822   4.721   1.477   9.539 -0.9173 -1.8039 -0.6929
 6120SOL    HW229823   4.633   1.460   9.418 -0.4468  0.1382 -0.4570
 6121SOL     OW29824   3.863   2.669  16.343  0.5124  0.5128  0.1739
 6121SOL    HW129825   3.928   2.683  16.275 -1.1967  1.4737 -1.2796
 6121SOL    HW229826   3.803   2.736  16.308  0.7544 -0.6928 -2.5418
 6122SOL     OW29827   2.192   0.818   6.334  0.0018  0.0254 -0.3850
 6122SOL    HW129828   2.138   0.808   6.256 -1.9960  0.2653  0.9927
 6122SOL    HW229829   2.155   0.749   6.390  1.0489  1.2451  1.8182
 6123SOL     OW29830   2.253   0.940   5.653  0.3008  0.0337 -0.2479
 6123SOL    HW129831   2.207   0.977   5.577 -1.2021 -2.2557 -0.4329
 6123SOL    HW229832   2.328   0.898   5.612  0.1751 -1.2164  0.8382
 6124SOL     OW29833   3.165   1.628   8.455 -0.1830 -0.7346  0.1632
 6124SOL    HW129834   3.233   1.686   8.421 -0.2127 -0.3735  0.7035
 6124SOL    HW229835   3.148   1.651   8.547  0.8531 -1.6118  0.5770
 6125SOL     OW29836   4.112   1.431   9.271  0.0070  0.0408  0.0518
 6125SOL    HW129837   4.163   1.357   9.240  1.7848  1.0290  0.5769
 6125SOL    HW229838   4.168   1.508   9.259  1.0753 -0.4667  1.7370
 6126SOL     OW29839   3.121   3.049   4.463 -0.1360 -0.6814  0.2697
 6126SOL    HW129840   3.163   3.078   4.383  1.3488 -1.7959  0.6411
 6126SOL    HW229841   3.196   3.071   4.519 -0.3870  0.4007  0.1811
 6127SOL     OW29842   3.776   3.138   4.144 -0.7694 -0.4540 -0.1009
 6127SOL    HW129843   3.864   3.103   4.160 -0.4056  0.3388 -0.3762
 6127SOL    HW229844   3.793   3.231   4.156 -0.7342 -0.5966  0.9134
 6128SOL     OW29845   2.819   1.208  14.681 -0.0292 -0.5888 -0.0385
 6128SOL    HW129846   2.827   1.185  14.773 -2.0214 -0.6345  0.1298
 6128SOL    HW229847   2.763   1.137  14.650 -0.4584 -1.0648  1.8293
 6129SOL     OW29848   1.160   3.279  16.241 -0.4808  0.1925 -0.2578
 6129SOL    HW129849   1.129   3.212  16.179  0.9555  0.3999 -1.1892
 6129SOL    HW229850   1.136   3.354  16.187 -2.0569  0.4661  0.7925
 6130SOL     OW29851   2.900   0.913   8.127  0.1062  0.2026 -0.2549
 6130SOL    HW129852   2.864   0.829   8.098  0.5911 -0.1093  0.0428
 6130SOL    HW229853   2.889   0.922   8.222 -2.8182  1.4168 -0.6992
 6131SOL     OW29854   2.333   4.668   7.291  0.3109  0.5253 -0.7426
 6131SOL    HW129855   2.394   4.644   7.361 -1.5431  1.2995  1.1348
 6131SOL    HW229856   2.376   4.639   7.210  0.8409 -2.3917  0.5894
 6132SOL     OW29857   2.454   3.017   2.332  0.3427  0.1307 -0.2656
 6132SOL    HW129858   2.474   3.088   2.272 -1.0340  0.7374 -0.0183
 6132SOL    HW229859   2.414   2.955   2.271 -0.3055  1.8738 -1.6117
 6133SOL     OW29860   2.801   4.491   2.302  0.0239  0.3483 -0.3605
 6133SOL    HW129861   2.828   4.530   2.218 -3.8499  0.4810 -1.5279
 6133SOL    HW229862   2.877   4.523   2.351  1.5125 -0.8258 -1.8852
 6134SOL     OW29863   4.384   2.895  17.313 -0.2011 -0.1963  0.2828
 6134SOL    HW129864   4.306   2.944  17.339  0.2841  0.3238  0.7494
 6134SOL    HW229865   4.406   2.862  17.400 -2.1744 -0.4558  0.6838
 6135SOL     OW29866   3.592   1.979   2.056  0.7533  0.8592 -0.2849
 6135SOL    HW129867   3.622   2.034   2.128 -1.7119  0.1958  1.2291
 6135SOL    HW229868   3.674   1.932   2.037  0.4293  0.3770 -0.4896
 6136SOL     OW29869   2.374   4.420   3.139  0.8336  0.2286  0.7962
 6136SOL    HW129870   2.445   4.412   3.075  0.6544  1.8941  0.3956
 6136SOL    HW229871   2.356   4.514   3.141  0.7940  0.2839 -1.8885
 6137SOL     OW29872   0.307   1.235   7.674 -0.2186  0.2519  0.7151
 6137SOL    HW129873   0.238   1.170   7.659  1.0940 -0.7903 -0.7965
 6137SOL    HW229874   0.373   1.187   7.724  0.8921  1.0751  0.0355
 6138SOL     OW29875   0.837   2.963   8.492  0.2744  1.0378 -0.0441
 6138SOL    HW129876   0.858   3.052   8.465 -1.5306  1.5480  0.2493
 6138SOL    HW229877   0.909   2.918   8.447  0.8027  0.0683  1.7566
 6139SOL     OW29878   0.974   3.331  10.229  0.4129 -0.2818 -0.0677
 6139SOL    HW129879   0.969   3.403  10.165 -2.1438  1.4187  2.0574
 6139SOL    HW229880   0.882   3.306  10.233  0.2586  0.1882 -0.6451
 6140SOL     OW29881   3.871   1.530   8.489 -0.2404 -0.4351 -0.3694
 6140SOL    HW129882   3.845   1.622   8.486  2.0711  0.2634  0.9924
 6140SOL    HW229883   3.967   1.539   8.490 -0.1186 -1.5789 -1.6768
 6141SOL     OW29884   1.583   1.320  15.869  0.2838  0.0960 -0.1168
 6141SOL    HW129885   1.495   1.351  15.847  0.1922  0.0928  0.2526
 6141SOL    HW229886   1.618   1.301  15.782  5.1133 -0.3292  1.9674
 6142SOL     OW29887   1.547   1.724   6.177 -0.4756  0.4894 -0.1471
 6142SOL    HW129888   1.499   1.642   6.188  0.1091  0.6490  3.5888
 6142SOL    HW229889   1.515   1.779   6.248  0.3638 -1.3230  1.6397
 6143SOL     OW29890   2.694   2.435   4.025 -0.1413  0.1493 -0.2806
 6143SOL    HW129891   2.600   2.453   4.023 -0.2456 -0.3854 -0.1732
 6143SOL    HW229892   2.699   2.393   3.939 -0.4814  0.6432 -0.5431
 6144SOL     OW29893   3.440   1.571   2.634  0.0877 -0.0906 -0.3304
 6144SOL    HW129894   3.456   1.495   2.578 -0.1649  1.6211 -2.7161
 6144SOL    HW229895   3.532   1.597   2.644 -0.1947  0.5921  0.5140
 6145SOL     OW29896   3.393   2.893   6.432  0.4720 -0.1719  0.2880
 6145SOL    HW129897   3.343   2.812   6.445 -1.5528  1.1617  0.8217
 6145SOL    HW229898   3.366   2.951   6.503  2.6503  0.3151  0.7173
 6146SOL     OW29899   1.684   2.479  10.043  0.2985 -0.6139 -0.0484
 6146SOL    HW129900   1.695   2.385  10.025 -1.4527 -1.0899  1.2764
 6146SOL    HW229901   1.628   2.504   9.969 -0.3683  1.1659  1.0654
 6147SOL     OW29902   1.501   0.196   4.492 -0.1768  0.3522 -0.8477
 6147SOL    HW129903   1.523   0.162   4.405  0.7890  0.9193 -0.8273
 6147SOL    HW229904   1.482   0.112   4.534  1.0560 -0.3717 -1.7420
 6148SOL     OW29905   3.940   1.758   0.257 -0.5253  0.1375 -0.5708
 6148SOL    HW129906   4.001   1.692   0.290 -1.5082 -0.9346 -0.9109
 6148SOL    HW229907   3.858   1.712   0.274 -1.1170  1.4055  0.0368
 6149SOL     OW29908   2.873   1.837   4.466 -0.5360 -0.7988 -0.3019
 6149SOL    HW129909   2.913   1.917   4.499  1.5566 -1.5647 -0.9793
 6149SOL    HW229910   2.898   1.778   4.536  0.0829 -0.3015 -0.1059
 6150SOL     OW29911   2.654   1.212   1.017 -0.2009 -0.4309 -0.1883
 6150SOL    HW129912   2.620   1.124   1.034 -0.2436 -0.6094 -1.1933
 6150SOL    HW229913   2.742   1.203   1.053 -1.2186  1.9062  2.8135
 6151SOL     OW29914   3.031   3.219   5.805 -0.1253  0.6619  0.1095
 6151SOL    HW129915   3.016   3.132   5.767  1.2054  1.5749 -2.5070
 6151SOL    HW229916   3.043   3.265   5.722  0.6247  1.9130  0.9193
 6152SOL     OW29917   4.592   3.933   7.777  0.7706 -0.2171  0.6848
 6152SOL    HW129918   4.502   3.940   7.810  0.6918  0.0804  0.4089
 6152SOL    HW229919   4.637   4.000   7.829  3.2894 -0.2229 -1.5135
 6153SOL     OW29920   0.814   1.739   8.201  0.4655  0.2832  0.0825
 6153SOL    HW129921   0.829   1.817   8.148 -2.3640  2.3958  2.3974
 6153SOL    HW229922   0.718   1.734   8.209  0.5450  2.0572  1.9350
 6154SOL     OW29923   2.099   2.334  12.676  0.4908  0.0206 -0.1639
 6154SOL    HW129924   2.141   2.391  12.741 -2.3290  1.0283  0.7337
 6154SOL    HW229925   2.028   2.389  12.646  0.3914  0.3217  0.6370
 6155SOL     OW29926   3.633   0.180   7.248  0.4121 -0.6312  0.1187
 6155SOL    HW129927   3.637   0.099   7.299  0.9360 -0.8881 -0.3217
 6155SOL    HW229928   3.718   0.217   7.270 -1.1122  1.4167  2.5019
 6156SOL     OW29929   0.654   3.681  11.324 -0.2410 -0.1275 -0.9155
 6156SOL    HW129930   0.729   3.622  11.324 -1.0873 -1.2008 -1.0153
 6156SOL    HW229931   0.635   3.690  11.231  2.7691  0.1187 -1.4952
 6157SOL     OW29932   0.948   3.355   1.369 -0.2072  0.3799  0.1025
 6157SOL    HW129933   0.981   3.272   1.335 -1.4405  0.1976 -0.6204
 6157SOL    HW229934   1.034   3.398   1.370 -1.0965  2.1796 -1.9121
 6158SOL     OW29935   3.587   3.940  13.855 -0.4777 -0.3228  0.0956
 6158SOL    HW129936   3.602   4.022  13.902  1.8129 -0.3518 -0.5852
 6158SOL    HW229937   3.673   3.934  13.815  0.4765 -2.5727  2.4905
 6159SOL     OW29938   1.926   4.436   6.445 -0.4378 -0.0304  0.0899
 6159SOL    HW129939   1.913   4.382   6.523 -0.5612 -1.0477 -0.6381
 6159SOL    HW229940   1.851   4.492   6.463 -2.3229 -2.7533  0.6673
 6160SOL     OW29941   1.873   3.042   9.201 -0.6426 -0.6638  0.1283
 6160SOL    HW129942   1.891   2.951   9.177 -1.0863 -0.5399 -0.6776
 6160SOL    HW229943   1.812   3.068   9.132 -1.3734 -1.2099  0.5703
 6161SOL     OW29944   0.900   1.022   2.394  0.0300 -0.5026  0.0473
 6161SOL    HW129945   0.823   1.037   2.450  0.1834  0.9720 -0.1186
 6161SOL    HW229946   0.939   1.109   2.400 -1.0472 -0.1137  1.6949
 6162SOL     OW29947   2.890   3.635   4.225  0.2240 -0.0499  0.2975
 6162SOL    HW129948   2.880   3.566   4.290 -0.0942  0.2142  0.5327
 6162SOL    HW229949   2.876   3.714   4.278 -1.5560 -0.5317  0.5502
 6163SOL     OW29950   4.293   2.464   8.217 -0.0568 -0.3027  0.3285
 6163SOL    HW129951   4.263   2.377   8.190  2.4765 -1.4311  1.0798
 6163SOL    HW229952   4.304   2.501   8.130 -0.1952  1.9258  1.2756
 6164SOL     OW29953   0.533   2.321  11.556 -0.0427 -0.3430 -0.9631
 6164SOL    HW129954   0.547   2.260  11.484 -0.3769 -2.0541  0.4304
 6164SOL    HW229955   0.482   2.261  11.611  3.4018 -1.2333  1.2711
 6165SOL     OW29956   3.404   1.764   8.662 -1.2685  0.0199  0.2747
 6165SOL    HW129957   3.404   1.783   8.568 -3.2283  4.2901  1.1350
 6165SOL    HW229958   3.451   1.681   8.665  1.0830  1.3797  1.0951
 6166SOL     OW29959   2.112   1.484  10.166 -0.0911  0.7724  0.8298
 6166SOL    HW129960   2.065   1.555  10.122  1.0405  0.5966 -0.6438
 6166SOL    HW229961   2.063   1.405  10.141  1.8294  0.2902 -1.3484
 6167SOL     OW29962   3.346   2.214   8.851 -0.0849 -0.3154 -0.3098
 6167SOL    HW129963   3.261   2.257   8.841  0.0104  0.2536  1.2347
 6167SOL    HW229964   3.396   2.287   8.888 -0.8417  0.5456 -0.9761
 6168SOL     OW29965   3.256   2.420   5.392  0.2980 -0.1973  0.1631
 6168SOL    HW129966   3.184   2.362   5.368 -1.2595  1.0116  1.8498
 6168SOL    HW229967   3.202   2.490   5.430  1.7820  0.9230  0.2117
 6169SOL     OW29968   2.478   2.880   4.233  0.2326 -0.5849 -0.1178
 6169SOL    HW129969   2.425   2.874   4.153 -0.9822  0.8156  0.5841
 6169SOL    HW229970   2.414   2.914   4.295  2.8528  2.1542  1.0645
 6170SOL     OW29971   3.070   3.945   2.025  0.1285 -0.6834 -0.2665
 6170SOL    HW129972   3.041   3.865   1.980  0.4561 -0.7371 -0.3826
 6170SOL    HW229973   3.101   3.904   2.106  0.2985  0.2781  0.1457
 6171SOL     OW29974   3.470   4.072   5.951  0.1142 -0.2528  0.4723
 6171SOL    HW129975   3.521   3.995   5.928  2.2336  0.7447  1.8421
 6171SOL    HW229976   3.414   4.035   6.020 -0.6249  0.1244  0.0684
 6172SOL     OW29977   3.126   2.875   6.785 -0.6161  0.3476  0.2211
 6172SOL    HW129978   3.122   2.860   6.691 -0.8503  0.5415  0.2023
 6172SOL    HW229979   3.194   2.810   6.804  0.1371  0.6435 -1.5167
 6173SOL     OW29980   2.842   3.030   8.625  0.3848 -0.3847  0.1126
 6173SOL    HW129981   2.867   3.122   8.635  1.9997 -0.6305 -1.8500
 6173SOL    HW229982   2.916   2.994   8.577  1.2030  0.9781  0.3304
 6174SOL     OW29983   2.384   0.538   6.597  0.4651  0.1836  0.2261
 6174SOL    HW129984   2.315   0.488   6.640  1.1655  0.3597  1.5652
 6174SOL    HW229985   2.410   0.481   6.525 -1.0449  0.9485 -0.9033
 6175SOL     OW29986   3.858   3.753   5.979  0.5321  0.9436 -0.3399
 6175SOL    HW129987   3.803   3.823   6.014 -1.0170  0.0377 -0.9495
 6175SOL    HW229988   3.860   3.773   5.885 -1.4280 -0.5481 -0.7109
 6176SOL     OW29989   4.082   1.269   1.960  0.0357 -0.3451  0.0488
 6176SOL    HW129990   4.029   1.295   1.885 -1.1061 -0.5716  0.7843
 6176SOL    HW229991   4.085   1.174   1.952  1.0221 -0.2067 -1.3615
 6177SOL     OW29992   1.108   1.045   8.928 -0.0960 -0.1413  0.6219
 6177SOL    HW129993   1.088   1.131   8.966  0.9904  0.6800 -0.6569
 6177SOL    HW229994   1.204   1.039   8.928 -0.0469  0.7438 -0.5185
 6178SOL     OW29995   0.878   1.260   5.051  0.0940 -0.5086 -0.2864
 6178SOL    HW129996   0.810   1.319   5.082 -0.2274 -1.1439  0.2201
 6178SOL    HW229997   0.863   1.179   5.100 -2.3502 -0.1812 -0.4812
 6179SOL     OW29998   1.651   3.378   5.492  0.0422  0.4461  0.8031
 6179SOL    HW129999   1.667   3.332   5.575 -0.4013  0.6121  0.9790
 6179SOL    HW230000   1.630   3.464   5.527 -0.1130  0.5495  0.4494
 6180SOL     OW30001   0.919   4.585   7.676 -0.3895  0.0222 -0.4855
 6180SOL    HW130002   0.984   4.614   7.739 -0.5601 -1.2399  0.2774
 6180SOL    HW230003   0.949   4.495   7.661 -1.8143 -0.4476 -0.5530
 6181SOL     OW30004   0.127   3.194  16.534  0.0511 -0.9450  0.2906
 6181SOL    HW130005   0.163   3.156  16.614 -0.6362  1.1447  1.5796
 6181SOL    HW230006   0.183   3.144  16.474  1.9759  0.5347  0.8565
 6182SOL     OW30007   1.851   0.076  13.453  0.1250 -0.3060 -0.5529
 6182SOL    HW130008   1.847   0.011  13.523 -0.2710  0.6545  0.3074
 6182SOL    HW230009   1.760   0.093  13.431 -0.1023  1.5607  1.8233
 6183SOL     OW30010   3.753   1.116  17.198 -0.1963 -0.1148  0.2195
 6183SOL    HW130011   3.822   1.080  17.143  0.4542 -0.8587  1.5324
 6183SOL    HW230012   3.675   1.065  17.175 -0.6206  0.2236  0.9229
 6184SOL     OW30013   0.567   4.688   7.974  0.1102 -0.1975 -0.3038
 6184SOL    HW130014   0.498   4.722   7.917  1.3041  0.5813 -1.2801
 6184SOL    HW230015   0.550   0.012   8.057 -0.6176 -1.0693  0.0290
 6185SOL     OW30016   3.747   4.362   4.031  0.4907 -0.1725 -0.0287
 6185SOL    HW130017   3.761   4.321   4.116  0.1557 -1.0640 -0.4015
 6185SOL    HW230018   3.823   4.418   4.018  2.5089 -2.7643  0.6961
 6186SOL     OW30019   1.387   3.767  10.385  0.2132  0.4944 -0.7171
 6186SOL    HW130020   1.384   3.861  10.404 -0.4827  0.2636  0.2980
 6186SOL    HW230021   1.298   3.738  10.367  0.1084  0.5767 -0.3226
 6187SOL     OW30022   4.584   3.382   4.732  0.2378 -0.0364  0.3313
 6187SOL    HW130023   4.546   3.297   4.712 -0.2991  0.0281  1.0960
 6187SOL    HW230024   4.518   3.442   4.699  1.5638  0.5503 -1.2760
 6188SOL     OW30025   2.445   0.156   6.665 -0.3194 -0.1270 -0.1244
 6188SOL    HW130026   2.522   0.169   6.719 -1.2988  1.3324  0.9107
 6188SOL    HW230027   2.383   0.137   6.736  0.7750  2.9091  1.6353
 6189SOL     OW30028   1.579   0.208   7.877  0.0713  0.5800 -0.1369
 6189SOL    HW130029   1.601   0.293   7.840 -0.6510  1.0389  0.5074
 6189SOL    HW230030   1.548   0.226   7.965  1.1804  0.5592  0.2637
 6190SOL     OW30031   3.576   2.463   1.557  0.2370 -0.0918 -0.6021
 6190SOL    HW130032   3.585   2.557   1.573 -1.9180  0.0068  0.0266
 6190SOL    HW230033   3.489   2.451   1.519 -1.3591  0.9732  2.7139
 6191SOL     OW30034   4.446   3.246   1.786  0.0434  0.0704 -0.2461
 6191SOL    HW130035   4.443   3.178   1.853  1.0164  0.9438  0.6814
 6191SOL    HW230036   4.409   3.208   1.706 -0.8790 -2.0714  1.2033
 6192SOL     OW30037   2.801   4.527   9.645 -0.4706  0.4475  0.1263
 6192SOL    HW130038   2.739   4.477   9.592  1.6871 -3.6972  1.5241
 6192SOL    HW230039   2.782   4.501   9.735  1.4846 -0.1268  0.3597
 6193SOL     OW30040   3.346   3.562   4.208  0.0814  0.4701 -0.1459
 6193SOL    HW130041   3.315   3.500   4.274  0.1057  0.6353  0.0195
 6193SOL    HW230042   3.267   3.587   4.160  1.0183  0.6812 -1.5744
 6194SOL     OW30043   2.394   2.960   4.553  0.2531 -0.3531  0.1778
 6194SOL    HW130044   2.344   2.879   4.557 -0.0918 -0.0809  1.2691
 6194SOL    HW230045   2.477   2.947   4.507  0.8833 -1.1019  1.5283
 6195SOL     OW30046   3.086   3.610   7.020 -0.0695  0.4015  1.1051
 6195SOL    HW130047   3.109   3.517   7.016  1.0416  0.7254  0.2361
 6195SOL    HW230048   2.991   3.616   7.008  0.3952  1.0936 -2.0317
 6196SOL     OW30049   0.594   0.876   6.105 -0.6318 -0.5813 -0.1835
 6196SOL    HW130050   0.605   0.942   6.173 -0.7539 -1.8590  1.0623
 6196SOL    HW230051   0.655   0.818   6.150  1.4366 -0.1044 -2.3646
 6197SOL     OW30052   4.597   3.148  17.072 -0.5180  0.1613  0.3778
 6197SOL    HW130053   4.527   3.083  17.067  1.5705 -2.0596 -0.0852
 6197SOL    HW230054   4.556   3.232  17.092  0.7507  1.1935 -1.3333
 6198SOL     OW30055   0.661   3.459   3.302  0.3872 -0.2808  0.1932
 6198SOL    HW130056   0.583   3.498   3.264  1.8778  1.9965 -0.5179
 6198SOL    HW230057   0.701   3.540   3.334  0.8293 -0.7130  0.7631
 6199SOL     OW30058   1.483   3.669   7.200 -0.4535  0.2984  0.4190
 6199SOL    HW130059   1.551   3.729   7.230  1.1725 -0.6105 -1.4416
 6199SOL    HW230060   1.506   3.664   7.107 -2.1272  1.5941 -0.0575
 6200SOL     OW30061   3.185   1.233   9.792 -0.0755 -0.5412  0.5407
 6200SOL    HW130062   3.097   1.270   9.789 -0.8371 -2.3163  0.8229
 6200SOL    HW230063   3.170   1.149   9.748 -0.1676 -0.3774  0.2599
 6201SOL     OW30064   0.416   4.329   9.067 -0.5222 -0.9653  0.0977
 6201SOL    HW130065   0.381   4.300   9.151 -3.5996  1.8107 -0.2084
 6201SOL    HW230066   0.447   4.247   9.028 -1.2207 -0.4871 -1.4672
 6202SOL     OW30067   4.094   0.102   9.741 -0.5558 -0.5893  0.0394
 6202SOL    HW130068   4.185   0.129   9.749  0.0117 -2.3686 -0.4865
 6202SOL    HW230069   4.110   0.011   9.716  1.0695 -0.2868 -0.0299
 6203SOL     OW30070   1.044   4.331   3.916 -0.6707  0.2034  0.3070
 6203SOL    HW130071   1.092   4.343   3.834 -2.2279  0.3809 -0.5915
 6203SOL    HW230072   1.000   4.415   3.926 -0.7947 -0.1293  2.4434
 6204SOL     OW30073   1.218   1.612   5.856  0.1236  0.1179 -0.2688
 6204SOL    HW130074   1.246   1.627   5.946 -0.2632 -0.8406  0.0207
 6204SOL    HW230075   1.277   1.541   5.827 -0.0233  0.1431 -0.6325
 6205SOL     OW30076   3.927   4.208  11.237  0.5897  0.1879 -0.0125
 6205SOL    HW130077   3.968   4.248  11.313  0.5845 -0.5205  0.3678
 6205SOL    HW230078   3.974   4.248  11.165 -0.2786  1.3882  0.0842
 6206SOL     OW30079   2.900   4.119   6.090 -0.3279 -0.1330 -0.0313
 6206SOL    HW130080   2.923   4.078   6.007 -0.9519  2.1159 -1.3324
 6206SOL    HW230081   2.912   4.212   6.068  0.3983 -0.1883  0.1356
 6207SOL     OW30082   4.434   4.314  16.710 -0.8106  0.3945  0.8221
 6207SOL    HW130083   4.509   4.343  16.659 -2.2903  2.1975 -0.3495
 6207SOL    HW230084   4.460   4.238  16.762  0.8268  1.4351  1.5078
 6208SOL     OW30085   4.546   0.522   4.554  0.1225 -0.0292 -0.2169
 6208SOL    HW130086   4.537   0.613   4.583 -0.2634 -0.2285  0.2786
 6208SOL    HW230087   4.615   0.497   4.615 -1.1661 -0.7364  0.9321
 6209SOL     OW30088   1.222   2.096   5.284 -0.0468  0.2990  0.4979
 6209SOL    HW130089   1.221   2.070   5.192  3.8250 -0.7201  0.7678
 6209SOL    HW230090   1.223   2.188   5.258 -1.0138  0.5461  1.3035
 6210SOL     OW30091   4.508   2.211   8.167 -0.0979  0.5828  0.5488
 6210SOL    HW130092   4.506   2.165   8.251  0.1675 -2.4190 -1.0596
 6210SOL    HW230093   4.414   2.215   8.147 -0.3445 -1.4053  1.2843
 6211SOL     OW30094   0.223   2.080   4.140  0.4612  0.1661  0.1322
 6211SOL    HW130095   0.136   2.051   4.166  1.1623 -1.8870  0.1350
 6211SOL    HW230096   0.269   2.033   4.209 -0.0606 -3.1813 -1.7937
 6212SOL     OW30097   0.614   4.036   6.460 -0.5334 -0.8986  0.2454
 6212SOL    HW130098   0.606   3.948   6.424 -0.3845 -1.1260  0.7633
 6212SOL    HW230099   0.706   4.059   6.444 -0.7984  0.4661  0.6315
 6213SOL     OW30100   1.273   0.035   5.029  0.4589  0.0115  0.3373
 6213SOL    HW130101   1.266   4.662   5.039  2.0841  0.0080  1.5803
 6213SOL    HW230102   1.283   0.056   5.122  2.1457 -0.5969  0.2975
 6214SOL     OW30103   2.759   3.694  17.606 -0.0817 -1.1314 -0.3289
 6214SOL    HW130104   2.805   3.770  17.572 -2.3835  0.1067 -0.6950
 6214SOL    HW230105   2.748   3.641  17.526  0.6130 -2.3177  0.3584
 6215SOL     OW30106   4.421   1.548   8.982 -0.1521 -0.0744  0.0459
 6215SOL    HW130107   4.485   1.592   8.925  1.8959 -2.0560  0.8074
 6215SOL    HW230108   4.399   1.467   8.938  1.7715  1.2577 -3.3728
 6216SOL     OW30109   2.887   0.307   8.861  0.0229  0.1117  0.3933
 6216SOL    HW130110   2.948   0.369   8.902 -0.8363  0.5190  1.0406
 6216SOL    HW230111   2.847   0.356   8.789 -1.0654 -0.4587  0.6100
 6217SOL     OW30112   3.367   0.077   6.719 -0.4414  0.1443 -0.2244
 6217SOL    HW130113   3.370   4.705   6.705  1.5904  0.0572  0.8215
 6217SOL    HW230114   3.452   0.101   6.682 -0.2401  1.8687  1.3425
 6218SOL     OW30115   1.669   0.098   9.513  0.5546 -0.1072  0.0306
 6218SOL    HW130116   1.585   0.097   9.559  0.6722 -1.3759  0.2238
 6218SOL    HW230117   1.644   0.165   9.450  0.4655  0.0076  0.1877
 6219SOL     OW30118   3.277   0.406   5.313  0.6760  0.0198  0.3591
 6219SOL    HW130119   3.190   0.446   5.311  0.9621  0.6900  0.9346
 6219SOL    HW230120   3.244   0.317   5.319  1.6651 -0.1972  2.5779
 6220SOL     OW30121   0.880   3.851   4.716 -0.4159 -0.7027  0.0403
 6220SOL    HW130122   0.828   3.914   4.768  0.5484  0.1078  0.0163
 6220SOL    HW230123   0.969   3.861   4.748 -0.3093 -2.4151  0.2659
 6221SOL     OW30124   3.673   2.285   5.251 -0.0537  0.0842 -0.5592
 6221SOL    HW130125   3.701   2.374   5.272 -0.1764  0.4606 -2.0055
 6221SOL    HW230126   3.630   2.257   5.331 -1.1508  0.4612 -1.0265
 6222SOL     OW30127   4.025   2.527  10.470  0.5945  0.5507 -0.1682
 6222SOL    HW130128   3.995   2.566  10.388  0.5239 -0.9508 -0.8467
 6222SOL    HW230129   4.005   2.588  10.542 -0.2067  0.4074 -0.2683
 6223SOL     OW30130   1.129   2.258   4.177  0.5152  0.1007  0.0358
 6223SOL    HW130131   1.101   2.253   4.086  3.9240  0.9789 -1.0503
 6223SOL    HW230132   1.176   2.342   4.172  0.0114  0.4277  0.7717
 6224SOL     OW30133   3.782   3.569   7.767 -0.4806 -0.5996  0.7735
 6224SOL    HW130134   3.775   3.484   7.723 -0.4680 -0.9838  1.5029
 6224SOL    HW230135   3.868   3.558   7.807 -0.0522  2.0123  0.5606
 6225SOL     OW30136   1.725   0.016   8.653 -0.0614  0.6397 -0.1996
 6225SOL    HW130137   1.741   4.676   8.582 -2.7742 -0.5084  0.2092
 6225SOL    HW230138   1.697   0.093   8.605  0.2402  0.4207 -0.7345
 6226SOL     OW30139   4.699   0.607  11.936  0.1140  0.0563 -0.3589
 6226SOL    HW130140   4.636   0.540  11.960  1.0643 -0.8227 -0.3485
 6226SOL    HW230141   0.055   0.552  11.935 -0.9143 -1.4215  1.4507
 6227SOL     OW30142   3.322   0.723  13.688 -0.1595  0.6318  0.0112
 6227SOL    HW130143   3.400   0.710  13.742 -0.6973 -1.2760  0.3458
 6227SOL    HW230144   3.295   0.632  13.677 -2.8490  1.5486 -0.8544
 6228SOL     OW30145   0.027   0.136   7.855  0.4136  0.0417 -0.0179
 6228SOL    HW130146   4.719   0.059   7.806  0.8270 -0.8479  1.1167
 6228SOL    HW230147   0.016   0.201   7.785 -1.1966 -1.0597 -0.7877
 6229SOL     OW30148   1.214   1.995  12.727 -0.2224  0.0122  0.3323
 6229SOL    HW130149   1.154   1.941  12.778 -0.4621  0.2745  0.3216
 6229SOL    HW230150   1.172   2.081  12.724  0.9494  0.5771  0.0775
 6230SOL     OW30151   1.941   0.532   5.254  0.4069 -0.0515 -0.0124
 6230SOL    HW130152   1.891   0.471   5.199 -0.9959 -0.3385  1.5798
 6230SOL    HW230153   1.968   0.605   5.199 -1.3849 -1.0614 -2.2433
 6231SOL     OW30154   0.793   1.070   5.582  0.2728  0.2016  0.4150
 6231SOL    HW130155   0.858   1.002   5.598  1.2702  0.9634 -0.4748
 6231SOL    HW230156   0.741   1.055   5.662 -3.3271  0.1066 -1.9329
 6232SOL     OW30157   2.561   2.207   7.582  0.6342  0.9032 -0.1731
 6232SOL    HW130158   2.655   2.202   7.596 -0.0536 -0.7541  4.1297
 6232SOL    HW230159   2.556   2.207   7.487  1.1740  1.3143 -0.1976
 6233SOL     OW30160   2.013   2.901  17.386  0.4433  0.4479 -0.1450
 6233SOL    HW130161   2.107   2.910  17.398  0.1595  1.6150  1.1661
 6233SOL    HW230162   1.968   2.954  17.452  3.1339 -0.9175  2.7519
 6234SOL     OW30163   0.422   3.790   8.708  0.1137 -0.0961  0.3328
 6234SOL    HW130164   0.507   3.828   8.690 -1.0125  0.3490 -4.0113
 6234SOL    HW230165   0.437   3.761   8.798  2.1443 -1.3939 -0.4305
 6235SOL     OW30166   0.725   0.013  15.006 -0.3330  0.1817  0.3651
 6235SOL    HW130167   0.709   4.719  15.099  0.3064 -0.4742  0.3599
 6235SOL    HW230168   0.654   4.695  14.956  0.5682  0.8911 -1.4961
 6236SOL     OW30169   1.070   0.809   1.240  0.2097  0.0063  0.3708
 6236SOL    HW130170   1.111   0.878   1.188 -2.4139  0.2313 -1.4095
 6236SOL    HW230171   1.081   0.838   1.331  1.6227 -1.4516  0.6451
 6237SOL     OW30172   2.260   3.219   4.057  0.4698 -0.8246  0.3650
 6237SOL    HW130173   2.184   3.163   4.041 -1.3556  1.2863  1.5495
 6237SOL    HW230174   2.251   3.286   3.989  0.8839 -0.7445  0.3925
 6238SOL     OW30175   2.467   3.759  16.595 -0.1708  0.7640 -0.4514
 6238SOL    HW130176   2.454   3.666  16.610  2.9887  0.7244  1.9679
 6238SOL    HW230177   2.419   3.801  16.667  0.0007 -1.0975  0.7416
 6239SOL     OW30178   2.028   4.055   1.143  0.0346  0.2902  0.0699
 6239SOL    HW130179   2.076   3.999   1.204  0.9664  2.2086  1.1062
 6239SOL    HW230180   2.033   4.140   1.187  4.1374  0.0732  0.0197
 6240SOL     OW30181   0.821   0.074   1.717  0.0252  0.0200  0.0510
 6240SOL    HW130182   0.912   0.065   1.745  1.1870  0.7304 -3.5187
 6240SOL    HW230183   0.774   4.717   1.743  0.7353 -0.6387 -0.6680
 6241SOL     OW30184   2.323   1.263   6.870 -0.2803 -0.5425  0.0612
 6241SOL    HW130185   2.377   1.209   6.813 -0.2191  0.9458 -1.3071
 6241SOL    HW230186   2.377   1.342   6.873  0.9214 -1.4223  1.4115
 6242SOL     OW30187   4.410   0.801   7.835 -0.1292  0.1618 -0.0307
 6242SOL    HW130188   4.384   0.729   7.777  1.8518 -0.1362 -0.5573
 6242SOL    HW230189   4.332   0.816   7.889  0.2156  1.3893  0.1219
 6243SOL     OW30190   0.434   2.401  16.328 -0.3689  0.1362  0.4464
 6243SOL    HW130191   0.345   2.436  16.316 -0.6153 -1.5348 -2.6388
 6243SOL    HW230192   0.489   2.474  16.357 -1.0516 -0.3999  3.0789
 6244SOL     OW30193   4.682   3.511   6.828 -0.2329 -0.2263 -0.1963
 6244SOL    HW130194   4.637   3.537   6.748 -0.5473 -0.0824  0.0246
 6244SOL    HW230195   4.640   3.426   6.846  1.2530 -0.6029  1.4838
 6245SOL     OW30196   0.934   0.735   7.457  0.7401 -0.4368 -0.5796
 6245SOL    HW130197   1.013   0.719   7.509  0.2748  0.6533  0.4581
 6245SOL    HW230198   0.904   0.820   7.489  1.3665 -1.0939  1.7424
 6246SOL     OW30199   2.777   3.466   5.672  0.4367  0.0832 -0.0223
 6246SOL    HW130200   2.719   3.538   5.698  0.5267  0.1188  0.0768
 6246SOL    HW230201   2.715   3.401   5.706 -0.8375  0.8400 -0.8742
 6247SOL     OW30202   3.125   1.673  13.793 -0.5531  0.0262  0.4754
 6247SOL    HW130203   3.175   1.671  13.712  0.0479  2.0467  0.8052
 6247SOL    HW230204   3.043   1.717  13.768 -0.5614 -0.4376 -0.2923
 6248SOL     OW30205   2.449   2.906   7.777  0.0808 -0.2057 -0.6206
 6248SOL    HW130206   2.394   2.889   7.701 -2.3659  0.0593  1.0812
 6248SOL    HW230207   2.538   2.876   7.758  0.6587  0.7077  0.6530
 6249SOL     OW30208   3.883   4.270   3.584 -0.0072 -0.3678  0.8077
 6249SOL    HW130209   3.855   4.213   3.656 -1.1520 -0.8966 -0.0614
 6249SOL    HW230210   3.957   4.222   3.548 -0.3748 -3.0065  3.5933
 6250SOL     OW30211   1.798   2.306   7.186 -0.2437 -0.3854  0.0259
 6250SOL    HW130212   1.774   2.377   7.246 -1.0308 -3.0711  2.8870
 6250SOL    HW230213   1.718   2.253   7.182  0.1961 -0.9008 -2.0608
 6251SOL     OW30214   2.333   2.087  12.685  0.1809  0.1367  0.4374
 6251SOL    HW130215   2.416   2.076  12.638  0.7568  1.3400  1.1871
 6251SOL    HW230216   2.369   2.095  12.773 -0.6391 -1.5728  0.9239
 6252SOL     OW30217   0.285   2.561   2.808 -0.2177  0.4413 -0.3410
 6252SOL    HW130218   0.265   2.651   2.783  1.8115  1.7535  2.8120
 6252SOL    HW230219   0.237   2.510   2.742 -1.9593  0.1961  1.1286
 6253SOL     OW30220   1.222   1.494   5.136  0.7095 -0.3409 -0.4767
 6253SOL    HW130221   1.246   1.580   5.169 -0.4364 -0.1077 -0.2523
 6253SOL    HW230222   1.165   1.455   5.202 -0.6087  1.7492 -0.3835
 6254SOL     OW30223   4.336   1.774   3.301  0.5311  0.4049  0.1048
 6254SOL    HW130224   4.327   1.838   3.231  1.9216  0.2262 -0.2240
 6254SOL    HW230225   4.378   1.705   3.250  0.3624  0.5252 -0.1980
 6255SOL     OW30226   0.826   3.626   2.881  0.5292 -0.3115  0.1373
 6255SOL    HW130227   0.860   3.640   2.792 -0.1745 -2.1230 -0.4063
 6255SOL    HW230228   0.763   3.697   2.882  2.0845  1.0996 -1.7422
 6256SOL     OW30229   4.570   2.185   5.422 -0.4324 -0.2224  0.1188
 6256SOL    HW130230   4.656   2.227   5.433 -1.2195  0.7295  2.7050
 6256SOL    HW230231   4.526   2.225   5.496  0.6833 -1.4436  1.4354
 6257SOL     OW30232   3.592   1.808   9.232 -0.6780 -0.8643  0.4659
 6257SOL    HW130233   3.564   1.789   9.321  0.2162  2.4891  1.4789
 6257SOL    HW230234   3.510   1.790   9.185 -0.3346  0.2980 -0.5908
 6258SOL     OW30235   3.486   0.224  13.212  0.5487  0.2486  0.0947
 6258SOL    HW130236   3.403   0.252  13.252 -0.8273 -2.4370 -0.8457
 6258SOL    HW230237   3.545   0.291  13.247  0.3919  0.7940 -0.6913
 6259SOL     OW30238   3.910   2.679  10.666 -0.2256 -0.6702 -0.0320
 6259SOL    HW130239   3.827   2.690  10.713 -0.1213 -0.9114  0.2092
 6259SOL    HW230240   3.960   2.731  10.728  1.7627 -0.8054 -1.5212
 6260SOL     OW30241   0.682   1.432  10.515  0.2810 -0.0940 -0.0563
 6260SOL    HW130242   0.730   1.367  10.566  1.2415  0.3462 -0.4076
 6260SOL    HW230243   0.752   1.492  10.491 -0.6524  0.7919 -0.5529
 6261SOL     OW30244   1.086   1.074   2.654  0.0486  0.3245  0.1040
 6261SOL    HW130245   1.043   1.020   2.588  1.8499  1.1682 -1.7717
 6261SOL    HW230246   1.118   1.001   2.708  1.2214  0.9618  0.2830
 6262SOL     OW30247   3.461   0.789   6.165 -0.0598 -0.0820  0.1360
 6262SOL    HW130248   3.374   0.754   6.150 -0.0579  1.2512 -3.0239
 6262SOL    HW230249   3.520   0.714   6.172 -1.1467 -0.8606  0.8531
 6263SOL     OW30250   3.594   4.449  14.540 -0.3576 -0.2915 -0.2761
 6263SOL    HW130251   3.580   4.414  14.452 -1.8578  0.7394 -0.4398
 6263SOL    HW230252   3.514   4.497  14.561 -0.6105 -1.7713  2.2167
 6264SOL     OW30253   0.786   3.213   7.302 -0.2420 -0.5297  0.5059
 6264SOL    HW130254   0.858   3.225   7.239  0.3074 -1.1740  1.0136
 6264SOL    HW230255   0.809   3.124   7.330 -1.0658 -0.0708  2.6063
 6265SOL     OW30256   2.650   3.990   3.162  0.8085 -0.6321  0.2967
 6265SOL    HW130257   2.744   3.978   3.177  0.7249 -3.0999 -1.1589
 6265SOL    HW230258   2.628   3.909   3.209 -1.1956 -0.4590 -0.3361
 6266SOL     OW30259   3.818   4.033   1.525 -0.3062  0.2082  0.3005
 6266SOL    HW130260   3.738   4.079   1.502 -1.0526 -2.3172 -2.1295
 6266SOL    HW230261   3.856   4.105   1.575  1.7941 -0.1662 -0.7505
 6267SOL     OW30262   0.669   1.083  14.679  0.1152  0.6542 -0.6000
 6267SOL    HW130263   0.662   1.043  14.592 -1.6293  0.3249 -0.3255
 6267SOL    HW230264   0.618   1.163  14.669 -1.3500 -0.0660  0.8924
 6268SOL     OW30265   1.715   4.375  13.116  0.4928 -0.3581  0.6542
 6268SOL    HW130266   1.746   4.452  13.164 -1.6544  0.0158  1.4250
 6268SOL    HW230267   1.781   4.308  13.132  0.4385 -0.3954  0.7249
 6269SOL     OW30268   2.688   0.179   6.774  0.1200  0.5457 -0.5764
 6269SOL    HW130269   2.746   0.115   6.816 -0.5793 -0.5006 -1.2187
 6269SOL    HW230270   2.688   0.252   6.837 -1.2633 -1.3878  1.6524
 6270SOL     OW30271   1.530   0.850   3.194  0.4061 -0.1089 -0.1801
 6270SOL    HW130272   1.587   0.925   3.207  3.7496 -2.7482  0.5102
 6270SOL    HW230273   1.591   0.796   3.144 -1.0854 -3.4466  1.5753
 6271SOL     OW30274   0.094   0.734   4.589  0.2284 -0.6229  0.3798
 6271SOL    HW130275   0.045   0.799   4.640 -1.6000 -1.1691 -0.6776
 6271SOL    HW230276   0.084   0.772   4.502 -0.1293 -0.0240  0.6806
 6272SOL     OW30277   4.314   0.501  13.109  0.1375 -0.0759  0.1572
 6272SOL    HW130278   4.265   0.442  13.051  3.6578 -2.4632 -0.4215
 6272SOL    HW230279   4.295   0.587  13.071  0.4447 -0.9036 -1.9066
 6273SOL     OW30280   0.093   1.032   5.789 -0.2024 -0.2534 -0.1423
 6273SOL    HW130281   0.042   1.081   5.853 -0.4977  0.6841 -1.0745
 6273SOL    HW230282   0.024   0.991   5.735 -0.8508  0.4469  0.1453
 6274SOL     OW30283   0.586   2.506   7.959 -0.0372 -0.0741 -0.3956
 6274SOL    HW130284   0.559   2.436   7.900 -1.0214  0.0173 -0.0504
 6274SOL    HW230285   0.575   2.572   7.890 -1.0887 -0.8134 -0.9266
 6275SOL     OW30286   3.464   0.738  17.129  0.2583 -0.6128 -0.2716
 6275SOL    HW130287   3.502   0.816  17.088 -0.4883 -0.6769 -1.0904
 6275SOL    HW230288   3.414   0.705  17.054 -2.6611  2.3443  0.3392
 6276SOL     OW30289   3.450   3.897   7.024 -1.2224 -0.1123 -0.9335
 6276SOL    HW130290   3.484   3.977   7.064  0.3822 -1.4588  0.4021
 6276SOL    HW230291   3.357   3.917   7.015 -1.8712 -1.8634  1.8092
 6277SOL     OW30292   1.972   3.268  16.434 -0.6947  0.3857 -0.3611
 6277SOL    HW130293   2.028   3.229  16.501 -1.5981  2.5074  1.6370
 6277SOL    HW230294   1.940   3.188  16.392 -1.0607  1.7144 -2.6048
 6278SOL     OW30295   0.749   3.758  17.614 -0.2772 -0.3468  0.1354
 6278SOL    HW130296   0.718   3.771   0.013  0.6386  2.6864  0.0253
 6278SOL    HW230297   0.664   3.736  17.578  0.0250 -0.7509 -0.3355
 6279SOL     OW30298   3.563   1.662   3.511  0.3650  0.4244  0.1944
 6279SOL    HW130299   3.494   1.620   3.563 -1.9418  1.7791 -1.7923
 6279SOL    HW230300   3.540   1.748   3.546  0.5103  0.5045  0.0899
 6280SOL     OW30301   3.607   0.631  16.067 -0.1347 -0.7909 -0.0952
 6280SOL    HW130302   3.549   0.556  16.056 -1.5263  0.1031  1.1233
 6280SOL    HW230303   3.548   0.679  16.125  0.2118  0.1410 -0.5064
 6281SOL     OW30304   1.682   1.551   3.514  0.0561 -0.2895 -0.5915
 6281SOL    HW130305   1.633   1.485   3.466  3.2924 -2.7899 -0.4514
 6281SOL    HW230306   1.662   1.534   3.606  1.5277  3.1133  0.3695
 6282SOL     OW30307   3.106   2.332   0.228 -0.1961 -0.4106  0.2708
 6282SOL    HW130308   3.014   2.348   0.250  0.2222 -0.2054  1.8453
 6282SOL    HW230309   3.156   2.411   0.245  1.3633 -0.8445 -2.2313
 6283SOL     OW30310   2.776   3.279   7.388  1.3442  0.3808 -0.7536
 6283SOL    HW130311   2.792   3.291   7.482  0.7969 -0.8102 -0.5033
 6283SOL    HW230312   2.689   3.319   7.386  0.7555 -0.8755 -0.4874
 6284SOL     OW30313   4.572   1.598   5.855  0.2295 -0.2093  0.1713
 6284SOL    HW130314   4.607   1.673   5.808  2.7493 -3.2715 -2.8290
 6284SOL    HW230315   4.563   1.633   5.944 -0.5124 -0.0356  0.0239
 6285SOL     OW30316   2.926   4.501   7.945  0.1658  0.1753 -0.2440
 6285SOL    HW130317   3.022   4.500   7.940  0.2569  0.8677  1.3573
 6285SOL    HW230318   2.938   4.427   8.005  0.7601  0.1377 -0.4119
 6286SOL     OW30319   4.625   1.343  14.189  0.0870  0.1121 -0.1968
 6286SOL    HW130320   4.583   1.257  14.188  0.3684 -0.0198 -0.7145
 6286SOL    HW230321   4.567   1.391  14.248 -1.5066  0.5496 -2.1022
 6287SOL     OW30322   1.839   0.592   6.341  0.1018  0.6300 -0.2570
 6287SOL    HW130323   1.912   0.632   6.388 -0.9621  0.1513  1.7806
 6287SOL    HW230324   1.838   0.505   6.380 -1.6717  0.4859 -0.6418
 6288SOL     OW30325   3.626   2.686   4.113 -0.0534  0.4952 -0.2812
 6288SOL    HW130326   3.638   2.762   4.169 -2.1024  1.4586 -1.1672
 6288SOL    HW230327   3.686   2.705   4.041  1.3276  0.5075  0.8878
 6289SOL     OW30328   4.033   3.057   8.435  0.2736  0.0513  0.5582
 6289SOL    HW130329   3.954   3.002   8.438  1.7204 -1.9869  0.9712
 6289SOL    HW230330   3.994   3.144   8.421  1.3259  0.2117 -1.4801
 6290SOL     OW30331   1.606   0.749   1.236 -0.7890 -0.8022 -0.2776
 6290SOL    HW130332   1.625   0.669   1.187 -1.0686 -0.3243 -1.1769
 6290SOL    HW230333   1.679   0.808   1.214 -0.2730 -1.0169  0.8930
 6291SOL     OW30334   1.778   1.357  10.248 -0.6027 -0.2092 -0.1736
 6291SOL    HW130335   1.862   1.332  10.212 -1.1663 -2.5829  0.1299
 6291SOL    HW230336   1.728   1.344  10.167  0.5003  0.3724 -0.9355
 6292SOL     OW30337   3.804   1.551   5.339  0.5281  0.3090 -0.3563
 6292SOL    HW130338   3.715   1.537   5.372 -0.4651  1.0414 -2.7536
 6292SOL    HW230339   3.851   1.557   5.423  1.1794 -0.6313 -0.6556
 6293SOL     OW30340   4.501   4.603   8.127  0.0308 -0.1388 -0.0451
 6293SOL    HW130341   4.586   4.596   8.083  0.2357 -1.2117  0.5122
 6293SOL    HW230342   4.449   4.589   8.048 -0.2308 -1.4081  0.3459
 6294SOL     OW30343   3.585   3.382   5.223  0.1624 -0.3101 -0.4576
 6294SOL    HW130344   3.679   3.381   5.244  0.5525 -2.0099 -2.2818
 6294SOL    HW230345   3.581   3.293   5.190 -3.1299  0.0624 -1.0241
 6295SOL     OW30346   0.259   3.884  11.194  0.6104 -0.1892 -0.1145
 6295SOL    HW130347   0.349   3.862  11.170  0.3248 -1.5153  0.0534
 6295SOL    HW230348   0.244   3.815  11.259  1.7414  2.1683  2.6819
 6296SOL     OW30349   3.422   2.972   5.077 -0.1146 -0.1448  0.3073
 6296SOL    HW130350   3.354   2.914   5.041  1.3493 -0.8625 -1.2661
 6296SOL    HW230351   3.378   3.057   5.073 -0.6499 -0.3717  1.3861
 6297SOL     OW30352   2.247   3.551   6.744  0.2968 -0.6958 -0.5101
 6297SOL    HW130353   2.220   3.459   6.747  1.6521 -1.0889 -0.3676
 6297SOL    HW230354   2.265   3.578   6.834 -2.1699 -2.3431  0.4836
 6298SOL     OW30355   2.242   3.234  15.239  0.6166  0.2403  0.2362
 6298SOL    HW130356   2.290   3.153  15.225 -0.6780 -0.1563 -1.7762
 6298SOL    HW230357   2.235   3.266  15.149  2.6448  0.9076  0.3106
 6299SOL     OW30358   3.080   4.607   8.838  0.0925  0.0402 -0.0676
 6299SOL    HW130359   3.162   4.651   8.816  0.2346  1.0621  2.5171
 6299SOL    HW230360   3.079   4.531   8.780 -2.1882 -0.9693  1.2651
 6300SOL     OW30361   2.758   4.431   7.020  0.3622 -0.1107  0.0247
 6300SOL    HW130362   2.842   4.473   7.004 -0.3059  1.0281 -0.4966
 6300SOL    HW230363   2.725   4.436   6.931  1.7328 -0.0756 -0.4709
 6301SOL     OW30364   1.709   1.571   8.277  0.3009  0.3119 -0.0972
 6301SOL    HW130365   1.650   1.499   8.295  0.7737  0.9311  3.9951
 6301SOL    HW230366   1.731   1.539   8.190  1.4085 -0.8692  0.6126
 6302SOL     OW30367   0.038   3.825   6.599  0.1462 -0.4744  0.0724
 6302SOL    HW130368   4.713   3.775   6.532  0.8661  2.0332 -2.2874
 6302SOL    HW230369   4.684   3.845   6.653 -0.3178  0.4028 -0.9108
 6303SOL     OW30370   2.415   3.698   4.674  0.0717  0.6331  0.4680
 6303SOL    HW130371   2.368   3.761   4.729  0.3238 -0.8638  2.3645
 6303SOL    HW230372   2.343   3.649   4.635 -1.0870  1.5725  1.4244
 6304SOL     OW30373   4.137   0.039   8.661 -0.1228  0.3622 -0.2766
 6304SOL    HW130374   4.191   4.704   8.715 -2.0760  0.1787  1.4803
 6304SOL    HW230375   4.205   0.069   8.601 -1.6361  0.2897 -2.0495
 6305SOL     OW30376   3.052   2.913   6.332 -0.5729 -0.1561 -0.1663
 6305SOL    HW130377   2.997   2.925   6.254 -0.8503  1.5414  0.3068
 6305SOL    HW230378   3.066   2.818   6.327  1.3722  0.2441 -2.0670
 6306SOL     OW30379   0.613   2.803   8.467 -0.1567  0.0703 -0.1963
 6306SOL    HW130380   0.653   2.717   8.451 -1.1112 -0.2249 -0.9838
 6306SOL    HW230381   0.691   2.857   8.478 -1.3089  1.3535  1.5961
 6307SOL     OW30382   4.492   0.857   4.272  0.4835  0.3041  0.0376
 6307SOL    HW130383   4.538   0.844   4.189 -1.2432  3.2983 -1.3962
 6307SOL    HW230384   4.422   0.912   4.236  2.1600  2.3707 -0.1109
 6308SOL     OW30385   0.200   2.180   5.953  0.2346  0.2137  0.2110
 6308SOL    HW130386   0.280   2.231   5.963 -1.0883  2.8351 -2.6472
 6308SOL    HW230387   0.195   2.174   5.858  0.8874 -2.2592  0.3339
 6309SOL     OW30388   1.006   2.631   8.688  0.0792  0.5183  0.2911
 6309SOL    HW130389   1.069   2.688   8.644 -1.4720  1.6030 -0.4850
 6309SOL    HW230390   0.977   2.685   8.762 -0.7916 -0.4552  0.6610
 6310SOL     OW30391   1.996   4.161   4.062 -0.1663 -0.1949  0.2227
 6310SOL    HW130392   2.069   4.200   4.109 -1.2140  2.8546 -0.6706
 6310SOL    HW230393   2.013   4.068   4.079 -1.2916 -0.1011  1.8687
 6311SOL     OW30394   1.209   0.259   4.675 -0.4540  0.6154 -0.4406
 6311SOL    HW130395   1.291   0.210   4.683  0.6872  2.7413  0.6697
 6311SOL    HW230396   1.180   0.262   4.766  1.5779  0.8586  0.1969
 6312SOL     OW30397   4.052   4.477   0.045  0.8361  0.0367  0.4818
 6312SOL    HW130398   3.975   4.494  17.681  0.9107  0.9635  0.6683
 6312SOL    HW230399   4.123   4.467  17.673  1.0217 -1.5152  0.9271
 6313SOL     OW30400   1.444   1.220   7.524  0.2876  0.1228 -0.7224
 6313SOL    HW130401   1.528   1.264   7.508  0.2011  0.5290 -0.0394
 6313SOL    HW230402   1.395   1.253   7.448 -0.7081  0.2073 -0.0362
 6314SOL     OW30403   0.448   0.155   8.883 -0.3741 -0.2964  0.7424
 6314SOL    HW130404   0.496   0.223   8.836  0.0866 -2.0981 -1.4057
 6314SOL    HW230405   0.364   0.200   8.884 -0.0161  0.3718  0.7331
 6315SOL     OW30406   4.656   2.375   3.188 -0.5822 -0.1484  0.1642
 6315SOL    HW130407   4.601   2.416   3.255 -0.5020 -0.8069  0.6386
 6315SOL    HW230408   4.592   2.322   3.141 -0.8389  1.0189 -0.7911
 6316SOL     OW30409   1.137   3.145   8.176  0.1278  0.3401  0.0289
 6316SOL    HW130410   1.120   3.152   8.270 -0.3605 -0.0880 -0.0237
 6316SOL    HW230411   1.110   3.231   8.145 -2.2227 -0.7154 -0.8890
 6317SOL     OW30412   0.801   0.857   0.144  0.1104 -0.5545  0.3537
 6317SOL    HW130413   0.803   0.853   0.048  0.1933  1.0301  0.2879
 6317SOL    HW230414   0.734   0.922   0.164  2.0656  1.5573  0.0681
 6318SOL     OW30415   2.069   1.149   5.158  0.4539 -0.0022  0.3270
 6318SOL    HW130416   2.147   1.110   5.117  0.1444  0.0467 -0.3150
 6318SOL    HW230417   2.050   1.090   5.231  0.3001  0.7653  0.8943
 6319SOL     OW30418   3.215   1.026   3.906 -0.4936  0.5832  0.2937
 6319SOL    HW130419   3.263   0.947   3.879 -0.4393  0.3501  1.0834
 6319SOL    HW230420   3.231   1.035   4.000  1.7538  0.3378 -0.0598
 6320SOL     OW30421   0.334   0.503   6.965 -0.0244 -0.2055  0.5290
 6320SOL    HW130422   0.419   0.461   6.958  0.9466  1.5890  1.4209
 6320SOL    HW230423   0.286   0.435   7.012 -2.0521  1.8445  1.4566
 6321SOL     OW30424   2.883   0.283  11.552 -0.0616 -0.3077 -0.1268
 6321SOL    HW130425   2.863   0.374  11.574 -0.8015 -0.4718 -0.1038
 6321SOL    HW230426   2.956   0.295  11.492 -0.0834  0.0028 -0.0899
 6322SOL     OW30427   1.849   3.151   8.353  0.3642 -0.4931 -0.0509
 6322SOL    HW130428   1.903   3.187   8.282  2.6709 -1.4753  1.1864
 6322SOL    HW230429   1.897   3.197   8.422  1.7458 -0.2515 -1.1567
 6323SOL     OW30430   2.838   3.452   9.737 -0.0956  0.0271 -0.7683
 6323SOL    HW130431   2.743   3.462   9.744  0.1755  1.1342  1.3665
 6323SOL    HW230432   2.849   3.479   9.646 -0.9405 -0.1778 -0.9353
 6324SOL     OW30433   3.747   1.717  13.507  0.3120 -0.5167  0.2173
 6324SOL    HW130434   3.723   1.657  13.437 -2.8671  0.2078  0.6847
 6324SOL    HW230435   3.824   1.757  13.467 -1.5504  3.2195  0.3944
 6325SOL     OW30436   2.133   2.678   8.478 -0.0497 -0.5549 -0.4237
 6325SOL    HW130437   2.062   2.655   8.538  1.6236  2.2611  2.6345
 6325SOL    HW230438   2.210   2.690   8.534  0.7897 -1.2902 -1.4140
 6326SOL     OW30439   3.449   4.267  11.502  0.2247  0.0719 -0.2595
 6326SOL    HW130440   3.510   4.194  11.495  0.7928  0.5945 -0.7339
 6326SOL    HW230441   3.401   4.258  11.420  0.0001  0.4899 -0.1765
 6327SOL     OW30442   4.022   2.905  13.758 -0.2847  0.3814  0.1385
 6327SOL    HW130443   4.093   2.969  13.749 -0.3508  0.4871  0.3900
 6327SOL    HW230444   3.953   2.966  13.780 -1.1563  0.1106 -1.7838
 6328SOL     OW30445   3.128   2.752   0.404 -0.0596 -0.0123 -0.6301
 6328SOL    HW130446   3.073   2.822   0.440  0.6935 -0.0512  0.6133
 6328SOL    HW230447   3.171   2.718   0.483 -0.1653  0.8977 -0.1787
 6329SOL     OW30448   2.114   2.655   2.213  0.1452 -0.3640 -0.1089
 6329SOL    HW130449   2.062   2.734   2.203  0.9351  0.5220  2.8678
 6329SOL    HW230450   2.135   2.632   2.122 -1.1380  1.5628 -0.8768
 6330SOL     OW30451   1.580   1.572   5.432  0.9888  0.1992 -0.4176
 6330SOL    HW130452   1.606   1.507   5.499 -0.2559  1.7936  1.6140
 6330SOL    HW230453   1.487   1.566   5.451  0.8039 -0.9134 -1.6813
 6331SOL     OW30454   0.658   4.227   7.503  0.4487 -0.2264  0.2645
 6331SOL    HW130455   0.684   4.139   7.531 -2.4979 -0.3791  2.5387
 6331SOL    HW230456   0.702   4.274   7.574  0.5427 -0.8188  0.5977
 6332SOL     OW30457   1.729   2.817   9.594 -0.0870  0.4755  0.0958
 6332SOL    HW130458   1.733   2.897   9.542 -1.1239  0.1898 -0.4258
 6332SOL    HW230459   1.812   2.823   9.641  0.7334 -0.8287 -1.2375
 6333SOL     OW30460   2.071   0.168  13.871 -0.0766  0.0736  0.1148
 6333SOL    HW130461   2.052   0.211  13.787 -0.1398 -0.6430 -0.2393
 6333SOL    HW230462   1.993   0.113  13.877 -1.8659  2.5679 -0.5626
 6334SOL     OW30463   0.039   4.558   7.988 -0.2768  0.2564  0.3715
 6334SOL    HW130464   0.053   4.598   7.902 -1.4517 -2.5197 -1.0984
 6334SOL    HW230465   0.115   4.598   8.030 -0.8853  1.7326  0.0691
 6335SOL     OW30466   3.397   4.190   6.226  0.3884  0.3732  0.5915
 6335SOL    HW130467   3.377   4.276   6.190 -1.7056  0.0849  1.0518
 6335SOL    HW230468   3.325   4.136   6.193 -0.7835  1.0658  1.9864
 6336SOL     OW30469   4.573   4.529  15.386 -0.1073 -0.2849  0.4822
 6336SOL    HW130470   4.565   4.608  15.334 -0.8317  0.5797  1.9029
 6336SOL    HW230471   4.494   4.533  15.440 -1.0369 -1.0438 -0.8287
 6337SOL     OW30472   3.213   2.638   7.349  0.4766  0.3871 -0.6117
 6337SOL    HW130473   3.297   2.649   7.393  1.1989 -0.2289 -1.8386
 6337SOL    HW230474   3.181   2.728   7.346 -1.0845 -0.1003  1.2311
 6338SOL     OW30475   2.967   3.725  16.060 -0.0474  0.0616 -0.0992
 6338SOL    HW130476   2.952   3.696  15.970 -1.5027  2.1017 -0.5142
 6338SOL    HW230477   2.925   3.651  16.104  1.1617  0.0504  1.0545
 6339SOL     OW30478   1.931   1.116  10.906 -0.0262  0.0516 -0.4743
 6339SOL    HW130479   1.875   1.104  10.829 -1.8839  0.2130  0.8503
 6339SOL    HW230480   1.973   1.200  10.889 -0.8491  1.0529  2.4510
 6340SOL     OW30481   1.172   3.841   6.426  0.3700  0.4406 -0.0208
 6340SOL    HW130482   1.244   3.894   6.390  0.5874 -0.2611 -0.6403
 6340SOL    HW230483   1.216   3.788   6.493  2.0976  1.0040 -0.6901
 6341SOL     OW30484   1.115   0.540   1.847 -0.2773 -0.5417  0.7668
 6341SOL    HW130485   1.095   0.612   1.906  2.2987  0.8016 -0.0310
 6341SOL    HW230486   1.048   0.563   1.782  0.3081  1.8883  1.0583
 6342SOL     OW30487   1.840   3.860   8.882 -0.2205  0.2229  0.3849
 6342SOL    HW130488   1.840   3.953   8.859 -0.6742  0.3057  0.6998
 6342SOL    HW230489   1.896   3.875   8.959 -0.5389  0.7456  0.5199
 6343SOL     OW30490   2.609   4.425   4.805  0.3817 -0.2821 -0.1926
 6343SOL    HW130491   2.683   4.390   4.854 -0.3241 -2.3750 -0.5921
 6343SOL    HW230492   2.625   4.518   4.818 -0.7219 -0.3038  1.3352
 6344SOL     OW30493   3.660   3.452  15.236 -0.1186 -0.3959  0.4915
 6344SOL    HW130494   3.687   3.445  15.327 -0.1098 -0.1106  0.5102
 6344SOL    HW230495   3.741   3.485  15.198 -1.4582  1.0922 -1.1267
 6345SOL     OW30496   4.124   2.776   5.899 -0.0425  0.6731  0.1402
 6345SOL    HW130497   4.116   2.870   5.880  0.2721  0.6561 -0.0794
 6345SOL    HW230498   4.056   2.742   5.841  1.6310  1.1859 -2.1226
 6346SOL     OW30499   1.863   3.329   2.514  0.0864  0.1374 -0.0496
 6346SOL    HW130500   1.882   3.423   2.513  1.9479 -0.2715 -1.7948
 6346SOL    HW230501   1.780   3.328   2.466  0.0575  1.3126 -0.0425
 6347SOL     OW30502   1.451   1.473   2.512 -0.3570  0.7550  0.0981
 6347SOL    HW130503   1.403   1.392   2.493  0.8091  0.3081 -0.9331
 6347SOL    HW230504   1.412   1.485   2.599 -2.1155 -1.2129 -0.3933
 6348SOL     OW30505   2.290   2.937  17.428 -0.2304 -0.0539  0.4725
 6348SOL    HW130506   2.301   2.844  17.407 -1.6746  0.1138 -1.0533
 6348SOL    HW230507   2.347   2.981  17.365  0.9287 -0.1712  1.4466
 6349SOL     OW30508   0.240   2.863  15.375  0.2121  0.5029  0.4173
 6349SOL    HW130509   0.150   2.853  15.406  0.0916  0.1154 -0.0549
 6349SOL    HW230510   0.249   2.951  15.412 -0.9829  1.3910 -1.4247
 6350SOL     OW30511   3.644   4.189   0.422  0.0235  0.7315 -0.0836
 6350SOL    HW130512   3.700   4.112   0.414 -0.9446 -0.0926  1.0604
 6350SOL    HW230513   3.658   4.238   0.341 -1.5606  0.9903 -0.2078
 6351SOL     OW30514   1.660   4.274   3.428  0.6668 -0.0448 -0.3550
 6351SOL    HW130515   1.613   4.348   3.390 -0.8538 -0.9991 -0.3339
 6351SOL    HW230516   1.610   4.258   3.507  1.4108 -0.9765 -0.0741
 6352SOL     OW30517   1.715   1.792  10.027  0.4613 -0.4670  0.1809
 6352SOL    HW130518   1.652   1.728  10.062  0.0876 -0.0755  0.2241
 6352SOL    HW230519   1.745   1.842  10.103 -0.2027  0.4145 -0.1437
 6353SOL     OW30520   2.338   2.624  17.516  0.1786  0.4624  0.8961
 6353SOL    HW130521   2.244   2.623  17.538 -0.3591  1.0184 -1.3498
 6353SOL    HW230522   2.343   2.561  17.444 -2.2044 -1.3341  2.3244
 6354SOL     OW30523   1.223   3.814   8.938 -0.3072  0.1575 -0.4018
 6354SOL    HW130524   1.297   3.874   8.944 -0.6110  0.5605 -0.6694
 6354SOL    HW230525   1.236   3.777   9.025 -0.4678  0.1867 -0.3647
 6355SOL     OW30526   4.246   0.423   6.016  0.1959  0.6266 -0.2344
 6355SOL    HW130527   4.307   0.357   6.050 -0.7585 -0.3434 -0.4220
 6355SOL    HW230528   4.219   0.467   6.096  0.2357  1.4438 -0.6709
 6356SOL     OW30529   0.970   4.228  14.378  0.0041  0.3961  0.0790
 6356SOL    HW130530   0.906   4.206  14.310  0.1684 -2.5672  0.8523
 6356SOL    HW230531   0.926   4.303  14.417 -0.1022  0.6219 -0.4784
 6357SOL     OW30532   2.658   0.987   3.937  0.3847 -0.6068  0.1402
 6357SOL    HW130533   2.632   0.898   3.962 -1.0334 -0.4578 -0.8381
 6357SOL    HW230534   2.734   0.970   3.881  0.4984 -1.2440  0.4836
 6358SOL     OW30535   3.633   3.304  13.226  0.1821  0.4008 -0.6092
 6358SOL    HW130536   3.538   3.306  13.213  0.0403  1.7367  0.6399
 6358SOL    HW230537   3.664   3.359  13.154  1.6769 -0.0702 -0.3163
 6359SOL     OW30538   1.407   2.369   5.439  0.5780  0.6994  0.0621
 6359SOL    HW130539   1.478   2.311   5.410 -0.7860 -0.1081 -1.7371
 6359SOL    HW230540   1.336   2.337   5.383 -0.9049  2.3172  1.0227
 6360SOL     OW30541   1.465   3.717   0.883 -0.1792  0.1223 -0.2802
 6360SOL    HW130542   1.440   3.625   0.889  0.6230 -0.0857 -0.0032
 6360SOL    HW230543   1.561   3.707   0.880 -0.2630 -0.7335 -0.1156
 6361SOL     OW30544   2.344   2.522   3.135  0.2196  0.2180 -0.3087
 6361SOL    HW130545   2.415   2.491   3.192  0.1779 -2.2213 -1.6094
 6361SOL    HW230546   2.266   2.507   3.189 -2.3752  0.8050 -3.8917
 6362SOL     OW30547   3.276   1.620   2.856  0.4067 -0.1688 -0.2494
 6362SOL    HW130548   3.320   1.598   2.773 -0.5128 -1.3600 -0.4217
 6362SOL    HW230549   3.348   1.602   2.917  0.1775  0.8378  0.3175
 6363SOL     OW30550   1.953   1.140   0.947  0.2781 -0.2697 -0.2657
 6363SOL    HW130551   2.043   1.166   0.928 -0.0488  0.0793 -1.3455
 6363SOL    HW230552   1.964   1.053   0.909  2.3395  0.4174 -1.1906
 6364SOL     OW30553   2.289   1.820  12.716 -0.0740  0.2861  0.4627
 6364SOL    HW130554   2.263   1.810  12.808 -1.8672  0.2502 -0.0448
 6364SOL    HW230555   2.291   1.915  12.702 -2.4841  0.0560 -1.4263
 6365SOL     OW30556   3.952   0.862   9.257 -0.0647 -0.0088  0.5349
 6365SOL    HW130557   3.971   0.864   9.351  2.0134 -0.0807  0.1184
 6365SOL    HW230558   3.856   0.866   9.264 -0.0446 -1.6915  1.4840
 6366SOL     OW30559   2.772   3.953  14.910  0.0015  0.5945  0.0252
 6366SOL    HW130560   2.679   3.957  14.930  0.4894 -0.7681  2.5317
 6366SOL    HW230561   2.809   4.021  14.966  2.2943 -0.3135 -0.3681
 6367SOL     OW30562   0.836   2.013   1.653  0.0383  0.1727  0.6006
 6367SOL    HW130563   0.864   1.974   1.570  2.8470  3.0163  0.2051
 6367SOL    HW230564   0.830   2.104   1.624 -1.2215 -0.1908 -0.2626
 6368SOL     OW30565   2.391   4.242   4.914  0.5409 -0.1131 -0.1853
 6368SOL    HW130566   2.484   4.255   4.934  0.9755 -1.1176 -1.6085
 6368SOL    HW230567   2.379   4.153   4.946  1.8391 -0.4086 -0.5439
 6369SOL     OW30568   0.319   2.368   6.733 -0.7591 -0.1599  0.2275
 6369SOL    HW130569   0.272   2.332   6.808 -0.5121  0.7867  0.8287
 6369SOL    HW230570   0.403   2.409   6.754  0.4840 -2.3443 -0.4811
 6370SOL     OW30571   2.907   3.632  13.577  0.1935  0.5769  0.6442
 6370SOL    HW130572   2.984   3.687  13.590  1.6732 -2.1295  3.1533
 6370SOL    HW230573   2.868   3.635  13.664 -0.6500 -1.6825  0.3426
 6371SOL     OW30574   3.670   0.689  12.723 -0.4029 -0.6235  0.5161
 6371SOL    HW130575   3.694   0.626  12.791  1.1413  0.5074  0.9961
 6371SOL    HW230576   3.675   0.771  12.772 -0.6598 -0.1968 -0.1705
 6372SOL     OW30577   4.632   1.595   2.221  0.5878 -0.0662 -0.7159
 6372SOL    HW130578   4.539   1.578   2.207  0.8809 -0.8038 -1.8023
 6372SOL    HW230579   4.660   1.522   2.277 -1.4011  1.0399  1.6659
 6373SOL     OW30580   0.569   2.688   7.029 -0.6524 -0.3236  0.3258
 6373SOL    HW130581   0.498   2.733   7.074 -0.8087 -0.3177  0.0732
 6373SOL    HW230582   0.546   2.604   7.070 -2.0023 -0.2567 -0.2793
 6374SOL     OW30583   1.687   1.132   1.807  0.9114 -0.1106 -0.3030
 6374SOL    HW130584   1.597   1.101   1.796  2.1724 -2.4830 -3.8709
 6374SOL    HW230585   1.711   1.083   1.886  3.3882  1.4412 -0.0929
 6375SOL     OW30586   0.993   3.090   2.092 -0.1172  0.5178  0.0637
 6375SOL    HW130587   1.028   3.167   2.137  1.2238 -0.4453  0.6907
 6375SOL    HW230588   1.073   3.037   2.098  0.4395  1.2295 -1.1516
 6376SOL     OW30589   4.299   1.806   1.712 -0.4594 -0.1384  0.0203
 6376SOL    HW130590   4.206   1.820   1.699 -0.4143  1.6826  1.6778
 6376SOL    HW230591   4.353   1.879   1.682 -0.3288  0.5907  2.0422
 6377SOL     OW30592   0.513   1.855   4.762  0.3077 -0.5171 -0.0065
 6377SOL    HW130593   0.547   1.818   4.680 -0.4322  3.4236 -2.0919
 6377SOL    HW230594   0.491   1.944   4.736 -1.3730 -0.1651  2.5719
 6378SOL     OW30595   2.295   3.647   0.222  0.0660  0.1449  0.2108
 6378SOL    HW130596   2.312   3.731   0.263 -0.4655  0.3652 -0.0254
 6378SOL    HW230597   2.378   3.644   0.174  0.4013  0.2541  0.7887
 6379SOL     OW30598   1.204   2.009   4.274 -0.3458 -0.1480 -0.4495
 6379SOL    HW130599   1.198   1.969   4.187  2.1023 -0.0561 -0.6470
 6379SOL    HW230600   1.208   2.103   4.253  0.3791  0.2866  1.6557
 6380SOL     OW30601   3.026   4.056   5.098  0.2305 -0.4463 -0.2339
 6380SOL    HW130602   3.101   4.108   5.127  0.5745  0.3231 -2.5411
 6380SOL    HW230603   3.067   3.969   5.098  0.0983 -0.5091 -0.8395
 6381SOL     OW30604   4.566   2.274   2.910 -0.3085 -0.5206  0.5286
 6381SOL    HW130605   4.533   2.333   2.842 -0.3973  0.8591  1.7725
 6381SOL    HW230606   4.636   2.334   2.938  0.5100 -1.3486  0.2455
 6382SOL     OW30607   2.412   2.789   1.736  0.5109  0.1744 -0.2273
 6382SOL    HW130608   2.395   2.862   1.677  0.2812 -1.3774 -2.0948
 6382SOL    HW230609   2.481   2.742   1.689  1.4443  1.9479 -0.6032
 6383SOL     OW30610   2.347   1.585   2.481 -0.1461 -0.1120  0.2242
 6383SOL    HW130611   2.356   1.574   2.386 -4.1641  0.9422 -0.2716
 6383SOL    HW230612   2.430   1.547   2.512  1.7774  1.2593 -3.1846
 6384SOL     OW30613   0.105   2.155   3.920 -0.5027 -0.3165 -0.0564
 6384SOL    HW130614   0.173   2.168   3.986 -0.7819 -3.6525  0.8674
 6384SOL    HW230615   0.106   2.061   3.900  1.2627  0.3498 -3.0423
 6385SOL     OW30616   3.729   2.887   8.026  0.1833 -0.2448 -0.2015
 6385SOL    HW130617   3.780   2.967   8.038 -0.0903 -0.0294 -0.4603
 6385SOL    HW230618   3.640   2.922   8.025  0.0454 -0.6456 -1.7053
 6386SOL     OW30619   3.474   0.435   5.507 -0.1795 -0.4957  0.2624
 6386SOL    HW130620   3.496   0.528   5.497 -2.0901 -0.2054 -1.2540
 6386SOL    HW230621   3.418   0.421   5.430 -1.1829 -1.7372  1.2234
 6387SOL     OW30622   0.704   3.805   4.327 -0.1168  0.2489 -0.6951
 6387SOL    HW130623   0.718   3.750   4.250  0.0933  2.1376 -1.9917
 6387SOL    HW230624   0.639   3.750   4.371  2.0596 -2.0952 -0.4075
 6388SOL     OW30625   2.280   1.621   4.728 -0.0842 -0.5119  0.0357
 6388SOL    HW130626   2.188   1.649   4.721 -0.7166 -2.3521  0.9294
 6388SOL    HW230627   2.325   1.670   4.659  0.7668 -1.5236 -0.1271
 6389SOL     OW30628   3.138   4.537   2.037 -0.2824  0.0192 -0.5142
 6389SOL    HW130629   3.173   4.474   1.974 -0.0599  1.2592 -1.6281
 6389SOL    HW230630   3.220   4.574   2.071 -0.2967 -0.4112 -0.0251
 6390SOL     OW30631   1.813   0.839   7.373 -0.4493  0.0979  0.8443
 6390SOL    HW130632   1.789   0.815   7.462 -0.6089 -1.4795  0.3754
 6390SOL    HW230633   1.746   0.904   7.351  0.5276  1.7112  2.6218
 6391SOL     OW30634   2.683   3.633   4.018 -0.4486  0.1375 -0.3505
 6391SOL    HW130635   2.605   3.607   4.067 -1.7545  0.4532 -2.2823
 6391SOL    HW230636   2.752   3.596   4.074  0.0375  1.6807  0.0743
 6392SOL     OW30637   1.449   2.878  10.977 -0.0691  0.6130 -0.2137
 6392SOL    HW130638   1.515   2.875  11.047  0.0629  2.3439 -0.2567
 6392SOL    HW230639   1.500   2.925  10.911  1.6460  1.4758  1.7100
 6393SOL     OW30640   4.559   0.667   4.812  0.1191  0.1006 -0.6169
 6393SOL    HW130641   4.529   0.712   4.733 -0.9474  0.6294  0.0800
 6393SOL    HW230642   4.609   0.730   4.863 -0.8862  0.8549 -0.5547
 6394SOL     OW30643   1.972   1.921  10.258 -0.4311  0.1208  0.2813
 6394SOL    HW130644   2.051   1.879  10.224 -1.7680 -1.8335 -0.4220
 6394SOL    HW230645   1.915   1.851  10.289 -2.3569  0.6760 -1.9558
 6395SOL     OW30646   3.746   3.815   1.165 -0.4024 -0.1810  0.6066
 6395SOL    HW130647   3.777   3.805   1.255  0.4753  1.7609  0.5310
 6395SOL    HW230648   3.733   3.910   1.163  2.7142  0.2271 -1.9268
 6396SOL     OW30649   0.627   3.870   1.396 -0.5882 -0.6271 -0.4917
 6396SOL    HW130650   0.702   3.886   1.339 -0.9703 -1.5293 -1.2548
 6396SOL    HW230651   0.650   3.781   1.424  0.2820 -0.5353 -0.9272
 6397SOL     OW30652   0.683   1.115   1.366 -0.2738  0.1967  0.5649
 6397SOL    HW130653   0.688   1.026   1.401  0.5734 -0.1322 -0.3699
 6397SOL    HW230654   0.665   1.099   1.273  1.2171 -1.0642  0.4904
 6398SOL     OW30655   1.873   1.348   8.961  0.2545  0.2874  0.1205
 6398SOL    HW130656   1.830   1.345   9.046 -0.9922  2.3329 -0.4492
 6398SOL    HW230657   1.839   1.265   8.927  1.7328 -0.3431  0.1655
 6399SOL     OW30658   0.210   0.669   9.193 -0.5905 -0.6564 -0.2462
 6399SOL    HW130659   0.146   0.671   9.265  0.3548 -1.7820  0.6360
 6399SOL    HW230660   0.161   0.656   9.112 -1.4281 -2.7260  0.5703
 6400SOL     OW30661   3.624   4.265   5.805  0.8118  0.1745 -0.7265
 6400SOL    HW130662   3.579   4.215   5.873 -0.5540 -0.4439 -2.0734
 6400SOL    HW230663   3.544   4.285   5.755  0.5819 -1.3063 -0.9697
 6401SOL     OW30664   4.329   4.144   1.249 -0.5251  0.2936  0.4536
 6401SOL    HW130665   4.386   4.085   1.299 -0.6671 -0.9999 -0.9037
 6401SOL    HW230666   4.387   4.196   1.194 -1.4790  1.3326  0.4419
 6402SOL     OW30667   0.372   0.416   9.172 -0.1707  0.4988  0.0963
 6402SOL    HW130668   0.283   0.452   9.162  0.0007  1.1954  1.1267
 6402SOL    HW230669   0.359   0.333   9.127  1.0960  0.7246 -0.6886
 6403SOL     OW30670   0.562   4.300   2.244  0.5157  0.8183 -0.0241
 6403SOL    HW130671   0.636   4.239   2.243  1.1511  1.5814  1.4569
 6403SOL    HW230672   0.507   4.268   2.316  0.5272  1.9591  0.4878
 6404SOL     OW30673   3.565   0.441   4.361 -0.2781  0.1255 -0.1761
 6404SOL    HW130674   3.623   0.367   4.343 -1.0301 -0.7177  0.9046
 6404SOL    HW230675   3.512   0.447   4.281 -2.1581 -0.1259  1.0526
 6405SOL     OW30676   1.512   2.533   9.102  0.1899 -0.0203 -0.1927
 6405SOL    HW130677   1.505   2.489   9.017 -0.5377 -2.7746  1.2809
 6405SOL    HW230678   1.442   2.599   9.099 -0.1025 -0.3062  0.2976
 6406SOL     OW30679   1.014   2.586   4.218  0.4239 -0.1868 -0.0410
 6406SOL    HW130680   0.941   2.608   4.160 -0.5848 -0.3203  1.2072
 6406SOL    HW230681   1.065   2.532   4.156  0.6990 -0.2731  0.2611
 6407SOL     OW30682   2.589   2.536   5.815 -0.3312  0.0346  0.4740
 6407SOL    HW130683   2.664   2.561   5.761  1.8122 -1.5511  2.6819
 6407SOL    HW230684   2.516   2.550   5.756  0.2878 -0.0100 -0.2992
 6408SOL     OW30685   0.784   2.521  15.831  0.1081  0.2550 -0.1846
 6408SOL    HW130686   0.742   2.443  15.795 -1.0854 -0.4888  2.8223
 6408SOL    HW230687   0.849   2.477  15.884 -0.8855  0.0707  0.8641
 6409SOL     OW30688   2.702   1.330   7.775  0.2004  0.1911 -0.4659
 6409SOL    HW130689   2.764   1.263   7.747  0.1559 -0.7553  1.7305
 6409SOL    HW230690   2.621   1.280   7.779  0.0520  0.3285 -1.6916
 6410SOL     OW30691   2.113   1.457   9.221  0.3772  0.3363 -0.7210
 6410SOL    HW130692   2.121   1.526   9.156 -1.1668 -0.0099 -1.2731
 6410SOL    HW230693   2.044   1.487   9.280 -0.0390 -0.2923 -0.8808
 6411SOL     OW30694   2.775   0.106   4.256 -0.2286  0.2391  0.6997
 6411SOL    HW130695   2.819   0.115   4.171  0.0111 -0.3860  0.7576
 6411SOL    HW230696   2.686   0.136   4.237 -0.6837 -1.8246 -0.3891
 6412SOL     OW30697   3.819   2.344   1.884  0.7369  0.5731 -0.5152
 6412SOL    HW130698   3.867   2.333   1.802 -0.5200  1.2535 -1.3464
 6412SOL    HW230699   3.762   2.418   1.865 -0.8909 -0.3696  0.7120
 6413SOL     OW30700   3.437   1.345  16.671  0.2201 -0.3070  0.6400
 6413SOL    HW130701   3.385   1.298  16.606  0.6795  0.7808 -0.5064
 6413SOL    HW230702   3.498   1.379  16.606  0.5868 -1.5713  0.3341
 6414SOL     OW30703   0.497   0.412  13.095 -0.1936 -0.1553  0.0222
 6414SOL    HW130704   0.571   0.467  13.073  1.8967 -2.4143  1.4249
 6414SOL    HW230705   0.462   0.385  13.010 -0.1480 -2.5253  0.7455
 6415SOL     OW30706   4.570   3.251   8.425  0.1326 -0.5341  0.3092
 6415SOL    HW130707   4.600   3.342   8.429  2.2734 -1.2882  1.6289
 6415SOL    HW230708   4.623   3.216   8.497  0.6878 -1.3029 -0.4625
 6416SOL     OW30709   2.590   2.358   8.424  0.3739  0.2026  0.4379
 6416SOL    HW130710   2.606   2.375   8.331 -0.5065  3.9039  0.9307
 6416SOL    HW230711   2.521   2.425   8.434 -1.1675 -1.2195 -0.6809
 6417SOL     OW30712   0.647   4.677  15.257 -0.3562 -0.4065 -0.5767
 6417SOL    HW130713   0.663   4.719  15.342  0.5171 -0.0771 -0.9022
 6417SOL    HW230714   0.584   4.609  15.279  1.7992 -2.4298 -0.7265
 6418SOL     OW30715   1.885   2.940   3.626 -0.3231  0.1099 -0.2141
 6418SOL    HW130716   1.945   2.883   3.577 -0.1014 -0.0617  0.2548
 6418SOL    HW230717   1.897   3.024   3.582  0.0206  2.1111  3.6807
 6419SOL     OW30718   1.460   0.019  10.949  0.7258  0.4494 -0.1828
 6419SOL    HW130719   1.373   0.056  10.930  0.7049  0.4830 -0.0204
 6419SOL    HW230720   1.492   0.075  11.020  4.1964  0.9557 -2.1813
 6420SOL     OW30721   2.413   2.574   6.346 -0.0074 -0.1509 -0.7216
 6420SOL    HW130722   2.463   2.553   6.267  1.8219 -0.2124  0.4506
 6420SOL    HW230723   2.350   2.501   6.344 -0.0436 -0.1824  1.9089
 6421SOL     OW30724   0.536   1.897   4.267  0.2309 -0.0284  0.4783
 6421SOL    HW130725   0.443   1.915   4.282  0.0107  2.0887 -3.5257
 6421SOL    HW230726   0.571   1.954   4.336  0.6962  0.3138 -0.0498
 6422SOL     OW30727   2.657   3.233   0.493  0.2290  0.2193  0.1689
 6422SOL    HW130728   2.601   3.304   0.461  0.7845  0.6825  0.2257
 6422SOL    HW230729   2.734   3.243   0.437  0.0968  0.5617  0.0452
 6423SOL     OW30730   3.323   1.767   7.560 -0.1709 -1.1675  0.4622
 6423SOL    HW130731   3.279   1.850   7.578  3.5320  0.6540  1.1180
 6423SOL    HW230732   3.301   1.766   7.466 -3.4493  2.2702  1.2046
 6424SOL     OW30733   3.179   2.177   7.070 -0.1847  0.6374 -0.2312
 6424SOL    HW130734   3.265   2.137   7.060 -0.0546  0.7757  0.3182
 6424SOL    HW230735   3.147   2.168   7.160  0.5875  0.1617 -0.0064
 6425SOL     OW30736   1.927   1.127   7.321 -0.1629  0.2664 -0.7370
 6425SOL    HW130737   1.842   1.090   7.343  0.6694 -0.8385  0.5813
 6425SOL    HW230738   1.958   1.147   7.409 -0.8651 -1.3009 -0.1496
 6426SOL     OW30739   2.878   2.971   2.295  0.0324 -0.2226 -0.5109
 6426SOL    HW130740   2.901   2.904   2.231 -0.6702  0.4461 -1.4649
 6426SOL    HW230741   2.816   3.017   2.239 -1.2964 -0.0913  1.0673
 6427SOL     OW30742   2.495   0.308   9.031  0.2724  0.3967  0.6468
 6427SOL    HW130743   2.497   0.400   9.058  0.3058  0.6701 -0.3109
 6427SOL    HW230744   2.541   0.273   9.108  0.7691 -0.2034  0.0689
 6428SOL     OW30745   3.230   3.336  17.634  0.5681  0.4264 -0.3814
 6428SOL    HW130746   3.167   3.375  17.573 -0.6673 -1.7118 -0.4664
 6428SOL    HW230747   3.303   3.358  17.576  1.0333  0.6952  0.3116
 6429SOL     OW30748   4.424   0.119   1.412  0.1618 -0.1953 -0.1438
 6429SOL    HW130749   4.454   0.203   1.375  2.8077 -1.3343 -0.5381
 6429SOL    HW230750   4.338   0.149   1.442  1.7506  1.9294  2.2479
 6430SOL     OW30751   4.116   3.272   1.646  0.3550  0.6467  0.1083
 6430SOL    HW130752   4.204   3.276   1.685  0.6110  0.4988 -0.4617
 6430SOL    HW230753   4.138   3.280   1.553 -0.8149  0.2472 -0.2002
 6431SOL     OW30754   2.351   0.298   7.203  0.4635 -0.0273 -0.1365
 6431SOL    HW130755   2.285   0.330   7.141 -0.0989 -0.3457  0.2946
 6431SOL    HW230756   2.292   0.258   7.267  0.1135  2.0133  0.8371
 6432SOL     OW30757   1.902   2.717   7.779  0.2700 -0.4004  0.2804
 6432SOL    HW130758   1.814   2.709   7.742 -0.3283 -0.8003  1.7917
 6432SOL    HW230759   1.955   2.725   7.699  0.6349 -2.0391  0.3567
 6433SOL     OW30760   2.523   3.460  16.454 -0.0896  0.1120 -0.2495
 6433SOL    HW130761   2.532   3.539  16.401  1.2177 -0.3917 -0.7763
 6433SOL    HW230762   2.564   3.476  16.539 -0.5150 -0.7857  0.1220
 6434SOL     OW30763   3.768   3.429   7.345 -0.0171 -0.8139  0.2005
 6434SOL    HW130764   3.795   3.509   7.390  1.6268 -0.2715 -1.7486
 6434SOL    HW230765   3.705   3.404   7.413 -0.9085  2.3550  0.5258
 6435SOL     OW30766   0.618   0.604   3.790 -0.2077 -0.4069 -0.1284
 6435SOL    HW130767   0.591   0.695   3.805 -1.9537 -1.0829  0.7900
 6435SOL    HW230768   0.620   0.603   3.695  1.2119 -0.0030 -0.1104
 6436SOL     OW30769   0.708   3.719   7.513 -0.3475 -0.4730  0.1502
 6436SOL    HW130770   0.639   3.653   7.510 -1.6973  0.9298  0.3141
 6436SOL    HW230771   0.788   3.670   7.534  1.3018  1.9863 -0.3970
 6437SOL     OW30772   3.781   2.379   8.298 -0.2338  0.8422 -0.4886
 6437SOL    HW130773   3.728   2.416   8.369 -0.7343  1.7086 -1.3176
 6437SOL    HW230774   3.868   2.416   8.312 -1.0163  2.5102 -0.0661
 6438SOL     OW30775   0.883   1.641   3.937  0.6612 -0.3978 -0.3539
 6438SOL    HW130776   0.795   1.603   3.928  0.5899 -0.8211  2.1483
 6438SOL    HW230777   0.942   1.577   3.899  1.2642  1.6983 -2.9245
 6439SOL     OW30778   2.927   2.046  16.965  0.1362 -0.5010 -0.1338
 6439SOL    HW130779   2.983   2.043  17.043  2.9305  1.6706 -2.0284
 6439SOL    HW230780   2.955   1.968  16.917  0.5741 -1.0455  0.9981
 6440SOL     OW30781   3.598   3.294   3.594  0.1373  0.2723  0.4752
 6440SOL    HW130782   3.600   3.365   3.530 -1.1576 -0.3235 -0.2323
 6440SOL    HW230783   3.573   3.339   3.674 -4.4376  0.8629 -1.2931
 6441SOL     OW30784   3.332   4.089   2.048  0.1596 -0.2691 -0.8221
 6441SOL    HW130785   3.301   4.157   2.108  1.0836 -1.0780  0.5756
 6441SOL    HW230786   3.290   4.008   2.075 -2.7113  0.8198 -1.9644
 6442SOL     OW30787   3.622   3.434   2.166 -0.1720  0.4771  0.4193
 6442SOL    HW130788   3.666   3.519   2.160 -1.4914  1.1485  0.0448
 6442SOL    HW230789   3.700   3.378   2.166 -0.6381 -0.1714 -1.0388
 6443SOL     OW30790   0.268   0.667  14.798 -0.7170  0.0686 -0.0436
 6443SOL    HW130791   0.342   0.672  14.858  0.6827 -0.5002 -1.7054
 6443SOL    HW230792   0.222   0.589  14.829  0.1314 -1.3029 -2.1781
 6444SOL     OW30793   3.441   2.040  16.277  0.6011  0.7573 -0.3051
 6444SOL    HW130794   3.436   2.044  16.372  1.5799  0.6022 -0.2542
 6444SOL    HW230795   3.535   2.035  16.261  1.1626  1.8472  2.8673
 6445SOL     OW30796   3.316   3.880   4.255  0.8001  0.2299 -0.1088
 6445SOL    HW130797   3.328   3.867   4.349  1.3087 -1.3228 -0.3951
 6445SOL    HW230798   3.311   3.789   4.228  1.2659  0.4066 -0.7721
 6446SOL     OW30799   2.694   1.389   8.426 -0.4417 -0.7164 -0.1052
 6446SOL    HW130800   2.781   1.421   8.449 -0.8426  0.9389 -0.8593
 6446SOL    HW230801   2.636   1.430   8.490  0.2212  0.7791 -0.4567
 6447SOL     OW30802   3.455   4.317   6.466  0.0061 -0.4345  0.0325
 6447SOL    HW130803   3.540   4.343   6.431  0.7281 -1.4518  1.0404
 6447SOL    HW230804   3.426   4.268   6.389 -0.6583  0.5187 -0.3098
 6448SOL     OW30805   1.338   2.762   6.892  0.4355  0.4204 -0.0810
 6448SOL    HW130806   1.305   2.732   6.976  0.2757  3.2619  0.8647
 6448SOL    HW230807   1.319   2.856   6.894 -1.0160  0.1189  0.1981
 6449SOL     OW30808   4.673   0.010   1.028  0.3835  0.1160  0.4956
 6449SOL    HW130809   0.026   0.069   1.020 -0.5566  1.2206 -0.0779
 6449SOL    HW230810   4.721   4.665   1.077  0.8195  0.8658  1.1062
 6450SOL     OW30811   0.598   0.418   9.583  0.1304 -0.0097 -0.2327
 6450SOL    HW130812   0.621   0.462   9.501 -0.4900  0.9182  0.0807
 6450SOL    HW230813   0.508   0.452   9.589  0.0344 -0.3667  0.2648
 6451SOL     OW30814   4.678   4.645   4.003 -0.1945  0.1306 -0.4048
 6451SOL    HW130815   4.598   4.651   4.057 -1.3717 -0.8310 -2.0493
 6451SOL    HW230816   0.005   4.722   4.030  1.4789 -0.6560 -1.2864
 6452SOL     OW30817   2.986   0.071   4.061  0.0968  0.2571 -0.3795
 6452SOL    HW130818   3.066   0.114   4.031  0.1254  0.3094 -0.2259
 6452SOL    HW230819   3.013   4.702   4.074 -1.0691 -0.3142 -1.9082
 6453SOL     OW30820   0.847   1.831   8.516  0.0600 -0.5375 -0.5522
 6453SOL    HW130821   0.760   1.792   8.516 -1.4281  2.7613 -0.2538
 6453SOL    HW230822   0.842   1.914   8.563 -0.5586  0.1595 -1.8258
 6454SOL     OW30823   2.132   1.866   2.725  0.0373 -0.1894 -0.1009
 6454SOL    HW130824   2.209   1.891   2.674 -1.7228  2.1560 -1.6488
 6454SOL    HW230825   2.153   1.912   2.807  2.8975  1.0072 -1.5155
 6455SOL     OW30826   2.915   3.208  12.768  0.4552 -0.5110 -0.0016
 6455SOL    HW130827   2.996   3.157  12.761  0.8661  0.1321  0.0888
 6455SOL    HW230828   2.900   3.246  12.681 -0.3407 -0.1148  0.3061
 6456SOL     OW30829   4.547   0.684   2.630 -0.2838 -0.4217  0.2379
 6456SOL    HW130830   4.613   0.720   2.690 -1.1528  1.2458  0.1770
 6456SOL    HW230831   4.476   0.691   2.695 -1.0442 -0.2683 -0.6161
 6457SOL     OW30832   4.059   4.244   3.049 -0.5120 -0.2064  0.3255
 6457SOL    HW130833   4.032   4.215   3.136  0.0791 -1.3094  0.1414
 6457SOL    HW230834   3.991   4.302   3.014 -0.5209 -1.0749 -1.1116
 6458SOL     OW30835   1.379   3.323  10.737  0.6069 -0.3792  0.0455
 6458SOL    HW130836   1.422   3.317  10.822  2.5396 -1.4032 -1.0042
 6458SOL    HW230837   1.407   3.409  10.705 -0.8085  0.5279  1.2302
 6459SOL     OW30838   2.728   0.936   5.785  0.0065  0.0088 -0.3427
 6459SOL    HW130839   2.644   0.963   5.822 -0.8301 -0.4060 -1.9279
 6459SOL    HW230840   2.705   0.859   5.734 -2.3239  0.9818 -0.7615
 6460SOL     OW30841   3.945   4.544   4.084 -0.0623 -0.0912  0.8472
 6460SOL    HW130842   4.032   4.548   4.043  0.0280 -1.2302  0.9172
 6460SOL    HW230843   3.976   4.495   4.161 -0.6299 -0.7256  0.6662
 6461SOL     OW30844   2.642   1.156   7.445 -0.2216  0.1294  0.4582
 6461SOL    HW130845   2.589   1.135   7.522 -1.0312  0.7212  0.0566
 6461SOL    HW230846   2.587   1.123   7.375 -1.1218 -1.1841  1.7984
 6462SOL     OW30847   3.905   1.747   0.761  0.2396 -0.2018  0.0089
 6462SOL    HW130848   3.819   1.739   0.721  1.3814 -1.6310 -2.1614
 6462SOL    HW230849   3.888   1.685   0.833 -3.2062 -0.5598 -1.1352
 6463SOL     OW30850   4.479   2.008   4.553 -0.0790 -1.0459 -0.0381
 6463SOL    HW130851   4.475   1.999   4.648 -0.5878  1.1026  0.1434
 6463SOL    HW230852   4.402   2.065   4.544  0.5053 -0.6153 -2.2145
 6464SOL     OW30853   1.432   2.245  10.130  0.7007  0.4234  0.2519
 6464SOL    HW130854   1.499   2.194  10.176  0.1512 -1.4877 -1.0463
 6464SOL    HW230855   1.448   2.201  10.047  2.1561 -1.9849  1.7957
 6465SOL     OW30856   0.082   4.154  15.547  0.1320 -0.0642 -0.1014
 6465SOL    HW130857   0.002   4.102  15.552 -0.6788  1.2847  1.1214
 6465SOL    HW230858   0.136   4.099  15.490  1.3765  1.1612 -0.0929
 6466SOL     OW30859   2.363   4.621  11.155 -0.0598 -0.5565 -0.2726
 6466SOL    HW130860   2.388   4.696  11.209  2.4400 -1.4780 -0.1289
 6466SOL    HW230861   2.416   4.553  11.196  1.3015 -0.2913 -1.5716
 6467SOL     OW30862   3.964   2.930   9.159 -0.1312 -0.4178  0.6819
 6467SOL    HW130863   3.889   2.878   9.128  0.3555 -1.7826  1.7816
 6467SOL    HW230864   4.018   2.950   9.083  0.1279 -0.1151  0.9494
 6468SOL     OW30865   0.612   0.080  17.461  0.9483 -0.1339 -0.2692
 6468SOL    HW130866   0.702   0.091  17.431  0.5097  2.4997 -0.6488
 6468SOL    HW230867   0.570   0.032  17.390  0.5132 -1.4927  0.9055
 6469SOL     OW30868   4.594   0.902   8.484 -0.2691 -0.2749 -0.6041
 6469SOL    HW130869   4.666   0.842   8.463  1.0881  0.9811  0.4953
 6469SOL    HW230870   4.629   0.990   8.468  3.0983 -1.7222 -1.1459
 6470SOL     OW30871   3.597   4.184   1.425  0.3751 -0.2320  0.1058
 6470SOL    HW130872   3.526   4.214   1.482  0.5693  0.8725 -0.2295
 6470SOL    HW230873   3.565   4.099   1.396  1.2668 -0.5743  0.1256
 6471SOL     OW30874   2.937   1.778   0.895 -0.2923 -0.1737  0.3239
 6471SOL    HW130875   2.856   1.763   0.847 -0.7783 -1.4261  1.5419
 6471SOL    HW230876   2.971   1.860   0.861  1.9135 -1.7609 -1.2870
 6472SOL     OW30877   3.223   4.131  11.610 -0.2640 -0.2557  0.1187
 6472SOL    HW130878   3.299   4.133  11.552  0.6674  1.7104  1.4091
 6472SOL    HW230879   3.228   4.217  11.651  0.4987  0.2139 -0.9755
 6473SOL     OW30880   4.119   2.726  14.632  0.0481 -0.2549 -0.0774
 6473SOL    HW130881   4.078   2.651  14.676 -0.9715  0.2452 -0.1679
 6473SOL    HW230882   4.196   2.728  14.688 -0.4310  1.0747  0.5360
 6474SOL     OW30883   3.006   4.247   6.829  0.0383  0.5210 -0.0622
 6474SOL    HW130884   3.071   4.304   6.787 -2.1253  1.8655 -1.5655
 6474SOL    HW230885   2.997   4.203   6.744  2.9879  0.0943 -0.1726
 6475SOL     OW30886   4.625   1.882   8.742  0.0779  0.3076  0.2605
 6475SOL    HW130887   4.599   1.790   8.754  0.9236  0.0616  0.2121
 6475SOL    HW230888   4.574   1.934   8.803  1.5693  0.9784  0.9319
 6476SOL     OW30889   0.476   4.468   8.774 -0.1455  0.4521 -0.6365
 6476SOL    HW130890   0.572   4.475   8.769 -0.2675  1.0915 -2.0224
 6476SOL    HW230891   0.467   4.430   8.862  0.6748  1.3981 -0.1392
 6477SOL     OW30892   1.445   4.361   1.058  0.1520 -0.1849  0.2872
 6477SOL    HW130893   1.392   4.441   1.056  1.1495  0.4169 -1.7296
 6477SOL    HW230894   1.523   4.383   1.008  0.7077  1.0715  1.7018
 6478SOL     OW30895   1.335   0.313  16.292  0.7134 -0.0106  0.0418
 6478SOL    HW130896   1.367   0.372  16.224  0.9148  0.7800  0.8205
 6478SOL    HW230897   1.338   0.371  16.369  1.2391 -1.6591  1.2711
 6479SOL     OW30898   1.861   1.143   5.335 -0.5650 -0.1118  0.1481
 6479SOL    HW130899   1.881   1.226   5.292  1.2841 -0.4612  0.3134
 6479SOL    HW230900   1.810   1.176   5.409 -0.0764  2.7309 -0.7831
 6480SOL     OW30901   0.987   4.441   7.152 -0.2571  0.0155 -0.0210
 6480SOL    HW130902   0.914   4.385   7.177  0.4848 -1.5425 -1.3392
 6480SOL    HW230903   1.022   4.373   7.095  0.4290  0.4637 -0.1359
 6481SOL     OW30904   3.767   3.765   3.221  0.2403  0.1105 -0.1156
 6481SOL    HW130905   3.702   3.829   3.249 -1.0121 -1.1628 -0.1667
 6481SOL    HW230906   3.844   3.801   3.267  1.9590  0.3185 -3.1466
 6482SOL     OW30907   1.622   3.538  12.364  0.4700  0.2420 -0.5524
 6482SOL    HW130908   1.652   3.486  12.289 -0.0697 -0.4672 -0.2801
 6482SOL    HW230909   1.528   3.543  12.348  0.6320  1.2019 -1.1697
 6483SOL     OW30910   3.613   0.992   3.032 -0.2978  0.1613  0.1514
 6483SOL    HW130911   3.562   1.053   3.086  2.1431  2.2090  0.1502
 6483SOL    HW230912   3.660   1.052   2.973 -1.5986  0.9341 -0.1063
 6484SOL     OW30913   3.481   0.256   3.952 -0.3566  0.1127 -0.3038
 6484SOL    HW130914   3.561   0.209   3.929  0.0474 -0.7241  2.7319
 6484SOL    HW230915   3.444   0.193   4.015  0.5470 -3.9903 -3.8986
 6485SOL     OW30916   0.548   2.759   7.809 -0.5141 -0.0321 -0.2987
 6485SOL    HW130917   0.535   2.841   7.761  0.1917 -0.8375 -1.8499
 6485SOL    HW230918   0.594   2.790   7.887 -1.1894 -1.6699  0.7382
 6486SOL     OW30919   3.265   4.310   4.754  0.3919 -0.2208 -0.1034
 6486SOL    HW130920   3.232   4.273   4.672 -1.1021 -0.2193  0.4961
 6486SOL    HW230921   3.360   4.308   4.744  0.3752  1.9510 -0.6251
 6487SOL     OW30922   1.963   0.027   7.513  0.5257  0.3727  0.0020
 6487SOL    HW130923   2.051   0.044   7.544  0.3060 -0.0210  0.8552
 6487SOL    HW230924   1.908   4.713   7.583 -0.4214  0.1652 -0.8325
 6488SOL     OW30925   2.741   0.674  17.127 -0.0481 -0.4683 -0.7681
 6488SOL    HW130926   2.825   0.698  17.088 -1.0479  2.7250 -0.8849
 6488SOL    HW230927   2.682   0.740  17.091 -0.9997  0.1813  1.9567
 6489SOL     OW30928   4.528   0.410   2.791  0.1104 -0.3651  0.4520
 6489SOL    HW130929   4.510   0.473   2.722 -2.2929  0.6693  2.0165
 6489SOL    HW230930   4.607   0.367   2.759  0.4688 -0.4759  1.4565
 6490SOL     OW30931   2.184   0.056  10.399  0.1586  0.1245  0.2730
 6490SOL    HW130932   2.125   0.130  10.411  0.8378  0.0166  4.2122
 6490SOL    HW230933   2.191   0.025  10.489 -0.7452 -2.5519 -0.5773
 6491SOL     OW30934   0.389   3.731  12.937 -0.1406  0.1921 -0.0817
 6491SOL    HW130935   0.452   3.795  12.971  0.0292  0.2230 -0.4566
 6491SOL    HW230936   0.405   3.739  12.843 -0.7328  4.4651  0.2076
 6492SOL     OW30937   0.812   1.224  10.663 -0.1570  0.1957 -0.2526
 6492SOL    HW130938   0.888   1.177  10.628 -1.0405 -1.0941 -0.4309
 6492SOL    HW230939   0.802   1.184  10.749 -0.4781 -1.4919 -1.0609
 6493SOL     OW30940   1.038   1.780   0.382  0.3879  0.6122  0.3139
 6493SOL    HW130941   1.033   1.686   0.367  1.8696  0.3777  1.1951
 6493SOL    HW230942   1.099   1.786   0.457 -0.9453  0.2382  1.4210
 6494SOL     OW30943   4.231   3.461   3.460  0.3424  0.3536 -0.9645
 6494SOL    HW130944   4.206   3.534   3.517 -0.4914 -1.2535  0.7516
 6494SOL    HW230945   4.146   3.420   3.443  1.7639 -2.5543 -0.8937
 6495SOL     OW30946   3.882   0.708  13.159  0.1436 -0.3249  0.6471
 6495SOL    HW130947   3.802   0.748  13.127  0.0651 -0.9915  0.0148
 6495SOL    HW230948   3.894   0.632  13.102  1.5071 -1.2670  2.1584
 6496SOL     OW30949   1.640   2.899   8.849  0.6359 -0.0632  0.7169
 6496SOL    HW130950   1.661   2.986   8.814 -1.9187 -0.0425 -0.7423
 6496SOL    HW230951   1.601   2.927   8.933 -0.1933 -2.4102  1.1118
 6497SOL     OW30952   3.260   2.568   4.782  0.2073 -0.4327  1.0015
 6497SOL    HW130953   3.328   2.562   4.849 -0.0878  1.7978  1.5195
 6497SOL    HW230954   3.198   2.625   4.827  2.3252  0.1892  3.1289
 6498SOL     OW30955   3.257   0.666   0.526  0.0336  0.1444  0.7691
 6498SOL    HW130956   3.285   0.656   0.435  1.8085  0.6110  1.2567
 6498SOL    HW230957   3.339   0.642   0.569  0.6145  0.2829 -0.2538
 6499SOL     OW30958   1.843   0.482   4.196  0.0830 -0.3769 -0.2817
 6499SOL    HW130959   1.883   0.412   4.144  0.6823 -1.3504  1.4529
 6499SOL    HW230960   1.753   0.456   4.217  0.3347  0.7026  2.1329
 6500SOL     OW30961   1.052   3.200   7.198 -0.2770  0.2302 -0.2989
 6500SOL    HW130962   1.067   3.107   7.180 -0.5134 -0.2767  2.0821
 6500SOL    HW230963   1.142   3.229   7.215  1.9959 -4.3272 -4.3871
 6501SOL     OW30964   1.024   3.154   6.234 -0.2210  0.0990 -0.1831
 6501SOL    HW130965   1.063   3.221   6.291 -3.3091  1.3148  0.5424
 6501SOL    HW230966   0.947   3.140   6.289 -1.4991  1.3847 -1.6067
 6502SOL     OW30967   4.719   4.660   4.839 -0.1106 -0.1491 -0.2169
 6502SOL    HW130968   4.688   0.021   4.804  0.2769  0.5887  1.1834
 6502SOL    HW230969   4.642   4.602   4.842 -0.0102 -0.2731  0.0536
 6503SOL     OW30970   2.204   4.598   8.774 -0.0438 -0.8124 -0.4748
 6503SOL    HW130971   2.220   4.628   8.863  4.5102 -1.7340 -1.0118
 6503SOL    HW230972   2.145   4.662   8.734 -1.5742 -3.0691 -1.8632
 6504SOL     OW30973   0.154   1.778  10.693 -0.5523 -0.3344 -0.1550
 6504SOL    HW130974   0.147   1.858  10.745 -0.9573 -0.5824  0.1702
 6504SOL    HW230975   0.210   1.811  10.623 -1.5336 -1.3750 -1.4282
 6505SOL     OW30976   1.571   1.477   0.475  0.2197  0.2346  0.2469
 6505SOL    HW130977   1.551   1.384   0.466  1.2774  0.0855 -0.6445
 6505SOL    HW230978   1.553   1.491   0.568  0.2887 -1.9369  0.5889
 6506SOL     OW30979   2.850   2.014   7.159 -0.2360 -0.2772  0.2706
 6506SOL    HW130980   2.758   1.993   7.140 -0.2461 -0.5741  0.6490
 6506SOL    HW230981   2.848   2.109   7.167  0.8542 -0.0764 -1.7820
 6507SOL     OW30982   2.811   4.092  17.306  0.5170 -0.1869  0.6076
 6507SOL    HW130983   2.818   3.997  17.297  1.0510 -0.1954  1.1226
 6507SOL    HW230984   2.838   4.098  17.398 -0.1509 -0.9620  0.8577
 6508SOL     OW30985   0.365   2.507  11.295 -0.4667 -0.0156 -0.0685
 6508SOL    HW130986   0.438   2.482  11.238  0.2276  2.2188 -0.1828
 6508SOL    HW230987   0.311   2.434  11.265  0.7328 -1.0673  0.3628
 6509SOL     OW30988   0.623   0.016   0.313  0.0548 -0.1886 -0.2042
 6509SOL    HW130989   0.683   4.663   0.315  0.5182  0.1456 -1.5361
 6509SOL    HW230990   0.635   0.042   0.221 -1.2247 -1.4107 -0.7148
 6510SOL     OW30991   4.342   2.798   1.540 -0.3971  0.0278  0.1559
 6510SOL    HW130992   4.374   2.737   1.606 -0.1666 -0.7373 -0.6707
 6510SOL    HW230993   4.246   2.798   1.538 -0.5060  3.2019  4.5169
 6511SOL     OW30994   4.054   2.818   3.698  0.3272  0.2661 -0.7063
 6511SOL    HW130995   4.116   2.889   3.683  0.1020  0.6792  0.3102
 6511SOL    HW230996   4.105   2.741   3.674  0.5235 -0.7642  2.9233
 6512SOL     OW30997   0.551   2.875   4.832 -0.7190  0.3048  0.1092
 6512SOL    HW130998   0.486   2.812   4.863 -1.5460  0.4751 -1.3003
 6512SOL    HW230999   0.604   2.833   4.764 -0.0637  0.1429  0.7091
 6513SOL     OW31000   0.693   2.730   5.191  0.2083  0.0392  0.3391
 6513SOL    HW131001   0.684   2.706   5.284 -1.6702 -0.4069  0.0403
 6513SOL    HW231002   0.604   2.736   5.159 -1.0391 -1.7451  3.4167
 6514SOL     OW31003   0.996   2.340   8.719 -0.0911 -0.0217 -0.0033
 6514SOL    HW131004   0.978   2.348   8.625  0.9110  4.1061  0.1694
 6514SOL    HW231005   1.025   2.430   8.734  0.1551  0.0094 -0.6626
 6515SOL     OW31006   3.191   2.973  15.168 -0.4807  0.2326  0.6874
 6515SOL    HW131007   3.249   2.917  15.116  0.5582  4.3098 -2.5682
 6515SOL    HW231008   3.113   2.959  15.115  1.2998  1.3716 -2.2461
 6516SOL     OW31009   4.442   2.921   2.188  0.1897  0.0479 -0.0257
 6516SOL    HW131010   4.429   2.997   2.244 -0.6950  0.9814 -1.4850
 6516SOL    HW231011   4.423   2.843   2.240  1.2988 -2.3466 -3.1721
 6517SOL     OW31012   2.361   4.122   6.560 -0.2433  0.1808  0.0739
 6517SOL    HW131013   2.406   4.055   6.611 -1.1449 -0.3008  0.2415
 6517SOL    HW231014   2.423   4.195   6.565 -0.6388  0.6870 -2.0835
 6518SOL     OW31015   3.786   2.797  16.596 -0.1253  0.0358 -0.2622
 6518SOL    HW131016   3.710   2.854  16.585  0.7304  1.3057  0.3762
 6518SOL    HW231017   3.821   2.785  16.507 -0.2602  0.6705 -0.4053
 6519SOL     OW31018   2.385   3.392   4.836  0.3128  0.1920 -0.4030
 6519SOL    HW131019   2.296   3.408   4.868  0.3158 -2.7163  1.0595
 6519SOL    HW231020   2.361   3.339   4.759 -0.1957  1.1708 -0.9203
 6520SOL     OW31021   0.778   0.295  14.839 -0.7011  0.2114  0.2482
 6520SOL    HW131022   0.764   0.230  14.908 -0.2977  1.3779  1.4315
 6520SOL    HW231023   0.694   0.293  14.794 -1.0341  1.0862  0.8395
 6521SOL     OW31024   4.578   3.619   5.788 -0.1245 -0.6585 -0.2867
 6521SOL    HW131025   4.665   3.600   5.823  0.1320  2.1889  0.6323
 6521SOL    HW231026   4.595   3.697   5.735 -1.4263 -1.2530 -1.5743
 6522SOL     OW31027   0.193   0.900  13.865  0.1215  0.2956 -0.3201
 6522SOL    HW131028   0.127   0.969  13.854  1.6866  1.6610 -1.2303
 6522SOL    HW231029   0.145   0.817  13.863 -0.6443  0.7182  0.4573
 6523SOL     OW31030   1.813   2.288  12.782 -0.1796  0.0596 -0.3115
 6523SOL    HW131031   1.825   2.377  12.815 -0.7855 -0.0266  0.1360
 6523SOL    HW231032   1.797   2.232  12.858  1.2851 -2.7147 -2.0352
 6524SOL     OW31033   1.717   3.343   4.821 -0.4258  0.2156  0.5011
 6524SOL    HW131034   1.780   3.387   4.878 -0.8215  1.9731 -0.4441
 6524SOL    HW231035   1.695   3.270   4.880 -1.6847  0.9056  0.8787
 6525SOL     OW31036   3.615   1.744   0.850 -0.4493 -0.1952 -0.1304
 6525SOL    HW131037   3.571   1.676   0.798 -1.0501 -0.5813  0.9026
 6525SOL    HW231038   3.558   1.819   0.837 -1.6772 -1.3124 -1.3108
 6526SOL     OW31039   2.140   2.054   3.372 -0.4952 -0.4825 -0.2903
 6526SOL    HW131040   2.064   2.096   3.334 -1.2634 -1.9266 -0.3538
 6526SOL    HW231041   2.111   2.066   3.462 -0.3788 -0.9143 -0.1950
 6527SOL     OW31042   3.336   0.545   9.831  0.6293  0.4832 -0.1782
 6527SOL    HW131043   3.424   0.559   9.867  0.7995  0.3688 -0.5541
 6527SOL    HW231044   3.289   0.512   9.908  0.1955 -2.8961 -1.9036
 6528SOL     OW31045   3.076   3.429  16.938  0.0191 -0.0648  0.0065
 6528SOL    HW131046   3.142   3.361  16.945 -2.2415 -2.1969  0.3938
 6528SOL    HW231047   3.094   3.442  16.845 -0.1517  1.4079  0.1767
 6529SOL     OW31048   2.530   3.629   5.761 -0.3341  0.0115  0.6893
 6529SOL    HW131049   2.452   3.685   5.757  0.3456  0.8581 -0.9515
 6529SOL    HW231050   2.487   3.551   5.797 -3.4557  1.5888  0.4033
 6530SOL     OW31051   4.006   4.207  11.987 -0.0122  0.8068 -0.4882
 6530SOL    HW131052   4.081   4.180  11.934 -2.6130 -0.7268 -3.4071
 6530SOL    HW231053   4.027   4.167  12.072  1.2191 -0.5883 -1.4372
 6531SOL     OW31054   2.548   3.828  14.514 -0.2224 -0.4018 -0.3504
 6531SOL    HW131055   2.530   3.842  14.421 -0.5819 -0.5977 -0.3120
 6531SOL    HW231056   2.501   3.907  14.541 -1.1132 -0.1797 -2.5134
 6532SOL     OW31057   0.130   2.290   5.483  0.3572 -0.3483  0.3265
 6532SOL    HW131058   0.142   2.282   5.388 -0.7806 -0.2451  0.1721
 6532SOL    HW231059   0.178   2.370   5.504  0.8530 -0.3162 -0.8998
 6533SOL     OW31060   4.416   0.407  13.369  0.2940  0.2431  0.0927
 6533SOL    HW131061   4.340   0.428  13.423  0.0717 -0.1272 -0.0713
 6533SOL    HW231062   4.385   0.428  13.281 -1.3124  0.4772  0.7167
 6534SOL     OW31063   3.906   2.636   3.251  0.1536  0.1419  0.1108
 6534SOL    HW131064   3.952   2.569   3.301  1.6661  2.2203  1.4854
 6534SOL    HW231065   3.828   2.649   3.306 -0.4083 -0.2546 -0.6005
 6535SOL     OW31066   4.062   2.930   0.603 -0.3774  0.4177  0.3001
 6535SOL    HW131067   4.096   2.841   0.600 -1.1761  0.1792 -1.6423
 6535SOL    HW231068   4.141   2.973   0.567 -0.0830  0.5598  1.1244
 6536SOL     OW31069   3.998   2.392   5.467  0.0040  0.1895  0.6345
 6536SOL    HW131070   3.952   2.349   5.395 -1.1331  0.9319  0.9315
 6536SOL    HW231071   4.047   2.463   5.425  0.3505 -0.6789 -0.4073
 6537SOL     OW31072   1.837   1.232  13.639  0.0538  0.7200  0.5253
 6537SOL    HW131073   1.792   1.155  13.604 -0.4300  0.5221  1.5721
 6537SOL    HW231074   1.921   1.193  13.663 -0.2768  1.7339  3.3431
 6538SOL     OW31075   2.959   0.432   3.214 -0.6700  0.2929 -0.1464
 6538SOL    HW131076   3.049   0.406   3.231 -1.2584 -1.5810  0.0698
 6538SOL    HW231077   2.912   0.360   3.256  1.4404 -0.2992  1.1851
 6539SOL     OW31078   3.029   2.304  15.595 -0.3629  0.6802 -0.4754
 6539SOL    HW131079   3.075   2.329  15.515 -0.7670  0.6778 -0.7038
 6539SOL    HW231080   3.066   2.216  15.590  1.1821  1.2090  1.2681
 6540SOL     OW31081   1.938   1.216  14.974 -0.9328 -0.2073  0.2661
 6540SOL    HW131082   2.009   1.259  15.022  0.2128 -2.7422  0.8559
 6540SOL    HW231083   1.908   1.151  15.039  1.7440 -0.6664  1.0404
 6541SOL     OW31084   2.865   4.298   1.972 -0.1323  0.4643  0.0945
 6541SOL    HW131085   2.825   4.357   2.035 -1.4745 -0.9654  0.5759
 6541SOL    HW231086   2.874   4.342   1.887  0.6446 -0.4758 -0.3215
 6542SOL     OW31087   2.457   3.734   2.985 -0.2569  0.5392  0.2444
 6542SOL    HW131088   2.414   3.790   3.049 -0.2639  0.1042  0.6176
 6542SOL    HW231089   2.392   3.664   2.985 -2.4106  2.5605  2.6029
 6543SOL     OW31090   4.144   1.543   0.721 -0.1929  0.8385  0.3882
 6543SOL    HW131091   4.083   1.616   0.707 -0.3728  0.6682  0.2856
 6543SOL    HW231092   4.085   1.469   0.735  0.1349 -0.0651 -2.8918
 6544SOL     OW31093   4.433   1.079   1.244  0.5346 -0.6984 -0.1151
 6544SOL    HW131094   4.498   1.009   1.237  2.0111  0.6307  0.3539
 6544SOL    HW231095   4.481   1.147   1.292  1.2084  0.7512 -2.8517
 6545SOL     OW31096   2.242   1.331  11.670  0.0502  0.4273 -0.3109
 6545SOL    HW131097   2.189   1.386  11.727 -0.6264 -0.4241 -0.1102
 6545SOL    HW231098   2.303   1.288  11.730  0.2326 -0.6135 -1.2384
 6546SOL     OW31099   2.061   4.576   7.153  0.8638  0.0136  0.3838
 6546SOL    HW131100   2.151   4.606   7.166  0.3240  1.5526  0.6684
 6546SOL    HW231101   2.038   4.549   7.242  1.1192 -1.2629  0.0586
 6547SOL     OW31102   4.666   3.275   6.351  0.1187  0.3236  0.1642
 6547SOL    HW131103   4.582   3.239   6.323  0.2577  0.9651 -1.0743
 6547SOL    HW231104   0.008   3.229   6.298 -2.3190 -1.5313 -1.1857
 6548SOL     OW31105   1.125   2.319   1.143  0.5317 -0.4519  0.4471
 6548SOL    HW131106   1.127   2.327   1.048  0.8002 -1.8065  0.3361
 6548SOL    HW231107   1.169   2.236   1.160  1.3611 -0.0083  0.4182
 6549SOL     OW31108   0.384   4.138   2.015 -0.0455 -0.2682 -0.7691
 6549SOL    HW131109   0.424   4.138   2.102  1.6915 -1.0331 -1.5860
 6549SOL    HW231110   0.326   4.214   2.022  0.2961 -0.1305  0.5676
 6550SOL     OW31111   3.740   0.954   8.823  0.1048 -0.7558  0.1804
 6550SOL    HW131112   3.711   1.027   8.878  1.3264 -1.2205  1.4443
 6550SOL    HW231113   3.710   0.979   8.736  2.1777 -0.2297 -0.3777
 6551SOL     OW31114   0.927   2.435  12.177 -0.0443 -0.0248  0.1072
 6551SOL    HW131115   0.837   2.419  12.206 -0.1814  2.1723  0.8377
 6551SOL    HW231116   0.910   2.451  12.084 -1.4142 -0.7797  0.2287
 6552SOL     OW31117   4.629   4.373  13.661  0.1720  0.4998  1.1739
 6552SOL    HW131118   4.561   4.435  13.634  1.0839  1.3281  0.8090
 6552SOL    HW231119   4.695   4.435  13.693  0.7032 -0.6861  2.3539
 6553SOL     OW31120   3.817   2.786  14.333 -0.5208 -0.4091  0.8857
 6553SOL    HW131121   3.722   2.788  14.320 -0.3645 -2.1035 -0.5336
 6553SOL    HW231122   3.829   2.856  14.397  1.9337  0.1866 -0.2267
 6554SOL     OW31123   3.480   2.940  16.115 -0.2538  0.0184 -0.5139
 6554SOL    HW131124   3.512   3.020  16.073  0.4983 -0.7739 -1.4403
 6554SOL    HW231125   3.470   2.883  16.039  2.1225 -0.5601 -0.4025
 6555SOL     OW31126   0.738   4.442   8.754  0.7534  0.3209 -0.1565
 6555SOL    HW131127   0.830   4.432   8.780  0.7468  0.4467 -0.0847
 6555SOL    HW231128   0.721   4.353   8.721  1.9958 -0.1802  0.5299
 6556SOL     OW31129   3.003   4.141   8.518  0.4989 -0.1116  0.2610
 6556SOL    HW131130   3.001   4.049   8.493 -2.0326 -0.1838  0.7546
 6556SOL    HW231131   3.097   4.157   8.514  0.2517  1.2777 -0.1392
 6557SOL     OW31132   1.763   0.031   2.757  0.3089  0.0598  0.1546
 6557SOL    HW131133   1.827   0.102   2.753 -1.6171  1.8397  0.9152
 6557SOL    HW231134   1.786   4.710   2.839  0.0510 -1.7382 -0.7107
 6558SOL     OW31135   1.741   4.570   3.739  0.4804  0.2742  0.7361
 6558SOL    HW131136   1.729   4.659   3.706  4.1131 -0.5167 -2.7942
 6558SOL    HW231137   1.666   4.552   3.794 -0.1278 -0.2703 -0.2697
 6559SOL     OW31138   3.110   2.228  15.864  0.2440 -0.3454  0.1518
 6559SOL    HW131139   3.079   2.290  15.798 -1.7518 -0.6977  0.7445
 6559SOL    HW231140   3.036   2.168  15.876 -0.7878  0.9558  0.2053
 6560SOL     OW31141   2.644   3.590  17.065 -0.2721 -0.3592 -0.1584
 6560SOL    HW131142   2.575   3.537  17.027 -1.3274  0.0159  1.2291
 6560SOL    HW231143   2.662   3.637  16.984  0.5323  0.8503  0.7183
 6561SOL     OW31144   1.544   4.137   7.764  0.8068  0.3026  0.7051
 6561SOL    HW131145   1.604   4.135   7.838  0.8098  0.0259  0.6929
 6561SOL    HW231146   1.556   4.060   7.708  0.3362  1.4778 -1.0284
 6562SOL     OW31147   4.340   3.881   7.937 -0.2206  0.1918  0.1317
 6562SOL    HW131148   4.246   3.886   7.920 -0.1765  1.0539  0.1175
 6562SOL    HW231149   4.352   3.787   7.923 -1.6707  0.0342  0.0368
 6563SOL     OW31150   3.634   0.216   0.295 -0.4207  0.0358 -0.1351
 6563SOL    HW131151   3.576   0.257   0.230 -1.1601  0.8059  0.9957
 6563SOL    HW231152   3.572   0.183   0.360 -0.8245  0.1293 -0.4685
 6564SOL     OW31153   4.417   1.576   8.256  0.0546  0.7808  0.1761
 6564SOL    HW131154   4.426   1.639   8.328 -0.4679  0.4151  0.5623
 6564SOL    HW231155   4.394   1.630   8.181  0.7176 -0.7975 -1.1504
 6565SOL     OW31156   4.374   4.036   4.982 -0.3856  0.2471 -0.9588
 6565SOL    HW131157   4.417   3.957   5.017 -1.9836 -0.5620 -0.8193
 6565SOL    HW231158   4.451   4.071   4.938  0.2108  1.1648  0.8090
 6566SOL     OW31159   0.168   0.963   8.328 -0.4693  0.1353  0.4933
 6566SOL    HW131160   0.158   0.895   8.262 -2.7928 -1.0643  2.0827
 6566SOL    HW231161   0.100   1.020   8.290  0.6591 -0.4334 -2.3623
 6567SOL     OW31162   1.399   3.893   0.675 -0.6197 -0.4981 -0.0684
 6567SOL    HW131163   1.429   3.823   0.733 -0.2551  0.7910  1.3023
 6567SOL    HW231164   1.414   3.860   0.586 -0.6028 -2.7754  0.7894
 6568SOL     OW31165   4.607   0.824   1.254 -0.4988  0.5225  0.9056
 6568SOL    HW131166   4.652   0.776   1.324  3.8217  0.1504 -2.1096
 6568SOL    HW231167   4.528   0.770   1.248 -1.7279  2.1926  2.0720
 6569SOL     OW31168   3.264   4.266   8.534 -0.8019  0.1884 -0.1206
 6569SOL    HW131169   3.301   4.346   8.570 -0.3453 -0.1618  0.1943
 6569SOL    HW231170   3.322   4.199   8.570  0.0706  1.6423  1.1647
 6570SOL     OW31171   2.639   4.351   8.169  0.3605 -0.4332 -0.3219
 6570SOL    HW131172   2.672   4.318   8.253  2.0367  0.5763 -0.6020
 6570SOL    HW231173   2.619   4.438   8.204 -3.1931 -1.7768  1.0427
 6571SOL     OW31174   4.320   3.566  12.653  0.3825  0.0743 -0.4857
 6571SOL    HW131175   4.266   3.491  12.676  1.1260  0.0247  1.0644
 6571SOL    HW231176   4.325   3.546  12.559 -2.3590  0.0320 -0.6384
 6572SOL     OW31177   3.300   0.808  15.189  0.7238  0.4164  0.3891
 6572SOL    HW131178   3.287   0.715  15.175 -1.0561  0.9526 -1.4717
 6572SOL    HW231179   3.339   0.796  15.276  0.3336 -0.3374  0.4552
 6573SOL     OW31180   3.169   4.709  13.711 -0.4251 -0.8730  0.5663
 6573SOL    HW131181   3.227   4.667  13.647  1.6170  1.2830  1.0014
 6573SOL    HW231182   3.115   4.636  13.740 -1.2078 -1.0827 -1.4439
 6574SOL     OW31183   1.182   0.773   3.675 -0.2777 -0.1307  0.4454
 6574SOL    HW131184   1.114   0.743   3.614 -2.3047  0.3758  2.4390
 6574SOL    HW231185   1.245   0.701   3.682 -1.3556 -0.9503  1.8771
 6575SOL     OW31186   0.480   0.497  13.722 -0.1690 -0.1032 -0.6988
 6575SOL    HW131187   0.540   0.432  13.685 -1.2212 -0.0995 -2.4109
 6575SOL    HW231188   0.422   0.511  13.646 -0.8325  0.0965 -0.1553
 6576SOL     OW31189   1.599   0.932   5.731  0.0420  0.4551  0.4230
 6576SOL    HW131190   1.681   0.883   5.740 -0.0205  0.6929  2.2973
 6576SOL    HW231191   1.584   0.956   5.823  1.2990 -0.1188  0.7882
 6577SOL     OW31192   3.088   2.598   5.532 -0.0966  0.1839 -0.1559
 6577SOL    HW131193   3.000   2.631   5.550  0.3576  0.0358  2.4135
 6577SOL    HW231194   3.121   2.580   5.620  1.8988  0.0415 -0.9407
 6578SOL     OW31195   0.988   0.865  11.159  0.1560 -0.6807  0.0213
 6578SOL    HW131196   0.899   0.842  11.186  0.1042  0.3217  0.7109
 6578SOL    HW231197   0.974   0.959  11.155  0.9558 -0.6277 -1.2158
 6579SOL     OW31198   4.696   3.518   8.486  0.2659 -0.7126 -0.6292
 6579SOL    HW131199   0.059   3.493   8.522 -0.5641 -2.4028  0.1525
 6579SOL    HW231200   4.719   3.527   8.394 -1.1527  1.6480 -0.7563
 6580SOL     OW31201   4.505   3.223  12.833 -0.3340  0.4735  0.0301
 6580SOL    HW131202   4.583   3.208  12.885  1.1833 -0.1614 -2.4300
 6580SOL    HW231203   4.468   3.135  12.828  0.9242 -0.1413  1.4452
 6581SOL     OW31204   2.015   4.399   7.454 -0.6045 -0.7508 -0.2341
 6581SOL    HW131205   1.971   4.350   7.384 -0.1301 -1.0916 -0.2955
 6581SOL    HW231206   2.106   4.389   7.424  0.1292  0.5674  1.5554
 6582SOL     OW31207   1.353   3.689   2.134  0.0282  0.0039 -0.2776
 6582SOL    HW131208   1.448   3.676   2.132  0.1054  0.5116  0.0066
 6582SOL    HW231209   1.342   3.763   2.075 -1.0634 -0.2205 -0.3644
 6583SOL     OW31210   3.049   2.737  17.096  0.2639 -1.2349 -1.0426
 6583SOL    HW131211   2.992   2.715  17.022  1.7725  0.8504 -2.8127
 6583SOL    HW231212   2.993   2.715  17.170  0.0651  1.0797 -0.5169
 6584SOL     OW31213   3.741   4.454   0.234 -0.6528  0.0559 -0.2168
 6584SOL    HW131214   3.725   4.532   0.181  0.9221  0.5709  0.0408
 6584SOL    HW231215   3.716   4.495   0.317 -1.2791  0.6276 -0.6909
 6585SOL     OW31216   2.053   2.443   0.169 -0.1169 -0.1988 -0.2633
 6585SOL    HW131217   2.044   2.353   0.138  1.5367 -0.1376 -0.9859
 6585SOL    HW231218   1.966   2.481   0.179  0.2917  1.0078 -1.1861
 6586SOL     OW31219   2.344   1.616   5.573  0.2473 -0.4082 -0.3256
 6586SOL    HW131220   2.377   1.683   5.514  0.7128  1.1661  1.7049
 6586SOL    HW231221   2.261   1.641   5.613  0.9529 -1.3122  1.7496
 6587SOL     OW31222   3.479   2.854   1.662 -0.3975  0.8269 -0.5296
 6587SOL    HW131223   3.445   2.924   1.606 -0.3439  1.4458  0.2120
 6587SOL    HW231224   3.551   2.829   1.604 -0.2055  3.0051 -1.2456
 6588SOL     OW31225   3.541   0.652  13.492  0.8720  0.1996 -0.0603
 6588SOL    HW131226   3.463   0.635  13.546  1.5668  0.8243  1.1315
 6588SOL    HW231227   3.497   0.633  13.409  0.5514 -3.0518  0.8428
 6589SOL     OW31228   4.548   3.970  10.152  0.4868  0.0327  0.2593
 6589SOL    HW131229   4.487   3.988  10.223 -0.2289  3.7195 -1.2748
 6589SOL    HW231230   4.633   3.970  10.195  1.1060 -1.5015 -0.9736
 6590SOL     OW31231   4.607   1.936   3.747 -0.1103 -0.3956  0.1329
 6590SOL    HW131232   4.661   1.859   3.763  0.2098 -0.0182  0.8723
 6590SOL    HW231233   4.554   1.894   3.679  2.2785  0.2959 -2.1398
 6591SOL     OW31234   3.345   1.397   8.759 -0.4418 -0.2273  0.2982
 6591SOL    HW131235   3.266   1.449   8.778 -0.2205 -0.0826  0.8283
 6591SOL    HW231236   3.422   1.454   8.763 -1.4258  0.8832  3.4832
 6592SOL     OW31237   2.528   1.659   3.096  0.2593 -0.1831  0.0488
 6592SOL    HW131238   2.448   1.616   3.127  0.3091 -0.9524 -0.8872
 6592SOL    HW231239   2.503   1.741   3.055 -0.4998 -1.0261 -1.1530
 6593SOL     OW31240   3.149   3.469   3.111 -0.0394 -0.2616  0.0480
 6593SOL    HW131241   3.162   3.553   3.067 -2.0818 -1.0237 -2.0054
 6593SOL    HW231242   3.128   3.508   3.195 -2.2788 -2.5426  0.5454
 6594SOL     OW31243   1.373   1.833   3.555 -0.1698 -0.4770 -0.0846
 6594SOL    HW131244   1.406   1.778   3.484  1.0247  0.0752  0.0546
 6594SOL    HW231245   1.449   1.846   3.611 -1.5691  1.6610  1.3431
 6595SOL     OW31246   3.167   0.577  17.597 -0.3931 -0.2549  0.1428
 6595SOL    HW131247   3.104   0.638  17.558  1.1501  0.5210 -1.1177
 6595SOL    HW231248   3.121   0.547  17.676 -0.3944 -1.3723 -0.2910
 6596SOL     OW31249   4.125   3.708   5.177 -0.2907 -0.2462 -0.0819
 6596SOL    HW131250   4.213   3.705   5.216 -0.4880 -1.1111  0.2983
 6596SOL    HW231251   4.143   3.751   5.093  1.3149  0.0392  0.3899
 6597SOL     OW31252   2.594   0.177   1.146 -0.2543 -0.0077 -0.0354
 6597SOL    HW131253   2.682   0.166   1.108 -0.5548  0.2963 -0.8217
 6597SOL    HW231254   2.586   0.273   1.152 -0.5787  0.0807 -1.6989
 6598SOL     OW31255   3.954   3.518   4.430 -0.4486  0.0692 -0.1192
 6598SOL    HW131256   3.869   3.527   4.473  0.3976  1.1251  1.3094
 6598SOL    HW231257   4.005   3.551   4.504  0.7423  0.9245 -1.3481
 6599SOL     OW31258   2.808   4.330   4.982  0.0313 -0.2411 -0.3552
 6599SOL    HW131259   2.836   4.416   5.013  0.0621 -0.3702 -0.0270
 6599SOL    HW231260   2.889   4.305   4.937  0.0494 -1.2254  0.2374
 6600SOL     OW31261   4.520   3.920   6.016  0.8059  0.2698 -0.1690
 6600SOL    HW131262   4.534   3.979   5.942  0.3668 -0.6453 -0.9900
 6600SOL    HW231263   4.433   3.882   6.012  0.0410  2.0941 -0.8825
 6601SOL     OW31264   0.826   2.300   3.996 -0.5746 -0.1870 -0.0477
 6601SOL    HW131265   0.758   2.241   3.964  0.2611 -0.1097 -1.9438
 6601SOL    HW231266   0.824   2.277   4.089 -0.5746 -1.6432 -0.4080
 6602SOL     OW31267   0.735   0.914   3.479  1.0265 -0.1678 -0.5011
 6602SOL    HW131268   0.764   0.846   3.540 -0.9362  0.3667  1.0288
 6602SOL    HW231269   0.819   0.945   3.446  1.0823 -0.8873 -1.0334
 6603SOL     OW31270   1.959   0.056   8.152 -0.5484  0.5441 -0.8148
 6603SOL    HW131271   2.039   0.051   8.205  0.2356 -0.5281 -2.1076
 6603SOL    HW231272   1.898   0.097   8.213 -0.4119  0.5508 -0.6825
 6604SOL     OW31273   2.077   3.589   3.513 -0.6086  0.7577 -0.4214
 6604SOL    HW131274   2.008   3.637   3.557 -0.0276  1.8613 -0.7086
 6604SOL    HW231275   2.061   3.507   3.559  3.0188  0.8614  0.9941
 6605SOL     OW31276   3.105   2.965   1.756 -0.1687 -0.3753  0.2566
 6605SOL    HW131277   3.163   2.981   1.681 -0.4735 -1.9843 -0.3055
 6605SOL    HW231278   3.145   3.019   1.824  2.8792 -0.3195 -1.5537
 6606SOL     OW31279   3.650   3.889   6.836  0.2044  0.1675 -0.5786
 6606SOL    HW131280   3.588   3.891   6.909  2.3081  0.8022  1.2207
 6606SOL    HW231281   3.670   3.796   6.829 -1.6855  0.0124 -3.7439
 6607SOL     OW31282   1.034   0.436   2.828 -0.0964  0.5228  0.0053
 6607SOL    HW131283   0.985   0.378   2.770  0.8206 -0.7571  0.5041
 6607SOL    HW231284   1.123   0.412   2.801 -0.5048 -1.5281  0.4292
 6608SOL     OW31285   0.232   2.732   3.134 -0.1597  0.5173 -0.0800
 6608SOL    HW131286   0.321   2.711   3.107  0.7502 -0.4073  3.5451
 6608SOL    HW231287   0.187   2.718   3.051  0.2513  1.2493 -0.4231
 6609SOL     OW31288   2.964   4.159   2.198  0.0255 -0.5666 -0.3343
 6609SOL    HW131289   2.958   4.230   2.134 -3.1302  0.7219  1.4093
 6609SOL    HW231290   2.964   4.091   2.131  1.6232 -0.4704 -0.4199
 6610SOL     OW31291   4.491   2.422  14.837 -0.0216  0.4739  0.0970
 6610SOL    HW131292   4.486   2.341  14.889 -1.8687  0.2599 -0.4267
 6610SOL    HW231293   4.414   2.464  14.876  1.4842  2.7625  0.5891
 6611SOL     OW31294   0.868   1.488   9.815  0.2888  0.1036 -0.7908
 6611SOL    HW131295   0.844   1.466   9.905  1.8273  0.4907 -0.2823
 6611SOL    HW231296   0.828   1.575   9.814 -0.4245 -0.1836  2.4415
 6612SOL     OW31297   2.270   3.846   4.851 -0.4424  0.1205 -0.2566
 6612SOL    HW131298   2.304   3.817   4.936 -0.1733  1.4678  0.0903
 6612SOL    HW231299   2.176   3.834   4.861 -0.4089 -0.1742 -0.2783
 6613SOL     OW31300   3.590   4.685   3.964 -0.1155 -0.3537 -0.0843
 6613SOL    HW131301   3.641   4.606   3.984  0.9507 -0.0563 -1.5622
 6613SOL    HW231302   3.591   4.683   3.868 -1.3505 -1.7017 -0.0596
 6614SOL     OW31303   0.249   4.003   8.242 -0.5385 -0.1226  0.1113
 6614SOL    HW131304   0.170   4.040   8.203 -0.5424  0.4059  0.6137
 6614SOL    HW231305   0.234   4.028   8.333  0.6324  0.3695  0.1575
 6615SOL     OW31306   3.235   4.190  14.284  0.1266  0.3050 -0.6555
 6615SOL    HW131307   3.180   4.210  14.359  1.2244  0.1555  0.1952
 6615SOL    HW231308   3.179   4.131  14.234  0.2037 -0.7999  0.5740
 6616SOL     OW31309   0.065   3.911   4.020 -0.0230 -0.3617  0.0367
 6616SOL    HW131310   0.036   3.853   3.950 -1.7525 -0.8239  1.1160
 6616SOL    HW231311   4.718   3.977   4.020  2.0584  1.8157  0.4593
 6617SOL     OW31312   0.503   4.631  17.303 -0.1497  0.3813 -0.4803
 6617SOL    HW131313   0.417   4.614  17.340  0.5702 -2.3658 -0.0437
 6617SOL    HW231314   0.486   4.590  17.218  2.6236  1.0419 -1.3659
 6618SOL     OW31315   0.849   2.054   6.178  0.2424 -0.0536 -0.3322
 6618SOL    HW131316   0.923   2.024   6.126 -0.2361 -0.1968 -0.9386
 6618SOL    HW231317   0.877   2.041   6.269 -2.5090 -0.4117  0.4821
 6619SOL     OW31318   1.810   0.562   4.755  0.0595 -0.6143 -0.2511
 6619SOL    HW131319   1.726   0.521   4.731 -0.7716  0.5517  0.6699
 6619SOL    HW231320   1.859   0.543   4.675  2.6576 -3.0386  1.9567
 6620SOL     OW31321   1.738   1.742   5.974  0.5497 -0.1597 -0.0008
 6620SOL    HW131322   1.733   1.814   6.038 -0.0454 -0.4966  0.3325
 6620SOL    HW231323   1.655   1.700   5.996 -0.8069  2.3679 -0.3010
 6621SOL     OW31324   3.845   2.321  14.736 -0.2214  0.0670 -0.1845
 6621SOL    HW131325   3.816   2.362  14.818  4.1566 -0.0989  1.4436
 6621SOL    HW231326   3.777   2.358  14.680  0.1440 -2.1689 -2.0803
 6622SOL     OW31327   1.311   4.543  11.801 -0.0117 -0.0584 -0.3927
 6622SOL    HW131328   1.219   4.565  11.814  0.7202  1.0333  3.0236
 6622SOL    HW231329   1.336   4.625  11.758 -1.5493  0.4065 -0.3812
 6623SOL     OW31330   3.935   1.378   0.795 -0.5949 -0.1003 -0.0655
 6623SOL    HW131331   3.864   1.378   0.860 -1.5028 -3.3394 -1.0373
 6623SOL    HW231332   3.957   1.284   0.796  1.6932  0.4194 -1.6187
 6624SOL     OW31333   3.671   1.034   1.135  0.1416  0.4038 -0.1516
 6624SOL    HW131334   3.627   0.951   1.118  0.3934  0.0191  1.0649
 6624SOL    HW231335   3.763   1.013   1.119 -0.5903 -1.9171 -1.2696
 6625SOL     OW31336   2.467   1.451   5.267  0.3600  0.5692 -0.1334
 6625SOL    HW131337   2.448   1.544   5.280  2.4455  1.0828 -0.8126
 6625SOL    HW231338   2.525   1.463   5.192 -0.2771  1.0176 -0.5450
 6626SOL     OW31339   4.047   4.110   2.489 -0.0459  0.9905  0.3691
 6626SOL    HW131340   4.036   4.081   2.398 -1.7193  1.1046  0.5348
 6626SOL    HW231341   4.087   4.193   2.462 -0.6810  1.8493  2.0144
 6627SOL     OW31342   4.665   2.061   7.427  0.1334 -0.0061 -0.5186
 6627SOL    HW131343   4.641   1.979   7.470 -3.3762  0.5386 -1.4355
 6627SOL    HW231344   4.666   2.109   7.510  0.6063 -0.1455 -0.4429
 6628SOL     OW31345   3.828   3.449   5.560 -0.0332  0.0859 -0.7271
 6628SOL    HW131346   3.881   3.527   5.546  0.0635  0.0437 -0.5988
 6628SOL    HW231347   3.889   3.384   5.525  0.3691 -1.8162  3.4746
 6629SOL     OW31348   0.594   4.042  11.103  0.3557 -0.0920 -0.3842
 6629SOL    HW131349   0.577   3.954  11.069  2.2727  0.0529 -1.6861
 6629SOL    HW231350   0.633   4.081  11.025  1.6357  0.4619  0.5379
 6630SOL     OW31351   0.994   1.314   8.296  0.2433 -0.6064 -0.2197
 6630SOL    HW131352   1.079   1.287   8.330  0.6429  1.9149  0.7558
 6630SOL    HW231353   1.010   1.408   8.289 -3.6278 -0.0496 -1.7033
 6631SOL     OW31354   4.288   2.970   6.544 -0.2866  0.1723 -0.7840
 6631SOL    HW131355   4.232   2.909   6.592 -0.7867  1.3368  0.1008
 6631SOL    HW231356   4.376   2.932   6.549 -0.5057 -0.2286  0.0703
 6632SOL     OW31357   0.937   3.167   3.346  0.4916  0.1188  0.0946
 6632SOL    HW131358   1.031   3.187   3.336  0.1319  1.8005  0.0727
 6632SOL    HW231359   0.890   3.229   3.290 -0.7846  0.4502  1.5451
 6633SOL     OW31360   0.160   2.028   7.918 -0.0348  0.2095 -0.4528
 6633SOL    HW131361   0.248   2.061   7.938  0.4317 -1.0995 -0.3724
 6633SOL    HW231362   0.125   2.030   8.007 -0.1855 -0.7396 -0.4894
 6634SOL     OW31363   3.629   0.580  10.984  0.3964  0.1891  0.4781
 6634SOL    HW131364   3.687   0.518  11.029  2.5044  2.6157  1.1027
 6634SOL    HW231365   3.557   0.521  10.964  1.9670 -1.6453  0.1557
 6635SOL     OW31366   1.757   3.660  13.908 -0.2319 -0.1112 -0.2924
 6635SOL    HW131367   1.735   3.570  13.930 -0.3795  0.1850  0.7628
 6635SOL    HW231368   1.682   3.696  13.861 -0.5605  1.2740  1.2767
 6636SOL     OW31369   0.622   1.413   8.000  0.5759 -0.0494  0.2289
 6636SOL    HW131370   0.631   1.431   7.906  1.3204 -1.7551 -0.0204
 6636SOL    HW231371   0.589   1.324   7.991 -0.4639  0.3487  0.0937
 6637SOL     OW31372   0.776   2.691   2.545  0.0251 -0.0608  0.5056
 6637SOL    HW131373   0.745   2.665   2.458 -0.6842  0.0505  0.7253
 6637SOL    HW231374   0.791   2.784   2.529 -0.1278 -0.0011  0.6995
 6638SOL     OW31375   3.181   3.623   8.150  0.1270 -0.3661 -0.3535
 6638SOL    HW131376   3.272   3.613   8.122  0.7482 -0.4632  1.6840
 6638SOL    HW231377   3.187   3.695   8.214 -1.0587  1.0003 -1.7956
 6639SOL     OW31378   3.183   0.190  14.480  0.2184  0.1994 -0.7306
 6639SOL    HW131379   3.210   0.251  14.412  1.4588  0.1482 -0.2819
 6639SOL    HW231380   3.200   0.112  14.427  2.6224  1.5902 -2.0237
 6640SOL     OW31381   2.608   3.288   4.022 -0.4371  0.2065 -0.3912
 6640SOL    HW131382   2.648   3.338   3.951 -1.6244  0.4868 -0.8627
 6640SOL    HW231383   2.570   3.215   3.972  1.6417 -1.2579  0.1670
 6641SOL     OW31384   1.642   2.484   5.974 -0.0703 -0.0425  0.0021
 6641SOL    HW131385   1.661   2.578   5.973 -0.4319  0.0188 -1.6187
 6641SOL    HW231386   1.599   2.466   5.891  2.6953 -1.3798 -1.1290
 6642SOL     OW31387   0.712   2.603   9.197 -0.9121 -0.0803  0.2779
 6642SOL    HW131388   0.739   2.671   9.135  1.9327 -0.8215  0.7200
 6642SOL    HW231389   0.626   2.577   9.163 -0.9105 -0.1549  0.3312
 6643SOL     OW31390   2.215   2.643   6.770 -0.1100  0.1247 -0.1948
 6643SOL    HW131391   2.200   2.641   6.864 -0.6464 -0.7517 -0.3019
 6643SOL    HW231392   2.158   2.719   6.758 -1.8889 -1.4181 -1.5521
 6644SOL     OW31393   4.122   0.309   1.721  0.7923 -0.4957  0.4395
 6644SOL    HW131394   4.150   0.259   1.644 -0.9047 -1.6262  0.5410
 6644SOL    HW231395   4.183   0.277   1.788 -0.8820  0.8293  2.6038
 6645SOL     OW31396   2.001   2.470   9.950 -0.5300 -0.5899  0.5838
 6645SOL    HW131397   1.965   2.383   9.964 -1.9203 -0.0531  0.2871
 6645SOL    HW231398   2.074   2.436   9.897  1.3324  1.5583  1.7495
 6646SOL     OW31399   0.298   0.691   1.804 -0.4319  0.1668 -0.1647
 6646SOL    HW131400   0.312   0.669   1.712  1.7443  1.6258 -0.1846
 6646SOL    HW231401   0.239   0.765   1.789 -1.4861 -0.0878  2.7407
 6647SOL     OW31402   0.665   1.723   6.064 -0.2470 -0.4377  0.1041
 6647SOL    HW131403   0.658   1.687   5.975  1.8344  0.4630 -0.4363
 6647SOL    HW231404   0.612   1.666   6.119  1.2314 -0.1092  1.8673
 6648SOL     OW31405   2.170   2.395   0.415 -0.5213 -0.6586  0.1619
 6648SOL    HW131406   2.176   2.483   0.452  0.8022 -0.7563  0.1752
 6648SOL    HW231407   2.151   2.420   0.325 -0.5115 -0.6551  0.1609
 6649SOL     OW31408   4.285   3.007   7.923 -0.1861 -0.1983 -0.4249
 6649SOL    HW131409   4.226   3.029   7.852  0.8003 -2.4045 -1.9323
 6649SOL    HW231410   4.348   2.954   7.875 -0.3506 -0.5742 -0.2240
 6650SOL     OW31411   3.305   1.822   7.275 -0.2429 -0.2430 -0.1129
 6650SOL    HW131412   3.385   1.854   7.231 -1.0587 -0.8939 -2.0667
 6650SOL    HW231413   3.235   1.885   7.260  0.3935  0.4833 -0.0114
 6651SOL     OW31414   2.319   0.327  16.354 -0.0574  0.5019 -0.0900
 6651SOL    HW131415   2.254   0.287  16.296  2.4090 -2.7455 -0.6000
 6651SOL    HW231416   2.268   0.322  16.435 -0.5446  0.5484 -0.3917
 6652SOL     OW31417   3.642   3.768  17.607 -0.1591 -0.0266  0.0241
 6652SOL    HW131418   3.730   3.747  17.638  0.2149 -1.3499 -2.0048
 6652SOL    HW231419   3.631   3.859  17.635  0.3403  0.1082 -0.2090
 6653SOL     OW31420   1.073   3.800   6.863  0.0231  1.0422 -0.0200
 6653SOL    HW131421   1.098   3.817   6.954  1.7434 -0.0031 -0.3042
 6653SOL    HW231422   1.155   3.825   6.820  0.7133 -0.9565  0.1435
 6654SOL     OW31423   0.122   1.066   7.249  0.2581  0.6785  0.1931
 6654SOL    HW131424   0.167   1.108   7.176 -0.1231 -1.4295 -1.2421
 6654SOL    HW231425   0.096   1.135   7.311 -1.8127  0.1871 -0.1259
 6655SOL     OW31426   1.452   1.340   3.234 -0.1331  0.5816 -0.3622
 6655SOL    HW131427   1.422   1.266   3.182  0.0831  0.2161  0.0290
 6655SOL    HW231428   1.541   1.353   3.200 -0.3399 -0.5387 -1.3450
 6656SOL     OW31429   3.486   3.506   7.761 -0.6476 -0.0001 -0.0841
 6656SOL    HW131430   3.446   3.561   7.694  0.8208  0.8430 -0.2734
 6656SOL    HW231431   3.580   3.519   7.748 -0.8225  1.5235  0.1471
 6657SOL     OW31432   3.316   3.045   6.661 -0.2070 -0.2081 -0.4656
 6657SOL    HW131433   3.405   3.079   6.658 -0.1680 -0.3306 -0.7117
 6657SOL    HW231434   3.303   2.999   6.744  0.5261  1.6121  0.6505
 6658SOL     OW31435   4.452   2.201   7.306  0.0634  0.1585 -0.4662
 6658SOL    HW131436   4.505   2.137   7.354 -0.1423  1.9589  2.1439
 6658SOL    HW231437   4.397   2.145   7.251  0.6274  0.3694 -1.2447
 6659SOL     OW31438   2.782   4.143   7.007  0.1186 -0.4074  0.0715
 6659SOL    HW131439   2.827   4.183   7.081  2.1537 -1.9248 -0.3331
 6659SOL    HW231440   2.830   4.186   6.937  1.8729 -2.0913  0.2523
 6660SOL     OW31441   1.778   0.753   2.539  0.4164  0.0086  0.1805
 6660SOL    HW131442   1.752   0.666   2.570 -0.5728  0.4971  0.7222
 6660SOL    HW231443   1.869   0.751   2.571  0.6207  1.5313 -0.2907
 6661SOL     OW31444   4.675   3.973  12.215  0.6168  0.6219  0.3260
 6661SOL    HW131445   4.720   3.889  12.226  1.9444  1.1708 -0.8425
 6661SOL    HW231446   0.004   4.021  12.150  0.4902 -0.9973 -0.9706
 6662SOL     OW31447   4.304   4.495   3.291 -0.0592  0.1803 -0.0136
 6662SOL    HW131448   4.342   4.535   3.213  1.6500  0.3337  0.9040
 6662SOL    HW231449   4.382   4.454   3.328 -0.1343  0.2138  0.1830
 6663SOL     OW31450   0.031   1.099   4.520  0.3723 -0.3656  0.8307
 6663SOL    HW131451   4.702   1.178   4.542  1.3805  0.7961 -1.0117
 6663SOL    HW231452   0.001   1.050   4.597  1.3879 -2.0271  0.1500
 6664SOL     OW31453   2.853   0.785   5.256  0.7805 -0.2026  0.1416
 6664SOL    HW131454   2.905   0.807   5.333 -1.9320  0.4570  1.7963
 6664SOL    HW231455   2.912   0.816   5.188  1.5573 -3.5847 -0.7431
 6665SOL     OW31456   1.567   4.490  15.479  0.1164  0.4065 -0.1487
 6665SOL    HW131457   1.606   4.498  15.566  0.8738  0.7594 -0.5177
 6665SOL    HW231458   1.638   4.461  15.421  0.3969 -1.5005  1.1431
 6666SOL     OW31459   1.387   2.555   5.120  0.3114 -0.4065 -0.6407
 6666SOL    HW131460   1.375   2.632   5.175 -1.2914  2.4108 -4.9418
 6666SOL    HW231461   1.319   2.501   5.160  1.0357  0.1572  1.3184
 6667SOL     OW31462   2.198   1.699   3.094  0.1945 -0.6512  0.6196
 6667SOL    HW131463   2.146   1.624   3.064  0.1353  0.3468 -1.7989
 6667SOL    HW231464   2.146   1.773   3.060  0.7423 -0.3062  0.5275
 6668SOL     OW31465   0.404   3.730  12.658 -0.1338 -0.3192 -0.0933
 6668SOL    HW131466   0.379   3.778  12.580  0.2120 -0.5910 -0.3684
 6668SOL    HW231467   0.363   3.645  12.641 -2.2621  0.4142  1.3884
 6669SOL     OW31468   3.037   3.678  15.449  0.5558  0.0773  0.3320
 6669SOL    HW131469   3.106   3.678  15.383  0.4706  0.5143  0.2418
 6669SOL    HW231470   3.044   3.768  15.480  2.4517 -0.7124  2.1964
 6670SOL     OW31471   1.506   2.659   3.699 -0.2057  0.5124 -0.6450
 6670SOL    HW131472   1.433   2.598   3.694  0.8458 -0.7861 -0.0002
 6670SOL    HW231473   1.562   2.615   3.634 -1.4730 -2.1923  0.1178
 6671SOL     OW31474   4.345   0.470   5.740  0.8140 -0.4453 -0.2527
 6671SOL    HW131475   4.296   0.481   5.821  1.8607  1.2652  0.1534
 6671SOL    HW231476   4.279   0.442   5.677 -0.7805  0.3461  1.0880
 6672SOL     OW31477   1.535   4.646   8.808  0.0985  0.3839  0.7206
 6672SOL    HW131478   1.452   4.652   8.761 -1.9786  0.0966  4.3683
 6672SOL    HW231479   1.597   4.684   8.745  1.3005 -1.5123  0.7655
 6673SOL     OW31480   2.087   2.879   1.310 -0.2984 -0.0275 -0.1097
 6673SOL    HW131481   2.071   2.849   1.400 -0.3848 -0.0175 -0.1218
 6673SOL    HW231482   2.121   2.967   1.329 -1.2796  0.1818  0.6986
 6674SOL     OW31483   0.003   1.381   0.236  0.6740  0.0556  0.3535
 6674SOL    HW131484   0.021   1.468   0.270  0.5083  0.5637 -0.8606
 6674SOL    HW231485   4.647   1.350   0.282 -0.1220  0.3045 -0.8296
 6675SOL     OW31486   2.302   0.506   5.441  0.4236  0.1346 -0.4315
 6675SOL    HW131487   2.263   0.422   5.416  2.2611 -0.7910 -0.1622
 6675SOL    HW231488   2.348   0.521   5.358 -0.2153  1.8398 -0.4761
 6676SOL     OW31489   4.612   1.996   2.525 -0.7103  0.3128  0.0954
 6676SOL    HW131490   4.664   1.953   2.457  0.9707  0.1299  1.4999
 6676SOL    HW231491   4.535   1.945   2.502 -1.2494  2.3691 -2.5804
 6677SOL     OW31492   2.554   3.761   3.314 -0.0612 -0.0791 -0.1580
 6677SOL    HW131493   2.565   3.804   3.399 -0.0862 -0.7150  0.1688
 6677SOL    HW231494   2.470   3.716   3.310 -0.0647  0.0401 -1.4202
 6678SOL     OW31495   2.035   0.869   5.835 -0.6049 -0.3289  0.0236
 6678SOL    HW131496   2.121   0.858   5.795 -0.1812  0.5677  0.6861
 6678SOL    HW231497   1.975   0.837   5.767  1.6065  0.6390 -2.3584
 6679SOL     OW31498   4.543   3.553  17.643 -0.7007 -0.3615  0.3525
 6679SOL    HW131499   4.561   3.471  17.597 -0.9602  0.2341 -0.8062
 6679SOL    HW231500   4.449   3.539  17.654 -0.6325 -0.4633  0.8284
 6680SOL     OW31501   3.323   0.380  12.981  0.6645  0.5991  0.3375
 6680SOL    HW131502   3.368   0.297  12.997 -0.3797 -0.2689 -1.3232
 6680SOL    HW231503   3.273   0.353  12.905  0.1819  1.5219  0.3275
 6681SOL     OW31504   2.376   1.133   4.952 -0.3897 -0.3098 -0.4856
 6681SOL    HW131505   2.437   1.132   4.878 -1.0528  0.3524 -1.0391
 6681SOL    HW231506   2.341   1.221   4.937 -1.5901 -0.2589  2.6721
 6682SOL     OW31507   0.609   0.083  15.590  0.1907 -0.1041  0.1618
 6682SOL    HW131508   0.612   0.135  15.671 -0.1888 -0.1869  0.2294
 6682SOL    HW231509   0.576   0.135  15.517 -0.1556 -0.9668 -0.2960
 6683SOL     OW31510   0.277   3.512   4.033 -0.6167 -0.1701 -0.2026
 6683SOL    HW131511   0.268   3.576   3.962  2.7546  0.6461  0.1331
 6683SOL    HW231512   0.365   3.483   4.011  0.4329  1.1167  2.3509
 6684SOL     OW31513   3.901   0.961   5.680  0.1367  0.3866  0.2173
 6684SOL    HW131514   3.927   1.039   5.632  3.2517 -0.4756  0.5004
 6684SOL    HW231515   3.832   1.000   5.734  0.2346 -0.5076  0.9824
 6685SOL     OW31516   3.503   1.660   7.976  1.2408  0.0500 -0.1600
 6685SOL    HW131517   3.584   1.626   7.939  1.1617  0.0984 -0.3743
 6685SOL    HW231518   3.439   1.632   7.911  1.9739 -1.0821 -0.3947
 6686SOL     OW31519   0.029   3.480   3.916 -0.1898 -0.0892  0.2009
 6686SOL    HW131520   4.710   3.566   3.914 -0.7666 -0.3574  0.3901
 6686SOL    HW231521   0.092   3.494   3.987 -0.6470 -2.6126  1.1109
 6687SOL     OW31522   0.543   3.155   7.909  0.0621 -0.3871 -0.0940
 6687SOL    HW131523   0.535   3.073   7.861 -2.1242 -0.1116 -0.2032
 6687SOL    HW231524   0.612   3.194   7.855 -0.2014  1.2957  0.7811
 6688SOL     OW31525   2.397   0.411   3.533 -0.6975  0.4094 -0.1003
 6688SOL    HW131526   2.435   0.484   3.483 -1.3348  0.0962 -1.0521
 6688SOL    HW231527   2.306   0.438   3.546 -0.0483  2.4512  0.2232
 6689SOL     OW31528   2.131   4.128   1.835  0.0964 -0.1190  0.1786
 6689SOL    HW131529   2.102   4.154   1.923  1.5092  0.0499  0.6054
 6689SOL    HW231530   2.079   4.179   1.774  2.2854  0.0234 -1.5763
 6690SOL     OW31531   0.465   0.383  17.245  0.4055  0.2581 -0.0871
 6690SOL    HW131532   0.508   0.443  17.184  0.3646  0.0968 -0.2743
 6690SOL    HW231533   0.519   0.307  17.222  1.4757  1.1726 -0.5722
 6691SOL     OW31534   3.817   4.089   5.716 -0.2416  0.1587 -0.2172
 6691SOL    HW131535   3.799   3.995   5.709 -1.9959  0.3651  1.3270
 6691SOL    HW231536   3.737   4.116   5.761  0.9315  1.6004  0.9847
 6692SOL     OW31537   0.004   3.947   3.034  0.4093 -0.1518  0.6119
 6692SOL    HW131538   0.067   4.016   3.057  0.9616 -0.0313 -1.2975
 6692SOL    HW231539   4.704   3.906   3.118 -2.2061 -1.8962 -0.9635
 6693SOL     OW31540   3.672   4.475  11.463  0.0358  0.1917  0.7089
 6693SOL    HW131541   3.603   4.412  11.442  3.6079 -3.1068 -1.1312
 6693SOL    HW231542   3.669   4.476  11.559  0.3002 -0.8562  0.7243
 6694SOL     OW31543   2.191   4.273   7.758  0.3407 -0.8978  0.0039
 6694SOL    HW131544   2.160   4.226   7.681  1.4221 -1.0487 -0.3419
 6694SOL    HW231545   2.181   4.364   7.730  1.8984 -1.3265 -1.9311
 6695SOL     OW31546   1.545   3.951   2.256  0.5087 -0.0046 -0.6100
 6695SOL    HW131547   1.461   3.909   2.240 -0.5274  1.3703  1.0900
 6695SOL    HW231548   1.560   3.944   2.351 -1.2695  0.2961 -0.3028
 6696SOL     OW31549   1.006   1.226  10.130  0.0975 -0.2979 -0.5906
 6696SOL    HW131550   1.009   1.172  10.209 -2.1690  0.7060  0.1876
 6696SOL    HW231551   0.968   1.166  10.066  0.5018 -1.2938  0.1008
 6697SOL     OW31552   2.659   3.909   7.861 -0.1501  0.1032  0.3254
 6697SOL    HW131553   2.653   3.818   7.889 -0.2942 -0.0224 -0.1040
 6697SOL    HW231554   2.585   3.952   7.905 -0.0829 -0.0767  0.6095
 6698SOL     OW31555   1.543   1.960   0.645 -0.1537 -0.6920 -0.2730
 6698SOL    HW131556   1.469   1.973   0.586  0.2920 -0.3107 -0.7454
 6698SOL    HW231557   1.567   2.052   0.653 -2.9235  0.1431 -1.2647
 6699SOL     OW31558   4.588   2.912  12.410  0.2429  0.8620 -0.0252
 6699SOL    HW131559   4.580   2.954  12.324 -1.0809 -0.5375 -0.5968
 6699SOL    HW231560   4.548   2.978  12.466 -2.3697 -0.0090 -0.8878
 6700SOL     OW31561   3.470   2.011   2.965 -0.5108 -0.7888  0.3714
 6700SOL    HW131562   3.552   1.972   2.934  0.9941  0.2443  3.0067
 6700SOL    HW231563   3.402   2.006   2.898  0.4182  1.5887 -0.7843
 6701SOL     OW31564   1.065   3.779   7.490  0.1749  0.0795  0.2480
 6701SOL    HW131565   1.077   3.864   7.533 -0.7135  1.3709 -2.0580
 6701SOL    HW231566   1.143   3.725   7.502  0.6624 -0.0896 -3.8544
 6702SOL     OW31567   0.012   0.217  15.979 -0.1108 -0.3800 -0.2032
 6702SOL    HW131568   0.015   0.251  15.890  0.2056 -1.2051 -0.5102
 6702SOL    HW231569   4.656   0.162  15.972 -0.4111  0.1867 -1.1807
 6703SOL     OW31570   2.639   4.444   4.186 -0.1940  0.5708 -0.2686
 6703SOL    HW131571   2.632   4.536   4.161  0.4177  0.4729 -0.7842
 6703SOL    HW231572   2.574   4.410   4.124  2.0672  0.5014 -2.5838
 6704SOL     OW31573   4.120   4.023   5.486 -0.7749 -0.4737  0.0517
 6704SOL    HW131574   4.182   4.092   5.459  1.1387 -1.4188  2.0263
 6704SOL    HW231575   4.085   3.982   5.407  0.1722  0.0164 -0.6265
 6705SOL     OW31576   0.927   2.895  10.990  0.0533  0.2430  0.1375
 6705SOL    HW131577   0.947   2.965  11.051  0.0765  0.0102  0.3952
 6705SOL    HW231578   1.002   2.911  10.933 -0.3465  0.9914 -0.1746
 6706SOL     OW31579   2.799   1.602   1.874  0.1484  0.4393 -0.1980
 6706SOL    HW131580   2.725   1.626   1.929  0.2437  1.2033 -0.4003
 6706SOL    HW231581   2.806   1.509   1.897 -2.1004  0.7281  1.6360
 6707SOL     OW31582   4.321   3.403   4.372 -0.7543  0.1336  0.5343
 6707SOL    HW131583   4.270   3.381   4.294 -0.0942 -1.3063  0.5225
 6707SOL    HW231584   4.373   3.477   4.339 -1.4719  0.3247 -0.1867
 6708SOL     OW31585   4.058   0.391   7.478  0.5908  0.9259 -0.1615
 6708SOL    HW131586   3.975   0.348   7.499  1.2667  1.3062  3.2517
 6708SOL    HW231587   4.044   0.472   7.527 -1.2415 -1.4555  3.3217
 6709SOL     OW31588   1.621   4.127   9.083  0.9451  0.2340  0.4808
 6709SOL    HW131589   1.674   4.060   9.126 -1.0806 -1.0069  1.0188
 6709SOL    HW231590   1.537   4.083   9.082  1.1068 -0.1050  1.4237
 6710SOL     OW31591   0.868   2.300   8.484 -0.2499 -0.1632  0.0723
 6710SOL    HW131592   0.779   2.305   8.449 -0.3325 -0.2746  0.2658
 6710SOL    HW231593   0.868   2.205   8.489  1.3956 -0.1544  0.0249
 6711SOL     OW31594   2.609   4.448   3.825 -0.2326 -0.3060 -0.0670
 6711SOL    HW131595   2.598   4.386   3.753 -0.3199 -1.0013  0.5551
 6711SOL    HW231596   2.702   4.470   3.831 -0.0854 -0.9220 -0.1558
 6712SOL     OW31597   0.058   3.114   5.512 -0.0414 -0.6702  0.4844
 6712SOL    HW131598   0.060   3.209   5.500 -1.7239 -0.6938 -0.0159
 6712SOL    HW231599   0.080   3.109   5.605  0.6057 -1.2623  0.2893
 6713SOL     OW31600   1.051   2.516   1.806 -0.1952 -0.5449  0.0171
 6713SOL    HW131601   1.087   2.507   1.894 -2.4416  2.4677  1.2586
 6713SOL    HW231602   1.067   2.601   1.766  0.3810 -0.3056  0.7675
 6714SOL     OW31603   3.115   3.199   4.208  1.1481 -0.0590 -0.5103
 6714SOL    HW131604   3.063   3.224   4.131  1.7309  2.0819 -0.2180
 6714SOL    HW231605   3.180   3.139   4.173 -0.0878 -1.3294 -0.6133
 6715SOL     OW31606   0.846   2.054   6.782 -0.0997 -0.3880  0.3420
 6715SOL    HW131607   0.905   1.981   6.767 -0.6356 -1.0916  1.6316
 6715SOL    HW231608   0.761   2.015   6.762  0.1355 -0.0316 -1.3030
 6716SOL     OW31609   1.360   2.178   9.126 -0.4950 -0.6378 -0.0282
 6716SOL    HW131610   1.437   2.200   9.072  0.4920 -1.3087  1.0910
 6716SOL    HW231611   1.348   2.250   9.187  2.0481  0.5357 -0.8924
 6717SOL     OW31612   4.161   0.898   4.853  0.6068 -0.6610  0.2969
 6717SOL    HW131613   4.113   0.872   4.775 -1.0641 -2.5217  1.9718
 6717SOL    HW231614   4.097   0.865   4.915 -0.2210  2.1365  0.9300
 6718SOL     OW31615   3.546   0.136   8.040  0.5999 -0.2982  0.0585
 6718SOL    HW131616   3.605   0.070   8.078 -1.3072 -1.2702  1.2866
 6718SOL    HW231617   3.611   0.206   8.028 -0.6095  0.7123 -0.4704
 6719SOL     OW31618   2.011   0.044   8.693  0.1895 -0.1976 -0.1080
 6719SOL    HW131619   2.028   0.126   8.646 -1.1491  1.1591  1.7376
 6719SOL    HW231620   1.915   0.037   8.692  0.2340 -0.9937  1.5969
 6720SOL     OW31621   3.120   4.134  12.317 -0.0578 -0.2616 -0.1897
 6720SOL    HW131622   3.055   4.064  12.309  0.0157 -0.3764  0.2094
 6720SOL    HW231623   3.206   4.092  12.328 -0.0800 -0.8755 -2.3569
 6721SOL     OW31624   1.235   2.502   7.180  0.2075 -0.5810 -0.1492
 6721SOL    HW131625   1.190   2.425   7.145 -1.0471  0.1984 -0.2416
 6721SOL    HW231626   1.267   2.463   7.262 -1.4170  1.5919  1.5025
 6722SOL     OW31627   4.175   3.417   9.011 -0.3160 -0.6838  0.3979
 6722SOL    HW131628   4.239   3.475   9.053  0.7681 -0.3682 -1.6749
 6722SOL    HW231629   4.178   3.455   8.923 -0.6857 -0.2190  0.5906
 6723SOL     OW31630   0.509   2.712   3.111 -0.2753  0.2651  0.3408
 6723SOL    HW131631   0.591   2.727   3.159 -0.0844 -0.4674  0.2401
 6723SOL    HW231632   0.526   2.772   3.038  1.3940  1.0124  1.3276
 6724SOL     OW31633   2.386   2.223  12.437  0.0379  0.6847 -0.1317
 6724SOL    HW131634   2.406   2.259  12.351  0.1178  0.2832 -0.2797
 6724SOL    HW231635   2.478   2.219  12.464 -1.2123  0.2670  4.0572
 6725SOL     OW31636   0.889   1.790   3.416  0.4588  0.1912  0.2103
 6725SOL    HW131637   0.862   1.700   3.435 -1.2139  0.2274 -2.0300
 6725SOL    HW231638   0.970   1.762   3.373 -0.1160  0.0584 -0.7850
 6726SOL     OW31639   4.375   0.742   3.188 -0.3587  0.3033 -0.7301
 6726SOL    HW131640   4.381   0.837   3.182 -1.2516  0.2725 -2.2176
 6726SOL    HW231641   4.457   0.722   3.142 -0.3647  3.1415 -1.9415
 6727SOL     OW31642   1.873   3.596   8.798  0.3951  0.2382  0.1912
 6727SOL    HW131643   1.931   3.631   8.731  1.8253 -2.0891  0.2341
 6727SOL    HW231644   1.878   3.665   8.864 -0.3597  0.5425 -0.0663
 6728SOL     OW31645   3.038   3.440   2.584 -0.2542 -0.1956  0.1089
 6728SOL    HW131646   2.983   3.372   2.623  0.6083 -0.9686 -0.0240
 6728SOL    HW231647   3.024   3.409   2.494 -1.0576  1.3070 -0.2919
 6729SOL     OW31648   1.176   1.198   4.532 -0.0978 -0.1247 -0.4062
 6729SOL    HW131649   1.264   1.235   4.531 -0.6445  1.2001  2.2975
 6729SOL    HW231650   1.129   1.253   4.594 -1.9943 -0.9662 -1.0739
 6730SOL     OW31651   0.147   1.460  11.897  0.0115  0.0825 -0.3130
 6730SOL    HW131652   0.240   1.447  11.882 -0.0489 -1.0429  0.2730
 6730SOL    HW231653   0.111   1.450  11.808 -2.9443 -1.1882  1.0045
 6731SOL     OW31654   1.551   3.367   3.651 -0.1814  0.0996  0.2271
 6731SOL    HW131655   1.500   3.394   3.727 -0.6314 -1.8178  0.6270
 6731SOL    HW231656   1.636   3.362   3.695  0.3679  1.1492 -0.7264
 6732SOL     OW31657   0.737   4.553   4.775  0.2963  0.0821  0.2818
 6732SOL    HW131658   0.688   4.596   4.705  2.1007  1.2332 -0.2706
 6732SOL    HW231659   0.784   4.629   4.808  0.9894 -0.4764  0.5691
 6733SOL     OW31660   1.461   2.016   4.367 -0.3333 -0.7512  0.6263
 6733SOL    HW131661   1.378   1.983   4.332  0.3451 -0.9432 -0.7969
 6733SOL    HW231662   1.492   2.065   4.291  1.4679 -1.0478  1.1560
 6734SOL     OW31663   3.209   0.624   8.307 -0.4501 -0.0434 -0.3513
 6734SOL    HW131664   3.255   0.642   8.225  0.4235  1.3489  0.4463
 6734SOL    HW231665   3.221   0.710   8.347 -0.4294  0.9003 -2.3872
 6735SOL     OW31666   3.580   0.547   8.963 -0.5871 -0.1503 -0.3868
 6735SOL    HW131667   3.609   0.617   8.905  2.0417 -0.1390  0.9755
 6735SOL    HW231668   3.666   0.528   8.999 -1.0527 -0.8504  0.3806
 6736SOL     OW31669   1.174   3.834  12.029 -0.1087 -0.2750 -0.6729
 6736SOL    HW131670   1.098   3.889  12.011  0.1095  0.6142  1.0615
 6736SOL    HW231671   1.121   3.758  12.052 -0.8235  0.3766 -0.1536
 6737SOL     OW31672   2.476   4.634   4.500 -0.3921 -0.4081 -0.1816
 6737SOL    HW131673   2.402   4.575   4.518 -1.2019  0.5865 -0.2729
 6737SOL    HW231674   2.437   4.716   4.530  1.6044  0.7339 -0.7443
 6738SOL     OW31675   3.388   3.112  15.850  0.0798 -0.1114  0.0817
 6738SOL    HW131676   3.370   3.048  15.780 -1.8687  0.5334 -0.0223
 6738SOL    HW231677   3.299   3.137  15.875  0.1045  0.2544 -0.2074
 6739SOL     OW31678   1.332   0.893  11.416  0.3472  0.8863 -0.1365
 6739SOL    HW131679   1.418   0.856  11.433 -0.1549 -1.0810 -1.8715
 6739SOL    HW231680   1.328   0.941  11.498 -0.0311  1.3429 -0.4169
 6740SOL     OW31681   2.410   2.843   9.729  0.1562  0.2339  0.8985
 6740SOL    HW131682   2.381   2.764   9.775 -2.7157  1.0242  0.4449
 6740SOL    HW231683   2.433   2.901   9.801 -1.0132  0.9887  0.6591
 6741SOL     OW31684   2.666   3.573   7.681 -0.0633  0.0723  0.2696
 6741SOL    HW131685   2.704   3.486   7.671 -1.5911 -0.4556 -0.8119
 6741SOL    HW231686   2.687   3.591   7.773 -0.5987  1.2372  0.1660
 6742SOL     OW31687   3.374   2.179   2.467  0.2080 -0.1527  0.6526
 6742SOL    HW131688   3.359   2.247   2.532 -0.9551  1.1984 -1.0108
 6742SOL    HW231689   3.361   2.100   2.518 -0.2892 -1.1704 -1.0515
 6743SOL     OW31690   0.085   2.608   8.687  0.1090 -0.1880  0.2519
 6743SOL    HW131691   4.717   2.637   8.670  0.1152 -1.9261 -2.7321
 6743SOL    HW231692   0.065   2.515   8.681 -2.8935  0.3529  1.5362
 6744SOL     OW31693   3.765   4.503   2.577 -0.4521 -0.4242  0.3584
 6744SOL    HW131694   3.690   4.460   2.536  0.6140 -1.9333  0.0007
 6744SOL    HW231695   3.805   4.424   2.614  1.8772 -0.0853 -1.3922
 6745SOL     OW31696   2.077   4.442  13.708 -0.3831 -0.6941  0.3508
 6745SOL    HW131697   1.998   4.451  13.760  0.8269  1.2881  1.8792
 6745SOL    HW231698   2.140   4.429  13.779  0.9348 -0.5965 -0.7773
 6746SOL     OW31699   2.871   3.218   6.008  0.1612  0.4606  0.3839
 6746SOL    HW131700   2.805   3.202   5.942  0.4003 -0.7821  0.4432
 6746SOL    HW231701   2.940   3.221   5.942  0.5877  0.3228  0.8195
 6747SOL     OW31702   4.501   1.469   6.814 -0.2266 -0.3654 -0.0426
 6747SOL    HW131703   4.478   1.557   6.783 -2.6946 -1.3496 -1.0070
 6747SOL    HW231704   4.558   1.499   6.885 -0.5046 -0.1968  0.1081
 6748SOL     OW31705   1.526   1.961   8.638  0.3609  0.1858 -0.1745
 6748SOL    HW131706   1.529   2.055   8.620 -1.5797  0.0185 -1.4700
 6748SOL    HW231707   1.532   1.931   8.547 -0.8975  2.3157 -0.9399
 6749SOL     OW31708   1.735   2.419   8.285  0.8856  0.3229 -0.2580
 6749SOL    HW131709   1.741   2.326   8.305  1.9569  0.7684  1.5228
 6749SOL    HW231710   1.827   2.445   8.280  1.3681 -1.2510  0.6840
 6750SOL     OW31711   1.613   1.008   5.988 -0.3491  0.6274 -0.5963
 6750SOL    HW131712   1.689   0.952   6.006  0.0994  0.6356 -2.4385
 6750SOL    HW231713   1.635   1.085   6.040  0.3233 -0.6605  1.0104
 6751SOL     OW31714   1.308   3.739   3.178 -0.8430 -0.3264  0.1594
 6751SOL    HW131715   1.348   3.691   3.106 -1.4863 -2.7112  1.3978
 6751SOL    HW231716   1.218   3.736   3.146 -1.7244 -1.7360  2.7036
 6752SOL     OW31717   1.271   1.513   4.228  0.3307  0.1740 -0.4851
 6752SOL    HW131718   1.305   1.425   4.243  4.7806  1.2279 -4.2340
 6752SOL    HW231719   1.179   1.488   4.230  0.2678  0.3814 -0.7640
 6753SOL     OW31720   1.082   3.490   6.787  0.0215 -0.3555  0.3784
 6753SOL    HW131721   1.057   3.569   6.835 -1.5681 -1.5279  1.4841
 6753SOL    HW231722   1.038   3.495   6.702 -0.5493 -1.6991  0.6007
 6754SOL     OW31723   0.683   4.276   7.794 -0.2649 -0.0535  0.4086
 6754SOL    HW131724   0.678   4.370   7.778  2.5838  0.0611  0.2097
 6754SOL    HW231725   0.767   4.272   7.840 -0.1275  1.2039  0.2489
 6755SOL     OW31726   2.349   2.701   3.806  0.2301  0.1741 -0.0635
 6755SOL    HW131727   2.354   2.778   3.863  2.1266 -1.4254  1.9012
 6755SOL    HW231728   2.412   2.720   3.737  0.5952 -2.1913 -0.3878
 6756SOL     OW31729   2.273   1.946   6.076  0.3325  0.3907 -0.7805
 6756SOL    HW131730   2.184   1.914   6.089  0.6466 -0.5035 -0.8713
 6756SOL    HW231731   2.265   2.025   6.130 -0.7916  0.9026 -1.6858
 6757SOL     OW31732   1.178   0.184   0.660  0.2449 -0.1600 -0.8259
 6757SOL    HW131733   1.221   0.102   0.635 -0.0056 -0.5458  0.0143
 6757SOL    HW231734   1.208   0.206   0.748 -3.0443  1.7828 -0.1984
 6758SOL     OW31735   0.014   0.046   8.694 -0.1999  0.3728 -0.2369
 6758SOL    HW131736   4.691   4.684   8.699 -0.2509  0.3604 -0.9559
 6758SOL    HW231737   0.095   0.017   8.737 -2.2162 -1.6267  2.2358
 6759SOL     OW31738   2.076   4.635   4.447  0.1893 -0.4805 -0.0203
 6759SOL    HW131739   2.134   4.568   4.484  1.6291  1.4118  1.1566
 6759SOL    HW231740   2.078   4.613   4.353  0.6325  0.6389 -0.2641
 6760SOL     OW31741   2.273   0.143   3.763  0.3234  0.1577  0.3544
 6760SOL    HW131742   2.223   0.082   3.817 -2.5706  1.6974 -0.5720
 6760SOL    HW231743   2.296   0.087   3.688  0.6252  2.0469 -0.9719
 6761SOL     OW31744   4.216   0.433  13.570 -0.4363  0.0747 -0.3648
 6761SOL    HW131745   4.173   0.516  13.588  1.9467  1.6628 -1.9492
 6761SOL    HW231746   4.224   0.402  13.661 -3.2150  0.8821  0.1508
 6762SOL     OW31747   1.933   2.127   0.227 -0.0826 -0.5001 -0.1698
 6762SOL    HW131748   1.865   2.186   0.193 -1.4755 -1.7472  0.4360
 6762SOL    HW231749   1.892   2.040   0.231  0.9324 -1.0673 -2.1067
 6763SOL     OW31750   3.382   1.552   6.912 -0.5447  0.3727 -0.8629
 6763SOL    HW131751   3.362   1.538   6.820  1.3643 -0.8039 -1.0758
 6763SOL    HW231752   3.406   1.645   6.921  0.1879 -0.0982  2.0013
 6764SOL     OW31753   2.896   1.478   7.949  0.6775 -0.0985 -0.3681
 6764SOL    HW131754   2.843   1.484   8.029 -0.7446 -0.5250 -1.2798
 6764SOL    HW231755   2.835   1.424   7.900 -1.6436  2.4887 -0.3521
 6765SOL     OW31756   0.067   0.066   8.394 -0.4259  0.0331 -0.3424
 6765SOL    HW131757   0.129   0.005   8.354  0.7848  1.1160 -0.0915
 6765SOL    HW231758   0.085   0.044   8.486 -1.0968  0.5735 -0.0837
 6766SOL     OW31759   4.053   2.850  10.813 -0.1807 -0.4742  0.1774
 6766SOL    HW131760   3.996   2.891  10.878  0.5127  0.2322  0.3510
 6766SOL    HW231761   4.120   2.821  10.874  0.8360  0.9914 -0.2327
 6767SOL     OW31762   3.637   2.653  15.762  0.1428 -0.2987 -0.1108
 6767SOL    HW131763   3.733   2.658  15.769  0.4356 -1.3184 -3.3862
 6767SOL    HW231764   3.621   2.568  15.721 -0.3692 -0.0792 -0.3658
 6768SOL     OW31765   2.100   4.612   3.305 -0.2019 -0.0925  0.3054
 6768SOL    HW131766   2.043   4.685   3.283 -0.3063 -0.4821 -0.7202
 6768SOL    HW231767   2.169   4.636   3.242 -2.0739  0.0574 -1.6848
 6769SOL     OW31768   3.086   3.409  17.383  0.1403 -0.2680 -0.1558
 6769SOL    HW131769   3.023   3.404  17.311 -0.2642 -1.6005  0.2687
 6769SOL    HW231770   3.135   3.327  17.386  0.1322 -0.2878 -0.6856
 6770SOL     OW31771   3.850   0.460   9.087 -0.0865 -0.2990  0.0465
 6770SOL    HW131772   3.834   0.397   9.157 -1.1034 -0.8172 -0.6561
 6770SOL    HW231773   3.920   0.414   9.041 -0.5643 -1.0965  0.1305
 6771SOL     OW31774   4.369   2.037   9.238 -0.4512 -0.0771  0.3895
 6771SOL    HW131775   4.455   2.006   9.211 -1.2069 -1.3890 -0.5332
 6771SOL    HW231776   4.315   2.019   9.161  0.8935  1.6783 -0.9571
 6772SOL     OW31777   3.448   0.341   7.091 -0.0126 -0.0796 -0.3662
 6772SOL    HW131778   3.391   0.402   7.137 -2.5578 -2.6572 -0.0582
 6772SOL    HW231779   3.506   0.308   7.160 -0.1813 -0.4903 -0.4170
 6773SOL     OW31780   4.009   4.183   6.532  0.0956 -0.4741 -0.3195
 6773SOL    HW131781   3.929   4.131   6.529  0.2657 -0.7252 -0.4778
 6773SOL    HW231782   4.075   4.116   6.550  1.9121  1.2558 -0.4584
 6774SOL     OW31783   4.457   2.081  12.083 -0.2315  0.4135 -0.2006
 6774SOL    HW131784   4.380   2.065  12.029 -1.6696  1.8894  1.4501
 6774SOL    HW231785   4.491   1.996  12.113 -1.0057  0.7152  1.5155
 6775SOL     OW31786   0.751   0.262   3.435  0.0950 -0.2563 -0.4565
 6775SOL    HW131787   0.812   0.214   3.379  1.2398  0.9809 -0.2669
 6775SOL    HW231788   0.707   0.202   3.495  0.5465  0.8165  0.9413
 6776SOL     OW31789   0.826   1.646   4.221 -0.2589  0.0911  0.1572
 6776SOL    HW131790   0.899   1.616   4.167  0.4901 -0.9487  1.7613
 6776SOL    HW231791   0.843   1.740   4.209 -0.5777  0.3791  2.0224
 6777SOL     OW31792   3.440   2.433  14.969  0.3788 -0.1285 -0.6018
 6777SOL    HW131793   3.419   2.341  14.955  0.5136 -0.3311  0.4928
 6777SOL    HW231794   3.405   2.452  15.056  0.2743  0.4245 -0.7675
 6778SOL     OW31795   4.031   0.630  16.182  0.2028  0.3099  0.1771
 6778SOL    HW131796   4.037   0.535  16.189  2.9150  0.5526  1.2291
 6778SOL    HW231797   3.977   0.635  16.103 -3.3991 -0.4432  2.5965
 6779SOL     OW31798   0.228   1.132   3.777 -0.5664 -0.0190 -0.2853
 6779SOL    HW131799   0.155   1.147   3.718  0.4197  1.2396 -1.2007
 6779SOL    HW231800   0.260   1.054   3.731  0.7977  0.9705 -1.0457
 6780SOL     OW31801   1.008   0.704   2.024 -0.0175 -0.1770 -0.3676
 6780SOL    HW131802   0.926   0.712   2.073 -0.0529  0.3419 -0.5075
 6780SOL    HW231803   1.045   0.791   2.037  1.2264 -1.1680  2.7705
 6781SOL     OW31804   3.422   1.102  12.582 -0.2344 -0.7815 -0.5387
 6781SOL    HW131805   3.512   1.133  12.595  0.2823 -1.9973 -1.2691
 6781SOL    HW231806   3.391   1.138  12.499 -3.7870  0.9754  1.5201
 6782SOL     OW31807   4.073   0.688  13.343 -0.2844 -0.1312 -0.1483
 6782SOL    HW131808   4.015   0.690  13.267 -0.2969  0.5154 -0.1214
 6782SOL    HW231809   4.145   0.734  13.299 -0.2185 -0.5604 -0.4960
 6783SOL     OW31810   2.143   0.192   9.139 -0.2211  0.9174  0.0003
 6783SOL    HW131811   2.160   0.243   9.060 -0.2646  1.1419  0.1364
 6783SOL    HW231812   2.206   0.240   9.193  1.2739 -0.4780 -0.4885
 6784SOL     OW31813   0.792   4.692   6.261 -0.2110  0.6295 -0.0737
 6784SOL    HW131814   0.736   0.018   6.321 -0.5392  0.7459 -0.4750
 6784SOL    HW231815   0.865   4.667   6.317 -0.2198 -1.4009 -0.9612
 6785SOL     OW31816   3.127   4.157  15.871  0.5089 -0.1123 -0.7140
 6785SOL    HW131817   3.080   4.112  15.941 -0.4789 -0.9062 -1.8617
 6785SOL    HW231818   3.141   4.092  15.802 -0.5453  0.0318 -1.0700
 6786SOL     OW31819   3.897   4.227   2.061  0.6939 -0.1029  0.1466
 6786SOL    HW131820   3.921   4.289   2.130  0.9620  3.0487 -2.8105
 6786SOL    HW231821   3.945   4.265   1.988 -2.1406  3.5756  0.1854
 6787SOL     OW31822   4.164   2.746   1.947  0.9505 -0.4505 -0.2724
 6787SOL    HW131823   4.125   2.659   1.939 -0.5060  0.1856 -0.2032
 6787SOL    HW231824   4.122   2.780   2.027  2.4850  0.8954 -0.0464
 6788SOL     OW31825   3.546   0.993  15.088  0.2703 -0.1818  0.2092
 6788SOL    HW131826   3.463   0.952  15.113 -0.7614  2.1786  0.6455
 6788SOL    HW231827   3.601   0.919  15.062 -1.4441 -2.2801  2.5843
 6789SOL     OW31828   4.147   2.224   8.662  0.2206  0.2598  0.1666
 6789SOL    HW131829   4.101   2.196   8.741  1.0981 -1.9646 -0.1114
 6789SOL    HW231830   4.158   2.317   8.683  1.5490  0.2073 -0.2789
 6790SOL     OW31831   0.956   3.739   5.184  0.1508  0.7231  0.0009
 6790SOL    HW131832   0.960   3.643   5.180  0.3642  0.6108  2.8152
 6790SOL    HW231833   0.866   3.759   5.158  0.1638 -1.7397 -1.9084
 6791SOL     OW31834   4.452   2.676   6.361 -0.0993 -0.0110 -0.0739
 6791SOL    HW131835   4.445   2.597   6.307  0.9235  0.7714 -1.3443
 6791SOL    HW231836   4.370   2.678   6.411 -0.5608  0.8926 -0.8780
 6792SOL     OW31837   2.249   3.122   7.528 -0.5414 -0.3774 -0.5913
 6792SOL    HW131838   2.178   3.061   7.508 -0.8922  0.4854 -1.9247
 6792SOL    HW231839   2.229   3.157   7.615 -0.6311 -0.2687 -0.6561
 6793SOL     OW31840   0.593   2.351   7.448  0.0253  0.0190 -0.6202
 6793SOL    HW131841   0.613   2.258   7.434  1.4882  0.1964  0.3071
 6793SOL    HW231842   0.498   2.350   7.438 -0.2388  4.1058  1.5082
 6794SOL     OW31843   4.676   3.541  10.016 -0.2792 -0.1413 -0.0766
 6794SOL    HW131844   4.695   3.486  10.092 -4.4618 -0.2712  0.8682
 6794SOL    HW231845   4.619   3.610  10.048 -0.2820 -0.8616  1.5052
 6795SOL     OW31846   1.068   1.669  13.400  0.7647  0.2268  0.0949
 6795SOL    HW131847   1.031   1.743  13.351  3.3391  2.5628  1.6249
 6795SOL    HW231848   1.024   1.595  13.360  3.1258  0.0374 -2.1759
 6796SOL     OW31849   1.004   0.415  14.729  0.4318  0.1695  0.1551
 6796SOL    HW131850   1.008   0.442  14.820  0.1755  4.1871 -0.9912
 6796SOL    HW231851   0.918   0.374  14.736  0.2741  0.4174 -0.2984
 6797SOL     OW31852   0.138   4.504   8.434  0.1086  0.0250 -0.0125
 6797SOL    HW131853   0.063   4.453   8.404 -0.2285 -0.5326  1.7301
 6797SOL    HW231854   0.127   4.492   8.529 -1.0929  0.7490 -0.0482
 6798SOL     OW31855   4.272   3.508   0.084  0.4634 -0.3335  0.1200
 6798SOL    HW131856   4.277   3.603   0.076 -0.0673 -0.4256 -1.4175
 6798SOL    HW231857   4.226   3.476   0.007  1.9176  1.6909 -1.5894
 6799SOL     OW31858   0.372   0.078   5.257 -0.0016 -0.2413 -0.5573
 6799SOL    HW131859   0.369   0.173   5.243  1.1472 -0.0987  0.1386
 6799SOL    HW231860   0.284   0.044   5.244  0.1958 -0.7080 -0.6684
 6800SOL     OW31861   3.255   0.524   4.953 -0.7196 -0.2598 -0.1159
 6800SOL    HW131862   3.346   0.522   4.923 -0.8379 -0.0274 -0.4881
 6800SOL    HW231863   3.209   0.574   4.886 -1.4936 -1.9483 -0.8471
 6801SOL     OW31864   1.945   3.046   7.591  0.1521  0.5437 -0.1526
 6801SOL    HW131865   1.867   3.094   7.618  0.8229  0.5183  1.7856
 6801SOL    HW231866   1.941   3.072   7.499 -0.3780  3.8270  0.8166
 6802SOL     OW31867   1.810   4.055   6.583 -0.0869 -0.1289  0.3407
 6802SOL    HW131868   1.881   4.069   6.645  1.7369 -0.1977 -1.7728
 6802SOL    HW231869   1.833   3.971   6.545 -2.6144 -1.4209  1.6575
 6803SOL     OW31870   0.209   1.333   8.577  0.4651 -0.7328  0.0651
 6803SOL    HW131871   0.170   1.415   8.548  1.7151  0.0967  0.7446
 6803SOL    HW231872   0.131   1.277   8.574  0.9298 -1.3428 -0.5632
 6804SOL     OW31873   2.357   1.353   7.683 -0.1329 -0.2337 -0.1491
 6804SOL    HW131874   2.304   1.377   7.759  1.0811 -0.2231  0.6968
 6804SOL    HW231875   2.307   1.408   7.623  0.2690  0.8513  0.5133
 6805SOL     OW31876   0.082   3.404   0.311  0.0161 -0.4474  0.1344
 6805SOL    HW131877   0.066   3.427   0.403  1.0188  0.1177  0.1709
 6805SOL    HW231878   0.058   3.485   0.266 -0.3301 -0.5389  0.1523
 6806SOL     OW31879   3.898   1.560   5.605 -0.8805  0.0104 -0.2821
 6806SOL    HW131880   3.982   1.515   5.597 -0.7698  0.7059 -3.0246
 6806SOL    HW231881   3.849   1.490   5.649 -0.6869 -0.5691 -0.9941
 6807SOL     OW31882   3.367   0.806   7.324 -0.0178 -0.5810  0.2378
 6807SOL    HW131883   3.357   0.776   7.233  0.8214  0.9058 -0.3418
 6807SOL    HW231884   3.460   0.787   7.327  0.4108  1.3362 -1.2573
 6808SOL     OW31885   4.410   2.804   1.873  0.9520 -0.3612  0.5042
 6808SOL    HW131886   4.318   2.799   1.896  0.8954 -1.2526  0.0956
 6808SOL    HW231887   4.427   2.729   1.814 -0.7535 -0.7314  0.4858
 6809SOL     OW31888   1.117   3.219  14.423 -0.5728 -0.5003  0.4380
 6809SOL    HW131889   1.172   3.275  14.369 -1.5288 -0.1372 -0.1551
 6809SOL    HW231890   1.187   3.186  14.479 -0.7525  1.4548  1.8142
 6810SOL     OW31891   1.650   0.290   8.526 -0.3666 -0.2491 -0.1213
 6810SOL    HW131892   1.575   0.252   8.572 -0.7354  1.6056  0.8428
 6810SOL    HW231893   1.701   0.340   8.591  0.6656 -0.1238 -1.0264
 6811SOL     OW31894   1.778   2.510  14.657  0.2078 -0.2411  0.5975
 6811SOL    HW131895   1.756   2.592  14.701 -0.2823  0.5277 -1.0737
 6811SOL    HW231896   1.856   2.525  14.604  0.7259 -2.5327  0.6870
 6812SOL     OW31897   1.543   4.715   1.037 -0.2865  0.5358 -0.0904
 6812SOL    HW131898   1.553   0.059   0.969 -0.2867  0.8963  0.2608
 6812SOL    HW231899   1.451   4.696   1.023 -0.2466  0.5992 -0.4619
 6813SOL     OW31900   2.969   1.532   6.886  0.5903  0.2366 -0.1618
 6813SOL    HW131901   2.983   1.612   6.936  0.2446  0.2770 -0.1292
 6813SOL    HW231902   2.949   1.585   6.809 -2.4587  0.1877  0.5852
 6814SOL     OW31903   1.682   3.292   4.379 -0.0923 -0.2733  0.1762
 6814SOL    HW131904   1.707   3.373   4.425 -0.8586 -1.3404  2.4516
 6814SOL    HW231905   1.654   3.333   4.297  2.1713  1.0499  0.0352
 6815SOL     OW31906   3.914   2.181   8.149  0.1303 -0.6329  0.2750
 6815SOL    HW131907   3.928   2.089   8.170  0.6241 -0.3410  1.2488
 6815SOL    HW231908   3.843   2.203   8.209  1.6847  1.2459  1.4363
 6816SOL     OW31909   3.992   4.145   4.098  0.3652 -0.4348  0.0373
 6816SOL    HW131910   4.032   4.162   4.184  0.1304  2.8244 -0.4903
 6816SOL    HW231911   3.907   4.117   4.133 -1.0260  0.9714 -2.2489
 6817SOL     OW31912   4.203   0.213   3.461  0.0488 -0.2342 -0.1343
 6817SOL    HW131913   4.295   0.240   3.454  0.4695 -1.8006 -0.7577
 6817SOL    HW231914   4.177   0.228   3.551  0.8235  2.1042 -0.3147
 6818SOL     OW31915   3.640   3.758   7.930  0.5372  0.5910  0.3225
 6818SOL    HW131916   3.558   3.786   7.890  0.1403  0.5134  1.0877
 6818SOL    HW231917   3.677   3.700   7.863 -0.1023  0.7448 -0.1723
 6819SOL     OW31918   2.175   0.094   6.807 -0.3031 -0.4173 -0.2143
 6819SOL    HW131919   2.216   0.143   6.878  3.1622 -1.9936 -1.0971
 6819SOL    HW231920   2.168   0.005   6.842  0.4203  0.0946  1.2201
 6820SOL     OW31921   2.413   0.333  13.064 -0.2670  1.0117 -0.4328
 6820SOL    HW131922   2.451   0.412  13.103  1.0875 -0.1986  0.6684
 6820SOL    HW231923   2.404   0.344  12.969 -1.4494 -0.8958 -0.5363
 6821SOL     OW31924   1.614   2.835   4.278 -0.1845 -0.0311  0.1964
 6821SOL    HW131925   1.650   2.891   4.347  0.4270 -1.6098  1.1613
 6821SOL    HW231926   1.680   2.853   4.211 -1.2651 -0.0060 -0.8533
 6822SOL     OW31927   2.944   4.034  16.035  0.0892 -0.3540  0.0887
 6822SOL    HW131928   2.900   4.034  16.120  1.0334  0.8799  0.5757
 6822SOL    HW231929   2.967   3.941  16.045 -1.4770 -0.9009 -1.3487
 6823SOL     OW31930   3.417   0.861  12.002 -0.4617  0.5913 -0.6409
 6823SOL    HW131931   3.429   0.854  12.097  1.8824  1.1228 -0.9001
 6823SOL    HW231932   3.439   0.768  11.994 -0.3918  0.5532 -0.0030
 6824SOL     OW31933   2.705   4.050   4.585 -0.1594 -0.0189  0.1372
 6824SOL    HW131934   2.670   4.035   4.497 -2.0881 -0.9783  1.0748
 6824SOL    HW231935   2.722   4.145   4.585 -2.5208  0.4204  2.7543
 6825SOL     OW31936   2.113   4.557   2.057 -0.6707 -0.2306 -0.1269
 6825SOL    HW131937   2.135   4.622   1.990 -0.7355  0.1338  0.2077
 6825SOL    HW231938   2.048   4.592   2.118 -0.3025 -1.3703  0.9144
 6826SOL     OW31939   3.344   2.589   3.626  0.0838 -0.3089  0.6365
 6826SOL    HW131940   3.337   2.682   3.604  1.1721 -0.1098  1.1272
 6826SOL    HW231941   3.254   2.570   3.598  0.6197  0.1887 -1.4161
 6827SOL     OW31942   2.954   1.469  15.086  0.7210 -0.4716 -0.0826
 6827SOL    HW131943   2.963   1.400  15.020  1.4579 -1.2819  0.8799
 6827SOL    HW231944   3.017   1.535  15.056  1.7146 -0.7724  1.3661
 6828SOL     OW31945   1.733   2.101   2.095 -0.1346  0.2267  0.0404
 6828SOL    HW131946   1.711   2.074   2.006 -0.2450  1.5663 -0.3407
 6828SOL    HW231947   1.800   2.039   2.126 -1.6476 -2.0010 -1.1572
 6829SOL     OW31948   2.569   1.152   6.712  0.0595  0.4360 -0.0165
 6829SOL    HW131949   2.660   1.133   6.733 -0.3852 -1.3235  0.3540
 6829SOL    HW231950   2.581   1.172   6.619 -0.8636 -0.1520 -0.2641
 6830SOL     OW31951   3.765   1.901   5.108  0.2728 -0.1596 -0.3736
 6830SOL    HW131952   3.698   1.880   5.173  1.1954  1.0877  0.9964
 6830SOL    HW231953   3.825   1.827   5.117 -0.6983 -0.5325  3.2031
 6831SOL     OW31954   4.655   3.570  16.553  0.3423 -0.2931  0.2488
 6831SOL    HW131955   4.595   3.591  16.625 -1.5257 -0.0802 -1.3660
 6831SOL    HW231956   4.654   3.657  16.512  0.0673 -0.3074  0.2258
 6832SOL     OW31957   0.848   4.121   0.647 -0.6220  0.5525  0.7528
 6832SOL    HW131958   0.941   4.102   0.649 -0.8961 -0.6721  2.1405
 6832SOL    HW231959   0.811   4.049   0.699  0.3332 -1.5604 -1.5078
 6833SOL     OW31960   3.926   2.886   7.619  0.1961  0.1993 -0.1996
 6833SOL    HW131961   3.912   2.797   7.650 -2.6841  0.8196  0.3013
 6833SOL    HW231962   3.964   2.856   7.536 -2.1425  0.1915 -1.2842
 6834SOL     OW31963   2.882   0.374  13.049 -0.0737  0.5382  0.1209
 6834SOL    HW131964   2.925   0.434  12.988  1.4708 -0.9888 -0.3045
 6834SOL    HW231965   2.916   0.287  13.030 -0.0717  0.8813 -1.4140
 6835SOL     OW31966   0.300   4.595   3.755  0.1804  0.4094  0.2697
 6835SOL    HW131967   0.359   4.532   3.795  1.2605  0.1759 -1.7289
 6835SOL    HW231968   0.324   4.681   3.791  0.2601 -0.7900  3.0987
 6836SOL     OW31969   0.843   4.267   6.484 -0.0291 -0.5965  0.1540
 6836SOL    HW131970   0.868   4.233   6.398  0.2297  1.0604 -0.4256
 6836SOL    HW231971   0.925   4.316   6.482 -1.0404  1.0855 -0.3280
 6837SOL     OW31972   4.350   4.510   6.150 -0.9880  0.4141  0.0338
 6837SOL    HW131973   4.379   4.462   6.227 -1.4507  0.2322  0.0930
 6837SOL    HW231974   4.306   4.443   6.097  0.5311 -0.1846 -0.4717
 6838SOL     OW31975   3.874   3.208   6.951 -0.4531 -0.3948 -0.0153
 6838SOL    HW131976   3.790   3.163   6.939 -0.8997  0.5669 -0.5334
 6838SOL    HW231977   3.892   3.168   7.036  0.1842 -0.7279 -0.3077
 6839SOL     OW31978   0.301   4.143   2.814  0.4719  0.2522  0.2490
 6839SOL    HW131979   0.258   4.080   2.757 -2.5251  0.4894  2.2720
 6839SOL    HW231980   0.245   4.220   2.822  2.3035  1.7929 -1.7109
 6840SOL     OW31981   0.902   3.193   8.385 -0.2861 -0.1801 -0.7267
 6840SOL    HW131982   0.915   3.274   8.434 -0.7531  0.0772 -1.0350
 6840SOL    HW231983   0.867   3.221   8.301  0.4206  2.4061 -0.1546
 6841SOL     OW31984   3.296   0.148  17.121  0.3738  0.4294 -0.5026
 6841SOL    HW131985   3.351   0.098  17.060 -0.0577 -0.8572  0.1781
 6841SOL    HW231986   3.321   0.238  17.100  0.2258  0.6012  0.0828
 6842SOL     OW31987   0.141   1.174   1.671 -0.6278  0.1358 -0.0098
 6842SOL    HW131988   0.066   1.208   1.620 -0.8357 -0.9693 -0.4368
 6842SOL    HW231989   0.211   1.194   1.609 -0.2953  1.6463  0.8577
 6843SOL     OW31990   2.884   1.642   6.635  0.1480  0.2116 -0.3156
 6843SOL    HW131991   2.922   1.710   6.579 -0.3352  0.4662 -0.3344
 6843SOL    HW231992   2.791   1.660   6.621  0.4303  2.2331  0.3895
 6844SOL     OW31993   4.711   0.821  12.114  0.1517 -0.3885 -0.0947
 6844SOL    HW131994   0.002   0.760  12.186 -0.6385  0.3176  0.6498
 6844SOL    HW231995   4.694   0.766  12.038 -0.1096  0.5948 -0.7537
 6845SOL     OW31996   3.866   3.402   2.856  0.3280 -0.2725 -0.1365
 6845SOL    HW131997   3.826   3.461   2.921  1.1389  1.7948 -1.5210
 6845SOL    HW231998   3.957   3.389   2.883  0.7932  0.7101 -1.2764
 6846SOL     OW31999   1.520   0.446   9.179 -0.0190 -0.3881 -0.3194
 6846SOL    HW132000   1.500   0.536   9.153  2.4342  0.0817 -0.5738
 6846SOL    HW232001   1.433   0.406   9.171  0.4098 -1.2085 -0.8979
 6847SOL     OW32002   1.151   2.313   5.875 -0.2295 -0.5705  0.3950
 6847SOL    HW132003   1.193   2.343   5.795  0.3329  0.4226  1.0683
 6847SOL    HW232004   1.128   2.394   5.921 -1.0191  0.1444 -1.2885
 6848SOL     OW32005   2.169   3.877  15.330 -0.9907 -0.1424  0.5709
 6848SOL    HW132006   2.133   3.926  15.405  1.7319  0.3623  1.5378
 6848SOL    HW232007   2.132   3.926  15.256  1.9054  0.1495 -0.6661
 6849SOL     OW32008   4.077   1.578   0.376 -0.4200 -0.0200 -0.2979
 6849SOL    HW132009   4.168   1.573   0.345 -0.2610  1.0805 -0.0242
 6849SOL    HW232010   4.067   1.488   0.407  1.2922 -0.0150  0.2948
 6850SOL     OW32011   3.051   4.669   2.772  0.2013 -0.0733 -0.6461
 6850SOL    HW132012   3.135   4.714   2.775 -0.0150  0.2109  1.1258
 6850SOL    HW232013   3.017   4.699   2.856 -0.3918 -2.5604  0.0020
 6851SOL     OW32014   3.807   0.775  14.072 -0.7220  0.1082  0.1948
 6851SOL    HW132015   3.856   0.808  14.147  0.8717 -1.4368 -0.1810
 6851SOL    HW232016   3.767   0.851  14.028  2.0333  1.8197  0.6449
 6852SOL     OW32017   0.686   3.932   0.380 -0.3753  0.0417 -0.2110
 6852SOL    HW132018   0.644   3.900   0.460 -0.2725 -2.5656 -1.1796
 6852SOL    HW232019   0.774   3.927   0.417 -0.6955 -0.2446  0.5275
 6853SOL     OW32020   1.345   3.361  15.961 -0.0405 -0.0908 -0.7045
 6853SOL    HW132021   1.409   3.430  15.982  2.9228 -3.6907  2.0736
 6853SOL    HW232022   1.264   3.401  15.994 -0.0631  0.2420 -1.1580
 6854SOL     OW32023   1.065   4.216   5.420 -0.3065 -0.3778 -0.4336
 6854SOL    HW132024   1.129   4.198   5.488 -0.5781  0.3406  0.0113
 6854SOL    HW232025   0.992   4.212   5.482 -0.2112  2.3237 -0.1235
 6855SOL     OW32026   3.020   4.354  13.607  0.3184  0.5294 -0.2037
 6855SOL    HW132027   2.994   4.381  13.519  0.4572  1.9061  0.1786
 6855SOL    HW232028   3.115   4.363  13.605  0.5629 -1.5085  2.3424
 6856SOL     OW32029   2.541   4.711  15.617  0.0627 -0.5274 -0.7830
 6856SOL    HW132030   2.615   4.674  15.665  1.0360  1.5431 -0.7097
 6856SOL    HW232031   2.547   0.081  15.641 -1.1952 -0.6016 -0.1437
 6857SOL     OW32032   2.394   0.018   7.854  0.1144  0.4959 -0.4027
 6857SOL    HW132033   2.371   0.064   7.934  0.9670  1.9906 -1.0180
 6857SOL    HW232034   2.485   0.047   7.848  0.1273  0.6750  0.7166
 6858SOL     OW32035   3.959   4.085   7.632 -0.1712 -0.3122  0.2883
 6858SOL    HW132036   3.871   4.104   7.667 -1.1165 -1.0684 -1.6882
 6858SOL    HW232037   3.928   4.016   7.573  0.2070 -1.2103  1.1247
 6859SOL     OW32038   2.662   1.633   7.469 -0.1976  0.0425  0.2898
 6859SOL    HW132039   2.601   1.561   7.486  0.1859  0.0375  1.6518
 6859SOL    HW232040   2.741   1.581   7.455  0.6887  1.4263  0.1582
 6860SOL     OW32041   3.490   4.412   1.937  0.1668  0.2650 -0.2357
 6860SOL    HW132042   3.413   4.371   1.899 -1.0856  1.0426  1.4733
 6860SOL    HW232043   3.550   4.337   1.946 -1.0099 -0.7220 -0.6841
 6861SOL     OW32044   0.110   0.459  16.683  0.3861  0.3197  0.2673
 6861SOL    HW132045   0.161   0.439  16.761 -0.8627 -0.9583  0.7482
 6861SOL    HW232046   0.026   0.424  16.713  0.3232 -1.0413 -1.5257
 6862SOL     OW32047   2.392   1.286   2.869  0.2077 -0.7030  0.1899
 6862SOL    HW132048   2.370   1.379   2.862  2.1099 -0.2057  0.9827
 6862SOL    HW232049   2.487   1.295   2.866  0.1724  0.7861  3.7061
 6863SOL     OW32050   1.699   3.329  11.653 -0.2145 -0.6718  0.3757
 6863SOL    HW132051   1.719   3.245  11.695  1.6046  0.0319  0.9081
 6863SOL    HW232052   1.753   3.390  11.703  0.8317 -1.0772 -0.2789
 6864SOL     OW32053   0.028   2.574   5.107 -0.0177  0.2277 -0.1266
 6864SOL    HW132054   0.030   2.503   5.043  1.2647 -0.8954  1.1693
 6864SOL    HW232055   4.656   2.587   5.119  0.2796  1.5646  0.8332
 6865SOL     OW32056   1.923   0.726  13.587  0.1314 -0.2930 -0.3735
 6865SOL    HW132057   1.986   0.743  13.516  0.2834 -1.6623 -0.5693
 6865SOL    HW232058   1.872   0.805  13.570  1.1377 -0.1036 -2.6125
 6866SOL     OW32059   3.123   0.105   3.038  0.1698 -0.6442 -0.4273
 6866SOL    HW132060   3.053   0.168   3.021  0.6445  0.2289  0.8744
 6866SOL    HW232061   3.193   0.170   3.030  0.3366 -1.1691 -2.9774
 6867SOL     OW32062   0.467   3.392  15.972 -0.4921 -0.3100 -0.6661
 6867SOL    HW132063   0.480   3.378  16.065 -3.3979  0.1054 -0.1999
 6867SOL    HW232064   0.422   3.476  15.980  0.8393  0.5140 -1.6618
 6868SOL     OW32065   3.379   2.512   9.164  0.0436 -0.3084 -0.1754
 6868SOL    HW132066   3.408   2.584   9.220  0.1233  1.0610 -1.9763
 6868SOL    HW232067   3.450   2.448   9.169 -0.1414 -0.5246 -0.3329
 6869SOL     OW32068   1.884   2.430   5.480  0.0306  0.3572 -0.3224
 6869SOL    HW132069   1.911   2.339   5.490 -0.0116  0.4997  1.0630
 6869SOL    HW232070   1.817   2.421   5.412  1.4173 -0.5232 -1.5842
 6870SOL     OW32071   2.027   4.310   2.022 -0.2597  0.2126 -0.4014
 6870SOL    HW132072   2.069   4.397   2.022 -0.4297  0.2904  1.8976
 6870SOL    HW232073   1.955   4.319   1.960 -0.1766  0.8973 -0.3996
 6871SOL     OW32074   0.431   2.135   7.218 -0.3565  0.5274  0.0781
 6871SOL    HW132075   0.356   2.103   7.169 -0.1019 -0.3111  0.2240
 6871SOL    HW232076   0.467   2.208   7.168  0.2255 -0.7192 -1.3400
 6872SOL     OW32077   0.371   0.347  12.527 -0.1613  0.1114 -0.1107
 6872SOL    HW132078   0.432   0.275  12.536  0.2943  0.4702 -0.3544
 6872SOL    HW232079   0.421   0.421  12.564 -1.6221  1.2995 -0.4901
 6873SOL     OW32080   4.499   0.302   9.537  0.2173  0.2706 -0.0935
 6873SOL    HW132081   4.431   0.288   9.470 -0.0855 -1.6898  0.5980
 6873SOL    HW232082   4.567   0.241   9.509 -0.3863 -0.7862  0.7217
 6874SOL     OW32083   2.587   2.763   8.031 -1.1678 -0.1250 -0.6966
 6874SOL    HW132084   2.540   2.731   7.954  0.3101 -0.7731 -1.3485
 6874SOL    HW232085   2.525   2.825   8.069 -0.6160 -0.7940  1.2661
 6875SOL     OW32086   4.506   2.757   3.134  1.0629  0.3159  0.3994
 6875SOL    HW132087   4.449   2.772   3.058  0.1900 -2.9038  0.4058
 6875SOL    HW232088   4.443   2.703   3.182 -0.1331  1.4654  0.1325
 6876SOL     OW32089   0.993   3.217   0.572 -0.0673 -0.0317  0.3744
 6876SOL    HW132090   0.948   3.133   0.580  1.0864 -0.5229  1.7878
 6876SOL    HW232091   0.927   3.250   0.511  0.1374 -3.0003 -1.4366
 6877SOL     OW32092   4.092   2.812   4.965 -0.3772 -0.1027  0.2008
 6877SOL    HW132093   4.143   2.741   4.926 -0.8133 -0.5076  0.3653
 6877SOL    HW232094   4.057   2.856   4.888 -0.8259 -0.6054  0.1155
 6878SOL     OW32095   3.644   3.110   6.157  0.2546 -0.7075  0.6418
 6878SOL    HW132096   3.576   3.050   6.189 -0.2681  0.6365  2.0326
 6878SOL    HW232097   3.713   3.082   6.217  1.3671 -0.8680 -0.7088
 6879SOL     OW32098   3.103   2.538   0.824 -0.2587  0.7913 -0.1523
 6879SOL    HW132099   3.093   2.460   0.877 -2.0113  0.3881 -1.0647
 6879SOL    HW232100   3.074   2.600   0.891 -1.2200  1.6207 -1.3172
 6880SOL     OW32101   3.898   4.284   5.530 -0.0221  0.1822 -0.0973
 6880SOL    HW132102   3.885   4.207   5.586  0.1036 -1.4778 -2.3473
 6880SOL    HW232103   3.951   4.343   5.583  1.7520  0.1691 -1.8598
 6881SOL     OW32104   3.177   3.991   5.452  0.2618 -0.0548  0.3146
 6881SOL    HW132105   3.181   3.992   5.547  1.6481  2.4046  0.2480
 6881SOL    HW232106   3.210   4.074   5.419 -2.1371  0.6945 -0.2502
 6882SOL     OW32107   1.259   4.714   3.242 -0.0427  0.0466  0.4240
 6882SOL    HW132108   1.197   4.674   3.303 -0.2199  1.0223  0.8846
 6882SOL    HW232109   1.285   4.646   3.180 -1.4194  0.6308 -0.8018
 6883SOL     OW32110   1.921   4.596   6.047  0.3458 -0.0699 -0.2240
 6883SOL    HW132111   1.847   4.640   6.088  0.2083  0.5169 -1.1235
 6883SOL    HW232112   1.947   4.528   6.110 -1.5337  0.0188  0.6445
 6884SOL     OW32113   2.163   3.182   0.345  0.3080 -0.1522  0.3300
 6884SOL    HW132114   2.203   3.198   0.430  0.2491  1.1695  0.1122
 6884SOL    HW232115   2.129   3.271   0.333  1.3423  0.1837 -0.2073
 6885SOL     OW32116   4.604   4.703   6.657  0.2833  0.0277 -0.2282
 6885SOL    HW132117   4.562   4.693   6.742  0.1300  0.6098 -0.2403
 6885SOL    HW232118   4.661   0.058   6.660  0.9171 -0.4476  0.1284
 6886SOL     OW32119   3.395   0.054   4.105 -0.1037  0.0195  0.3075
 6886SOL    HW132120   3.326   4.710   4.117 -1.2680  1.1048 -0.4086
 6886SOL    HW232121   3.453   0.017   4.038  1.4472  2.0279  0.5404
 6887SOL     OW32122   1.766   2.721   4.962 -0.0167 -0.7916  0.2937
 6887SOL    HW132123   1.745   2.795   4.904 -0.4424 -1.4125 -0.3543
 6887SOL    HW232124   1.837   2.759   5.012 -0.0380 -0.2376 -0.0951
 6888SOL     OW32125   0.534   2.497   2.279 -0.0476 -0.1100 -0.5427
 6888SOL    HW132126   0.488   2.543   2.350  1.3593 -1.3221  1.1709
 6888SOL    HW232127   0.598   2.564   2.255 -2.3495  1.6186 -1.8111
 6889SOL     OW32128   2.003   3.173  12.130  0.2227  0.3597 -0.7393
 6889SOL    HW132129   2.009   3.134  12.217  0.8447 -1.0726 -1.4158
 6889SOL    HW232130   2.066   3.122  12.080 -0.6177 -0.2305 -1.1947
 6890SOL     OW32131   2.077   1.215   4.229  0.6378 -0.1814  0.0562
 6890SOL    HW132132   2.101   1.245   4.317 -1.3916 -0.2237  0.6379
 6890SOL    HW232133   2.073   1.300   4.184 -2.4760 -0.2955  0.0858
 6891SOL     OW32134   0.487   4.124   4.266 -0.1371  0.2006 -0.5664
 6891SOL    HW132135   0.470   4.196   4.205  0.9307  1.7933  1.0448
 6891SOL    HW232136   0.441   4.053   4.221  0.0304  0.2321 -0.7854
 6892SOL     OW32137   3.766   0.857   8.228  0.1507 -0.5789 -0.6211
 6892SOL    HW132138   3.735   0.907   8.152 -1.5221  0.2673  0.6114
 6892SOL    HW232139   3.846   0.909   8.243  0.5785 -0.8589 -1.9536
 6893SOL     OW32140   1.591   0.427   4.280 -0.2748  0.1021  0.5461
 6893SOL    HW132141   1.545   0.496   4.327 -0.0597  0.4351  0.2665
 6893SOL    HW232142   1.534   0.412   4.204  2.4765  1.3364 -1.7648
 6894SOL     OW32143   3.216   0.284   3.282 -0.4432  0.1310  0.0862
 6894SOL    HW132144   3.275   0.306   3.354  0.2383 -0.6006 -0.2457
 6894SOL    HW232145   3.174   0.205   3.317 -1.9631  0.5589 -0.7949
 6895SOL     OW32146   2.862   0.915  17.656  0.0800 -0.0927 -0.1672
 6895SOL    HW132147   2.841   0.881   0.052  0.5964 -0.6025 -0.2412
 6895SOL    HW232148   2.860   0.838  17.599  0.2338  1.3649 -2.1201
 6896SOL     OW32149   2.011   2.758  13.517 -0.4126  0.1863 -0.4085
 6896SOL    HW132150   2.007   2.696  13.589 -0.9822  0.4592 -0.2052
 6896SOL    HW232151   1.984   2.839  13.561  0.7093 -0.3469  1.2728
 6897SOL     OW32152   1.329   1.432  14.620  0.6936  0.0558  0.2943
 6897SOL    HW132153   1.317   1.468  14.708 -1.8364 -1.7530  0.6826
 6897SOL    HW232154   1.247   1.388  14.598 -0.2543  2.1684 -0.3452
 6898SOL     OW32155   2.408   3.482   2.371 -0.0877  0.1415  0.1489
 6898SOL    HW132156   2.329   3.525   2.402  0.0741  0.2592  0.4011
 6898SOL    HW232157   2.386   3.389   2.363  0.3277  0.0295  0.3267
 6899SOL     OW32158   0.071   0.460  14.873 -0.2996 -0.2952 -0.0433
 6899SOL    HW132159   4.706   0.482  14.907 -0.4383  0.2143 -0.7173
 6899SOL    HW232160   0.059   0.365  14.862 -0.5081 -0.4200  1.2884
 6900SOL     OW32161   1.015   2.028   2.883  0.2958  0.3462  0.1241
 6900SOL    HW132162   0.970   2.032   2.968  1.0205 -0.2869  0.5378
 6900SOL    HW232163   0.983   2.108   2.842 -0.1199  0.3732  0.4999
 6901SOL     OW32164   0.193   2.087  17.540  0.5667 -0.0837 -0.2490
 6901SOL    HW132165   0.245   2.135  17.604 -1.4388  1.8290 -0.0258
 6901SOL    HW232166   0.134   2.043  17.602  4.4294 -1.6335  2.2905
 6902SOL     OW32167   3.692   1.677   9.927  0.0920  0.6301 -0.3877
 6902SOL    HW132168   3.734   1.748   9.975 -2.2557  0.5657  1.7559
 6902SOL    HW232169   3.726   1.597   9.965 -0.6388  0.3335 -0.3438
 6903SOL     OW32170   3.642   4.557   3.117  0.2355  0.3461 -0.5747
 6903SOL    HW132171   3.574   4.581   3.054  3.1129  2.7467 -2.7685
 6903SOL    HW232172   3.672   4.637   3.159 -0.1064 -0.1450  0.5928
 6904SOL     OW32173   0.969   2.419  16.505  0.2131  0.4550 -0.2204
 6904SOL    HW132174   1.023   2.498  16.497  1.8086 -0.8533 -2.3315
 6904SOL    HW232175   0.901   2.449  16.566 -0.5937  0.2614 -1.0218
 6905SOL     OW32176   2.755   4.217   7.954 -0.6560  0.1461 -0.0534
 6905SOL    HW132177   2.702   4.240   8.030 -0.2847  0.1798  0.1925
 6905SOL    HW232178   2.834   4.271   7.966 -0.0524 -0.6893 -0.2672
 6906SOL     OW32179   4.507   2.621   2.112 -0.0571 -0.1115  0.2727
 6906SOL    HW132180   4.505   2.696   2.053 -1.4228  0.9101  1.6176
 6906SOL    HW232181   4.509   2.551   2.046 -0.8268 -0.4705  0.6272
 6907SOL     OW32182   1.389   1.614   3.344  0.6592 -0.2519  0.0990
 6907SOL    HW132183   1.391   1.520   3.325 -1.6051 -0.1615 -0.5205
 6907SOL    HW232184   1.470   1.648   3.305 -0.6694  0.2357 -2.2843
 6908SOL     OW32185   0.352   1.947   6.608 -0.7452  0.2649  0.2783
 6908SOL    HW132186   0.258   1.948   6.624 -0.5570 -1.1994  1.4200
 6908SOL    HW232187   0.382   2.036   6.590  0.7087 -0.5511 -1.3843
 6909SOL     OW32188   1.559   4.078   7.001  0.2498 -0.0412 -0.0139
 6909SOL    HW132189   1.645   4.039   7.016  0.2785  1.3751  3.5788
 6909SOL    HW232190   1.553   4.112   7.090  1.2227 -2.1723  0.8750
 6910SOL     OW32191   4.635   0.865   5.124 -0.0881  0.4741  0.5924
 6910SOL    HW132192   4.708   0.909   5.167  1.4953 -1.9328  0.3914
 6910SOL    HW232193   4.558   0.919   5.142 -1.7965 -1.4295 -1.0764
 6911SOL     OW32194   1.417   4.629   5.625  0.2753 -0.0230  0.2188
 6911SOL    HW132195   1.374   4.617   5.540 -0.1131  2.4477  0.0716
 6911SOL    HW232196   1.430   0.002   5.623 -0.5868  0.1024  0.6140
 6912SOL     OW32197   2.624   3.343   7.013 -0.1635 -0.8433 -0.0197
 6912SOL    HW132198   2.592   3.293   7.087  0.5241 -1.5578 -0.2074
 6912SOL    HW232199   2.687   3.396   7.062 -0.3073 -0.5667 -0.1343
 6913SOL     OW32200   1.688   2.996   8.498  0.3266  0.2412  0.3646
 6913SOL    HW132201   1.732   2.914   8.473  1.2076  0.3512  1.5855
 6913SOL    HW232202   1.735   3.055   8.439  0.4296 -1.1894 -0.9970
 6914SOL     OW32203   3.753   2.349   2.728  0.0935 -0.3853 -0.1964
 6914SOL    HW132204   3.783   2.352   2.819 -2.1694 -0.5363  0.5624
 6914SOL    HW232205   3.789   2.265   2.700  1.0261  0.0365 -0.2615
 6915SOL     OW32206   3.650   3.184   8.949  0.1003 -0.0845 -0.0369
 6915SOL    HW132207   3.670   3.274   8.922  0.3683 -0.3672 -0.7909
 6915SOL    HW232208   3.640   3.187   9.044  0.0406  1.1184 -0.0835
 6916SOL     OW32209   0.886   1.771   2.819  0.0395 -0.1588  0.4673
 6916SOL    HW132210   0.952   1.719   2.774  0.4012  0.6746  0.0270
 6916SOL    HW232211   0.922   1.860   2.824 -1.6722  0.3929  3.3913
 6917SOL     OW32212   0.319   0.391  12.880 -0.2325 -0.2546  0.5437
 6917SOL    HW132213   0.334   0.438  12.798  2.5337  0.8643  1.6928
 6917SOL    HW232214   0.309   0.299  12.855  0.0588 -0.2144  0.2822
 6918SOL     OW32215   1.890   3.407  14.226  0.0731  0.0229 -0.4131
 6918SOL    HW132216   1.797   3.383  14.226 -0.2030  1.1030 -2.2561
 6918SOL    HW232217   1.921   3.352  14.298  0.7917  1.5567  0.4417
 6919SOL     OW32218   2.398   0.221   6.951 -0.1764 -0.5040 -0.4371
 6919SOL    HW132219   2.407   0.234   7.045 -0.2999  0.4845 -0.5563
 6919SOL    HW232220   2.468   0.284   6.932  0.6637 -1.4728 -0.5446
 6920SOL     OW32221   2.094   0.947   8.713  0.9116  0.0893 -0.1484
 6920SOL    HW132222   2.183   0.913   8.719  0.8748 -0.1072 -0.6960
 6920SOL    HW232223   2.109   1.042   8.711 -0.9170  0.3688 -2.1175
 6921SOL     OW32224   1.947   3.743   3.910  0.0963  0.0020  0.1064
 6921SOL    HW132225   1.921   3.717   3.822  0.9574 -1.2576  0.2264
 6921SOL    HW232226   2.026   3.689   3.912  0.3810  0.3269 -2.6218
 6922SOL     OW32227   3.992   0.689   5.350  0.0546  0.4363 -0.1245
 6922SOL    HW132228   4.065   0.656   5.297  0.7225 -0.5727  1.4462
 6922SOL    HW232229   4.008   0.783   5.342 -0.0212  0.2268 -2.9152
 6923SOL     OW32230   2.212   3.186   5.673 -0.1443  0.0718  0.1264
 6923SOL    HW132231   2.286   3.185   5.612  0.3949  0.0323  0.7723
 6923SOL    HW232232   2.246   3.130   5.744  2.9565 -2.5569 -3.4179
 6924SOL     OW32233   4.030   3.504  10.551 -0.0635  0.3211 -0.1193
 6924SOL    HW132234   4.028   3.542  10.639  1.5288 -0.7987  0.4039
 6924SOL    HW232235   4.069   3.417  10.554 -0.2764  0.2243 -0.2023
 6925SOL     OW32236   1.689   4.535   7.883  0.3543  0.0350  0.3407
 6925SOL    HW132237   1.717   4.490   7.803 -3.1986 -2.1840  0.3186
 6925SOL    HW232238   1.757   4.513   7.946 -0.8118 -1.5107  1.0644
 6926SOL     OW32239   1.320   2.128   8.255  0.0494  0.0819  0.8309
 6926SOL    HW132240   1.269   2.167   8.326  0.7884 -0.1761  1.4999
 6926SOL    HW232241   1.331   2.038   8.285  2.7510  0.0523 -0.2420
 6927SOL     OW32242   0.189   0.002   5.074  0.0965  0.4058 -0.0814
 6927SOL    HW132243   0.212   0.077   5.019 -1.0906  0.7780 -0.0676
 6927SOL    HW232244   0.124   4.688   5.013 -0.3225  1.8916 -0.5145
 6928SOL     OW32245   1.494   1.403   5.053  0.3815  0.0301 -0.5819
 6928SOL    HW132246   1.403   1.432   5.058 -0.4238 -2.4406 -0.9958
 6928SOL    HW232247   1.497   1.384   4.960 -0.7969 -0.8546 -0.4367
 6929SOL     OW32248   3.005   3.833   3.017 -0.4570 -0.4274 -0.1596
 6929SOL    HW132249   3.091   3.791   3.013  0.6025  1.9154 -1.6743
 6929SOL    HW232250   3.017   3.902   2.953 -1.0709  2.1173  2.4820
 6930SOL     OW32251   4.689   2.650  13.367  0.4630  0.1332 -0.6313
 6930SOL    HW132252   4.709   2.600  13.287  1.9513  0.0163 -0.1833
 6930SOL    HW232253   0.051   2.680  13.400  0.3171 -0.5117  0.2935
 6931SOL     OW32254   0.410   2.658  14.558 -0.1370 -0.5739 -0.1114
 6931SOL    HW132255   0.433   2.664  14.465 -0.3149 -0.6171 -0.1570
 6931SOL    HW232256   0.414   2.748  14.592 -1.7881 -0.2337 -0.8469
 6932SOL     OW32257   2.813   3.818  14.683 -0.1086  0.3276 -1.4520
 6932SOL    HW132258   2.758   3.875  14.736 -3.4420 -3.7068 -0.5889
 6932SOL    HW232259   2.858   3.877  14.623  0.7166 -0.6558 -1.8080
 6933SOL     OW32260   4.101   2.519   5.064 -0.0469 -0.2157  0.7009
 6933SOL    HW132261   4.037   2.481   5.003 -0.0414  2.3810 -0.9020
 6933SOL    HW232262   4.078   2.611   5.061 -0.0137 -0.1690  2.2426
 6934SOL     OW32263   2.037   3.466   8.313  0.3922  0.4071  0.2176
 6934SOL    HW132264   2.073   3.555   8.305 -0.8404  1.0718  1.9637
 6934SOL    HW232265   2.090   3.429   8.243 -1.8153  2.2684 -2.3924
 6935SOL     OW32266   4.695   1.292   9.103 -0.0761 -0.2470 -0.1513
 6935SOL    HW132267   4.667   1.207   9.068 -0.0833  0.8829 -2.9222
 6935SOL    HW232268   0.021   1.315   9.024 -1.8366  2.2663 -0.4784
 6936SOL     OW32269   1.340   3.218   5.696  0.3730 -0.4347 -0.2364
 6936SOL    HW132270   1.421   3.212   5.748  0.7672 -0.2795 -0.8306
 6936SOL    HW232271   1.380   3.194   5.612  0.4146  1.9959 -0.9282
 6937SOL     OW32272   4.014   3.288   2.602  0.3159  0.1459  0.0326
 6937SOL    HW132273   4.044   3.290   2.511  0.5492  0.1362  0.1115
 6937SOL    HW232274   4.029   3.194   2.613 -0.0822 -0.0834 -1.3312
 6938SOL     OW32275   4.112   0.051  10.854  0.2817 -0.4333  0.5434
 6938SOL    HW132276   4.045   0.118  10.870 -0.6776 -0.4686 -3.1817
 6938SOL    HW232277   4.076   4.692  10.887 -0.3826  0.5487  2.2306
 6939SOL     OW32278   3.175   3.465  16.418  0.0911  0.1429  0.1063
 6939SOL    HW132279   3.094   3.515  16.410  0.3740  0.4213 -1.0177
 6939SOL    HW232280   3.217   3.472  16.333  0.3733  0.6336  0.2812
 6940SOL     OW32281   0.563   3.620   5.410  0.7469  0.5488 -0.5635
 6940SOL    HW132282   0.644   3.603   5.457 -0.8641 -0.6726  1.7581
 6940SOL    HW232283   0.597   3.606   5.321 -0.9225  0.3864 -1.1727
 6941SOL     OW32284   3.443   3.363   9.884 -0.4578 -0.6074  0.9142
 6941SOL    HW132285   3.517   3.327   9.836  0.1655  0.8140  0.8092
 6941SOL    HW232286   3.476   3.451   9.903  0.3571 -0.9867  1.2347
 6942SOL     OW32287   1.022   4.462   4.275  0.6069 -0.2688 -0.4754
 6942SOL    HW132288   1.042   4.517   4.351  0.7712 -0.8002 -0.1386
 6942SOL    HW232289   1.099   4.479   4.220  0.3932  0.3264 -0.5924
 6943SOL     OW32290   4.388   1.582   1.878 -0.2040 -0.2779 -0.2632
 6943SOL    HW132291   4.465   1.626   1.841  0.2638  0.2218  1.2882
 6943SOL    HW232292   4.328   1.650   1.846 -0.5407 -0.4162  0.0839
 6944SOL     OW32293   1.464   0.187   5.710 -0.9125  0.0205  0.2134
 6944SOL    HW132294   1.390   0.206   5.767 -0.6139  0.5209  0.4265
 6944SOL    HW232295   1.445   0.253   5.643  1.5714 -1.7230 -2.2414
 6945SOL     OW32296   4.640   1.398   2.831  0.1017  0.3106 -0.2572
 6945SOL    HW132297   4.548   1.375   2.846  0.4260 -0.7871  0.0691
 6945SOL    HW232298   4.642   1.491   2.851  1.2715  0.2991 -0.3561
 6946SOL     OW32299   4.345   2.434  15.785  0.4592 -0.4690  0.0073
 6946SOL    HW132300   4.410   2.388  15.839  0.8140  1.2883  1.0812
 6946SOL    HW232301   4.382   2.407  15.701  1.1633  0.0913  0.1378
 6947SOL     OW32302   1.560   2.168   7.193  0.3676  0.5878 -0.3067
 6947SOL    HW132303   1.472   2.139   7.169 -0.0858  0.1742  1.8952
 6947SOL    HW232304   1.551   2.159   7.287 -0.3568 -0.3662 -0.4644
 6948SOL     OW32305   0.210   2.843   1.595  0.2203  0.4151  0.0544
 6948SOL    HW132306   0.156   2.921   1.594  0.9333  0.9359  1.5400
 6948SOL    HW232307   0.163   2.772   1.551  0.7139 -1.0383  1.8493
 6949SOL     OW32308   2.559   4.441   7.366  0.0894  0.2040  0.3064
 6949SOL    HW132309   2.568   4.382   7.441  1.8462 -1.0335 -0.8798
 6949SOL    HW232310   2.522   4.381   7.302 -2.6208  0.6319  1.4772
 6950SOL     OW32311   3.024   3.403   5.574  0.0433  0.0385 -0.2462
 6950SOL    HW132312   2.941   3.447   5.590 -1.2342 -1.4904 -2.7042
 6950SOL    HW232313   3.027   3.399   5.478  0.1580  1.6929 -0.3190
 6951SOL     OW32314   0.777   1.337   0.376  0.2056 -0.1334 -0.5946
 6951SOL    HW132315   0.765   1.327   0.471  0.9074 -0.1373 -0.5034
 6951SOL    HW232316   0.687   1.351   0.347  0.1383 -4.2516 -2.2457
 6952SOL     OW32317   1.601   3.253  14.518 -0.1530  0.4609  0.1456
 6952SOL    HW132318   1.581   3.305  14.441 -1.7536  1.2561  1.0844
 6952SOL    HW232319   1.675   3.305  14.550  0.0452  0.1787  0.1462
 6953SOL     OW32320   4.685   3.950   5.458 -0.0966  0.0741 -0.2773
 6953SOL    HW132321   4.713   3.953   5.550 -0.6691 -1.3624 -0.0647
 6953SOL    HW232322   4.713   3.861   5.438 -0.4032  0.1584 -1.0812
 6954SOL     OW32323   1.810   3.112   3.278 -0.7308  0.8132  0.1441
 6954SOL    HW132324   1.766   3.196   3.264  2.2174  2.2360 -0.6186
 6954SOL    HW232325   1.817   3.073   3.191 -2.3309  1.5855 -0.3219
 6955SOL     OW32326   0.648   0.569   0.231 -0.0820 -0.7638  0.2410
 6955SOL    HW132327   0.679   0.657   0.249 -0.2786 -0.1369 -2.4830
 6955SOL    HW232328   0.552   0.573   0.235  0.1427  1.1186  3.0855
 6956SOL     OW32329   1.757   3.506   8.314 -0.3526 -0.2910 -0.1600
 6956SOL    HW132330   1.765   3.567   8.387 -0.1783  0.5596 -0.8896
 6956SOL    HW232331   1.847   3.509   8.281 -0.0521 -0.8222  0.6225
 6957SOL     OW32332   4.179   3.571  14.895 -0.1851  0.3930  0.0334
 6957SOL    HW132333   4.114   3.516  14.939  0.7872 -0.0644  0.9176
 6957SOL    HW232334   4.247   3.511  14.864 -1.2738 -1.6094  1.5421
 6958SOL     OW32335   4.551   3.666  16.776  0.4994  0.2194  0.4624
 6958SOL    HW132336   4.500   3.594  16.812  0.3081 -0.8535 -1.9222
 6958SOL    HW232337   4.476   3.725  16.767  0.5617  0.2395  0.0452
 6959SOL     OW32338   2.261   1.300  13.671  0.4421 -0.4685  0.2160
 6959SOL    HW132339   2.306   1.382  13.690 -0.3603 -0.4195  1.9384
 6959SOL    HW232340   2.305   1.267  13.593  0.7599 -0.3350  0.3412
 6960SOL     OW32341   4.476   3.758   8.893  0.5978  0.4213  0.2477
 6960SOL    HW132342   4.478   3.673   8.849 -0.6398  0.3763  0.2574
 6960SOL    HW232343   4.563   3.759   8.931 -0.4586 -2.0719  2.7352
 6961SOL     OW32344   0.578   1.032  16.818  0.4670  0.1576  0.0936
 6961SOL    HW132345   0.542   1.034  16.907 -2.9043  1.4768 -1.3191
 6961SOL    HW232346   0.635   1.109  16.822  0.6218  0.0350  0.2948
 6962SOL     OW32347   4.424   3.989  10.405  0.3273  0.7186  0.0588
 6962SOL    HW132348   4.403   4.070  10.450  0.8688  0.8415  0.0894
 6962SOL    HW232349   4.381   3.921  10.457  0.6737  0.7872  0.4328
 6963SOL     OW32350   2.697   0.551  13.051  0.3004 -0.1286 -0.4765
 6963SOL    HW132351   2.712   0.611  12.978 -2.0316  2.8032  1.4741
 6963SOL    HW232352   2.745   0.469  13.038 -2.5503 -1.5763 -1.9146
 6964SOL     OW32353   2.291   2.533   9.160 -0.3378 -0.5200  0.5191
 6964SOL    HW132354   2.361   2.556   9.222 -1.1881  1.6475  0.6863
 6964SOL    HW232355   2.345   2.502   9.088  0.4845  0.9476  0.5032
 6965SOL     OW32356   1.512   3.315   8.464 -0.4312  0.1094  0.3740
 6965SOL    HW132357   1.594   3.341   8.423 -1.0640  2.0287  0.3554
 6965SOL    HW232358   1.494   3.393   8.515  0.4102  1.5530 -1.5566
 6966SOL     OW32359   3.196   2.738   6.531 -0.3445 -0.0885 -0.1004
 6966SOL    HW132360   3.124   2.702   6.479 -1.2357  1.8236 -0.1678
 6966SOL    HW232361   3.185   2.686   6.611 -1.7520 -0.3814 -0.4756
 6967SOL     OW32362   3.791   1.869  10.071 -0.0678 -0.0647  0.4110
 6967SOL    HW132363   3.799   1.911  10.157 -2.1120 -1.0608  1.0859
 6967SOL    HW232364   3.864   1.903  10.020  0.5144 -0.8098  0.7500
 6968SOL     OW32365   0.425   3.895  17.149  0.2640  0.2145  0.3341
 6968SOL    HW132366   0.489   3.825  17.163  0.7388  0.0065 -2.8182
 6968SOL    HW232367   0.467   3.933  17.071  0.4476 -0.0664  0.2952
 6969SOL     OW32368   1.575   1.992   7.727  0.4496 -0.9494  0.1120
 6969SOL    HW132369   1.582   1.976   7.821  1.0315  1.0227  0.3983
 6969SOL    HW232370   1.661   1.959   7.700  0.9171 -0.5017  1.0513
 6970SOL     OW32371   0.666   0.873  10.127 -0.3064 -0.1600 -0.0458
 6970SOL    HW132372   0.721   0.933  10.077  0.8335 -0.4046  0.9161
 6970SOL    HW232373   0.723   0.853  10.201 -1.9486 -0.6292  1.0710
 6971SOL     OW32374   1.885   3.260   5.353 -0.4092 -0.1245 -0.2167
 6971SOL    HW132375   1.977   3.235   5.346 -1.3624 -3.9355  0.6156
 6971SOL    HW232376   1.886   3.356   5.356  0.5989 -0.1246 -0.5806
 6972SOL     OW32377   2.228   2.488   3.372  0.2971 -0.1257 -0.0068
 6972SOL    HW132378   2.255   2.455   3.458 -2.6766 -1.8275  0.2717
 6972SOL    HW232379   2.136   2.505   3.393  0.2883 -0.7724  0.4868
 6973SOL     OW32380   2.522   2.967   7.413 -0.6392  0.2409  0.2719
 6973SOL    HW132381   2.436   2.961   7.455 -0.2473 -2.1639  0.7179
 6973SOL    HW232382   2.530   2.878   7.379 -0.4763  0.4624 -0.2608
 6974SOL     OW32383   0.230   3.317  17.352 -0.1098  0.2080 -0.0777
 6974SOL    HW132384   0.209   3.239  17.403 -0.4475  0.7180  0.5593
 6974SOL    HW232385   0.204   3.386  17.413  0.5853 -2.1204  2.8316
 6975SOL     OW32386   3.699   2.967  14.511  0.0926  0.4216  0.0082
 6975SOL    HW132387   3.660   2.927  14.589  1.7412 -1.2727 -0.0263
 6975SOL    HW232388   3.624   2.966  14.452 -0.8704  0.1493  1.2413
 6976SOL     OW32389   1.326   3.060   3.647  0.1204 -0.0275  0.3901
 6976SOL    HW132390   1.397   2.995   3.640  0.9610  0.9503 -0.0475
 6976SOL    HW232391   1.367   3.144   3.669  1.5273 -0.2495 -1.4415
 6977SOL     OW32392   4.576   3.483  12.764  0.4081 -0.6117 -0.0778
 6977SOL    HW132393   4.517   3.409  12.783  1.2272 -0.4841  2.9581
 6977SOL    HW232394   4.522   3.561  12.775  0.9042 -0.5239  1.6896
 6978SOL     OW32395   3.694   3.615   1.807 -0.4715 -0.5753  0.0374
 6978SOL    HW132396   3.701   3.576   1.894  2.7494 -0.0919 -0.0106
 6978SOL    HW232397   3.770   3.673   1.801  0.5172 -1.7989  0.6744
 6979SOL     OW32398   2.461   1.124  11.299 -0.1388 -0.2609 -0.4187
 6979SOL    HW132399   2.450   1.029  11.295 -1.9307 -0.0349 -1.3393
 6979SOL    HW232400   2.373   1.153  11.272 -0.2518 -0.4859 -0.2941
 6980SOL     OW32401   0.308   3.310  16.861 -0.2438  0.0529 -0.1929
 6980SOL    HW132402   0.270   3.283  16.945 -1.5282  0.9060 -0.5149
 6980SOL    HW232403   0.229   3.345  16.821 -0.2843 -0.8198 -0.8691
 6981SOL     OW32404   2.189   4.356   2.319  0.4759 -0.5935  0.1317
 6981SOL    HW132405   2.188   4.447   2.288  1.6271 -0.6676 -0.1268
 6981SOL    HW232406   2.096   4.334   2.313 -0.0261  1.2069  1.2379
 6982SOL     OW32407   1.320   2.597   7.688 -0.5708 -0.2882  0.3564
 6982SOL    HW132408   1.258   2.543   7.737  1.3793 -1.1437  1.8778
 6982SOL    HW232409   1.375   2.635   7.757  1.5513 -0.2148 -1.3845
 6983SOL     OW32410   0.274   2.085  16.659 -0.3502  0.0237 -0.1812
 6983SOL    HW132411   0.276   2.000  16.702  2.1503  0.9081  1.4765
 6983SOL    HW232412   0.344   2.073  16.595  0.5573 -1.0560  1.0059
 6984SOL     OW32413   4.405   1.638   4.763  0.4602 -0.1803  0.0250
 6984SOL    HW132414   4.489   1.592   4.770 -0.1692 -1.2701  0.4866
 6984SOL    HW232415   4.406   1.705   4.831  0.6615  0.4053 -0.5573
 6985SOL     OW32416   1.814   0.905  10.025 -0.6582 -0.1473 -0.4089
 6985SOL    HW132417   1.830   0.820   9.985 -1.0915 -1.5776  2.4398
 6985SOL    HW232418   1.728   0.930   9.993 -0.6508  2.2318  1.3791
 6986SOL     OW32419   2.938   2.988  17.461 -0.1397  0.2860  0.8364
 6986SOL    HW132420   2.849   2.991  17.496 -0.2591  0.4930  0.5238
 6986SOL    HW232421   2.980   2.985  17.546 -0.5467 -0.6260  1.0035
 6987SOL     OW32422   1.102   1.703   3.293  0.2476  0.2688 -0.0140
 6987SOL    HW132423   1.197   1.692   3.300  0.1198 -0.1274  1.1635
 6987SOL    HW232424   1.091   1.649   3.215 -2.5007 -0.2329  0.7429
 6988SOL     OW32425   4.489   1.920   5.491  0.1647  0.0765  0.1626
 6988SOL    HW132426   4.398   1.930   5.463  0.0242  2.3645  1.4014
 6988SOL    HW232427   4.534   1.995   5.452 -0.2852  0.0467 -0.4192
 6989SOL     OW32428   4.261   3.672   1.635 -0.1247  0.1130  0.4149
 6989SOL    HW132429   4.284   3.748   1.688 -0.7217  0.6275 -0.0598
 6989SOL    HW232430   4.284   3.603   1.697  0.4572  0.7968  0.9616
 6990SOL     OW32431   3.789   3.850  15.160  0.1004  0.4763  0.2331
 6990SOL    HW132432   3.819   3.932  15.200  0.7445 -0.9128  2.6316
 6990SOL    HW232433   3.788   3.877  15.069 -1.3686  1.5842  0.5783
 6991SOL     OW32434   3.563   3.737  15.340 -0.4512 -0.9677  0.2450
 6991SOL    HW132435   3.499   3.724  15.270  0.5098 -2.6825 -0.3478
 6991SOL    HW232436   3.642   3.747  15.286 -0.5706 -2.1183 -0.1608
 6992SOL     OW32437   3.523   1.253   7.410 -0.1505  0.1421  0.2678
 6992SOL    HW132438   3.550   1.293   7.327  2.0483 -0.5057  0.6800
 6992SOL    HW232439   3.447   1.203   7.382  0.1890  1.2313 -2.6795
 6993SOL     OW32440   4.455   3.633   2.305 -0.1050  0.0006  0.1515
 6993SOL    HW132441   4.390   3.669   2.365  0.5074  0.4602  0.5331
 6993SOL    HW232442   4.421   3.660   2.219  0.3276  1.2635  0.3835
 6994SOL     OW32443   3.229   2.199   4.409  0.2287 -0.1229  0.0511
 6994SOL    HW132444   3.303   2.215   4.468 -0.8292 -0.2133  1.4053
 6994SOL    HW232445   3.245   2.280   4.361 -0.1619 -0.4621 -0.6564
 6995SOL     OW32446   1.928   3.024   0.497  0.3690 -0.1675  0.2185
 6995SOL    HW132447   2.010   3.073   0.498  0.9101 -1.0653 -0.0272
 6995SOL    HW232448   1.861   3.092   0.493  1.2633  0.8431  2.1536
 6996SOL     OW32449   1.671   1.491   7.983  0.0146  0.2102  0.5549
 6996SOL    HW132450   1.693   1.516   7.894 -0.6200  1.5834  0.7860
 6996SOL    HW232451   1.641   1.401   7.968  0.6949  0.3994 -1.9968
 6997SOL     OW32452   0.818   1.000   7.951 -0.0026 -0.9781 -0.0749
 6997SOL    HW132453   0.859   1.082   7.979  0.7686 -1.0585 -0.9755
 6997SOL    HW232454   0.810   1.009   7.856 -0.8551 -3.1999 -0.2211
 6998SOL     OW32455   4.418   1.046   7.649  0.0739  0.3582  0.3613
 6998SOL    HW132456   4.360   1.020   7.578 -0.9820 -0.7567  1.6396
 6998SOL    HW232457   4.399   0.983   7.718  1.5670 -0.8139 -0.2859
 6999SOL     OW32458   1.936   1.699   3.946 -0.0829  0.3391 -0.0260
 6999SOL    HW132459   2.001   1.763   3.975 -0.4543 -0.0780  1.7585
 6999SOL    HW232460   1.864   1.723   4.004 -0.1171 -1.0779  0.5171
 7000SOL     OW32461   2.063   4.599  17.060  0.5269  0.1203  0.7541
 7000SOL    HW132462   2.064   4.594  16.964  0.4683 -0.2320  0.7722
 7000SOL    HW232463   2.103   4.686  17.062  1.0603 -0.0822 -0.8805
 7001SOL     OW32464   3.430   4.716   2.978  0.7702  0.3245 -0.5252
 7001SOL    HW132465   3.429   0.086   3.003 -0.5175  0.3009 -0.5065
 7001SOL    HW232466   3.381   0.009   2.898 -0.4320 -0.8966 -0.0305
 7002SOL     OW32467   1.408   1.283   4.215  0.5611 -0.0150 -0.2220
 7002SOL    HW132468   1.435   1.200   4.254  0.0701  0.0565  0.2693
 7002SOL    HW232469   1.447   1.265   4.129  1.2958 -0.8217  0.2813
 7003SOL     OW32470   4.334   3.275   3.054 -0.6302 -0.3301  0.4588
 7003SOL    HW132471   4.391   3.292   2.979 -0.1987  2.9129  1.5197
 7003SOL    HW232472   4.305   3.367   3.056  2.8245  0.7604  1.7317
 7004SOL     OW32473   1.591   3.351   4.118 -0.0937 -0.3342 -0.8094
 7004SOL    HW132474   1.537   3.276   4.093  1.2375 -1.3457 -0.6519
 7004SOL    HW232475   1.532   3.425   4.100 -0.4684 -0.2083  0.9277
 7005SOL     OW32476   0.934   4.054   8.299  0.0567  0.3501  0.1992
 7005SOL    HW132477   0.956   4.035   8.390 -1.4298  1.2934  0.7635
 7005SOL    HW232478   0.842   4.030   8.294 -0.3165  2.1073 -1.8341
 7006SOL     OW32479   3.445   3.532  16.450  0.0174  0.0005  0.1524
 7006SOL    HW132480   3.367   3.530  16.506  1.4524  0.7480  2.1507
 7006SOL    HW232481   3.404   3.512  16.365  0.5300  0.1006 -0.1174
 7007SOL     OW32482   2.335   0.544   0.264 -0.2169 -0.5182 -0.4346
 7007SOL    HW132483   2.362   0.454   0.278  1.1773 -0.5013 -3.0805
 7007SOL    HW232484   2.240   0.533   0.258 -0.0907 -1.5911 -0.4029
 7008SOL     OW32485   1.248   3.428  14.300  0.1561  0.6042  0.5127
 7008SOL    HW132486   1.339   3.455  14.290 -0.0770  0.3054 -2.2564
 7008SOL    HW232487   1.210   3.512  14.327  0.9199  1.3403 -0.7365
 7009SOL     OW32488   3.731   3.372   3.888 -0.4261 -0.5104 -0.7427
 7009SOL    HW132489   3.734   3.415   3.974 -1.0091 -0.1779 -0.8905
 7009SOL    HW232490   3.785   3.437   3.845  0.0918  0.4182  1.2888
 7010SOL     OW32491   0.934   1.623   5.805  0.4255 -0.1151 -0.3709
 7010SOL    HW132492   0.927   1.531   5.830 -1.9859 -0.0423 -0.7172
 7010SOL    HW232493   1.028   1.639   5.808  0.4722 -1.0235  2.8944
 7011SOL     OW32494   2.487   2.448  11.730  0.2724 -0.2636 -0.2234
 7011SOL    HW132495   2.483   2.361  11.690 -0.2639 -0.8018  0.9974
 7011SOL    HW232496   2.580   2.448  11.710 -0.0473 -0.1436 -1.7614
 7012SOL     OW32497   3.571   0.423   5.753 -0.2768  0.5805 -0.4223
 7012SOL    HW132498   3.507   0.483   5.790 -1.9721 -1.8027  0.5756
 7012SOL    HW232499   3.560   0.446   5.661  1.2596 -0.6227 -0.9100
 7013SOL     OW32500   2.635   2.118   2.476  0.1004 -0.3604 -0.0258
 7013SOL    HW132501   2.684   2.039   2.500  0.5297  0.5868  2.2322
 7013SOL    HW232502   2.625   2.099   2.383  0.3491  1.8450 -0.4873
 7014SOL     OW32503   2.591   3.088   7.187 -0.3353 -0.5465 -0.0956
 7014SOL    HW132504   2.537   3.058   7.261  0.9335  0.2103  1.1338
 7014SOL    HW232505   2.672   3.040   7.207 -0.4399 -0.0983  1.4249
 7015SOL     OW32506   4.131   1.274   6.796  0.2445  0.1294  0.6053
 7015SOL    HW132507   4.098   1.322   6.872 -0.5242  1.0895 -0.3374
 7015SOL    HW232508   4.167   1.351   6.752 -2.0152 -0.3999 -2.1386
 7016SOL     OW32509   4.551   0.179  13.269 -0.0561 -0.0722 -0.0865
 7016SOL    HW132510   4.517   0.266  13.287 -0.6656 -0.6705  1.6571
 7016SOL    HW232511   4.569   0.152  13.359 -1.9363  1.8580  0.8666
 7017SOL     OW32512   0.862   0.577   8.622  0.0280 -0.0520  0.5731
 7017SOL    HW132513   0.787   0.565   8.564  0.5052 -0.5437  0.0584
 7017SOL    HW232514   0.925   0.508   8.601  0.4980  0.3059  0.8151
 7018SOL     OW32515   2.122   3.717   9.386 -0.2786  0.1594  0.3631
 7018SOL    HW132516   2.117   3.680   9.473 -1.6231 -0.7688 -0.1124
 7018SOL    HW232517   2.094   3.809   9.389  1.8809  0.8366 -0.1701
 7019SOL     OW32518   3.650   1.980   3.406  0.3429 -0.3746 -0.0346
 7019SOL    HW132519   3.633   2.061   3.454 -1.6759 -0.3632 -0.7569
 7019SOL    HW232520   3.575   1.933   3.442 -0.2125  1.3351  1.0291
 7020SOL     OW32521   1.566   4.341  13.353 -0.4985  0.1958  0.0027
 7020SOL    HW132522   1.543   4.325  13.261  1.4204  3.4392 -1.0713
 7020SOL    HW232523   1.491   4.396  13.374  0.6397  1.1597  1.5658
 7021SOL     OW32524   1.946   4.153  15.289 -0.1125 -0.4171  0.4989
 7021SOL    HW132525   1.993   4.097  15.228 -0.3611  1.4264 -1.3947
 7021SOL    HW232526   1.949   4.098  15.367 -1.0853 -1.2305 -0.0483
 7022SOL     OW32527   3.633   1.250   6.798  0.3836 -0.4461  0.6688
 7022SOL    HW132528   3.667   1.172   6.755  0.1199 -0.6076  0.7479
 7022SOL    HW232529   3.567   1.203   6.850 -0.1576 -1.2082 -0.6930
 7023SOL     OW32530   0.421   3.120   4.532  0.2283 -0.0176  0.1108
 7023SOL    HW132531   0.472   3.084   4.459  1.2929  1.4989  0.1151
 7023SOL    HW232532   0.344   3.153   4.485 -0.4167 -0.0021  1.1903
 7024SOL     OW32533   1.325   3.103   6.008 -0.0618  0.1110 -0.0994
 7024SOL    HW132534   1.269   3.181   6.013 -0.3739 -0.1517  0.4791
 7024SOL    HW232535   1.404   3.114   5.955 -1.1197  0.1306 -1.6774
 7025SOL     OW32536   2.634   0.576   4.504  0.0803  0.8186 -0.0240
 7025SOL    HW132537   2.725   0.569   4.532  0.4007  0.3007 -1.1940
 7025SOL    HW232538   2.612   0.483   4.507 -3.3684  1.6088 -0.2142
 7026SOL     OW32539   3.222   3.650   2.148  0.3438 -0.0647 -0.4496
 7026SOL    HW132540   3.247   3.600   2.226  1.0796 -0.5860 -1.0259
 7026SOL    HW232541   3.209   3.736   2.187  2.0341  0.4096 -0.9568
 7027SOL     OW32542   4.698   1.944   0.890  0.3290 -0.6285 -0.1191
 7027SOL    HW132543   4.645   1.895   0.952  2.0873 -0.5397  1.4717
 7027SOL    HW232544   0.019   2.013   0.941 -1.1074  0.6840 -0.6939
 7028SOL     OW32545   4.069   1.330   4.488  0.0027 -0.3444  0.8400
 7028SOL    HW132546   4.064   1.377   4.571 -2.5443  0.5467  0.1908
 7028SOL    HW232547   3.999   1.362   4.431  2.3506 -0.5202 -2.1123
 7029SOL     OW32548   3.079   0.224   4.706 -0.2628  0.5969  0.2768
 7029SOL    HW132549   3.049   0.314   4.716  1.6301  1.3234 -0.5011
 7029SOL    HW232550   2.999   0.173   4.717  0.3484 -0.8865 -1.9714
 7030SOL     OW32551   0.791   3.210  10.853 -0.0405  0.1655  0.0167
 7030SOL    HW132552   0.751   3.153  10.920  2.5612 -0.3601  1.1422
 7030SOL    HW232553   0.714   3.220  10.798  0.2193 -0.0900 -0.3876
 7031SOL     OW32554   0.600   0.520  10.521 -0.3444  0.1273  0.0686
 7031SOL    HW132555   0.548   0.451  10.562 -0.6053  0.2971  0.0256
 7031SOL    HW232556   0.584   0.492  10.432  0.2479  0.9775 -0.3126
 7032SOL     OW32557   4.425   4.688   8.625 -0.1589 -0.6641  0.4105
 7032SOL    HW132558   4.476   4.633   8.685  1.7312 -0.0418 -0.6265
 7032SOL    HW232559   4.420   4.628   8.550 -1.4904 -1.3062  1.0059
 7033SOL     OW32560   2.849   4.539   8.981 -0.2523 -0.0739  0.4642
 7033SOL    HW132561   2.823   4.630   8.997  3.2050  0.9888 -0.0551
 7033SOL    HW232562   2.941   4.550   8.957 -0.5330  2.1186  0.4426
 7034SOL     OW32563   3.310   0.112   2.777  0.3212 -0.0352  0.2009
 7034SOL    HW132564   3.271   0.126   2.691 -0.1386 -0.7178  0.2934
 7034SOL    HW232565   3.282   0.195   2.816  1.4881  0.2925  0.3365
 7035SOL     OW32566   3.438   1.900  14.726 -0.9633 -0.0797  0.2177
 7035SOL    HW132567   3.370   1.893  14.658  0.0181 -0.0520 -0.7767
 7035SOL    HW232568   3.490   1.820  14.722  0.5614  0.8790  1.0571
 7036SOL     OW32569   1.158   1.263  13.137 -0.8814  0.1739  0.0592
 7036SOL    HW132570   1.190   1.352  13.148 -0.1987 -0.1694  0.9326
 7036SOL    HW232571   1.199   1.240  13.054  1.6259  1.9660  0.8263
 7037SOL     OW32572   1.292   4.180   1.716 -0.7458 -0.0952  0.3526
 7037SOL    HW132573   1.266   4.261   1.761 -0.1517  0.0071  0.5116
 7037SOL    HW232574   1.209   4.160   1.671 -1.3145  1.2722  0.7847
 7038SOL     OW32575   1.021   0.466   1.515 -0.0332  0.0840 -0.1476
 7038SOL    HW132576   0.954   0.400   1.497  0.7393 -1.5084  2.8036
 7038SOL    HW232577   0.971   0.530   1.565  0.9803  2.1766 -1.8011
 7039SOL     OW32578   2.424   1.531   7.069  0.2258  0.5412 -0.3085
 7039SOL    HW132579   2.512   1.564   7.087  0.3496  0.7416 -1.2627
 7039SOL    HW232580   2.376   1.601   7.025 -1.9443 -0.5916  0.2584
 7040SOL     OW32581   2.656   0.671   6.063 -0.1367 -0.1358  0.0232
 7040SOL    HW132582   2.721   0.742   6.065 -0.9621  0.6186  0.0157
 7040SOL    HW232583   2.634   0.669   5.970 -2.8607  0.6012  0.6699
 7041SOL     OW32584   3.171   2.745  12.122  0.0122 -0.0282  0.2914
 7041SOL    HW132585   3.137   2.698  12.046  2.7056  0.8353 -1.4541
 7041SOL    HW232586   3.115   2.823  12.124  1.3044  0.9555 -1.6244
 7042SOL     OW32587   0.211   1.041  12.250 -0.3599 -1.1526 -0.1724
 7042SOL    HW132588   0.122   1.051  12.285  0.0256  0.7451  0.2616
 7042SOL    HW232589   0.219   1.135  12.237 -0.4532 -0.8918  1.6269
 7043SOL     OW32590   1.356   0.622   5.570 -0.4247 -0.0818 -0.3620
 7043SOL    HW132591   1.328   0.713   5.569 -0.8063 -0.1831  0.9603
 7043SOL    HW232592   1.309   0.584   5.645  1.7223 -0.0875  0.9886
 7044SOL     OW32593   4.378   2.402   6.662  0.4577  0.1147  0.0124
 7044SOL    HW132594   4.323   2.363   6.730  0.4946 -1.8722 -1.0817
 7044SOL    HW232595   4.411   2.482   6.702  2.7285 -0.7257 -0.1512
 7045SOL     OW32596   3.108   3.804  16.439 -0.3866  0.3582 -0.2112
 7045SOL    HW132597   3.180   3.793  16.500 -1.5005  1.5902  1.3290
 7045SOL    HW232598   3.043   3.742  16.475  0.2605 -1.2352 -1.7967
 7046SOL     OW32599   1.539   2.505   3.973  0.6219  0.4234 -0.3186
 7046SOL    HW132600   1.488   2.427   3.998  0.6866  0.1793 -0.9619
 7046SOL    HW232601   1.485   2.532   3.899 -0.3850  0.1567  0.3023
 7047SOL     OW32602   4.097   3.313  16.529 -1.0448 -0.4215 -0.1170
 7047SOL    HW132603   4.016   3.292  16.482 -1.6198  0.3327  0.5187
 7047SOL    HW232604   4.135   3.225  16.528  1.6773  0.7925 -2.6098
 7048SOL     OW32605   1.398   0.181   8.650 -0.6932  0.3015 -0.5921
 7048SOL    HW132606   1.362   0.257   8.695 -0.8729  1.3205 -2.4564
 7048SOL    HW232607   1.336   0.115   8.683  1.4704  0.0326  2.8520
 7049SOL     OW32608   2.532   2.875  11.211 -0.5260  0.4932 -0.5188
 7049SOL    HW132609   2.465   2.817  11.172  0.0722 -1.0709  0.7970
 7049SOL    HW232610   2.559   2.927  11.136 -0.8621  0.5594 -0.5969
 7050SOL     OW32611   3.043   0.015   7.448  0.1604  0.5744 -0.1510
 7050SOL    HW132612   3.054   4.646   7.423 -0.9905 -0.1611  2.0474
 7050SOL    HW232613   3.032   0.014   7.543  2.6331 -0.0639  0.1113
 7051SOL     OW32614   0.219   3.245   3.843 -0.0724 -0.0108 -0.1337
 7051SOL    HW132615   0.190   3.163   3.803  0.5804 -0.1292 -0.3686
 7051SOL    HW232616   0.295   3.258   3.787  0.1050  0.5937  0.2444
 7052SOL     OW32617   3.688   2.368   7.742  0.0783 -0.9393 -0.0495
 7052SOL    HW132618   3.693   2.385   7.836  2.0926 -3.2163  0.2423
 7052SOL    HW232619   3.599   2.332   7.737 -0.1005 -0.4615 -0.3274
 7053SOL     OW32620   4.482   3.234   7.244 -0.4805 -0.2852  0.1372
 7053SOL    HW132621   4.522   3.191   7.168 -0.3101 -3.0021  1.7670
 7053SOL    HW232622   4.533   3.314   7.254 -1.5251  0.3853  0.0101
 7054SOL     OW32623   2.170   0.189   2.032  0.6549 -0.2196 -0.1087
 7054SOL    HW132624   2.235   0.188   2.102 -0.9421  2.4006  1.4119
 7054SOL    HW232625   2.102   0.226   2.088  1.6561 -2.4483  2.5943
 7055SOL     OW32626   2.566   1.945   4.533  0.3253  0.0037 -0.2397
 7055SOL    HW132627   2.510   2.014   4.569 -0.1046  0.1547 -1.1928
 7055SOL    HW232628   2.649   1.984   4.505 -1.2544  2.0993 -2.1213
 7056SOL     OW32629   2.463   1.146   7.208  0.4444 -0.3567 -0.0596
 7056SOL    HW132630   2.381   1.140   7.159  1.2015  2.0398 -1.6237
 7056SOL    HW232631   2.529   1.103   7.154  1.0727  0.8780 -0.2861
 7057SOL     OW32632   0.499   4.657   6.157  0.1931  0.0148  0.6766
 7057SOL    HW132633   0.485   0.029   6.154  0.9918  0.0147 -2.2554
 7057SOL    HW232634   0.587   4.642   6.192  0.9664  3.9956  0.3507
 7058SOL     OW32635   1.656   0.623  16.001 -0.3199  0.5166  0.0107
 7058SOL    HW132636   1.590   0.572  16.048 -0.4496 -0.6260 -1.3940
 7058SOL    HW232637   1.724   0.559  16.023  0.5691  0.6900 -2.2038
 7059SOL     OW32638   0.460   4.106   8.905 -0.0922  0.0890 -0.4651
 7059SOL    HW132639   0.449   4.113   8.811 -0.0828 -0.1256 -0.4840
 7059SOL    HW232640   0.509   4.024   8.916 -0.2401  0.3554  2.1558
 7060SOL     OW32641   4.440   1.830   3.576 -0.5664  0.2159  0.0499
 7060SOL    HW132642   4.379   1.800   3.509 -0.1522  0.1546 -0.3029
 7060SOL    HW232643   4.378   1.829   3.649 -0.0261 -0.8152  0.4945
 7061SOL     OW32644   1.138   3.602   5.887 -0.1050 -0.0114 -0.4793
 7061SOL    HW132645   1.157   3.528   5.945 -1.7651 -0.9380 -1.1285
 7061SOL    HW232646   1.160   3.559   5.804  0.1261  1.8987 -1.4206
 7062SOL     OW32647   4.071   1.628   6.480 -0.2866 -0.0271  0.3224
 7062SOL    HW132648   4.094   1.606   6.571 -0.9869  1.6872  0.9192
 7062SOL    HW232649   3.988   1.580   6.476 -0.2745 -0.1441  1.4098
 7063SOL     OW32650   0.407   3.052  10.525  0.1239 -0.4411 -0.0938
 7063SOL    HW132651   0.366   3.138  10.516 -0.3680 -0.7123 -0.4556
 7063SOL    HW232652   0.388   3.025  10.614  0.7104  0.2586  0.2422
 7064SOL     OW32653   1.377   0.214   2.092 -0.2517  0.6165  0.0271
 7064SOL    HW132654   1.389   0.303   2.126  0.7506  0.0379  1.1689
 7064SOL    HW232655   1.284   0.223   2.073  0.3031 -0.1774 -3.0019
 7065SOL     OW32656   1.614   1.172   4.611  0.2885  0.3495  0.4276
 7065SOL    HW132657   1.571   1.092   4.639  1.8324 -0.6125  0.0577
 7065SOL    HW232658   1.678   1.141   4.547  0.3348 -0.7170  0.9897
 7066SOL     OW32659   1.187   3.764   0.466  0.4652  0.0681  0.0377
 7066SOL    HW132660   1.216   3.736   0.379  0.6278  2.9871 -0.8464
 7066SOL    HW232661   1.140   3.844   0.445 -1.1430 -1.2869 -1.4400
 7067SOL     OW32662   1.627   4.110   6.364  0.1234  0.1030 -0.3702
 7067SOL    HW132663   1.667   4.094   6.450  0.9405 -0.8163 -0.9259
 7067SOL    HW232664   1.693   4.078   6.302  1.5789 -2.1439  2.3282
 7068SOL     OW32665   0.098   2.046  15.494 -0.2292  0.4851  0.2618
 7068SOL    HW132666   0.127   2.137  15.501  0.7661  0.2201 -0.5255
 7068SOL    HW232667   0.184   2.007  15.481 -0.7101 -0.7108  0.6975
 7069SOL     OW32668   1.978   0.851   6.726 -0.0514  0.1457 -0.0879
 7069SOL    HW132669   2.038   0.925   6.738 -0.4839  0.4917 -0.0558
 7069SOL    HW232670   1.917   0.885   6.661  0.1219 -0.7662 -0.7284
 7070SOL     OW32671   2.366   0.278   6.436  0.1939  0.3985 -0.0413
 7070SOL    HW132672   2.378   0.247   6.525  2.7820 -1.4767 -1.0570
 7070SOL    HW232673   2.302   0.218   6.398 -0.0122 -0.8096  2.2146
 7071SOL     OW32674   3.207   2.915   0.842 -0.6669 -0.4595 -0.1885
 7071SOL    HW132675   3.122   2.959   0.846 -0.7177 -0.4164 -1.6624
 7071SOL    HW232676   3.239   2.949   0.925 -0.4808  1.5078 -1.0665
 7072SOL     OW32677   2.278   1.894   5.775 -0.3751 -0.2634 -0.3139
 7072SOL    HW132678   2.259   1.952   5.849 -0.6953 -0.3646 -0.3194
 7072SOL    HW232679   2.284   1.811   5.823 -2.0768  0.6671  1.5053
 7073SOL     OW32680   1.994   1.449   9.808  0.0164  0.7434  0.1514
 7073SOL    HW132681   2.001   1.529   9.755 -2.5119  0.7493 -0.1562
 7073SOL    HW232682   1.913   1.411   9.775  0.4698 -0.2943  0.2387
 7074SOL     OW32683   0.778   0.490   6.301  0.3644 -0.2543  0.3774
 7074SOL    HW132684   0.819   0.415   6.258  1.0833  0.4209 -0.0993
 7074SOL    HW232685   0.789   0.474   6.395  2.8341 -2.5039 -0.2957
 7075SOL     OW32686   3.605   0.539   6.476  0.1166 -0.1405  0.1127
 7075SOL    HW132687   3.599   0.490   6.394 -1.9160 -1.6279  1.1636
 7075SOL    HW232688   3.636   0.471   6.535 -1.2194 -1.0341 -0.2207
 7076SOL     OW32689   0.967   2.942   7.926 -0.6935  0.0085 -0.1055
 7076SOL    HW132690   0.918   3.016   7.888 -0.1347  1.6534  2.3750
 7076SOL    HW232691   0.894   2.894   7.964  0.4245 -0.7698  1.0247
 7077SOL     OW32692   3.804   2.468  10.081 -0.5532 -0.1056 -0.0812
 7077SOL    HW132693   3.769   2.393  10.127 -0.4276 -1.5680 -2.3521
 7077SOL    HW232694   3.799   2.432   9.992 -1.8036  0.1347 -0.1034
 7078SOL     OW32695   3.525   3.701   9.852 -0.0338 -0.3375  0.1189
 7078SOL    HW132696   3.545   3.775   9.909  0.0727 -1.1852  1.1956
 7078SOL    HW232697   3.431   3.712   9.836 -0.5003 -1.8149  1.8153
 7079SOL     OW32698   1.247   4.114  12.438 -0.6166 -0.3338 -0.2137
 7079SOL    HW132699   1.301   4.110  12.517 -1.9558 -1.7731  0.6235
 7079SOL    HW232700   1.263   4.200  12.400  0.0214 -1.2360 -2.0033
 7080SOL     OW32701   3.327   0.667   8.045 -0.2131  0.5598  0.1675
 7080SOL    HW132702   3.283   0.648   7.962 -1.6968  0.8542  0.8899
 7080SOL    HW232703   3.389   0.595   8.059 -0.5981 -0.0368 -1.1475
 7081SOL     OW32704   2.386   1.718   5.267  0.4318 -0.1420  0.1828
 7081SOL    HW132705   2.295   1.742   5.253  0.7430  0.1234 -1.3171
 7081SOL    HW232706   2.423   1.790   5.319  1.7651 -0.8315  0.1972
 7082SOL     OW32707   3.540   2.428   2.184  0.1032 -0.2037 -0.0588
 7082SOL    HW132708   3.548   2.432   2.280  0.2953  0.9020 -0.1233
 7082SOL    HW232709   3.619   2.468   2.149  1.1373 -3.4145 -1.4036
 7083SOL     OW32710   2.728   1.863   5.172 -0.0186 -0.8446  0.3765
 7083SOL    HW132711   2.677   1.927   5.223 -2.2938 -1.2151 -1.4326
 7083SOL    HW232712   2.806   1.918   5.166  0.6042 -1.5131  2.5053
 7084SOL     OW32713   2.295   2.920   3.344  0.3769  0.1026 -0.2664
 7084SOL    HW132714   2.290   2.940   3.251 -1.8087 -0.7647 -0.3320
 7084SOL    HW232715   2.365   2.856   3.347  0.9583  0.7646  0.3280
 7085SOL     OW32716   2.057   4.295   8.604  0.2979  0.1718 -0.0730
 7085SOL    HW132717   2.153   4.295   8.609  0.3854  1.6550 -2.0096
 7085SOL    HW232718   2.036   4.355   8.676 -1.3411 -1.4224  0.7915
 7086SOL     OW32719   3.489   0.532   8.553 -0.0346 -0.1534 -0.0743
 7086SOL    HW132720   3.520   0.575   8.473 -0.7031  0.1974 -0.1507
 7086SOL    HW232721   3.439   0.601   8.598 -1.0263  0.4013 -2.0582
 7087SOL     OW32722   2.456   0.452   7.971  0.4451 -0.5467 -0.5300
 7087SOL    HW132723   2.390   0.489   7.913  0.8196  0.0847 -0.5587
 7087SOL    HW232724   2.502   0.526   8.011 -0.4688 -0.3515  0.1423
 7088SOL     OW32725   4.247   3.214  17.234 -0.0045 -0.5326 -0.4311
 7088SOL    HW132726   4.190   3.140  17.256  1.1257 -1.2747 -0.0147
 7088SOL    HW232727   4.192   3.257  17.168 -0.7520  0.4123  0.8169
 7089SOL     OW32728   2.226   2.622   5.866  0.1793  0.1018  0.2381
 7089SOL    HW132729   2.263   2.579   5.789  0.1351  1.1982 -0.3857
 7089SOL    HW232730   2.187   2.541   5.900  2.8476 -1.1653  0.3030
 7090SOL     OW32731   3.401   4.643  15.498 -0.7995  0.1983  0.4721
 7090SOL    HW132732   3.344   4.580  15.455 -0.8092 -1.1403  2.4615
 7090SOL    HW232733   3.484   4.600  15.479  0.4207  2.5069  0.5689
 7091SOL     OW32734   1.483   2.946  11.327  0.1482 -0.5300  0.3650
 7091SOL    HW132735   1.548   2.931  11.257 -1.2617 -3.5643 -0.2959
 7091SOL    HW232736   1.470   2.852  11.335 -0.0758 -0.5650 -0.4181
 7092SOL     OW32737   0.576   4.649   5.341 -0.2778  0.4911  0.6517
 7092SOL    HW132738   0.510   4.707   5.302  0.2665  0.9698  0.4342
 7092SOL    HW232739   0.658   4.693   5.320  0.2812 -0.8513  0.0274
 7093SOL     OW32740   1.992   4.374  17.172  0.2710  0.2587 -0.4552
 7093SOL    HW132741   1.898   4.382  17.158  0.4968  0.7057 -1.6575
 7093SOL    HW232742   2.023   4.464  17.164  0.9269  0.0564 -0.2403
 7094SOL     OW32743   2.614   3.756   2.756 -0.0150  0.4584  0.1372
 7094SOL    HW132744   2.571   3.754   2.841  2.3046  1.1117  1.3253
 7094SOL    HW232745   2.607   3.661   2.746  0.2288  0.2447  2.0891
 7095SOL     OW32746   4.279   0.884   6.069  0.1307  0.1153  0.0457
 7095SOL    HW132747   4.235   0.820   6.124  0.4768  0.5538  0.8352
 7095SOL    HW232748   4.299   0.945   6.140 -2.4571 -2.0324  2.6208
 7096SOL     OW32749   3.299   0.112  12.943 -0.1135 -0.0755  0.3367
 7096SOL    HW132750   3.302   0.021  12.912 -1.2555  0.4810 -1.4145
 7096SOL    HW232751   3.384   0.143  12.910  0.1252 -1.4060 -0.2686
 7097SOL     OW32752   3.419   0.684  12.589 -0.0063 -0.1336 -0.2309
 7097SOL    HW132753   3.509   0.695  12.621 -0.8210  2.1479  1.3163
 7097SOL    HW232754   3.374   0.764  12.616 -0.0106 -0.2156  0.0025
 7098SOL     OW32755   2.977   1.572   6.246 -0.1521 -0.3731  0.4536
 7098SOL    HW132756   2.995   1.663   6.270 -0.0033 -0.6130  1.2465
 7098SOL    HW232757   2.945   1.537   6.329 -1.1921  0.5426  0.4509
 7099SOL     OW32758   1.593   2.556   2.601 -0.8139 -0.1032 -0.6488
 7099SOL    HW132759   1.559   2.484   2.549 -1.4667  0.7351 -1.3760
 7099SOL    HW232760   1.514   2.609   2.609 -0.3206  0.7267 -1.2953
 7100SOL     OW32761   4.427   2.625  10.785  0.0586  0.6509  0.0260
 7100SOL    HW132762   4.366   2.667  10.724 -1.0337  1.7343  1.8685
 7100SOL    HW232763   4.501   2.685  10.790  0.3118  0.3838 -0.5364
 7101SOL     OW32764   4.079   3.610   0.867  0.3833  0.6869 -0.2229
 7101SOL    HW132765   4.117   3.576   0.785 -2.2658  0.4524 -1.3508
 7101SOL    HW232766   3.995   3.636   0.829  0.5546  1.2896 -0.1988
 7102SOL     OW32767   2.440   3.097  10.517 -0.6937 -0.2847 -0.3574
 7102SOL    HW132768   2.482   3.106  10.432 -0.3341  0.8534 -0.0472
 7102SOL    HW232769   2.445   3.182  10.560 -2.0523  0.0597 -0.8714
 7103SOL     OW32770   1.990   0.367   3.707 -0.4832  0.1522  0.0975
 7103SOL    HW132771   2.023   0.383   3.619 -1.1786  0.6555 -0.0691
 7103SOL    HW232772   2.048   0.428   3.752 -0.9899  0.7502 -0.0652
 7104SOL     OW32773   1.109   3.481  16.044 -0.2013 -0.4056 -0.3154
 7104SOL    HW132774   1.043   3.515  15.984 -1.7743 -0.3563  1.4706
 7104SOL    HW232775   1.123   3.566  16.086 -3.1189  0.6687 -1.5331
 7105SOL     OW32776   0.370   4.710  11.815  0.8668  0.3636  0.1336
 7105SOL    HW132777   0.381   0.021  11.905 -1.0027  0.8398  0.1894
 7105SOL    HW232778   0.428   0.034  11.755 -0.9273  1.0533 -1.0664
 7106SOL     OW32779   3.804   1.349   4.699 -0.7833 -0.9046 -0.3478
 7106SOL    HW132780   3.806   1.398   4.616 -2.5186  0.8911  0.6774
 7106SOL    HW232781   3.837   1.263   4.673  0.4253 -0.2280 -1.0683
 7107SOL     OW32782   3.305   3.281   6.377  0.6534  0.3108 -0.1587
 7107SOL    HW132783   3.267   3.193   6.370  1.7400 -0.2775  1.3362
 7107SOL    HW232784   3.237   3.336   6.416  1.3058  1.3009 -0.4080
 7108SOL     OW32785   2.852   3.920   2.703  0.0750 -0.1437 -0.1343
 7108SOL    HW132786   2.909   3.844   2.687 -0.3504 -0.6480  0.7556
 7108SOL    HW232787   2.764   3.885   2.711  0.7595 -2.3548 -2.1943
 7109SOL     OW32788   4.085   2.485   3.376  0.7131  0.3959  0.8248
 7109SOL    HW132789   4.098   2.398   3.338  1.6491  0.4297  1.0612
 7109SOL    HW232790   4.172   2.520   3.396  1.2032 -0.5322  0.3050
 7110SOL     OW32791   1.613   0.994   4.838  0.1825 -0.0229  0.0620
 7110SOL    HW132792   1.656   1.047   4.905  0.2318  0.2191 -0.1630
 7110SOL    HW232793   1.694   0.980   4.788  1.8461  0.2876  2.6483
 7111SOL     OW32794   2.340   2.665   0.132 -0.0182 -1.1550 -0.2028
 7111SOL    HW132795   2.358   2.712   0.050  1.4132 -0.2113  0.6607
 7111SOL    HW232796   2.294   2.582   0.116  0.0423 -1.0301 -1.0342
 7112SOL     OW32797   0.440   0.976   9.415 -0.1824  0.1193 -0.0812
 7112SOL    HW132798   0.526   1.018   9.419 -0.6114  0.7285  2.8451
 7112SOL    HW232799   0.394   1.054   9.383  0.5053  0.8825  0.7620
 7113SOL     OW32800   4.075   1.754   7.866  0.5047  0.4903 -0.0444
 7113SOL    HW132801   4.114   1.727   7.949  0.4596  0.8735  0.1005
 7113SOL    HW232802   4.001   1.808   7.895  1.4518  1.0410  1.3385
 7114SOL     OW32803   3.616   2.958  10.928  0.6518 -0.4049 -0.4226
 7114SOL    HW132804   3.662   2.897  10.870  1.1771 -0.0452 -0.3834
 7114SOL    HW232805   3.549   2.901  10.966  0.0245 -1.0684 -2.5547
 7115SOL     OW32806   3.308   3.741  16.683  0.1565 -0.2457 -0.0694
 7115SOL    HW132807   3.280   3.818  16.733 -0.0235  0.4103 -1.1725
 7115SOL    HW232808   3.402   3.754  16.676  0.6979 -3.4931  1.2417
 7116SOL     OW32809   4.222   2.013   5.457  0.1591  0.0018 -0.1027
 7116SOL    HW132810   4.153   1.993   5.394  0.6986 -2.8745  0.2302
 7116SOL    HW232811   4.164   2.039   5.529 -0.4587 -1.0764 -0.2128
 7117SOL     OW32812   0.704   2.698   2.223 -0.3284  0.2606 -0.9165
 7117SOL    HW132813   0.694   2.793   2.213 -3.2490 -0.1118 -1.4502
 7117SOL    HW232814   0.792   2.691   2.187  0.6361  1.5100  1.1273
 7118SOL     OW32815   0.793   1.970   4.114  0.3319  0.9041  0.3911
 7118SOL    HW132816   0.720   1.942   4.169  1.8222 -0.9227  1.4360
 7118SOL    HW232817   0.824   2.045   4.166 -0.1281  0.9481  0.6012
 7119SOL     OW32818   1.253   0.772   3.986 -0.1574 -0.3835 -0.1620
 7119SOL    HW132819   1.271   0.854   3.939  3.0203  0.1953  2.0764
 7119SOL    HW232820   1.322   0.719   3.946 -0.4239 -1.3627  0.6844
 7120SOL     OW32821   1.065   1.987   7.152 -0.4425 -0.6519 -0.0856
 7120SOL    HW132822   1.109   1.920   7.101 -0.0722 -1.9400  1.9320
 7120SOL    HW232823   0.977   1.951   7.157 -0.1438 -1.5887 -1.8497
 7121SOL     OW32824   1.620   1.092   2.182  0.7344  0.0098 -0.0070
 7121SOL    HW132825   1.634   1.127   2.270  0.4981 -1.9517  0.8084
 7121SOL    HW232826   1.644   1.003   2.208  1.2930  0.2342  0.2499
 7122SOL     OW32827   1.904   1.650  10.767  0.1630  0.1130 -0.2530
 7122SOL    HW132828   1.912   1.660  10.862  1.2241  0.4055 -0.3727
 7122SOL    HW232829   1.969   1.714  10.736  1.6500 -2.0654 -1.6423
 7123SOL     OW32830   0.318   1.148   3.131 -0.0246 -0.3776 -0.1599
 7123SOL    HW132831   0.410   1.127   3.115 -0.2525 -0.5728 -1.2331
 7123SOL    HW232832   0.273   1.165   3.048  2.6260 -0.6773 -1.6655
 7124SOL     OW32833   0.088   0.850   6.526 -0.4656  0.0870  0.1230
 7124SOL    HW132834   0.160   0.808   6.573 -0.9710  0.2174  1.0081
 7124SOL    HW232835   0.110   0.813   6.441  0.9385 -0.3883  0.6856
 7125SOL     OW32836   0.685   0.748   9.543 -0.0022 -0.1006 -0.6632
 7125SOL    HW132837   0.632   0.759   9.622  0.4626  1.2792 -0.5365
 7125SOL    HW232838   0.754   0.813   9.557  1.2055 -1.6420  0.5195
 7126SOL     OW32839   4.479   4.398  13.089  0.0503  0.0094  0.1621
 7126SOL    HW132840   4.529   4.468  13.130  1.8338 -0.3438 -1.3844
 7126SOL    HW232841   4.447   4.436  13.007  1.6673  0.5016 -0.2495
 7127SOL     OW32842   1.475   1.055  13.141  0.3688  0.4019 -0.4388
 7127SOL    HW132843   1.528   1.133  13.152 -0.2883  1.0152 -1.6138
 7127SOL    HW232844   1.543   0.989  13.132  0.5539  0.9121 -2.7776
 7128SOL     OW32845   2.138   0.245   5.098  0.1403 -0.2149  0.7454
 7128SOL    HW132846   2.090   0.301   5.037 -0.7684  0.1633  1.7994
 7128SOL    HW232847   2.229   0.246   5.068  0.0578 -0.4744  0.4853
 7129SOL     OW32848   2.247   0.330   4.214 -0.9216 -0.3210 -0.0808
 7129SOL    HW132849   2.240   0.385   4.293  0.3753 -0.5391  0.1808
 7129SOL    HW232850   2.166   0.280   4.221 -0.5675 -0.7649  0.8975
 7130SOL     OW32851   1.080   0.861  15.495 -0.2803 -0.1480 -0.3996
 7130SOL    HW132852   1.098   0.782  15.443  0.0185 -1.4229  1.6511
 7130SOL    HW232853   1.160   0.908  15.473 -0.0814 -1.6223 -2.9428
 7131SOL     OW32854   0.531   1.372  14.677 -0.4799  0.2497  0.5630
 7131SOL    HW132855   0.507   1.406  14.764  0.3205  1.0107  0.4925
 7131SOL    HW232856   0.447   1.361  14.634 -1.2272 -2.2844  2.6981
 7132SOL     OW32857   0.916   2.658   4.477 -0.1210  0.6128 -0.4618
 7132SOL    HW132858   0.943   2.644   4.386 -1.8377 -1.4485 -0.6533
 7132SOL    HW232859   0.916   2.572   4.519 -2.5076  0.1725 -1.3643
 7133SOL     OW32860   4.555   1.819   0.178 -0.5801 -0.3720  0.2436
 7133SOL    HW132861   4.472   1.831   0.131  0.3194 -2.6739 -1.9275
 7133SOL    HW232862   4.538   1.879   0.250 -0.8928  0.9712 -0.9491
 7134SOL     OW32863   1.051   4.092   1.581  0.5023 -0.2170 -0.2405
 7134SOL    HW132864   1.019   4.162   1.637 -1.0410 -1.5865  0.5854
 7134SOL    HW232865   1.007   4.015   1.618  2.2201 -0.7438  0.6777
 7135SOL     OW32866   1.176   3.342   4.055  0.1104 -0.8633 -0.7943
 7135SOL    HW132867   1.107   3.324   3.991 -0.8531 -1.8684  0.5164
 7135SOL    HW232868   1.136   3.329   4.141  1.1515 -0.5967 -0.2660
 7136SOL     OW32869   0.759   4.061  13.075  0.0909 -0.1114 -0.4878
 7136SOL    HW132870   0.805   4.044  13.157  1.2630  2.3960 -0.6261
 7136SOL    HW232871   0.791   3.991  13.018  0.3075  0.4015 -0.9939
 7137SOL     OW32872   1.938   1.905  14.284 -0.5856  0.4675 -0.1499
 7137SOL    HW132873   1.911   1.839  14.349  0.4871 -0.0940 -0.2714
 7137SOL    HW232874   1.955   1.975  14.347  2.1108  1.1929 -1.6603
 7138SOL     OW32875   1.053   1.404   3.386  0.1278 -0.2148 -0.1329
 7138SOL    HW132876   1.130   1.420   3.441  1.0627  0.0705 -1.5365
 7138SOL    HW232877   1.053   1.486   3.338 -0.3443  0.6197  1.2903
 7139SOL     OW32878   2.532   0.803   2.127  0.1172  0.2943 -0.3736
 7139SOL    HW132879   2.626   0.800   2.112 -0.4442  2.8177 -4.2814
 7139SOL    HW232880   2.499   0.818   2.039  0.3456  0.0622 -0.4972
 7140SOL     OW32881   0.905   3.148   4.717  0.7018 -0.4369  0.5560
 7140SOL    HW132882   0.948   3.228   4.746 -0.7346  0.7895 -0.7484
 7140SOL    HW232883   0.955   3.124   4.638 -0.9882 -0.9443 -0.3691
 7141SOL     OW32884   1.099   0.933   2.124  0.0309  0.6265 -0.1596
 7141SOL    HW132885   1.048   0.948   2.203  0.5664  2.1019 -0.0978
 7141SOL    HW232886   1.168   0.996   2.141  0.4643 -0.1323  0.8813
 7142SOL     OW32887   3.377   2.226  10.804  0.6266 -0.1046 -0.2682
 7142SOL    HW132888   3.376   2.279  10.883 -1.7643  1.2517 -1.1853
 7142SOL    HW232889   3.324   2.150  10.828  0.6430 -0.1952 -0.5137
 7143SOL     OW32890   1.902   2.227   4.760  0.1959 -0.3417  0.3113
 7143SOL    HW132891   1.846   2.255   4.687  0.2552 -1.2138 -0.0649
 7143SOL    HW232892   1.869   2.288   4.825 -1.1834 -1.1185  0.3464
 7144SOL     OW32893   0.977   2.028   2.240  0.0300  0.2310 -0.0998
 7144SOL    HW132894   1.028   2.029   2.321 -1.7160  1.0426  1.0055
 7144SOL    HW232895   1.028   1.964   2.191 -0.1777 -0.8891  1.1565
 7145SOL     OW32896   2.839   3.400  15.715 -0.6484  0.0469 -0.1740
 7145SOL    HW132897   2.831   3.417  15.621 -4.4595  1.7298  0.4395
 7145SOL    HW232898   2.889   3.320  15.700 -1.2711 -0.5998  1.1892
 7146SOL     OW32899   0.515   1.962  14.399 -0.3686 -0.5419 -0.4119
 7146SOL    HW132900   0.454   1.997  14.464  0.5663  0.5103 -0.1050
 7146SOL    HW232901   0.535   2.042  14.351 -1.7321 -0.4139 -0.7677
 7147SOL     OW32902   0.628   4.149   5.119 -0.4505  0.0948  0.0084
 7147SOL    HW132903   0.665   4.209   5.054  0.4618  0.1139  0.5358
 7147SOL    HW232904   0.538   4.140   5.088 -0.8252  0.6325  0.9332
 7148SOL     OW32905   0.081   3.708   6.082 -0.3168  0.0150 -0.0887
 7148SOL    HW132906   4.711   3.730   6.099  0.3296  1.7369  1.2084
 7148SOL    HW232907   0.086   3.613   6.092  1.1478  0.2722  1.6689
 7149SOL     OW32908   2.520   4.076  12.331 -0.3008  0.0085 -0.2613
 7149SOL    HW132909   2.615   4.075  12.321 -0.1317 -0.0408  1.4119
 7149SOL    HW232910   2.513   3.982  12.347  0.0927 -0.0242 -0.2778
 7150SOL     OW32911   3.042   1.825   8.907 -0.2295 -0.3802  0.0161
 7150SOL    HW132912   3.085   1.797   8.987  1.7425  2.2104 -0.1654
 7150SOL    HW232913   3.006   1.909   8.933 -0.3541 -0.4020 -0.0849
 7151SOL     OW32914   1.952   2.451   3.441 -0.6631 -0.0068 -0.0253
 7151SOL    HW132915   1.966   2.495   3.524  2.4942  1.0540 -1.1247
 7151SOL    HW232916   1.872   2.498   3.418 -0.4542  0.4043  0.0977
 7152SOL     OW32917   1.607   0.523   6.923  0.0238 -0.0769 -0.0353
 7152SOL    HW132918   1.587   0.588   6.991  0.3853 -1.2473  1.1930
 7152SOL    HW232919   1.576   0.573   6.847 -0.4167 -0.1858  0.0716
 7153SOL     OW32920   0.216   1.903   4.582 -0.1680  0.1668  0.5922
 7153SOL    HW132921   0.173   1.864   4.658  0.6321  1.0796  1.5085
 7153SOL    HW232922   0.145   1.955   4.544 -0.2561 -1.2272 -1.1801
 7154SOL     OW32923   4.425   0.783   4.575 -0.7529 -0.3417  0.0203
 7154SOL    HW132924   4.332   0.766   4.588 -0.6466 -0.9620 -0.0123
 7154SOL    HW232925   4.439   0.767   4.481 -1.0905  0.6294 -0.1919
 7155SOL     OW32926   1.785   3.545  17.230  0.4104  0.4658  0.1271
 7155SOL    HW132927   1.726   3.596  17.287  0.1038 -2.7360  2.6900
 7155SOL    HW232928   1.713   3.491  17.198 -0.0952  0.7214  0.8103
 7156SOL     OW32929   2.094   0.277   8.594  0.0425  0.5172 -0.3740
 7156SOL    HW132930   2.189   0.285   8.592 -0.1342  2.7283 -0.5215
 7156SOL    HW232931   2.073   0.279   8.501  0.4592  1.3844 -0.4467
 7157SOL     OW32932   1.048   3.651  10.339 -0.6023 -0.5129  0.0158
 7157SOL    HW132933   1.095   3.638  10.256 -2.7304 -0.7600 -1.1345
 7157SOL    HW232934   0.996   3.729  10.321 -1.0157 -0.9940 -0.8739
 7158SOL     OW32935   2.688   3.813  15.809  0.2399  0.6584 -0.4332
 7158SOL    HW132936   2.773   3.770  15.793 -0.8269 -0.8278 -2.0755
 7158SOL    HW232937   2.622   3.753  15.774  2.5695 -1.5285 -1.1050
 7159SOL     OW32938   4.084   1.926  16.095 -0.4341  0.0494 -0.0097
 7159SOL    HW132939   4.124   1.906  16.011 -2.0129 -0.4894 -0.6250
 7159SOL    HW232940   4.159   1.942  16.153  2.3545 -0.0013 -3.6638
 7160SOL     OW32941   4.667   1.853   4.902 -0.0862  0.2202  0.3822
 7160SOL    HW132942   0.027   1.831   4.945  1.1217  1.4687 -1.2903
 7160SOL    HW232943   4.615   1.791   4.953 -0.0657  0.5737  0.8284
 7161SOL     OW32944   2.051   3.388  16.225  0.4195 -0.8024 -0.3901
 7161SOL    HW132945   2.032   3.344  16.308  0.8955 -1.2810 -0.5318
 7161SOL    HW232946   1.972   3.442  16.222  2.1461  1.6619 -1.4803
 7162SOL     OW32947   0.767   0.461   2.476 -0.1943 -0.2335  0.1635
 7162SOL    HW132948   0.755   0.379   2.428  1.6061 -0.3730 -0.0781
 7162SOL    HW232949   0.802   0.526   2.415 -0.2448  1.3693  1.8638
 7163SOL     OW32950   2.578   1.951   6.051 -0.6306 -0.2334  0.0140
 7163SOL    HW132951   2.491   1.967   6.087 -0.0685 -0.5916  1.5426
 7163SOL    HW232952   2.556   1.883   5.989 -1.0030  0.1512 -0.2791
 7164SOL     OW32953   3.452   2.897   9.210  0.1676  0.0160  0.2119
 7164SOL    HW132954   3.420   2.967   9.153 -1.2229 -0.6013  0.2406
 7164SOL    HW232955   3.379   2.836   9.218  0.7402 -0.9327 -1.7839
 7165SOL     OW32956   4.663   1.492   4.776 -0.2709 -0.6406  0.3104
 7165SOL    HW132957   0.022   1.450   4.806 -0.1069  0.6015  1.6152
 7165SOL    HW232958   4.603   1.419   4.788  0.1347 -1.6017 -3.5238
 7166SOL     OW32959   3.940   3.324   3.637 -0.2021  0.3012 -0.2118
 7166SOL    HW132960   3.895   3.395   3.591  0.8358  1.3796  0.4328
 7166SOL    HW232961   3.941   3.256   3.570 -1.1248  0.7118 -0.6506
 7167SOL     OW32962   2.980   2.723   4.728  0.1726  0.3733  0.1795
 7167SOL    HW132963   2.936   2.771   4.798 -1.0975 -2.1709  1.1254
 7167SOL    HW232964   2.909   2.721   4.663 -0.4484 -0.6731  0.8910
 7168SOL     OW32965   1.986   1.688  12.441 -0.2724 -0.1386  0.2628
 7168SOL    HW132966   2.025   1.698  12.354  0.0313 -1.1564  0.2783
 7168SOL    HW232967   1.896   1.721  12.434 -0.1847 -0.3935 -2.1068
 7169SOL     OW32968   0.589   0.690   2.545 -0.0332  0.3915  0.2044
 7169SOL    HW132969   0.622   0.608   2.508 -0.1868  0.7522 -0.7260
 7169SOL    HW232970   0.536   0.650   2.615 -0.8243  0.0298 -0.5964
 7170SOL     OW32971   4.183   3.405   5.627 -0.1922  0.3115  0.2990
 7170SOL    HW132972   4.215   3.494   5.640 -0.5361  0.3700  0.7494
 7170SOL    HW232973   4.179   3.381   5.720  0.2575 -0.0236  0.2316
 7171SOL     OW32974   2.535   3.070   3.808  0.1169  0.2905 -0.7088
 7171SOL    HW132975   2.592   3.043   3.737  2.1441  2.1496  0.2221
 7171SOL    HW232976   2.499   3.153   3.777 -0.0350  0.1481 -0.9151
 7172SOL     OW32977   2.392   2.286   7.087  0.0205  0.4187  0.4557
 7172SOL    HW132978   2.364   2.195   7.094  1.0360  0.0393 -0.4283
 7172SOL    HW232979   2.436   2.268   7.004 -0.9631 -1.7775  0.4112
 7173SOL     OW32980   0.899   0.089   0.693 -0.0647  0.0348 -0.3718
 7173SOL    HW132981   0.868   0.130   0.612  1.0304  2.2774  0.3636
 7173SOL    HW232982   0.986   0.127   0.681  0.7586 -1.7773 -0.2325
 7174SOL     OW32983   2.265   3.434  10.457  0.0445  0.2780  0.1918
 7174SOL    HW132984   2.191   3.474  10.502 -0.1886 -0.2200  0.2512
 7174SOL    HW232985   2.296   3.385  10.534  2.4851 -0.9669 -1.5929
 7175SOL     OW32986   2.790   2.052   1.367 -0.1108  0.2047 -0.0722
 7175SOL    HW132987   2.847   1.976   1.352  0.1233  0.0831  1.3768
 7175SOL    HW232988   2.762   2.048   1.276 -0.6312 -1.7559  0.1500
 7176SOL     OW32989   2.975   2.215  16.712  0.1042  0.6580  0.9238
 7176SOL    HW132990   2.927   2.195  16.792  0.5646 -1.4737  0.6480
 7176SOL    HW232991   2.901   2.231  16.654  0.1585 -0.2238  0.6085
 7177SOL     OW32992   0.196   0.689   1.180  0.4304 -0.4366 -0.4540
 7177SOL    HW132993   0.138   0.648   1.117  0.6991  2.3229 -2.4837
 7177SOL    HW232994   0.135   0.681   1.253  1.2644 -1.9102  0.0923
 7178SOL     OW32995   1.962   1.463   3.808 -0.4023 -0.3127  0.1789
 7178SOL    HW132996   1.928   1.548   3.837 -1.1394  0.0049 -1.6196
 7178SOL    HW232997   1.988   1.481   3.718 -0.8080 -1.0515 -0.0877
 7179SOL     OW32998   2.417   2.212   9.731  0.4500 -0.0699  0.5995
 7179SOL    HW132999   2.504   2.250   9.718  2.2545 -4.0074  1.0948
 7179SOL    HW233000   2.454   2.152   9.796 -0.3993  0.9831  2.0499
 7180SOL     OW33001   1.988   1.403   7.907 -0.7880  0.0665 -0.0263
 7180SOL    HW133002   1.966   1.320   7.864  1.4956 -0.6750  0.2062
 7180SOL    HW233003   1.929   1.396   7.982  0.0991 -0.7351  0.5940
 7181SOL     OW33004   0.608   1.008   1.117  0.4036 -0.2286 -0.1848
 7181SOL    HW133005   0.619   0.913   1.112 -2.2121 -0.5335  0.1794
 7181SOL    HW233006   0.547   1.028   1.046 -1.4726  1.3920  1.8957
 7182SOL     OW33007   3.534   3.218  14.274 -0.4227 -0.0729  0.1801
 7182SOL    HW133008   3.518   3.161  14.350  1.9632 -1.8590 -0.6656
 7182SOL    HW233009   3.457   3.271  14.255  1.6466  3.0973  0.7807
 7183SOL     OW33010   2.071   4.461   4.869  0.3526  0.2488 -0.4352
 7183SOL    HW133011   2.079   4.379   4.819 -1.7089  0.3878 -0.9893
 7183SOL    HW233012   2.164   4.477   4.882  0.0566  1.3377  0.3777
 7184SOL     OW33013   1.494   3.311   2.843 -0.0651  0.0268  0.0575
 7184SOL    HW133014   1.564   3.337   2.902 -0.0646  0.0155  0.0619
 7184SOL    HW233015   1.470   3.387   2.790 -1.5836 -0.9683 -0.7294
 7185SOL     OW33016   2.185   0.940   8.381 -0.0877  1.1154 -0.1338
 7185SOL    HW133017   2.120   1.010   8.381 -1.1893  0.0986 -0.3177
 7185SOL    HW233018   2.146   0.876   8.440  0.3464  0.6553 -0.3360
 7186SOL     OW33019   1.668   4.508   6.531  0.2096  0.4825  0.2437
 7186SOL    HW133020   1.596   4.473   6.582  0.3147  2.5347  1.8080
 7186SOL    HW233021   1.641   4.456   6.455 -0.4861 -1.3834  1.7784
 7187SOL     OW33022   3.561   1.618   4.455 -0.6588  0.3249 -0.1327
 7187SOL    HW133023   3.517   1.679   4.515  0.8631  0.1993  1.1073
 7187SOL    HW233024   3.484   1.595   4.404 -0.1102  0.6778 -1.1069
 7188SOL     OW33025   2.157   4.093  16.760 -0.1905  0.1444  0.4115
 7188SOL    HW133026   2.124   4.161  16.820 -0.7334 -0.8140  1.2055
 7188SOL    HW233027   2.096   4.112  16.689 -0.2612  0.0408  0.4437
 7189SOL     OW33028   2.878   1.927   1.775  0.2137  0.4487  0.5644
 7189SOL    HW133029   2.936   1.860   1.809  0.4462  1.2780  1.8201
 7189SOL    HW233030   2.800   1.900   1.823  0.7806 -4.3432 -1.2836
 7190SOL     OW33031   1.683   1.869   3.518 -0.1630 -0.2584  0.4957
 7190SOL    HW133032   1.694   1.962   3.542 -0.2121 -0.2419  0.4529
 7190SOL    HW233033   1.657   1.838   3.605  1.0291  1.0756  1.3369
 7191SOL     OW33034   2.110   2.365  12.382  0.2703 -0.3631  0.0258
 7191SOL    HW133035   2.056   2.435  12.346  1.1674 -0.2509 -1.0825
 7191SOL    HW233036   2.194   2.395  12.348  0.3860  0.3729  0.9507
 7192SOL     OW33037   2.333   3.908   0.598  0.6098 -0.5482 -0.3823
 7192SOL    HW133038   2.384   3.893   0.677 -0.7733 -0.2008  0.5714
 7192SOL    HW233039   2.275   3.831   0.599  0.9156 -0.7714  0.0382
 7193SOL     OW33040   1.881   0.161   9.268  0.0726  0.7583 -0.2230
 7193SOL    HW133041   1.850   0.236   9.319 -0.1622 -0.5356  1.5389
 7193SOL    HW233042   1.967   0.179   9.230 -0.4632  3.2556 -0.2248
 7194SOL     OW33043   2.686   1.306   2.824 -0.3379 -0.1017 -0.0057
 7194SOL    HW133044   2.777   1.328   2.847  0.1477 -2.8063  0.5890
 7194SOL    HW233045   2.711   1.240   2.760 -0.5150  0.5353 -0.7312
 7195SOL     OW33046   4.331   1.969   8.047 -0.0839  0.3308  0.0677
 7195SOL    HW133047   4.421   1.962   8.079 -0.0831 -1.6845 -0.3368
 7195SOL    HW233048   4.356   1.978   7.955 -0.4145 -0.4762 -0.1074
 7196SOL     OW33049   1.522   2.809   6.257 -0.3762 -0.1466 -0.7501
 7196SOL    HW133050   1.467   2.872   6.304 -0.7475 -1.7036  0.8999
 7196SOL    HW233051   1.605   2.841   6.293 -2.4898  2.0180  2.2615
 7197SOL     OW33052   3.292   3.402  14.236 -0.1156  0.0279  0.1267
 7197SOL    HW133053   3.340   3.460  14.296  0.8301  0.5347 -1.1041
 7197SOL    HW233054   3.209   3.447  14.221  0.5076  0.3953 -2.2875
 7198SOL     OW33055   3.166   1.179   2.166 -0.2112  0.0616 -0.0889
 7198SOL    HW133056   3.234   1.114   2.148 -0.2236 -0.0494  0.2536
 7198SOL    HW233057   3.096   1.117   2.185  1.5771 -2.0161 -0.2889
 7199SOL     OW33058   2.610   4.653   6.578 -0.0697 -0.7278  0.4875
 7199SOL    HW133059   2.547   4.718   6.609 -1.1031 -0.6582 -1.7720
 7199SOL    HW233060   2.647   4.701   6.504  0.1207 -1.9507 -0.2083
 7200SOL     OW33061   1.139   1.121  13.792  0.2407 -0.1081  0.1053
 7200SOL    HW133062   1.059   1.094  13.746  0.7954 -0.4805 -0.6519
 7200SOL    HW233063   1.121   1.114  13.886 -1.6469  1.4401 -0.1519
 7201SOL     OW33064   2.684   2.540  16.239  0.0944 -0.0883  0.0408
 7201SOL    HW133065   2.745   2.571  16.306 -0.3749  0.6986  0.1163
 7201SOL    HW233066   2.631   2.619  16.224 -0.6130 -0.2418  1.6436
 7202SOL     OW33067   2.605   3.563  15.710  0.0528  0.5541  0.0002
 7202SOL    HW133068   2.576   3.479  15.745  1.3421  0.3333  0.5267
 7202SOL    HW233069   2.699   3.550  15.701  0.0970  0.7376  0.2038
 7203SOL     OW33070   0.856   0.296   4.863  0.2314  0.0739 -0.6055
 7203SOL    HW133071   0.945   0.279   4.893 -0.1313 -0.6404  0.0505
 7203SOL    HW233072   0.807   0.254   4.933 -0.0032 -0.9751 -1.3920
 7204SOL     OW33073   2.173   3.140   1.377  0.3821  0.1898  0.7333
 7204SOL    HW133074   2.122   3.207   1.423 -2.0278 -2.0346  1.2983
 7204SOL    HW233075   2.220   3.203   1.322  2.5365 -3.1579 -1.2526
 7205SOL     OW33076   2.926   4.119  16.556  0.0722 -0.5029 -0.1819
 7205SOL    HW133077   3.017   4.122  16.585  0.2336 -0.7038 -0.6657
 7205SOL    HW233078   2.931   4.148  16.465  1.3183 -1.8809 -0.5623
 7206SOL     OW33079   3.352   1.652   0.920 -0.0973  0.3868 -0.8441
 7206SOL    HW133080   3.271   1.616   0.884 -0.8626 -0.2468  1.4740
 7206SOL    HW233081   3.400   1.574   0.946  0.0238  0.9823  0.7836
 7207SOL     OW33082   2.044   3.970   3.223  0.1147  0.5542 -0.0595
 7207SOL    HW133083   1.961   3.945   3.263  0.2583 -0.6824 -0.5444
 7207SOL    HW233084   2.019   4.037   3.159  1.2361 -1.4792 -2.6267
 7208SOL     OW33085   1.120   3.838   6.037 -0.1180 -0.1601  0.0383
 7208SOL    HW133086   1.092   3.901   5.970 -0.0252  0.5651  0.6925
 7208SOL    HW233087   1.131   3.760   5.983 -0.4687 -2.0249  2.6684
 7209SOL     OW33088   1.887   1.466  14.845 -0.1674  0.3736 -0.7983
 7209SOL    HW133089   1.879   1.398  14.912  0.7372 -0.8518 -1.9512
 7209SOL    HW233090   1.845   1.422  14.772  0.1647 -0.3683 -0.5450
 7210SOL     OW33091   1.802   2.887   0.295 -0.6654  0.2587 -0.0720
 7210SOL    HW133092   1.756   2.825   0.351  1.3897 -2.0376 -0.9329
 7210SOL    HW233093   1.826   2.960   0.353 -0.3590 -0.9507  1.3096
 7211SOL     OW33094   3.327   2.895  14.058  0.1342  0.2058  0.2326
 7211SOL    HW133095   3.367   2.834  13.997  0.5120  0.3178  0.3708
 7211SOL    HW233096   3.296   2.960  13.994  0.7460  1.4509  1.1971
 7212SOL     OW33097   1.372   0.595   2.654  0.3424  0.2986 -0.0426
 7212SOL    HW133098   1.291   0.559   2.689 -0.2559  0.7674 -0.9251
 7212SOL    HW233099   1.429   0.519   2.665  1.3225  1.1230  0.5321
 7213SOL     OW33100   3.707   1.542   7.580 -0.3763 -0.2380  0.4673
 7213SOL    HW133101   3.677   1.455   7.607  1.9983 -1.3481 -0.4611
 7213SOL    HW233102   3.763   1.519   7.506 -2.4917 -1.1635 -0.8361
 7214SOL     OW33103   4.608   1.872   8.173  0.0247  0.6721 -0.1619
 7214SOL    HW133104   4.649   1.958   8.165  0.3693  0.5134 -0.1390
 7214SOL    HW233105   4.630   1.845   8.262  1.2240 -1.2572 -1.0241
 7215SOL     OW33106   1.939   4.709  10.241  0.1434  0.1065  0.0515
 7215SOL    HW133107   1.951   0.068  10.191 -0.1990  0.2262  0.1580
 7215SOL    HW233108   2.005   0.005  10.308 -0.8975 -0.7496  1.3168
 7216SOL     OW33109   0.315   2.821   4.335  0.0880  0.2077  0.4717
 7216SOL    HW133110   0.259   2.879   4.284  1.5508  1.7819  0.6622
 7216SOL    HW233111   0.390   2.879   4.341 -0.6399  1.2827 -0.8748
 7217SOL     OW33112   2.060   3.420   2.272  0.6803  0.3021  0.4730
 7217SOL    HW133113   2.058   3.489   2.207  3.1678  0.3623  0.4470
 7217SOL    HW233114   2.091   3.473   2.346 -0.8014  2.1290 -0.2129
 7218SOL     OW33115   3.000   2.953  12.177 -0.4437  0.4151 -0.1654
 7218SOL    HW133116   2.937   3.009  12.132 -1.6922 -0.2829  0.7150
 7218SOL    HW233117   2.988   2.968  12.271 -2.1242  1.8790 -0.6178
 7219SOL     OW33118   1.088   2.045   0.791 -0.9137 -0.1554  0.4421
 7219SOL    HW133119   1.162   1.984   0.795  0.6904  1.7500 -0.2676
 7219SOL    HW233120   1.046   2.019   0.873 -0.8987 -0.8700  0.2248
 7220SOL     OW33121   4.451   0.000   4.121  0.0231  0.0733 -0.5958
 7220SOL    HW133122   4.390   4.664   4.165  0.3973  0.7094  0.7439
 7220SOL    HW233123   4.442   0.081   4.172  0.8782 -0.9269  1.1176
 7221SOL     OW33124   3.346   0.530   2.626 -0.5496 -0.2240  0.5673
 7221SOL    HW133125   3.314   0.612   2.665 -1.4599 -0.5102  0.4297
 7221SOL    HW233126   3.265   0.480   2.622 -0.1618 -0.7886 -0.1005
 7222SOL     OW33127   1.880   2.589   3.694  0.0892 -0.5913  0.3288
 7222SOL    HW133128   1.789   2.568   3.675 -0.4539  1.2057  0.9941
 7222SOL    HW233129   1.888   2.584   3.789  0.3525  0.5318  0.3613
 7223SOL     OW33130   4.082   3.544  16.914  0.4336  0.3641 -0.2531
 7223SOL    HW133131   4.149   3.535  16.847 -0.2014  0.4723 -0.9016
 7223SOL    HW233132   4.003   3.537  16.862 -0.6704 -1.7387  1.7134
 7224SOL     OW33133   1.874   4.575  13.849 -0.3797  0.2023 -0.5102
 7224SOL    HW133134   1.879   4.617  13.934  2.4355 -0.3714 -0.4051
 7224SOL    HW233135   1.809   4.507  13.869 -1.2183  0.6703 -1.6054
 7225SOL     OW33136   0.247   3.008   5.358 -0.1682 -0.3064  0.3923
 7225SOL    HW133137   0.257   3.076   5.291  1.3927  1.0283  1.9854
 7225SOL    HW233138   0.165   3.027   5.403 -0.0565 -0.9003  0.8566
 7226SOL     OW33139   3.372   3.068  15.354 -0.2340 -0.0561 -0.4729
 7226SOL    HW133140   3.296   3.064  15.296 -0.6396  0.6068  0.0125
 7226SOL    HW233141   3.431   3.122  15.302  2.1856 -1.0741  1.2039
 7227SOL     OW33142   1.482   3.570   3.020 -0.0494  0.2240  0.4749
 7227SOL    HW133143   1.449   3.558   2.931  3.4409  1.0822 -0.9569
 7227SOL    HW233144   1.534   3.649   3.003  0.1638 -0.0595 -0.1763
 7228SOL     OW33145   0.796   1.127  10.924  0.1914 -0.1507 -0.0627
 7228SOL    HW133146   0.757   1.086  11.001  0.9320 -0.6107  0.0658
 7228SOL    HW233147   0.879   1.156  10.962  0.2893  0.1336 -0.4931
 7229SOL     OW33148   2.883   2.354   5.663  0.3631 -0.4012 -0.0480
 7229SOL    HW133149   2.885   2.449   5.658  1.2459 -0.4041  0.2292
 7229SOL    HW233150   2.918   2.346   5.574 -1.2792 -0.7185 -0.6691
 7230SOL     OW33151   3.396   1.955  12.253  0.3443 -0.2965  0.6994
 7230SOL    HW133152   3.306   1.973  12.222  0.1426 -0.1998  1.3489
 7230SOL    HW233153   3.446   2.022  12.206  0.1736 -0.4542  0.2864
 7231SOL     OW33154   3.387   3.007   6.953  0.3087  0.3293  0.1137
 7231SOL    HW133155   3.388   3.040   7.043 -1.2648  0.9734 -0.1102
 7231SOL    HW233156   3.339   2.925   6.959  0.8958  0.0379  0.8174
 7232SOL     OW33157   0.758   0.487   8.219  0.4127 -0.4113  0.1903
 7232SOL    HW133158   0.853   0.491   8.208  0.4294 -3.2740 -0.6894
 7232SOL    HW233159   0.746   0.541   8.297  1.2531 -2.2628  1.6240
 7233SOL     OW33160   1.897   4.133   4.398  0.3714  0.3525 -0.2990
 7233SOL    HW133161   1.910   4.144   4.304 -1.6372 -1.8407 -0.8457
 7233SOL    HW233162   1.978   4.162   4.440  1.0496 -0.6384 -0.9116
 7234SOL     OW33163   3.396   3.474  17.458  0.3404  0.4620 -0.2252
 7234SOL    HW133164   3.342   3.431  17.392 -1.9464 -0.3222  2.1349
 7234SOL    HW233165   3.376   3.566  17.446  0.0400  0.7295  2.1694
 7235SOL     OW33166   3.570   3.392   0.372  0.0593 -0.1407  0.1483
 7235SOL    HW133167   3.596   3.350   0.454  0.1621 -2.1934 -0.9289
 7235SOL    HW233168   3.526   3.315   0.338  0.8853 -0.5881  0.1011
 7236SOL     OW33169   0.069   2.102   5.669  0.0994 -0.0784 -0.4159
 7236SOL    HW133170   0.087   2.169   5.602  1.0735 -1.0853 -1.1702
 7236SOL    HW233171   0.139   2.038   5.653  0.6218  0.8199 -1.7483
 7237SOL     OW33172   2.122   0.378   7.037  0.1587  0.3673 -0.4604
 7237SOL    HW133173   2.117   0.465   7.077 -2.7198 -0.1795  0.3543
 7237SOL    HW233174   2.040   0.382   6.987  0.5206  0.1098 -1.0831
 7238SOL     OW33175   0.544   2.100   3.146  0.5062 -0.2174 -0.0888
 7238SOL    HW133176   0.507   2.085   3.233  0.2539 -1.0632 -0.3510
 7238SOL    HW233177   0.571   2.009   3.137  0.0692 -0.2803 -0.7062
 7239SOL     OW33178   1.671   4.487   5.764  0.3997  0.0692  0.7378
 7239SOL    HW133179   1.635   4.567   5.804  1.0598  1.2659 -1.0707
 7239SOL    HW233180   1.744   4.530   5.719 -1.0934  1.9120  0.0792
 7240SOL     OW33181   2.633   0.316   4.510  0.1791 -0.3795  0.1279
 7240SOL    HW133182   2.581   0.246   4.470 -1.3088  1.9111 -1.9331
 7240SOL    HW233183   2.719   0.303   4.471  1.2165  1.8395  1.6898
 7241SOL     OW33184   4.287   1.104   2.978 -0.1874 -0.5674 -0.2702
 7241SOL    HW133185   4.329   1.123   2.894 -2.3442 -3.0343 -1.9560
 7241SOL    HW233186   4.353   1.046   3.016 -0.8172  0.1463  1.9159
 7242SOL     OW33187   0.580   2.351  11.189 -0.5408 -0.3069  0.4073
 7242SOL    HW133188   0.554   2.269  11.232 -1.9106 -0.6304 -1.0235
 7242SOL    HW233189   0.618   2.305  11.114 -0.9620 -2.1018  1.2745
 7243SOL     OW33190   1.116   2.734   4.689  0.1491 -0.2345 -0.6544
 7243SOL    HW133191   1.194   2.703   4.643  0.8963 -1.2903  1.2900
 7243SOL    HW233192   1.052   2.676   4.647 -0.2723 -2.1251  2.5658
 7244SOL     OW33193   2.966   0.709   7.277  0.0389  0.3970 -0.3348
 7244SOL    HW133194   2.882   0.752   7.290  1.0599  1.7730  1.7660
 7244SOL    HW233195   2.958   0.670   7.190 -2.0690  0.4295 -0.1542
 7245SOL     OW33196   4.436   2.865   0.329 -0.1855 -0.7177 -0.0882
 7245SOL    HW133197   4.405   2.882   0.418  0.5183  2.1325 -0.3702
 7245SOL    HW233198   4.451   2.954   0.295  1.6503 -1.5912 -1.5732
 7246SOL     OW33199   1.060   4.393   0.218  0.0917 -0.2528  0.4228
 7246SOL    HW133200   1.052   4.484   0.190  1.8889 -0.4418 -0.6471
 7246SOL    HW233201   1.149   4.387   0.254  0.8229  2.1381 -1.0058
 7247SOL     OW33202   0.054   3.981   8.013  0.0927  0.5492  0.6021
 7247SOL    HW133203   0.123   4.014   7.954  1.0278 -1.6230  0.4751
 7247SOL    HW233204   0.071   3.887   8.020  0.8107  0.7243  1.2409
 7248SOL     OW33205   2.950   0.501  12.809 -0.0744  0.1116 -0.3507
 7248SOL    HW133206   3.012   0.571  12.785 -1.7460  1.4856 -0.7031
 7248SOL    HW233207   2.863   0.534  12.784  0.3758  1.7051  0.1641
 7249SOL     OW33208   1.382   0.165   3.408  0.0736  0.3236  0.5292
 7249SOL    HW133209   1.357   0.246   3.362 -0.8361 -0.4033 -0.2683
 7249SOL    HW233210   1.378   0.106   3.333  1.9048 -0.6152  1.1761
 7250SOL     OW33211   1.360   2.957   4.703 -0.1797  0.1589  0.2562
 7250SOL    HW133212   1.411   2.876   4.698 -0.0733  0.1850  0.8820
 7250SOL    HW233213   1.406   3.005   4.635 -1.6722  0.3077 -0.6483
 7251SOL     OW33214   1.361   1.777  15.468  0.1981  0.3382 -0.0075
 7251SOL    HW133215   1.387   1.750  15.556  0.2968  1.3865  0.2887
 7251SOL    HW233216   1.441   1.801  15.422  0.6741  0.3930  0.8491
 7252SOL     OW33217   4.292   4.148   7.337 -0.4712 -0.8206  0.1989
 7252SOL    HW133218   4.268   4.215   7.273  0.8108 -0.3206  0.2345
 7252SOL    HW233219   4.266   4.178   7.424  2.4991  0.0644  0.7734
 7253SOL     OW33220   3.357   3.277  14.979 -0.0699  0.2035  0.0866
 7253SOL    HW133221   3.271   3.235  14.989 -1.0464  2.2300  0.3293
 7253SOL    HW233222   3.332   3.358  14.934 -2.6502 -1.1365 -0.8541
 7254SOL     OW33223   2.939   2.381   3.276  0.2310  0.2580  0.3176
 7254SOL    HW133224   2.926   2.433   3.197  1.4771  0.4352  0.2440
 7254SOL    HW233225   2.995   2.310   3.245  1.9045  0.9607  1.7688
 7255SOL     OW33226   2.283   2.657   1.943 -0.3707 -0.4488 -0.0768
 7255SOL    HW133227   2.279   2.573   1.897 -0.4596 -0.8915  0.7407
 7255SOL    HW233228   2.319   2.709   1.871 -1.2321 -0.3174 -0.4130
 7256SOL     OW33229   1.302   0.649  15.106 -0.4006 -0.4611 -0.0801
 7256SOL    HW133230   1.329   0.729  15.062 -1.9794 -0.4104 -0.9560
 7256SOL    HW233231   1.376   0.593  15.083 -0.8014 -1.2819  0.6195
 7257SOL     OW33232   0.491   3.844   0.949  0.3684 -0.2723 -0.2655
 7257SOL    HW133233   0.557   3.775   0.953  0.7803  0.2578  2.0697
 7257SOL    HW233234   0.433   3.809   0.881  0.5013 -2.4182  0.7109
 7258SOL     OW33235   0.531   2.146   4.616 -0.8502 -0.2440 -0.6826
 7258SOL    HW133236   0.505   2.206   4.546  1.1063  0.3699 -0.8808
 7258SOL    HW233237   0.589   2.099   4.557  1.2183 -0.5842  1.6502
 7259SOL     OW33238   2.656   2.774   2.091 -0.2260 -0.0026 -0.7531
 7259SOL    HW133239   2.676   2.796   2.000 -0.5960 -0.1971 -0.8829
 7259SOL    HW233240   2.563   2.797   2.103 -0.0290  0.9561 -1.0517
 7260SOL     OW33241   3.486   4.291  14.321 -0.3206  0.1791 -0.1776
 7260SOL    HW133242   3.526   4.204  14.318  0.2485  0.4330  0.1317
 7260SOL    HW233243   3.395   4.261  14.330 -0.4164  1.3318  2.6330
 7261SOL     OW33244   3.324   3.856   9.435 -0.1218  0.4502  0.0958
 7261SOL    HW133245   3.323   3.760   9.433  2.2858  0.4316  0.6185
 7261SOL    HW233246   3.244   3.869   9.384 -0.8241 -0.7715  0.8796
 7262SOL     OW33247   0.376   1.719   3.129  0.1751 -0.2920  0.0550
 7262SOL    HW133248   0.311   1.703   3.196  1.4357 -3.2660  0.5706
 7262SOL    HW233249   0.323   1.751   3.056  2.5726 -1.9215 -2.4081
 7263SOL     OW33250   4.492   4.405   7.560  0.2171 -0.2390  0.1273
 7263SOL    HW133251   4.398   4.391   7.548  0.2527  1.5048 -2.1673
 7263SOL    HW233252   4.532   4.359   7.487 -0.2784 -1.2693  0.5145
 7264SOL     OW33253   3.029   2.967   0.036  0.0164  0.4262 -0.4569
 7264SOL    HW133254   2.986   2.887   0.066  0.2984  0.0964 -0.9352
 7264SOL    HW233255   3.102   2.980   0.097 -0.2330 -0.6283  0.0544
 7265SOL     OW33256   0.815   0.439   1.237  0.1381  0.5451  0.5431
 7265SOL    HW133257   0.751   0.430   1.166  0.3701 -0.3762  0.4589
 7265SOL    HW233258   0.764   0.469   1.313 -0.8688  0.8306 -0.2303
 7266SOL     OW33259   1.641   4.274  12.451  0.1455 -0.0426 -0.1142
 7266SOL    HW133260   1.599   4.206  12.399  0.6626 -2.7235  2.9822
 7266SOL    HW233261   1.674   4.335  12.386  0.4989  1.9945  1.9691
 7267SOL     OW33262   4.237   2.670  13.517  0.5894  0.5803 -0.1857
 7267SOL    HW133263   4.217   2.758  13.486 -1.1801  1.2356  2.7212
 7267SOL    HW233264   4.332   2.668  13.506  0.2868  1.3194 -2.8998
 7268SOL     OW33265   0.937   3.492  15.815 -0.0730  0.1442  0.3323
 7268SOL    HW133266   0.882   3.484  15.737 -0.0625 -0.0932  0.3476
 7268SOL    HW233267   1.018   3.506  15.766 -0.0110  1.2146  0.7515
 7269SOL     OW33268   4.316   2.232  14.404  1.3270 -0.4942  0.2382
 7269SOL    HW133269   4.370   2.153  14.411  1.6097 -0.4228 -1.2250
 7269SOL    HW233270   4.363   2.294  14.459 -0.7167 -0.0023  1.4376
 7270SOL     OW33271   1.935   4.213   3.392  0.1148 -0.1791  0.2329
 7270SOL    HW133272   1.932   4.145   3.325 -3.5425 -0.8406  1.0613
 7270SOL    HW233273   1.843   4.224   3.414 -0.8452 -0.6523 -3.6345
 7271SOL     OW33274   3.535   3.650   5.208  0.1645  0.3640  0.3329
 7271SOL    HW133275   3.538   3.557   5.227  1.3931 -0.0840 -2.0347
 7271SOL    HW233276   3.449   3.653   5.166  1.2268 -0.8022 -1.9257
 7272SOL     OW33277   1.081   0.538  14.969 -0.0926  0.1584 -0.1958
 7272SOL    HW133278   1.046   0.626  14.953  0.3017  0.6130  1.4410
 7272SOL    HW233279   1.145   0.569  15.033  0.2460 -0.0092 -0.4556
 7273SOL     OW33280   0.293   4.445  11.999 -0.7030  0.2724 -0.0804
 7273SOL    HW133281   0.211   4.412  12.037 -1.6615 -0.7928 -3.0458
 7273SOL    HW233282   0.259   4.533  11.983 -0.3428 -0.0651 -2.6845
 7274SOL     OW33283   3.462   3.650   0.190  0.4444  0.3079  0.0504
 7274SOL    HW133284   3.508   3.660   0.273 -0.7327  2.3019  0.4766
 7274SOL    HW233285   3.517   3.592   0.138  0.0693  1.0888 -1.2171
 7275SOL     OW33286   4.637   4.400  15.122 -0.5564 -0.3006  0.9770
 7275SOL    HW133287   4.572   4.340  15.084  0.3415  0.2775 -1.4479
 7275SOL    HW233288   4.587   4.448  15.188 -2.1435 -2.1408  1.1305
 7276SOL     OW33289   2.867   2.959  15.377  0.6753  0.2136 -0.0634
 7276SOL    HW133290   2.913   3.043  15.368  0.9597  0.1541  0.8488
 7276SOL    HW233291   2.791   2.975  15.433  0.1460 -3.2777  0.1805
 7277SOL     OW33292   3.283   0.534   2.201 -0.2153 -0.3168 -0.2759
 7277SOL    HW133293   3.233   0.616   2.207  0.2063 -0.0108 -0.9272
 7277SOL    HW233294   3.233   0.484   2.136  1.1059 -0.3315 -1.2715
 7278SOL     OW33295   1.269   3.682   6.648  0.4634  0.0388  0.1307
 7278SOL    HW133296   1.249   3.607   6.704  3.1638 -0.4714  0.3710
 7278SOL    HW233297   1.364   3.693   6.651  0.6396 -2.0929  2.3894
 7279SOL     OW33298   1.778   3.732   8.471  0.0358 -0.2922  0.1510
 7279SOL    HW133299   1.714   3.751   8.540 -0.4859 -0.8473 -0.1854
 7279SOL    HW233300   1.752   3.791   8.400  1.6246 -0.0609 -0.2368
 7280SOL     OW33301   4.595   0.137   9.808  0.0338  0.6534  0.1243
 7280SOL    HW133302   4.654   0.207   9.777  0.7994  0.5816  1.4431
 7280SOL    HW233303   4.563   0.169   9.892 -0.2406  0.4227  0.1057
 7281SOL     OW33304   1.340   0.369   1.795 -0.0156 -0.0364  0.6698
 7281SOL    HW133305   1.284   0.312   1.742  0.7198 -0.9727  0.9119
 7281SOL    HW233306   1.280   0.442   1.813 -0.5827  0.1579 -1.9873
 7282SOL     OW33307   0.827   2.938   2.443  0.0548 -0.4777  0.2178
 7282SOL    HW133308   0.916   2.973   2.448  0.1747 -1.1411  2.4729
 7282SOL    HW233309   0.802   2.966   2.355 -3.2038  0.9219  1.5845
 7283SOL     OW33310   4.013   0.250   8.054 -0.7589 -0.1593 -0.2429
 7283SOL    HW133311   4.108   0.253   8.038 -0.2599  1.2500  2.9421
 7283SOL    HW233312   3.998   0.169   8.006 -1.6335 -1.1670  1.7738
 7284SOL     OW33313   3.733   2.089   7.220 -0.0977 -0.4793  0.6492
 7284SOL    HW133314   3.736   2.049   7.306 -2.5956  1.7301  1.7667
 7284SOL    HW233315   3.791   2.025   7.179 -0.6548 -0.3920 -0.2836
 7285SOL     OW33316   0.242   4.070   8.513 -0.0528 -0.4796 -0.9256
 7285SOL    HW133317   0.187   4.025   8.577 -2.4081 -0.3273 -2.8787
 7285SOL    HW233318   0.292   4.132   8.567 -0.8870 -0.9802  0.4294
 7286SOL     OW33319   3.880   4.665  17.178 -0.2231 -0.0494 -0.0945
 7286SOL    HW133320   3.818   4.592  17.179 -1.3431  0.9044 -0.6592
 7286SOL    HW233321   3.887   4.690  17.086  0.1713  0.2439  0.0135
 7287SOL     OW33322   4.154   4.287  11.066  0.0527 -0.1664 -0.3101
 7287SOL    HW133323   4.185   4.250  10.984  4.0563  1.0202  0.6591
 7287SOL    HW233324   4.236   4.321  11.101 -0.5911  1.3176 -0.2590
 7288SOL     OW33325   4.038   1.964   3.948 -0.4342  0.1411  0.1261
 7288SOL    HW133326   3.972   1.946   3.881 -0.5852 -1.6082  0.7617
 7288SOL    HW233327   4.072   2.051   3.926 -1.5365  0.6132  0.3094
 7289SOL     OW33328   3.239   2.454   4.291  0.2977 -0.2172  0.0429
 7289SOL    HW133329   3.180   2.471   4.217  0.9866 -1.9647 -0.9214
 7289SOL    HW233330   3.216   2.535   4.337 -0.4722 -0.0094 -0.6868
 7290SOL     OW33331   3.445   2.219   1.681 -0.0639  0.9775  0.2262
 7290SOL    HW133332   3.504   2.278   1.634  0.6096 -1.0651 -1.5104
 7290SOL    HW233333   3.384   2.203   1.609  1.3282  0.5338 -0.8685
 7291SOL     OW33334   4.107   0.693   7.046  0.0005  0.8585 -0.0995
 7291SOL    HW133335   4.021   0.727   7.020 -0.6577 -0.7428  0.0267
 7291SOL    HW233336   4.085   0.628   7.112  0.9072  0.6026 -0.0534
 7292SOL     OW33337   4.504   0.619   5.208  0.1448 -0.1016  0.0868
 7292SOL    HW133338   4.504   0.705   5.165  1.0359  0.3110  0.9180
 7292SOL    HW233339   4.503   0.564   5.129  2.5760 -0.1371  0.0797
 7293SOL     OW33340   4.367   0.385  14.968  0.4263  0.6699 -0.6063
 7293SOL    HW133341   4.329   0.358  14.884 -1.0648  2.2295 -0.4544
 7293SOL    HW233342   4.370   0.481  14.972  2.0971  0.5823 -0.0640
 7294SOL     OW33343   4.480   0.377  13.702 -0.3381 -0.1961  0.2430
 7294SOL    HW133344   4.506   0.433  13.776  1.1132 -1.5014  0.7214
 7294SOL    HW233345   4.472   0.439  13.630 -1.6111  0.5300  1.0086
 7295SOL     OW33346   2.083   0.500   6.741 -0.1851  0.4695  0.6281
 7295SOL    HW133347   2.017   0.481   6.807  0.3248 -0.6851  0.8084
 7295SOL    HW233348   2.132   0.574   6.778  0.7727  0.8288 -1.3389
 7296SOL     OW33349   2.229   1.374   3.519  0.0604  0.1240 -0.7838
 7296SOL    HW133350   2.208   1.452   3.570 -0.7724 -0.9403  0.4983
 7296SOL    HW233351   2.256   1.312   3.587 -0.9021 -1.1514 -1.5574
 7297SOL     OW33352   3.696   1.114   5.832 -0.6514  0.0099 -0.0738
 7297SOL    HW133353   3.646   1.196   5.831  0.4980  0.7106  1.5506
 7297SOL    HW233354   3.664   1.070   5.910  0.3461  2.4608  1.7217
 7298SOL     OW33355   2.559   0.304   2.737 -0.4335  0.2896 -0.1486
 7298SOL    HW133356   2.588   0.366   2.669  1.4277 -1.5226 -1.0056
 7298SOL    HW233357   2.611   0.229   2.708 -1.7844 -0.3274 -0.9944
 7299SOL     OW33358   2.136   3.417   9.898  0.0146 -0.2411 -0.0226
 7299SOL    HW133359   2.073   3.380   9.960  1.4833 -1.4005  0.7770
 7299SOL    HW233360   2.121   3.507   9.928 -1.8989 -1.1792  1.8219
 7300SOL     OW33361   2.435   0.224   7.559 -0.4717 -0.3927  0.4755
 7300SOL    HW133362   2.480   0.198   7.479 -1.7764 -0.9254 -0.0942
 7300SOL    HW233363   2.484   0.293   7.603 -1.3991  0.7896 -0.3242
 7301SOL     OW33364   0.432   1.492   8.420 -0.0221 -0.3525  0.1240
 7301SOL    HW133365   0.374   1.524   8.489  1.7097 -2.3199  2.4900
 7301SOL    HW233366   0.365   1.487   8.352 -0.0576 -0.8427  0.1991
 7302SOL     OW33367   4.310   1.178  16.729 -0.6747 -0.3166 -0.2803
 7302SOL    HW133368   4.270   1.216  16.651 -0.3755 -1.1707 -0.8490
 7302SOL    HW233369   4.264   1.094  16.735 -2.2433  0.4846 -0.9838
 7303SOL     OW33370   0.067   0.680   8.906  0.1377  0.2543  0.5422
 7303SOL    HW133371   0.146   0.732   8.886  0.5203 -1.1638 -1.6146
 7303SOL    HW233372   0.065   0.631   8.823  0.1168  0.3050  0.5127
 7304SOL     OW33373   1.969   2.545  12.605  0.2470  0.2314  0.1615
 7304SOL    HW133374   1.961   2.604  12.680 -0.8961  2.0932 -1.4102
 7304SOL    HW233375   1.966   2.601  12.527  1.0841 -0.0864 -0.0963
 7305SOL     OW33376   3.396   1.357   4.951  0.0374 -0.7023  0.5158
 7305SOL    HW133377   3.448   1.289   4.993  1.0988 -0.6933 -0.8056
 7305SOL    HW233378   3.447   1.377   4.872  1.3992 -1.2039  1.2705
 7306SOL     OW33379   2.512   4.619   8.685  0.3664  0.0839  0.3801
 7306SOL    HW133380   2.472   4.684   8.743 -1.0224 -1.3456  0.9905
 7306SOL    HW233381   2.511   4.675   8.608 -1.1254  1.2001  1.2236
 7307SOL     OW33382   0.953   1.382  17.652  0.4403  0.1284  0.1638
 7307SOL    HW133383   0.885   1.317  17.670  1.1975 -0.4227  1.0482
 7307SOL    HW233384   0.934   1.449   0.027  0.9562  0.2514  0.1846
 7308SOL     OW33385   1.791   3.496   6.462  0.0426  0.3214 -0.0343
 7308SOL    HW133386   1.709   3.525   6.422 -0.4100 -0.5355  0.2762
 7308SOL    HW233387   1.850   3.527   6.392  1.4147  1.0457  1.4360
 7309SOL     OW33388   1.144   0.135  11.248  0.1530  0.7351 -0.2323
 7309SOL    HW133389   1.089   0.172  11.316 -0.7517  0.8048 -0.9999
 7309SOL    HW233390   1.106   0.171  11.168  2.6255  3.3060 -0.2330
 7310SOL     OW33391   0.240   2.961   2.400  0.0801 -0.3039  0.2416
 7310SOL    HW133392   0.326   2.944   2.362 -0.8061 -0.5905 -1.6481
 7310SOL    HW233393   0.191   2.992   2.325  0.3422 -0.6412 -0.0675
 7311SOL     OW33394   1.869   4.580   1.102 -0.5044  0.6184 -0.2627
 7311SOL    HW133395   1.865   4.658   1.046  1.0229  1.7404  1.2166
 7311SOL    HW233396   1.964   4.585   1.111 -0.5503 -2.7657  2.0919
 7312SOL     OW33397   1.108   3.816   9.298  0.2334 -0.2776 -0.3499
 7312SOL    HW133398   1.170   3.748   9.272  0.7788  0.8241 -1.9186
 7312SOL    HW233399   1.030   3.777   9.258  1.1773 -0.3248 -2.1482
 7313SOL     OW33400   1.714   3.732   6.287  0.2177  0.2666  0.2364
 7313SOL    HW133401   1.715   3.825   6.262 -0.1885  0.6119  1.4891
 7313SOL    HW233402   1.771   3.698   6.218 -0.3957  1.3332 -0.7876
 7314SOL     OW33403   0.321   0.287   2.566 -0.7759  0.3629 -0.2137
 7314SOL    HW133404   0.340   0.225   2.636 -3.0462  0.4827  0.5074
 7314SOL    HW233405   0.277   0.234   2.499  0.4693 -0.6408 -0.2546
 7315SOL     OW33406   1.649   4.173   0.535 -0.1794 -0.4674  0.3717
 7315SOL    HW133407   1.677   4.120   0.460  1.2922  0.4279  0.2862
 7315SOL    HW233408   1.690   4.111   0.596  0.2923 -1.6603 -1.1691
 7316SOL     OW33409   2.445   3.367   6.212 -0.2567  0.8465  0.0563
 7316SOL    HW133410   2.493   3.365   6.295  0.3131 -2.1937 -0.3386
 7316SOL    HW233411   2.432   3.462   6.204 -0.4707  0.5488 -3.3165
 7317SOL     OW33412   2.569   0.550   5.312 -0.5332 -0.4305  0.3198
 7317SOL    HW133413   2.497   0.544   5.249  0.1248 -0.5159 -0.4120
 7317SOL    HW233414   2.601   0.640   5.307  0.7704 -0.8999  0.2233
 7318SOL     OW33415   1.673   2.274   1.431  0.6202 -0.6727 -0.6179
 7318SOL    HW133416   1.623   2.269   1.350 -1.3960 -0.4803  0.5844
 7318SOL    HW233417   1.655   2.363   1.460 -1.3470 -1.0146 -0.7613
 7319SOL     OW33418   0.781   0.384   7.268 -0.1473 -0.1022 -0.6072
 7319SOL    HW133419   0.711   0.438   7.230 -0.9108 -0.1708  0.7016
 7319SOL    HW233420   0.737   0.316   7.318 -1.4120  0.9843 -0.2280
 7320SOL     OW33421   4.249   0.953   7.459 -0.0733 -0.4769 -0.5583
 7320SOL    HW133422   4.257   0.895   7.384  2.5538  0.1874 -0.7700
 7320SOL    HW233423   4.189   1.022   7.433  1.1960 -0.0979 -2.4561
 7321SOL     OW33424   4.433   2.998   3.503 -0.4154 -0.4947  0.5174
 7321SOL    HW133425   4.471   3.019   3.418 -0.3185 -0.7589  0.4941
 7321SOL    HW233426   4.341   2.976   3.490  0.1980 -1.4314 -2.3337
 7322SOL     OW33427   0.726   2.734  11.059  0.1023  0.1343 -0.1968
 7322SOL    HW133428   0.785   2.808  11.045  1.9259 -1.2056  0.3432
 7322SOL    HW233429   0.770   2.675  11.120 -0.2363 -1.3477 -1.3891
 7323SOL     OW33430   3.027   0.335   7.705  0.6952 -0.1135  0.3330
 7323SOL    HW133431   3.043   0.380   7.789 -0.5311  2.3662 -0.7722
 7323SOL    HW233432   3.070   0.399   7.648  0.7495  0.7802  1.3696
 7324SOL     OW33433   4.019   4.037   6.090  0.3427 -0.5940  0.2254
 7324SOL    HW133434   3.946   3.978   6.112 -0.0576  0.2735  1.2465
 7324SOL    HW233435   3.969   4.090   6.027  1.3406 -1.2151 -1.0825
 7325SOL     OW33436   1.414   1.143   9.188  0.2023 -0.2069  0.2821
 7325SOL    HW133437   1.342   1.080   9.182  0.3262 -0.1254 -2.2435
 7325SOL    HW233438   1.407   1.190   9.105  0.8498  2.7737  1.9246
 7326SOL     OW33439   2.730   0.877   6.887 -1.2304 -0.0780 -0.1124
 7326SOL    HW133440   2.722   0.851   6.795 -0.7306  0.6126 -0.3549
 7326SOL    HW233441   2.715   0.791   6.925 -0.7142  0.0478  0.3719
 7327SOL     OW33442   1.270   4.491   4.184 -0.2139  0.1227 -0.1221
 7327SOL    HW133443   1.339   4.541   4.142 -0.7003  0.0332 -1.0140
 7327SOL    HW233444   1.321   4.414   4.212 -0.5259 -0.2884 -0.6854
 7328SOL     OW33445   4.661   0.939   4.740 -0.0978  0.1766  0.4161
 7328SOL    HW133446   4.682   1.009   4.802 -0.6371 -0.6967  1.5989
 7328SOL    HW233447   4.567   0.942   4.757 -0.5461 -0.0029 -2.1073
 7329SOL     OW33448   0.588   3.003   8.199 -0.3146 -0.4100  0.2409
 7329SOL    HW133449   0.578   3.043   8.286 -0.5307  1.1354 -0.4863
 7329SOL    HW233450   0.608   3.077   8.142  1.1375 -2.5106 -1.9799
 7330SOL     OW33451   4.207   0.247   6.523 -0.1408  0.9980 -0.0929
 7330SOL    HW133452   4.226   0.324   6.576  0.1258  0.7025  0.2494
 7330SOL    HW233453   4.118   0.253   6.490 -0.6052  0.7409  1.0845
 7331SOL     OW33454   0.094   0.723   3.804  0.2627 -0.0898 -0.1696
 7331SOL    HW133455   0.007   0.684   3.808  0.9498 -1.5561  1.0250
 7331SOL    HW233456   0.111   0.750   3.895 -0.2060 -0.8666  0.1486
 7332SOL     OW33457   3.830   3.708  15.495 -0.5361 -0.1932  0.1638
 7332SOL    HW133458   3.857   3.643  15.431  1.5496  0.6970  0.1374
 7332SOL    HW233459   3.737   3.717  15.475 -0.6812 -1.9392  0.1059
 7333SOL     OW33460   2.409   1.884   5.489  0.2956  0.1322  0.0186
 7333SOL    HW133461   2.489   1.897   5.539  0.6159  0.5578 -0.6039
 7333SOL    HW233462   2.357   1.955   5.527 -2.2124 -2.4356  1.4248
 7334SOL     OW33463   4.357   1.056   6.572 -0.2273  0.2237  0.1383
 7334SOL    HW133464   4.433   1.006   6.601 -0.2746  0.9885  1.5910
 7334SOL    HW233465   4.299   1.060   6.649  2.4500 -2.1499  2.2886
 7335SOL     OW33466   1.188   1.471   0.098 -0.2243 -0.0200 -0.3601
 7335SOL    HW133467   1.140   1.515   0.169  0.4732 -0.7656  0.5757
 7335SOL    HW233468   1.122   1.439   0.036  1.8485 -0.3061 -2.3832
 7336SOL     OW33469   3.893   3.179   7.812  0.8337  0.1786 -0.1151
 7336SOL    HW133470   3.983   3.150   7.800  0.5662 -0.6808 -0.0492
 7336SOL    HW233471   3.902   3.238   7.887  0.7178  0.6181 -0.4432
 7337SOL     OW33472   4.228   4.720   6.643  0.5154  0.4115  0.0676
 7337SOL    HW133473   4.288   4.689   6.575  0.8651 -0.7614  0.8925
 7337SOL    HW233474   4.207   0.085   6.611  1.3014  1.2851  1.9194
 7338SOL     OW33475   1.324   1.136  13.392  0.1550  0.4987  0.1540
 7338SOL    HW133476   1.258   1.190  13.348  0.8960  0.3345 -1.1658
 7338SOL    HW233477   1.341   1.075  13.320 -1.6265 -0.5852  0.6459
 7339SOL     OW33478   2.592   1.357   5.993 -0.3255 -0.0739 -0.2917
 7339SOL    HW133479   2.557   1.396   5.912  0.4742  2.4937  0.5821
 7339SOL    HW233480   2.653   1.431   5.992 -2.4654  1.7352  0.5408
 7340SOL     OW33481   0.394   2.160   7.978 -0.3278  0.4973 -0.0302
 7340SOL    HW133482   0.474   2.129   8.022 -1.4740 -0.5556  1.3239
 7340SOL    HW233483   0.441   2.213   7.913 -0.7464  0.6772 -0.1811
 7341SOL     OW33484   3.556   1.531   8.672  0.2121 -0.0661 -0.0496
 7341SOL    HW133485   3.638   1.501   8.712 -0.9126 -1.2128  1.4433
 7341SOL    HW233486   3.579   1.541   8.580  2.5972  1.5763  0.7376
 7342SOL     OW33487   1.362   0.119   2.992 -0.3413  0.1540  0.9909
 7342SOL    HW133488   1.452   0.150   2.982 -0.6184  1.0589  1.2979
 7342SOL    HW233489   1.376   0.030   3.024  2.1045 -0.2548 -1.1911
 7343SOL     OW33490   1.538   3.095   3.987  0.3401 -0.0901  0.5412
 7343SOL    HW133491   1.453   3.083   4.030  0.3673 -0.2325  0.5577
 7343SOL    HW233492   1.538   3.023   3.924  1.2616  0.0310  0.4025
 7344SOL     OW33493   4.619   1.550   3.619 -0.2007 -0.1943 -0.2265
 7344SOL    HW133494   4.669   1.480   3.578  1.7191  0.1822  1.4474
 7344SOL    HW233495   4.540   1.567   3.567 -0.1182 -2.3776 -1.0836
 7345SOL     OW33496   1.210   1.372  13.825  0.3075 -0.4108 -0.3460
 7345SOL    HW133497   1.299   1.374  13.862  0.6600 -1.9160 -1.1647
 7345SOL    HW233498   1.189   1.279  13.820  1.0033 -0.6990  1.8850
 7346SOL     OW33499   3.533   2.420   4.186 -0.0550  0.2018  0.3209
 7346SOL    HW133500   3.565   2.509   4.181  2.5691 -0.8309 -0.9590
 7346SOL    HW233501   3.439   2.417   4.207  0.4411  1.4721  2.7122
 7347SOL     OW33502   0.544   0.274   1.634 -0.5959  0.0510  0.3175
 7347SOL    HW133503   0.461   0.241   1.599  0.2773 -1.1379 -0.6204
 7347SOL    HW233504   0.598   0.198   1.654 -0.8218 -0.2692 -0.2784
 7348SOL     OW33505   1.718   0.431   3.315  0.6884  0.1544 -0.0548
 7348SOL    HW133506   1.747   0.519   3.292  1.9820 -0.6038 -1.3271
 7348SOL    HW233507   1.629   0.447   3.346  0.0944  0.1482 -1.7790
 7349SOL     OW33508   2.115   1.096   8.060 -0.5075 -0.1029 -0.1272
 7349SOL    HW133509   2.154   1.167   8.111  0.9017 -1.5644  0.8233
 7349SOL    HW233510   2.033   1.094   8.109 -0.6752  1.2203 -0.3321
 7350SOL     OW33511   4.325   2.339  11.965  0.3620  0.2691  1.0195
 7350SOL    HW133512   4.381   2.415  11.953  0.6819 -0.5916 -2.9653
 7350SOL    HW233513   4.358   2.317  12.052  2.1177 -0.8725  0.0615
 7351SOL     OW33514   0.808   2.579   4.026 -0.0716 -0.3449  0.0992
 7351SOL    HW133515   0.800   2.483   4.026 -1.0065 -0.2673  0.8191
 7351SOL    HW233516   0.822   2.595   3.933 -0.1556  0.1498  0.1701
 7352SOL     OW33517   3.289   1.209  12.342  0.4177  0.8365  0.3514
 7352SOL    HW133518   3.347   1.152  12.292 -0.3197  2.2432 -2.1337
 7352SOL    HW233519   3.341   1.290  12.341  0.3939  0.8067 -1.9915
 7353SOL     OW33520   4.400   3.770   1.124 -0.0501 -0.3756 -0.6338
 7353SOL    HW133521   4.415   3.704   1.192  1.8643  1.4092  0.6541
 7353SOL    HW233522   4.448   3.841   1.165  1.1791 -0.7940 -1.3415
 7354SOL     OW33523   2.757   1.190   1.285 -0.2443  0.0178 -0.2865
 7354SOL    HW133524   2.823   1.191   1.216 -1.8832  0.4601 -1.8763
 7354SOL    HW233525   2.729   1.280   1.301 -0.8860  0.0438 -1.5485
 7355SOL     OW33526   0.165   4.341   4.690 -0.3966 -0.1636  0.3097
 7355SOL    HW133527   0.117   4.364   4.610  0.2921  0.8707  0.1876
 7355SOL    HW233528   0.247   4.383   4.663  1.5850 -4.1625  0.1369
 7356SOL     OW33529   0.893   4.407  17.163 -0.6274 -0.6150 -0.1277
 7356SOL    HW133530   0.915   4.315  17.179  1.1984 -0.4412 -1.5749
 7356SOL    HW233531   0.874   4.399  17.069  0.4071 -0.4518 -0.3517
 7357SOL     OW33532   2.001   0.061   5.879 -0.1512  0.8319 -0.0295
 7357SOL    HW133533   1.974   0.007   5.953  1.7473 -1.0307 -0.7165
 7357SOL    HW233534   2.039   0.135   5.927  0.4532 -0.1576  1.0059
 7358SOL     OW33535   3.876   2.215   2.344 -0.3994  0.1295 -0.2815
 7358SOL    HW133536   3.937   2.288   2.353 -0.1111 -0.1981  0.4087
 7358SOL    HW233537   3.799   2.255   2.385 -1.3500  0.5641 -2.4758
 7359SOL     OW33538   1.164   2.698   6.493 -0.1169  0.0013  0.0850
 7359SOL    HW133539   1.259   2.696   6.507  0.1343 -2.0005 -2.0470
 7359SOL    HW233540   1.159   2.760   6.420 -0.2439  0.2918  0.3396
 7360SOL     OW33541   1.566   1.047   1.309  0.2245  0.0050  0.0117
 7360SOL    HW133542   1.634   1.023   1.247  1.2526  0.4352  0.9705
 7360SOL    HW233543   1.575   0.974   1.371  0.3179 -0.3798 -0.4610
 7361SOL     OW33544   1.525   3.125   6.915  0.3013  0.3824 -0.5047
 7361SOL    HW133545   1.533   3.064   6.988  0.3167 -1.3634 -1.9509
 7361SOL    HW233546   1.440   3.102   6.878 -0.1216  0.2032  0.5707
 7362SOL     OW33547   4.038   4.479   3.775 -0.5922  0.1254 -0.6734
 7362SOL    HW133548   4.055   4.518   3.689  0.5970  1.6695  0.2841
 7362SOL    HW233549   3.950   4.444   3.761 -0.4549  0.6377 -2.9047
 7363SOL     OW33550   2.360   1.541   0.551 -0.0029 -0.5847 -0.1239
 7363SOL    HW133551   2.428   1.484   0.589  0.6763  0.7575  0.6867
 7363SOL    HW233552   2.361   1.623   0.601 -1.1562 -0.7106  0.1094
 7364SOL     OW33553   1.046   2.801  14.263  0.5746 -0.1240  0.2409
 7364SOL    HW133554   1.024   2.849  14.343 -0.8186 -0.2253 -0.0836
 7364SOL    HW233555   1.018   2.712  14.283 -2.1265  0.4434 -1.0381
 7365SOL     OW33556   1.633   4.332   6.908 -0.3477 -0.1014  0.3219
 7365SOL    HW133557   1.590   4.253   6.941 -0.0579 -0.0388  0.8438
 7365SOL    HW233558   1.633   4.393   6.982 -1.3838  1.2522 -0.7793
 7366SOL     OW33559   2.433   1.548   6.778 -1.0128 -0.1757 -0.7185
 7366SOL    HW133560   2.395   1.632   6.805  1.4275  1.1759 -1.5469
 7366SOL    HW233561   2.469   1.525   6.864  0.7361 -2.2450 -2.0061
 7367SOL     OW33562   2.675   3.637   7.972 -0.2508 -0.2658  0.2237
 7367SOL    HW133563   2.767   3.656   7.992 -0.0706 -1.1225  0.1875
 7367SOL    HW233564   2.660   3.565   8.034 -2.2204  0.1701  0.2496
 7368SOL     OW33565   3.455   2.277   8.249 -0.2682 -0.2727 -0.6359
 7368SOL    HW133566   3.425   2.244   8.165 -0.7460  2.8633 -1.6846
 7368SOL    HW233567   3.549   2.273   8.235 -0.5257 -1.7449 -1.9786
 7369SOL     OW33568   3.690   3.997   5.349 -0.0002 -0.0175  0.1606
 7369SOL    HW133569   3.646   3.980   5.265 -1.8367 -1.3985  1.4023
 7369SOL    HW233570   3.621   3.958   5.403  1.4000 -1.1525  1.1133
 7370SOL     OW33571   4.639   0.885   7.292  0.0577 -0.2356 -0.2090
 7370SOL    HW133572   4.670   0.813   7.348  1.3222 -0.0201 -0.6249
 7370SOL    HW233573   4.717   0.938   7.276  0.1297  0.0124  0.9563
 7371SOL     OW33574   1.848   1.968   4.741  0.2200 -0.7333  0.3337
 7371SOL    HW133575   1.754   1.980   4.731  0.2105 -1.1212 -0.0426
 7371SOL    HW233576   1.876   2.059   4.749 -2.5340  0.1111  0.0617
 7372SOL     OW33577   2.403   3.980  12.107 -0.0740  0.4126  0.5916
 7372SOL    HW133578   2.435   4.020  12.188 -0.5502  1.6333  0.1879
 7372SOL    HW233579   2.385   4.061  12.059  0.9021  0.9819  1.1813
 7373SOL     OW33580   0.234   3.684  14.656 -0.9142 -0.0126 -0.1235
 7373SOL    HW133581   0.245   3.708  14.564  3.2255 -0.3863  0.2824
 7373SOL    HW233582   0.324   3.699  14.685 -1.8699  1.2672  2.2214
 7374SOL     OW33583   1.185   2.802  15.883  0.3548 -0.3953 -0.0581
 7374SOL    HW133584   1.130   2.833  15.955  0.3559 -1.0391  0.2197
 7374SOL    HW233585   1.123   2.803  15.810 -0.0595 -0.2240  0.2945
 7375SOL     OW33586   3.438   2.482   3.297 -0.0147 -0.1696 -0.4870
 7375SOL    HW133587   3.385   2.562   3.298 -3.6687 -2.5580 -2.0222
 7375SOL    HW233588   3.374   2.423   3.336  2.2051 -2.4391 -0.2762
 7376SOL     OW33589   0.867   2.004   2.577 -0.3159  0.1631  0.0001
 7376SOL    HW133590   0.772   1.999   2.580 -0.2732 -0.8307 -0.1387
 7376SOL    HW233591   0.882   2.070   2.645  0.6223 -1.8942  1.8273
 7377SOL     OW33592   3.373   1.026   2.116  0.3998  0.0081  0.1427
 7377SOL    HW133593   3.405   1.030   2.207 -2.1140 -0.9986  1.0821
 7377SOL    HW233594   3.453   1.003   2.070 -0.3027 -0.1463 -0.9813
 7378SOL     OW33595   2.823   0.464   7.170  0.6002  0.0197 -0.7194
 7378SOL    HW133596   2.873   0.407   7.111  2.5324  1.7943 -0.7693
 7378SOL    HW233597   2.879   0.454   7.247 -0.9361 -0.5892  0.3122
 7379SOL     OW33598   1.678   1.786   7.045  0.2608  0.0646 -0.1280
 7379SOL    HW133599   1.583   1.771   7.037  0.0924  1.4678 -0.9270
 7379SOL    HW233600   1.678   1.852   6.975 -0.0901 -0.5611 -0.7279
 7380SOL     OW33601   0.626   2.288   9.268 -0.3480 -0.0490  0.4655
 7380SOL    HW133602   0.593   2.340   9.195  0.4888 -0.7554 -0.4071
 7380SOL    HW233603   0.551   2.231   9.281  0.0790 -0.5264  0.8433
 7381SOL     OW33604   3.063   2.675   1.048 -0.1587 -0.2898  0.3182
 7381SOL    HW133605   3.128   2.619   1.091  0.1429  0.6057  1.0111
 7381SOL    HW233606   3.069   2.751   1.105 -0.7773 -0.9983  1.3379
 7382SOL     OW33607   3.521   2.840   3.282 -0.8803  0.3262 -0.3971
 7382SOL    HW133608   3.550   2.893   3.356 -1.3159 -0.9379  0.6949
 7382SOL    HW233609   3.555   2.897   3.214 -1.9312  1.2071 -0.1929
 7383SOL     OW33610   3.561   2.089   8.066  0.6370  0.0641  0.0056
 7383SOL    HW133611   3.528   2.031   7.998  1.1108 -0.2323  0.0272
 7383SOL    HW233612   3.616   2.149   8.017 -2.3180  2.3316 -0.5114
 7384SOL     OW33613   2.905   4.158   2.866  0.5411 -0.0898 -0.8652
 7384SOL    HW133614   2.848   4.082   2.858 -0.7507  0.5558  2.3051
 7384SOL    HW233615   2.884   4.178   2.957  1.6587 -1.6783 -0.2708
 7385SOL     OW33616   2.045   1.773   4.705 -0.7021 -0.1656  0.0492
 7385SOL    HW133617   2.105   1.817   4.644 -0.2557 -1.4721 -0.4609
 7385SOL    HW233618   1.984   1.838   4.738 -0.0179  0.3584  0.2926
 7386SOL     OW33619   0.374   0.047  17.627  0.1283  0.6187 -0.4669
 7386SOL    HW133620   0.434   0.097  17.573  0.5890  0.2144 -0.3341
 7386SOL    HW233621   0.313   0.113  17.659  2.7892  2.9271 -0.1423
 7387SOL     OW33622   3.668   3.597   6.841 -0.1818  0.0488 -0.3074
 7387SOL    HW133623   3.736   3.541   6.804 -2.1069 -1.4920 -1.5235
 7387SOL    HW233624   3.671   3.563   6.931  3.2939  1.1710 -0.0112
 7388SOL     OW33625   3.337   0.874   6.740  0.7141  0.0377 -0.0046
 7388SOL    HW133626   3.431   0.862   6.725  1.0502  1.9123  0.5875
 7388SOL    HW233627   3.310   0.787   6.711 -1.9794  0.5257  1.0488
 7389SOL     OW33628   1.080   1.007  15.050 -0.4482  0.0529 -0.7179
 7389SOL    HW133629   1.108   1.059  15.126  1.0909  1.9143 -2.5310
 7389SOL    HW233630   1.005   1.058  15.020 -0.4303 -0.1620 -1.1299
 7390SOL     OW33631   4.401   3.718   8.363  0.3172  0.4886 -0.5213
 7390SOL    HW133632   4.424   3.810   8.349  1.1479  0.1035 -1.6628
 7390SOL    HW233633   4.485   3.675   8.347  0.1023 -0.1558  0.1131
 7391SOL     OW33634   2.508   2.386   3.296 -0.9576  0.4284 -0.1625
 7391SOL    HW133635   2.562   2.325   3.345 -0.9414 -0.0407 -0.7731
 7391SOL    HW233636   2.434   2.327   3.283 -0.0741 -0.5982 -0.5049
 7392SOL     OW33637   0.830   4.576   0.795 -0.4497 -0.3743  0.2149
 7392SOL    HW133638   0.850   4.661   0.755 -2.0333 -0.6938 -1.2679
 7392SOL    HW233639   0.737   4.592   0.812 -0.2956 -0.4727  1.0975
 7393SOL     OW33640   4.704   2.968   3.815  0.4728 -0.4035 -0.1484
 7393SOL    HW133641   0.061   2.915   3.815  0.5463 -0.2872  1.5156
 7393SOL    HW233642   4.701   2.995   3.723 -0.2442 -0.2121 -0.0724
 7394SOL     OW33643   1.359   2.782   5.285 -0.1725  0.1596 -0.0121
 7394SOL    HW133644   1.363   2.746   5.374 -0.6371  2.3623  0.8986
 7394SOL    HW233645   1.277   2.829   5.301 -0.4056 -0.4047  0.4656
 7395SOL     OW33646   3.055   3.416   6.455  0.3394 -0.4557 -0.0594
 7395SOL    HW133647   2.988   3.482   6.469  1.3814  0.1954  1.8983
 7395SOL    HW233648   3.073   3.399   6.548 -1.6573 -0.8901  0.2426
 7396SOL     OW33649   2.970   3.987   7.382 -0.1264 -0.0602 -0.2315
 7396SOL    HW133650   2.915   3.919   7.421  1.4607 -1.4970 -0.5194
 7396SOL    HW233651   3.030   4.010   7.453 -0.8243 -2.4098  1.0989
 7397SOL     OW33652   1.154   2.706   2.747 -0.3413  0.1553  0.2370
 7397SOL    HW133653   1.199   2.627   2.779  1.0224  0.3650 -1.1880
 7397SOL    HW233654   1.163   2.769   2.818 -1.0476  0.1180  0.3591
 7398SOL     OW33655   1.943   0.494   7.582  0.1693  0.1591 -0.0265
 7398SOL    HW133656   1.941   0.521   7.490 -0.4054  1.0248  0.2474
 7398SOL    HW233657   1.888   0.416   7.577  1.7326 -0.9745  0.4688
 7399SOL     OW33658   3.633   4.060  17.665  0.2866  0.2022  0.5430
 7399SOL    HW133659   3.642   4.006   0.052  1.1866  1.7129  1.4728
 7399SOL    HW233660   3.667   4.145   0.003 -0.4747  0.6444  0.1507
 7400SOL     OW33661   3.995   0.263   5.530  0.1942  0.5119  0.4457
 7400SOL    HW133662   4.048   0.338   5.502  1.1981 -0.1340  0.5947
 7400SOL    HW233663   3.905   0.278   5.503  0.5316  1.0896 -0.3760
 7401SOL     OW33664   0.912   4.639   6.509  0.3842 -0.0892  0.7335
 7401SOL    HW133665   0.928   4.545   6.513  0.6779 -0.0703 -0.1661
 7401SOL    HW233666   0.986   4.675   6.558  2.1142 -0.6592 -1.4988
 7402SOL     OW33667   4.134   1.081   2.610 -0.2005  0.3394  0.3217
 7402SOL    HW133668   4.168   0.997   2.580 -1.7398  0.2010 -1.0607
 7402SOL    HW233669   4.096   1.105   2.526 -0.1764 -0.0090  0.2107
 7403SOL     OW33670   2.453   0.719   4.913  0.4379  0.1279  0.1665
 7403SOL    HW133671   2.519   0.651   4.927  0.5478  0.5749  1.7633
 7403SOL    HW233672   2.490   0.753   4.831  1.8458 -1.4159  0.1619
 7404SOL     OW33673   3.752   1.769  14.766 -0.1376 -0.1945  0.0073
 7404SOL    HW133674   3.726   1.769  14.675 -1.8453  0.3960  0.4987
 7404SOL    HW233675   3.693   1.698  14.792 -1.0971  0.2481 -0.9794
 7405SOL     OW33676   1.596   3.847  11.002  0.3885 -0.1755 -0.2105
 7405SOL    HW133677   1.614   3.927  10.951  0.5104 -0.2047 -0.2127
 7405SOL    HW233678   1.599   3.777  10.937 -0.4353  1.0003 -1.5255
 7406SOL     OW33679   1.306   1.412  13.427 -0.3461 -0.5134 -0.4114
 7406SOL    HW133680   1.289   1.431  13.335 -1.4678  1.9978  0.3182
 7406SOL    HW233681   1.221   1.379  13.457 -0.8240 -1.5488 -2.8622
 7407SOL     OW33682   2.683   1.744   4.688 -0.2453 -0.1869  0.6934
 7407SOL    HW133683   2.646   1.809   4.629 -0.9960  0.3588  1.7676
 7407SOL    HW233684   2.740   1.794   4.746  0.7303 -1.2167  0.6134
 7408SOL     OW33685   0.030   1.519   4.001  0.1911 -0.5647  0.4719
 7408SOL    HW133686   0.105   1.461   3.995 -0.7873 -1.7950  0.1485
 7408SOL    HW233687   4.684   1.458   4.030  0.0473 -0.4164  0.4485
 7409SOL     OW33688   1.770   1.915  11.260 -0.0864 -0.0924  0.3744
 7409SOL    HW133689   1.848   1.869  11.289 -0.3500 -0.6052  0.2655
 7409SOL    HW233690   1.727   1.953  11.336  1.3390  1.3205  0.4827
 7410SOL     OW33691   3.445   1.961   4.630  0.0309 -0.7872 -1.1954
 7410SOL    HW133692   3.510   2.006   4.575 -0.8607  1.0758 -0.7348
 7410SOL    HW233693   3.409   2.036   4.677  1.1408  0.3652 -2.1821
 7411SOL     OW33694   1.637   2.412   3.609  0.2149 -0.3877  0.7147
 7411SOL    HW133695   1.687   2.336   3.579 -1.7817 -1.3038 -0.2927
 7411SOL    HW233696   1.547   2.380   3.607  0.6129 -1.7204  2.9353
 7412SOL     OW33697   1.042   3.743  17.368 -0.3293 -0.6799  0.2997
 7412SOL    HW133698   1.105   3.814  17.364  1.8727 -2.6091  0.3918
 7412SOL    HW233699   1.089   3.681  17.312 -0.9931 -1.2968  0.4276
 7413SOL     OW33700   3.046   3.074   4.909 -0.0495 -0.5315  0.2061
 7413SOL    HW133701   3.026   3.116   4.825 -1.0476  0.0436  0.7330
 7413SOL    HW233702   2.966   3.091   4.959 -0.3776 -2.0746  0.1879
 7414SOL     OW33703   2.979   2.874   2.041 -0.1775  0.1843  0.1456
 7414SOL    HW133704   2.924   2.826   1.979 -0.4787 -0.2958  0.7891
 7414SOL    HW233705   3.016   2.943   1.986  1.0777  0.3245  1.1537
 7415SOL     OW33706   3.721   1.217   1.865 -0.3325  0.3481  0.1342
 7415SOL    HW133707   3.747   1.305   1.890 -1.2088  0.8454 -0.7288
 7415SOL    HW233708   3.804   1.182   1.831 -0.0883  0.8144  0.2492
 7416SOL     OW33709   1.630   4.272   9.532  0.0823 -0.3313  0.1107
 7416SOL    HW133710   1.625   4.356   9.486 -0.8577 -0.1260  0.5995
 7416SOL    HW233711   1.634   4.312   9.619 -0.5066  1.0210 -0.4830
 7417SOL     OW33712   3.568   2.191   6.543 -0.6222  0.0282 -0.2001
 7417SOL    HW133713   3.628   2.117   6.552 -1.5474 -0.6273  0.5837
 7417SOL    HW233714   3.564   2.207   6.449 -1.0995 -3.9899 -0.8532
 7418SOL     OW33715   0.601   0.576   7.196 -1.1213 -0.6987  0.0489
 7418SOL    HW133716   0.622   0.663   7.162  1.3765 -0.1875  2.9152
 7418SOL    HW233717   0.578   0.527   7.117  1.2235 -1.4585 -0.1699
 7419SOL     OW33718   3.639   2.326   2.480  0.3671 -0.0488 -0.5310
 7419SOL    HW133719   3.551   2.313   2.514 -0.2204 -0.0456 -2.0598
 7419SOL    HW233720   3.687   2.376   2.547  1.6682 -1.7615 -0.1704
 7420SOL     OW33721   2.728   1.749   4.047  0.4335  0.2542 -0.6481
 7420SOL    HW133722   2.632   1.746   4.051  0.6108 -1.4454  2.0991
 7420SOL    HW233723   2.750   1.753   3.954 -2.2790  1.4673 -1.2440
 7421SOL     OW33724   2.968   0.976  11.916 -0.1191 -0.2915 -0.0874
 7421SOL    HW133725   2.981   0.962  12.010 -0.2337  0.3546  0.0306
 7421SOL    HW233726   3.060   0.982  11.891 -0.3133 -0.9059 -0.9087
 7422SOL     OW33727   0.048   3.913   7.038 -0.3730 -0.1366  0.5743
 7422SOL    HW133728   0.080   3.983   6.982  0.6442 -1.0289  0.0370
 7422SOL    HW233729   0.124   3.883   7.088 -0.1458 -2.2324 -1.0460
 7423SOL     OW33730   4.522   1.016   9.254 -0.0373  0.2333 -0.2716
 7423SOL    HW133731   4.513   1.051   9.343  1.4085 -0.2200  0.0504
 7423SOL    HW233732   4.443   0.963   9.254  0.2766 -0.2374 -0.0335
 7424SOL     OW33733   2.205   4.618   8.239 -0.2105  0.1856  0.4581
 7424SOL    HW133734   2.252   4.697   8.214 -0.1608  0.2642  0.8038
 7424SOL    HW233735   2.245   4.566   8.170  1.5175  1.4751  0.5012
 7425SOL     OW33736   2.440   4.122  16.823  0.0076  0.7441  0.8904
 7425SOL    HW133737   2.367   4.062  16.807 -0.4845  0.9555  2.4091
 7425SOL    HW233738   2.474   4.135  16.734 -1.9922  0.1111  0.0311
 7426SOL     OW33739   4.343   1.236  10.676 -0.3239 -0.1534  0.1217
 7426SOL    HW133740   4.420   1.197  10.715 -0.8992 -1.6608 -0.2452
 7426SOL    HW233741   4.378   1.270  10.593  0.2180  2.1227  1.2697
 7427SOL     OW33742   0.328   3.151   6.498  0.3914  0.3648 -0.5014
 7427SOL    HW133743   0.367   3.212   6.436  2.1987  0.1444  0.4208
 7427SOL    HW233744   0.292   3.081   6.444 -0.9563  1.5267 -1.1230
 7428SOL     OW33745   1.564   0.215   6.394  0.3507  0.5169 -0.7797
 7428SOL    HW133746   1.520   0.296   6.419 -0.8705 -0.4985  0.3701
 7428SOL    HW233747   1.599   0.173   6.473  2.4157  1.1620 -1.3525
 7429SOL     OW33748   0.548   4.429   0.235 -0.2371  0.8831 -0.3367
 7429SOL    HW133749   0.577   4.342   0.262 -1.6538  0.4692 -0.1026
 7429SOL    HW233750   0.629   4.474   0.257  1.2440 -1.8461 -0.2561
 7430SOL     OW33751   2.428   2.957  10.033  0.1847  0.6421  0.2720
 7430SOL    HW133752   2.349   2.942  10.086 -0.5457  0.9987 -0.7096
 7430SOL    HW233753   2.410   3.047  10.006 -3.5279 -0.1287  0.1620
 7431SOL     OW33754   2.363   0.487   6.223  0.4962  0.0074 -0.0319
 7431SOL    HW133755   2.386   0.402   6.186 -1.1413  0.9038 -3.1153
 7431SOL    HW233756   2.320   0.456   6.302  0.9672 -0.5236  0.0170
 7432SOL     OW33757   1.454   1.073   2.518  0.2526 -0.5867  0.4349
 7432SOL    HW133758   1.530   1.052   2.572  1.4894 -0.3120 -1.2012
 7432SOL    HW233759   1.427   0.982   2.508 -2.7354  0.2816  0.5122
 7433SOL     OW33760   0.747   4.411   3.294 -0.3029  0.9325  0.4579
 7433SOL    HW133761   0.810   4.448   3.231  1.0603 -0.9149  0.7603
 7433SOL    HW233762   0.666   4.443   3.254  0.6647  0.3257 -2.0410
 7434SOL     OW33763   4.697   3.056   7.059  0.0164 -0.3698 -0.4070
 7434SOL    HW133764   4.699   2.990   7.129 -1.3850 -0.7639 -0.7411
 7434SOL    HW233765   0.026   3.119   7.110 -1.2073  1.1175 -1.0298
 7435SOL     OW33766   2.886   3.398   2.336  0.4140  0.2940 -0.5142
 7435SOL    HW133767   2.822   3.332   2.361 -0.4147 -0.1874 -3.8915
 7435SOL    HW233768   2.831   3.475   2.351  0.6481  0.8027 -2.1885
 7436SOL     OW33769   0.057   2.635   0.114  0.5193 -0.1688  0.2605
 7436SOL    HW133770   0.125   2.589   0.065  1.1777 -0.3371  1.3454
 7436SOL    HW233771   0.023   2.559   0.160  0.8894 -0.5909 -0.1649
 7437SOL     OW33772   0.226   3.971   9.000  0.1363  0.0235 -0.2558
 7437SOL    HW133773   0.298   3.972   8.938  1.5240 -2.0438  1.3094
 7437SOL    HW233774   0.259   3.928   9.079 -0.8419  2.0405  1.2218
 7438SOL     OW33775   2.338   4.196   2.636  0.2266 -0.0088 -0.0228
 7438SOL    HW133776   2.275   4.231   2.698  1.5769 -0.5046  1.6354
 7438SOL    HW233777   2.311   4.109   2.607  0.2800 -1.0877  3.1845
 7439SOL     OW33778   4.689   0.198  14.620 -0.1996  0.5843  0.2106
 7439SOL    HW133779   0.039   0.240  14.575 -0.3166 -1.2135 -1.6578
 7439SOL    HW233780   4.672   0.124  14.561  1.8089  1.2071 -1.1569
 7440SOL     OW33781   2.223   3.182   0.065  0.4426 -0.1139  0.3545
 7440SOL    HW133782   2.172   3.210   0.141  0.8387  0.7601  0.3044
 7440SOL    HW233783   2.164   3.204  17.683  1.0213  0.0199 -0.0702
 7441SOL     OW33784   1.774   3.036   4.366  0.1831 -0.3042 -0.3298
 7441SOL    HW133785   1.829   3.031   4.288  3.9724 -2.0372  2.4834
 7441SOL    HW233786   1.755   3.130   4.370  0.0361 -0.4057  1.3184
 7442SOL     OW33787   3.973   1.215   2.429  0.2226  0.2850 -0.0655
 7442SOL    HW133788   3.969   1.258   2.343  0.0450 -0.5602 -0.4799
 7442SOL    HW233789   3.883   1.183   2.431  1.5515 -3.3099  1.5610
 7443SOL     OW33790   3.099   4.283  16.977 -0.5230  0.7401 -0.0584
 7443SOL    HW133791   3.183   4.239  16.992  0.1339  0.8205 -3.3784
 7443SOL    HW233792   3.106   4.285  16.881  2.3971  1.1856  0.1607
 7444SOL     OW33793   1.498   1.434  11.968 -0.1183 -0.1677 -0.1671
 7444SOL    HW133794   1.528   1.453  12.057  0.7151  0.1741 -0.5183
 7444SOL    HW233795   1.420   1.490  11.966  1.4959  2.1172  0.4122
 7445SOL     OW33796   4.456   0.029  12.928 -0.2830 -0.1055 -0.0791
 7445SOL    HW133797   4.523   4.688  12.900 -1.4465 -1.2208 -0.3889
 7445SOL    HW233798   4.409   0.049  12.847  0.3465 -1.1886 -0.7166
 7446SOL     OW33799   2.161   1.174   7.158  0.0898  0.0395  0.2446
 7446SOL    HW133800   2.143   1.254   7.109 -1.8642  0.0287  0.9264
 7446SOL    HW233801   2.088   1.184   7.219  0.9924 -1.7198  1.5895
 7447SOL     OW33802   1.165   2.486   4.042 -0.6944  0.2535  0.3005
 7447SOL    HW133803   1.190   2.440   3.962 -0.9753 -0.5643  0.6866
 7447SOL    HW233804   1.206   2.571   4.027  0.6515 -0.3226  0.7313
 7448SOL     OW33805   1.226   2.247   2.027  0.2600  0.2034 -0.1665
 7448SOL    HW133806   1.267   2.190   2.092 -0.6825 -1.3142 -0.8942
 7448SOL    HW233807   1.306   2.253   1.975  0.3335 -1.0939 -0.2012
 7449SOL     OW33808   1.852   4.339   6.715 -0.1343 -0.4544  0.0830
 7449SOL    HW133809   1.763   4.321   6.747 -0.0434 -0.8678  0.1038
 7449SOL    HW233810   1.875   4.415   6.769  0.6333 -0.9292  0.4152
 7450SOL     OW33811   3.602   0.227  11.002 -0.0842  0.1321 -0.3545
 7450SOL    HW133812   3.558   0.202  11.083 -2.4815 -1.4610 -2.1673
 7450SOL    HW233813   3.547   0.297  10.969 -2.8720 -1.8463  0.1137
 7451SOL     OW33814   3.367   1.867   8.396 -0.1202  0.3070 -0.4925
 7451SOL    HW133815   3.457   1.897   8.384  0.1985 -0.6673 -0.5600
 7451SOL    HW233816   3.357   1.783   8.353  0.6355 -0.8281  1.5201
 7452SOL     OW33817   0.315   0.482  16.111  0.7654  0.2183  0.2487
 7452SOL    HW133818   0.274   0.562  16.079  1.5562 -0.3875 -2.2501
 7452SOL    HW233819   0.394   0.518  16.151 -0.1893  2.2935  0.2804
 7453SOL     OW33820   2.126   3.985   8.134 -0.5168  0.4146  0.2864
 7453SOL    HW133821   2.067   4.056   8.107 -1.0376  0.4136  1.3934
 7453SOL    HW233822   2.202   4.035   8.163  1.4979 -1.4973 -1.7164
 7454SOL     OW33823   0.204   1.993   8.809  0.1681 -0.3348 -0.5500
 7454SOL    HW133824   0.273   2.034   8.757  0.5175  0.0006  0.1770
 7454SOL    HW233825   0.144   1.953   8.746 -1.4030  2.7706 -1.0010
 7455SOL     OW33826   3.036   0.544   0.159  0.3213  0.5780  0.2397
 7455SOL    HW133827   3.010   0.556   0.250 -0.6378  0.1204  0.0175
 7455SOL    HW233828   2.957   0.543   0.106 -0.0101  2.8623  0.6804
 7456SOL     OW33829   4.552   2.085   3.195  0.0244  0.6213  0.7806
 7456SOL    HW133830   4.500   2.092   3.275  2.0722  2.7384  1.9184
 7456SOL    HW233831   4.604   2.009   3.223  1.4158  1.4758  0.5420
 7457SOL     OW33832   3.239   3.329   8.056 -0.5120  1.2890  0.0412
 7457SOL    HW133833   3.294   3.314   7.979 -0.8065  0.3328  0.0092
 7457SOL    HW233834   3.267   3.412   8.092  0.1415  2.1715 -2.5224
 7458SOL     OW33835   0.506   0.028   7.602 -0.1458 -0.2756 -0.2460
 7458SOL    HW133836   0.441   4.711   7.544  0.0746 -2.5531  1.0356
 7458SOL    HW233837   0.576   0.069   7.550 -0.5403  1.2772  0.4513
 7459SOL     OW33838   0.056   0.381   7.355  0.8128 -0.6511  0.0623
 7459SOL    HW133839   0.117   0.373   7.282  1.1384 -2.4100  0.5144
 7459SOL    HW233840   4.700   0.364   7.303  2.7307  1.3661 -3.4116
 7460SOL     OW33841   3.077   1.985   0.326  0.3946  0.3749 -1.0773
 7460SOL    HW133842   2.992   1.957   0.294  0.1133  0.0366 -0.0519
 7460SOL    HW233843   3.121   2.014   0.246 -1.1860 -1.1393 -2.4810
 7461SOL     OW33844   1.111   3.623  14.463 -0.2067 -0.4570 -0.7427
 7461SOL    HW133845   1.048   3.552  14.449 -2.4575  1.0856  1.6639
 7461SOL    HW233846   1.140   3.603  14.553 -1.5699  0.8411 -0.0269
 7462SOL     OW33847   4.115   0.554   2.653  0.4504 -0.2764  0.1268
 7462SOL    HW133848   4.175   0.627   2.667 -0.6144  0.6668 -0.2441
 7462SOL    HW233849   4.034   0.587   2.614 -0.3027 -1.5528  0.5983
 7463SOL     OW33850   0.306   0.276   2.163 -0.2107  0.2581  0.0117
 7463SOL    HW133851   0.280   0.208   2.225  0.3133  0.1217  0.0804
 7463SOL    HW233852   0.224   0.299   2.120 -0.7068  0.4280  1.0468
 7464SOL     OW33853   4.136   2.824   3.277 -0.0209  0.0398 -0.2749
 7464SOL    HW133854   4.209   2.767   3.299 -0.0633 -0.0051 -0.2508
 7464SOL    HW233855   4.060   2.767   3.283  0.5894 -0.6140  1.2194
 7465SOL     OW33856   2.993   2.644   6.355  0.0276  0.1111 -0.3379
 7465SOL    HW133857   3.040   2.562   6.339  1.7016  0.6860  1.5856
 7465SOL    HW233858   2.922   2.628   6.293 -0.1982  1.7828 -0.5269
 7466SOL     OW33859   4.281   1.887   7.650 -0.1860  0.3489  0.0748
 7466SOL    HW133860   4.334   1.936   7.712 -0.0524  2.1929 -1.4808
 7466SOL    HW233861   4.197   1.882   7.694  0.4710 -2.3100  1.0519
 7467SOL     OW33862   0.443   1.007   5.610 -0.2831  0.1999 -0.7219
 7467SOL    HW133863   0.365   0.951   5.610 -0.7261  0.8121 -0.1820
 7467SOL    HW233864   0.462   1.025   5.702  0.0086 -0.7433 -0.5962
 7468SOL     OW33865   0.534   3.222  16.725 -0.1116  0.2897 -0.1793
 7468SOL    HW133866   0.535   3.129  16.749 -1.3475  0.1787 -0.5363
 7468SOL    HW233867   0.465   3.257  16.783 -0.2066  1.5767 -1.0808
 7469SOL     OW33868   2.259   4.481   4.590  0.0181  0.3963 -0.2231
 7469SOL    HW133869   2.220   4.399   4.621  1.1516  0.1252  0.4819
 7469SOL    HW233870   2.293   4.520   4.670 -2.1060 -0.1209  0.9279
 7470SOL     OW33871   3.421   1.076   5.138  0.3577  0.0862 -0.2399
 7470SOL    HW133872   3.460   1.022   5.070  0.2496 -0.3937  0.0840
 7470SOL    HW233873   3.489   1.080   5.206  0.6005 -0.7356 -0.4348
 7471SOL     OW33874   0.206   1.943   5.352  0.2360  0.2076 -0.2596
 7471SOL    HW133875   0.176   2.015   5.296 -0.1754 -0.6511 -1.1606
 7471SOL    HW233876   0.298   1.969   5.358  0.0066  0.0897  3.5769
 7472SOL     OW33877   0.504   0.228   7.268 -0.3145  0.5265 -0.0128
 7472SOL    HW133878   0.422   0.180   7.252 -1.0691  1.5060  0.8648
 7472SOL    HW233879   0.455   0.303   7.302 -0.3076  0.2687  0.5615
 7473SOL     OW33880   1.488   1.111   6.307  0.8583  0.2674 -0.1134
 7473SOL    HW133881   1.419   1.102   6.241 -0.1827 -0.2591  1.0349
 7473SOL    HW233882   1.568   1.111   6.255 -0.1407 -0.2925 -1.6373
 7474SOL     OW33883   3.238   4.301   1.867  0.3824 -0.7049  0.1265
 7474SOL    HW133884   3.212   4.273   1.779 -0.8121 -0.5385  0.4215
 7474SOL    HW233885   3.276   4.224   1.909 -1.9087 -1.4074  0.9424
 7475SOL     OW33886   2.010   2.810   6.568  0.8864  0.2598  0.1310
 7475SOL    HW133887   2.017   2.878   6.636 -0.0052 -1.1662  1.6545
 7475SOL    HW233888   2.094   2.801   6.523  0.0498  2.2667 -1.8548
 7476SOL     OW33889   4.720   3.173   2.452  0.7943 -0.7322  0.2985
 7476SOL    HW133890   0.035   3.097   2.407 -2.6249 -2.3473  0.1781
 7476SOL    HW233891   0.009   3.243   2.388  0.9869 -0.5363  0.5468
 7477SOL     OW33892   1.944   4.041  11.411 -0.2972 -0.4974 -0.3342
 7477SOL    HW133893   1.921   3.950  11.428 -3.3983  0.8936  3.1770
 7477SOL    HW233894   1.937   4.086  11.496 -1.1848 -1.8736  0.3317
 7478SOL     OW33895   3.709   3.455   0.620  0.0318 -0.9064  0.4417
 7478SOL    HW133896   3.695   3.529   0.680  1.4939  0.4910 -0.9511
 7478SOL    HW233897   3.796   3.432   0.652 -0.3701  0.7007  2.7227
 7479SOL     OW33898   0.823   1.214   2.938  0.0416 -0.2408 -0.1588
 7479SOL    HW133899   0.821   1.267   2.859 -0.3704 -1.1547 -0.7555
 7479SOL    HW233900   0.807   1.287   2.999  0.3757 -1.3692  1.2684
 7480SOL     OW33901   2.508   2.178   4.187 -0.2229  0.1930 -0.0599
 7480SOL    HW133902   2.573   2.138   4.246 -0.5541 -0.8097 -0.3823
 7480SOL    HW233903   2.514   2.270   4.213  0.5708  0.6682 -1.9590
 7481SOL     OW33904   2.866   2.463   4.843 -0.4328  0.0563  0.4405
 7481SOL    HW133905   2.906   2.392   4.793  0.9066  1.8552 -1.0528
 7481SOL    HW233906   2.915   2.543   4.822 -1.8478  0.8103  0.0338
 7482SOL     OW33907   3.359   1.959   6.640  0.3882 -0.2782 -0.1072
 7482SOL    HW133908   3.432   2.015   6.617 -0.1557  1.1045  1.5131
 7482SOL    HW233909   3.358   1.904   6.562  2.7394  0.4744 -0.6431
 7483SOL     OW33910   2.549   2.799   3.317 -0.3482 -0.2479 -0.5066
 7483SOL    HW133911   2.615   2.738   3.285 -2.4228 -3.1470  0.7571
 7483SOL    HW233912   2.589   2.885   3.304 -0.6517  0.3279  2.2601
 7484SOL     OW33913   4.719   3.342   4.226  0.0286 -0.2826  0.6208
 7484SOL    HW133914   4.704   3.269   4.166 -0.3427  0.6081 -0.3655
 7484SOL    HW233915   4.669   3.315   4.303  0.7191  1.3313  1.6290
 7485SOL     OW33916   4.415   4.166   3.817  0.1961  0.0364  0.2024
 7485SOL    HW133917   4.326   4.190   3.790 -1.1515 -2.1471  2.6019
 7485SOL    HW233918   4.435   4.125   3.734 -0.2062 -0.2060  0.2209
 7486SOL     OW33919   4.039   2.618   6.127  0.4282 -0.4841  0.4372
 7486SOL    HW133920   4.076   2.675   6.060 -0.2500  2.2260  2.3638
 7486SOL    HW233921   4.048   2.675   6.204 -1.2780 -1.8356  1.6475
 7487SOL     OW33922   2.526   4.063  17.652  0.8603  0.0687 -0.1858
 7487SOL    HW133923   2.615   4.038  17.678  1.1359  2.1269  0.9115
 7487SOL    HW233924   2.496   4.121   0.031 -1.3607  2.0318 -2.7273
 7488SOL     OW33925   4.603   0.430   5.670  0.0260 -0.3971  0.1373
 7488SOL    HW133926   4.668   0.491   5.704  0.5880 -0.8300 -0.1463
 7488SOL    HW233927   4.524   0.473   5.702 -1.0455  1.0867 -4.5799
 7489SOL     OW33928   2.659   1.405   3.124  0.0686  0.0415 -0.6086
 7489SOL    HW133929   2.638   1.497   3.108 -0.1900 -0.0566 -0.8473
 7489SOL    HW233930   2.662   1.363   3.038 -1.2219 -0.1836 -0.5485
 7490SOL     OW33931   2.551   1.274   3.350  0.3715  0.1562 -0.1258
 7490SOL    HW133932   2.602   1.197   3.376 -1.0202 -0.9304 -0.6403
 7490SOL    HW233933   2.584   1.306   3.266  2.1338 -1.8748 -0.2206
 7491SOL     OW33934   4.160   0.494   6.860 -0.2544  0.3379 -0.1604
 7491SOL    HW133935   4.251   0.519   6.872 -0.2719  2.0193 -3.3527
 7491SOL    HW233936   4.121   0.558   6.919  1.5701  0.9471  0.3644
 7492SOL     OW33937   0.902   0.016   8.906 -0.0076  0.3725 -0.1751
 7492SOL    HW133938   0.953   4.690   8.970 -0.1882 -1.3490 -1.3246
 7492SOL    HW233939   0.816   4.715   8.941 -1.0153  2.3506 -1.3329
 7493SOL     OW33940   3.613   4.038  14.599 -0.0033  0.3952 -0.0747
 7493SOL    HW133941   3.622   4.111  14.659 -1.0563  0.7239 -0.3171
 7493SOL    HW233942   3.570   4.063  14.517  1.6707  1.7251 -0.5566
 7494SOL     OW33943   3.621   4.456   4.363 -0.4633  0.0628 -0.4305
 7494SOL    HW133944   3.609   4.534   4.417 -0.2806 -2.0524  2.6797
 7494SOL    HW233945   3.535   4.428   4.333 -0.9456  1.5572 -0.4552
 7495SOL     OW33946   4.209   1.874   4.898  0.1768 -0.2044 -0.0683
 7495SOL    HW133947   4.212   1.849   4.990  0.7259  1.5125  0.3800
 7495SOL    HW233948   4.289   1.926   4.890 -1.2032  1.9457  0.0873
 7496SOL     OW33949   0.950   1.778   6.884  0.4726 -0.7628  0.3131
 7496SOL    HW133950   0.941   1.688   6.850  1.9620 -1.2897  1.3067
 7496SOL    HW233951   0.859   1.786   6.911  0.5634  0.6485  0.1941
 7497SOL     OW33952   1.424   4.264   3.714 -0.4749  0.4557 -0.5020
 7497SOL    HW133953   1.447   4.225   3.798 -0.2098  0.0578 -0.7612
 7497SOL    HW233954   1.447   4.355   3.731  0.4838  0.5692 -2.3948
 7498SOL     OW33955   0.205   0.956  11.990  0.4792 -0.7202  0.3239
 7498SOL    HW133956   0.199   0.965  12.085 -0.7033 -0.2512  0.1996
 7498SOL    HW233957   0.293   0.994  11.987  0.3966 -0.3894  2.1277
 7499SOL     OW33958   1.922   1.492   5.010 -0.2175 -0.0481  0.5819
 7499SOL    HW133959   1.886   1.578   5.031 -0.4000 -0.1929  0.8525
 7499SOL    HW233960   1.862   1.441   5.064  0.7625  0.9216  2.5949
 7500SOL     OW33961   1.992   1.594   0.763 -0.5493  0.3759  0.3975
 7500SOL    HW133962   1.945   1.568   0.684  0.5896  0.1806 -0.2184
 7500SOL    HW233963   1.979   1.520   0.823 -0.6500 -1.1403 -1.4872
 7501SOL     OW33964   4.503   0.057  15.246  0.2917 -0.1999  0.1295
 7501SOL    HW133965   4.437   0.066  15.177 -0.7009 -1.3232  0.9403
 7501SOL    HW233966   4.488   0.118  15.319  0.1350 -1.0710  0.8291
 7502SOL     OW33967   3.741   4.710   8.153 -0.1165 -0.1807 -0.2037
 7502SOL    HW133968   3.793   4.634   8.128  1.4298  1.1007 -0.8964
 7502SOL    HW233969   3.721   4.684   8.244 -0.1328 -2.3694 -0.8258
 7503SOL     OW33970   3.731   2.294   3.304  0.2242  0.5258 -0.4320
 7503SOL    HW133971   3.656   2.345   3.335  0.5819  1.6528 -1.4695
 7503SOL    HW233972   3.683   2.214   3.281 -2.2691  2.4368 -1.7916
 7504SOL     OW33973   0.280   1.388   3.881 -0.1545 -0.0735 -0.4383
 7504SOL    HW133974   0.318   1.451   3.821  2.0441 -0.6968  0.2972
 7504SOL    HW233975   0.267   1.314   3.822 -0.7389 -0.3044 -0.0283
 7505SOL     OW33976   1.746   3.002   3.025  0.1251  0.3423 -0.2488
 7505SOL    HW133977   1.691   2.956   2.962 -0.0817 -1.0898  1.0071
 7505SOL    HW233978   1.767   3.074   2.964 -3.9300 -0.4724 -2.5947
 7506SOL     OW33979   1.680   0.729  16.490 -0.2197 -0.1208  0.1730
 7506SOL    HW133980   1.655   0.817  16.520  0.5604 -0.0327  0.5864
 7506SOL    HW233981   1.752   0.756  16.433 -0.0384 -0.6633  0.1438
 7507SOL     OW33982   1.982   1.607   5.439  0.0232 -0.2883 -0.6016
 7507SOL    HW133983   1.986   1.599   5.534 -2.5435  1.0703 -0.3720
 7507SOL    HW233984   2.018   1.521   5.417  0.6787 -0.2409  0.2918
 7508SOL     OW33985   3.210   0.966   9.063 -0.4120  0.2528  0.5452
 7508SOL    HW133986   3.165   1.035   9.015 -1.2026 -0.0683  0.8254
 7508SOL    HW233987   3.254   0.919   8.993  2.1025  1.4694  1.3211
 7509SOL     OW33988   2.049   0.951   0.261  0.0785  0.2819 -0.2788
 7509SOL    HW133989   2.120   1.014   0.251  1.3282 -0.8563  1.3589
 7509SOL    HW233990   2.046   0.936   0.167  2.7226 -2.9215  0.1628
 7510SOL     OW33991   3.406   4.632   6.313  0.1557 -0.2041  0.4545
 7510SOL    HW133992   3.484   4.668   6.356 -0.5234 -0.4945  1.9146
 7510SOL    HW233993   3.353   4.711   6.315 -0.8321 -0.8696  0.9049
 7511SOL     OW33994   3.727   1.750   6.435  0.4827 -0.0751 -0.1994
 7511SOL    HW133995   3.751   1.662   6.464 -0.2846 -0.8807 -2.0315
 7511SOL    HW233996   3.793   1.768   6.368  1.3922 -0.8773  0.4769
 7512SOL     OW33997   2.865   3.468  15.449 -0.4004  0.4941 -0.1445
 7512SOL    HW133998   2.866   3.451  15.355  1.1681  2.3279 -0.4625
 7512SOL    HW233999   2.928   3.540  15.447 -0.2527  0.3485 -0.7055
 7513SOL     OW34000   0.866   3.996  10.825  0.0493 -0.1209  0.2635
 7513SOL    HW134001   0.918   4.007  10.745 -1.1202  2.7802 -0.1025
 7513SOL    HW234002   0.790   4.050  10.806  1.0232  0.2626 -2.4582
 7514SOL     OW34003   4.341   0.656  10.436 -0.2979 -0.3951 -0.6586
 7514SOL    HW134004   4.377   0.728  10.488 -1.4060  0.7421 -1.4728
 7514SOL    HW234005   4.303   0.706  10.364 -0.2499 -0.8951 -1.0314
 7515SOL     OW34006   2.309   1.984   7.134  0.8109 -0.3750  0.7908
 7515SOL    HW134007   2.244   1.933   7.084 -1.6365  2.9829  0.5620
 7515SOL    HW234008   2.293   1.974   7.228 -2.9884  1.4589  0.3707
 7516SOL     OW34009   2.919   2.715  17.367  0.1953 -0.1048  0.0301
 7516SOL    HW134010   2.933   2.808  17.387  2.8409 -0.4234 -0.3614
 7516SOL    HW234011   2.980   2.669  17.425  2.2273 -0.8055 -2.6856
 7517SOL     OW34012   1.586   2.634   8.814 -0.1235 -0.1745  0.0942
 7517SOL    HW134013   1.609   2.722   8.844  0.6566  0.4003 -2.1791
 7517SOL    HW234014   1.673   2.593   8.815 -0.3665 -0.6030  3.0997
 7518SOL     OW34015   3.249   1.941   3.810 -0.2639 -0.0018  0.2512
 7518SOL    HW134016   3.286   2.013   3.861 -1.2045  1.4918 -1.1817
 7518SOL    HW234017   3.188   1.907   3.876 -0.9375  2.6892  1.0350
 7519SOL     OW34018   2.836   3.302   2.693 -0.0220  0.3466 -0.3230
 7519SOL    HW134019   2.831   3.381   2.746 -0.9137  0.4203 -0.5046
 7519SOL    HW234020   2.747   3.297   2.657 -0.2187 -1.3407  0.3837
 7520SOL     OW34021   0.902   3.000  17.559  0.5104  0.3528  0.1648
 7520SOL    HW134022   0.952   2.920  17.574 -0.6953  0.0813  2.6466
 7520SOL    HW234023   0.837   2.997  17.629 -0.3223 -0.4438 -0.6395
 7521SOL     OW34024   1.387   4.045   4.372 -0.3524 -0.5112 -0.0680
 7521SOL    HW134025   1.469   4.020   4.331  0.4100  0.5877  0.7673
 7521SOL    HW234026   1.397   3.997   4.454 -4.1573  0.9359  1.2766
 7522SOL     OW34027   4.112   0.963   7.709 -0.2718  0.1522  0.0300
 7522SOL    HW134028   4.024   0.943   7.678  0.2130 -2.0627  0.0349
 7522SOL    HW234029   4.173   0.933   7.642  0.6601  0.6899  0.6348
 7523SOL     OW34030   3.749   1.029   3.310 -0.0461  0.1215 -0.3489
 7523SOL    HW134031   3.735   0.956   3.369  3.9546 -0.2944  0.1037
 7523SOL    HW234032   3.698   0.994   3.237 -1.2842 -2.0707  1.6123
 7524SOL     OW34033   1.529   1.629   1.896 -0.9547  0.5936 -0.3140
 7524SOL    HW134034   1.516   1.662   1.985  1.0200  0.6420 -0.0456
 7524SOL    HW234035   1.570   1.546   1.918 -1.5789  0.0863 -1.0696
 7525SOL     OW34036   3.911   3.581   5.050  0.1303 -0.5090 -0.2570
 7525SOL    HW134037   3.858   3.527   5.110  0.9951 -0.6214  0.4105
 7525SOL    HW234038   3.972   3.625   5.109 -0.8860  0.4278  0.1075
 7526SOL     OW34039   0.757   4.389   0.598 -0.0922  0.3365  0.0838
 7526SOL    HW134040   0.771   4.296   0.580  1.0003  0.7901 -1.4183
 7526SOL    HW234041   0.823   4.403   0.666 -0.5295  2.7589  0.0052
 7527SOL     OW34042   2.273   0.664   9.251  0.2500 -0.3057 -0.0362
 7527SOL    HW134043   2.227   0.746   9.236 -1.4261 -1.3660 -0.6910
 7527SOL    HW234044   2.365   0.691   9.242  0.0170 -0.0047 -1.4004
 7528SOL     OW34045   0.348   1.932  16.193  0.1931  0.3281  0.0842
 7528SOL    HW134046   0.392   1.899  16.115 -1.9017  0.6040 -1.1936
 7528SOL    HW234047   0.343   1.850  16.242 -0.2812 -0.0707 -0.6344
 7529SOL     OW34048   0.574   0.189   2.247  0.3471 -0.8147 -0.0266
 7529SOL    HW134049   0.583   0.137   2.168 -0.7997 -1.0911  0.0160
 7529SOL    HW234050   0.500   0.246   2.227 -0.2221 -0.6298  2.5263
 7530SOL     OW34051   0.623   1.111  12.196  0.2328 -0.0241  0.8070
 7530SOL    HW134052   0.675   1.168  12.139  1.8419 -0.5415  1.7375
 7530SOL    HW234053   0.541   1.159  12.205  0.1157  0.1941 -1.3298
 7531SOL     OW34054   4.660   3.254   5.237 -0.1900  0.2158  0.0257
 7531SOL    HW134055   0.002   3.216   5.177 -0.4728 -0.1255 -0.0588
 7531SOL    HW234056   4.596   3.297   5.181 -1.0880 -0.1276  0.7963
 7532SOL     OW34057   1.340   0.966   3.482  0.3143  0.4265 -0.3383
 7532SOL    HW134058   1.360   0.882   3.522  1.3277  1.3972  1.2314
 7532SOL    HW234059   1.427   0.996   3.455 -0.4756  1.6109 -1.5902
 7533SOL     OW34060   4.476   0.419   3.049 -0.1873 -0.3837 -0.4159
 7533SOL    HW134061   4.478   0.414   2.953 -1.2432  2.4311 -0.5698
 7533SOL    HW234062   4.381   0.409   3.053 -0.1427  0.0539  1.5494
 7534SOL     OW34063   2.234   2.668  10.037 -0.0755 -0.3795 -0.1304
 7534SOL    HW134064   2.186   2.662  10.120  0.5217  1.2346  0.3433
 7534SOL    HW234065   2.230   2.761  10.014 -1.1031 -0.6483 -1.0398
 7535SOL     OW34066   1.911   0.746   4.969  0.1250  0.0888 -0.5892
 7535SOL    HW134067   1.975   0.744   4.899  1.8777 -1.0526  1.0514
 7535SOL    HW234068   1.837   0.766   4.912 -0.5322  0.2928  0.3263
 7536SOL     OW34069   0.636   2.419  10.380 -0.2949 -0.0838  0.1271
 7536SOL    HW134070   0.555   2.370  10.396 -0.6257  0.1701 -0.7721
 7536SOL    HW234071   0.699   2.366  10.429 -1.8021 -1.0928  0.9646
 7537SOL     OW34072   1.652   4.624   0.131  0.0553 -0.3588  0.5361
 7537SOL    HW134073   1.595   4.582   0.067 -0.3832 -0.7483  1.1892
 7537SOL    HW234074   1.714   4.554   0.152  0.1498  0.2368  2.2071
 7538SOL     OW34075   2.632   1.380   0.144  0.7242 -0.1968  0.0924
 7538SOL    HW134076   2.672   1.321   0.081  0.3831 -0.6599  0.3027
 7538SOL    HW234077   2.652   1.343   0.230  2.0258  1.5077  0.5256
 7539SOL     OW34078   0.614   2.424  15.619 -0.3525  0.2776 -0.4990
 7539SOL    HW134079   0.694   2.409  15.569 -0.3739  1.6666 -0.9573
 7539SOL    HW234080   0.613   2.520  15.624 -1.2659  0.2142  0.4899
 7540SOL     OW34081   3.842   2.503   1.595 -0.4375 -0.1666  0.1085
 7540SOL    HW134082   3.753   2.467   1.594 -0.3538 -0.3736 -0.3616
 7540SOL    HW234083   3.843   2.539   1.506 -0.6787  2.6179  1.2540
 7541SOL     OW34084   2.601   3.373   5.017  0.5608  0.4285 -0.2559
 7541SOL    HW134085   2.584   3.455   5.064  1.2207  0.8763 -0.8006
 7541SOL    HW234086   2.522   3.365   4.964  0.7101  0.0964 -0.4273
 7542SOL     OW34087   2.223   2.151   6.632 -0.8202 -0.2797  0.0799
 7542SOL    HW134088   2.316   2.130   6.637 -0.7175  0.3139  0.6721
 7542SOL    HW234089   2.196   2.184   6.717 -2.3835 -0.9300 -0.1711
 7543SOL     OW34090   2.810   0.297   4.963 -0.1501 -0.2287  0.0945
 7543SOL    HW134091   2.895   0.256   4.971 -1.1931 -2.2378  0.8354
 7543SOL    HW234092   2.838   0.389   4.968  0.8264 -0.3817 -2.3374
 7544SOL     OW34093   4.611   1.309  16.739  0.0624  0.2256 -0.0449
 7544SOL    HW134094   4.628   1.371  16.809 -0.3004 -2.2569  2.2541
 7544SOL    HW234095   4.518   1.287  16.753 -0.1482  1.7088  0.8675
 7545SOL     OW34096   3.507   3.263   1.264  0.2227  0.1167  0.3865
 7545SOL    HW134097   3.447   3.277   1.337  1.1913 -3.9032  1.9792
 7545SOL    HW234098   3.551   3.180   1.283  1.9078  1.4615  2.3698
 7546SOL     OW34099   4.572   4.141  13.523 -0.0916  0.3875  0.0724
 7546SOL    HW134100   4.585   4.215  13.583 -1.1231  0.4888  0.1657
 7546SOL    HW234101   4.521   4.179  13.452 -0.0116  1.7875  0.7656
 7547SOL     OW34102   0.440   3.302  14.287 -0.2173  0.0495  0.4803
 7547SOL    HW134103   0.510   3.252  14.245 -2.5392 -2.1007 -0.8175
 7547SOL    HW234104   0.444   3.358  14.210  1.6391 -1.3049 -0.3938
 7548SOL     OW34105   2.458   4.659   5.849 -0.1001 -0.6736  0.4482
 7548SOL    HW134106   2.475   4.572   5.884  0.7730  0.3927  2.7413
 7548SOL    HW234107   2.369   4.642   5.818  0.3977 -1.0517 -0.7688
 7549SOL     OW34108   2.917   3.608  16.458  0.2974 -0.5716  0.0992
 7549SOL    HW134109   2.873   3.590  16.541 -0.3123  0.4277 -0.0124
 7549SOL    HW234110   2.873   3.551  16.396 -0.6243  2.0161 -1.6197
 7550SOL     OW34111   3.939   2.068   1.739  0.7848  0.1561  0.4489
 7550SOL    HW134112   3.995   1.992   1.725  0.5656  0.4362 -1.8890
 7550SOL    HW234113   3.893   2.068   1.655 -0.7778 -0.9885  1.2906
 7551SOL     OW34114   0.142   3.814   8.733 -0.3329 -0.3584 -0.0674
 7551SOL    HW134115   0.234   3.794   8.751 -0.1503  0.5736  0.0368
 7551SOL    HW234116   0.141   3.768   8.649  1.0719 -0.7697  0.1358
 7552SOL     OW34117   1.528   2.893  10.121  0.1454  0.2235  0.5076
 7552SOL    HW134118   1.578   2.818  10.154  0.9049  0.3909 -0.2450
 7552SOL    HW234119   1.593   2.963  10.134  2.0066 -1.7700  1.8715
 7553SOL     OW34120   2.223   1.501   6.238 -0.1082  1.1880  0.0872
 7553SOL    HW134121   2.129   1.502   6.221  0.0627 -1.1999 -0.8601
 7553SOL    HW234122   2.230   1.482   6.331 -1.5461 -1.0010 -0.2697
 7554SOL     OW34123   3.345   1.901   2.165  0.1228 -0.2313 -0.1546
 7554SOL    HW134124   3.370   1.810   2.181 -2.0315 -0.7346  0.4335
 7554SOL    HW234125   3.426   1.930   2.122  1.1557 -0.8845  1.3617
 7555SOL     OW34126   2.478   3.274   0.162 -0.2354 -0.3057 -0.5902
 7555SOL    HW134127   2.394   3.251   0.122 -1.1105 -0.5601  1.3736
 7555SOL    HW234128   2.539   3.270   0.089 -0.0628  0.4415 -0.4828
 7556SOL     OW34129   2.618   1.693   6.658 -0.0905 -0.5161 -0.0728
 7556SOL    HW134130   2.632   1.722   6.748 -0.3395 -1.9978  0.4615
 7556SOL    HW234131   2.567   1.616   6.683  0.4975 -0.7017  0.5771
 7557SOL     OW34132   1.543   4.650   7.589 -0.1764  0.0753 -0.3420
 7557SOL    HW134133   1.566   0.007   7.541 -0.6049  0.3666 -0.0604
 7557SOL    HW234134   1.598   4.584   7.546  0.7765  0.5513  0.1382
 7558SOL     OW34135   2.529   3.367   0.903  0.0072 -0.0301  0.6987
 7558SOL    HW134136   2.602   3.305   0.891 -0.9287 -0.7363 -1.4166
 7558SOL    HW234137   2.463   3.344   0.837  0.5038  0.4384  0.0379
 7559SOL     OW34138   3.958   2.036   2.540  0.0782  0.6427 -0.4758
 7559SOL    HW134139   4.050   2.028   2.515 -0.0307 -0.1873 -0.6208
 7559SOL    HW234140   3.924   2.095   2.473  0.2289 -0.5911 -1.6392
 7560SOL     OW34141   3.272   2.597   2.212  0.7004  0.3917  0.6450
 7560SOL    HW134142   3.328   2.667   2.180 -0.4660 -0.0229 -2.3784
 7560SOL    HW234143   3.194   2.648   2.235  0.3760  0.0852  0.2286
 7561SOL     OW34144   0.524   4.638  11.387  0.2564 -0.5097 -0.0269
 7561SOL    HW134145   0.609   4.681  11.399 -0.4246  0.7947  0.1343
 7561SOL    HW234146   0.477   4.677  11.460  3.0289 -0.9577  2.0279
 7562SOL     OW34147   3.971   2.636  13.926 -0.2620 -0.2385 -0.0194
 7562SOL    HW134148   3.941   2.546  13.909  0.4956 -0.3102 -0.9787
 7562SOL    HW234149   3.993   2.627  14.018  3.0760 -0.4107 -0.8401
 7563SOL     OW34150   1.820   2.578   0.151  0.2418 -0.3700 -0.0303
 7563SOL    HW134151   1.842   2.660   0.108 -2.1704  1.6931  2.6442
 7563SOL    HW234152   1.756   2.607   0.217  2.5013  1.1228  1.5055
 7564SOL     OW34153   3.121   2.875  13.665  0.0633 -0.0140  0.3866
 7564SOL    HW134154   3.193   2.824  13.702 -0.2760 -0.1282  0.8907
 7564SOL    HW234155   3.157   2.962  13.652  2.6335 -1.2504 -0.8088
 7565SOL     OW34156   3.259   1.069   5.779  0.2008 -0.3587 -0.3474
 7565SOL    HW134157   3.292   1.155   5.808  1.0163 -0.3885 -1.1765
 7565SOL    HW234158   3.209   1.041   5.856 -0.5153 -1.5778 -1.2674
 7566SOL     OW34159   1.164   0.279   3.567  1.0558 -0.2649  0.0771
 7566SOL    HW134160   1.218   0.292   3.489  0.1525 -0.8537 -0.6373
 7566SOL    HW234161   1.123   0.365   3.577 -0.2041 -1.0004  1.1478
 7567SOL     OW34162   3.213   2.083   4.147 -0.1666 -0.2973  0.3206
 7567SOL    HW134163   3.214   2.116   4.237  0.4885 -1.1464  0.6237
 7567SOL    HW234164   3.125   2.048   4.140  0.5391 -1.9146 -0.5344
 7568SOL     OW34165   0.880   3.466  12.469  0.1708 -0.8658  0.9061
 7568SOL    HW134166   0.955   3.406  12.464  1.1247  0.5061 -1.2292
 7568SOL    HW234167   0.928   3.548  12.478  0.6211 -1.3776  3.1898
 7569SOL     OW34168   4.553   0.875   5.943  0.2011  0.2562 -0.2526
 7569SOL    HW134169   4.574   0.966   5.966 -0.4785  0.8465 -1.9833
 7569SOL    HW234170   4.459   0.866   5.956  0.0739 -0.4297 -1.6916
 7570SOL     OW34171   3.009   0.060   6.489 -0.4437 -0.1031 -0.5158
 7570SOL    HW134172   3.042   4.694   6.505 -0.0786  0.0791 -0.2739
 7570SOL    HW234173   3.073   0.092   6.425 -1.1739  1.4749 -0.4625
 7571SOL     OW34174   3.294   0.248   8.055  0.3776  0.0690  0.1802
 7571SOL    HW134175   3.374   0.197   8.040 -0.3897 -1.3941  1.0820
 7571SOL    HW234176   3.314   0.275   8.145 -0.2922  1.1990 -0.0104
 7572SOL     OW34177   0.523   0.497  12.705 -0.1529  0.0886  0.8366
 7572SOL    HW134178   0.589   0.542  12.652  1.3203 -3.7108 -0.5289
 7572SOL    HW234179   0.533   0.526  12.796  0.8734  1.2827  0.3464
 7573SOL     OW34180   0.839   3.106   9.232 -0.0466  0.0441  0.3297
 7573SOL    HW134181   0.793   3.031   9.270  1.8692 -1.5937 -0.5732
 7573SOL    HW234182   0.928   3.074   9.220 -0.1213 -0.3851  0.8862
 7574SOL     OW34183   4.390   3.532   4.614 -0.0120 -0.1743  0.2812
 7574SOL    HW134184   4.337   3.474   4.560  1.0560  1.4192 -2.4586
 7574SOL    HW234185   4.326   3.593   4.651  1.4983  3.0211 -2.3478
 7575SOL     OW34186   1.186   1.780   4.962  0.3775  0.1986 -0.0908
 7575SOL    HW134187   1.211   1.701   4.914 -2.7676 -1.3098  0.7609
 7575SOL    HW234188   1.242   1.778   5.039 -1.2705 -0.5549  1.0846
 7576SOL     OW34189   1.152   2.607   5.967  0.2717  0.3629 -0.4270
 7576SOL    HW134190   1.061   2.630   5.948 -0.4058 -1.1583  1.0465
 7576SOL    HW234191   1.199   2.688   5.945  0.5447  0.6575  1.2648
 7577SOL     OW34192   0.878   0.926   8.952 -0.3012 -0.3237 -0.3253
 7577SOL    HW134193   0.965   0.960   8.933  1.0194 -2.0895  2.5571
 7577SOL    HW234194   0.881   0.842   8.905 -0.4675  0.4400 -1.6938
 7578SOL     OW34195   4.686   2.413   0.222  0.6646  0.3495  0.3512
 7578SOL    HW134196   4.597   2.378   0.229  0.8735 -0.8467 -2.8949
 7578SOL    HW234197   0.021   2.349   0.264  1.8480  0.6351 -0.8155
 7579SOL     OW34198   0.978   3.378  12.784  0.1783  0.3976  0.4016
 7579SOL    HW134199   0.932   3.315  12.839  0.8132 -0.6348 -0.2642
 7579SOL    HW234200   1.058   3.335  12.756 -0.1162 -0.5146  0.9792
 7580SOL     OW34201   1.599   0.487   1.051  0.1220 -0.3405 -0.8546
 7580SOL    HW134202   1.655   0.427   1.001  0.6301 -0.8108  0.2729
 7580SOL    HW234203   1.576   0.427   1.122 -0.3033  0.9195  0.0669
 7581SOL     OW34204   4.235   0.116   3.189  0.1574 -0.2549  0.4877
 7581SOL    HW134205   4.278   0.040   3.227  1.3040 -1.0735 -2.3987
 7581SOL    HW234206   4.169   0.143   3.253  1.9643  1.9135  1.4227
 7582SOL     OW34207   4.001   2.522   2.037 -0.0401  0.3698 -0.0914
 7582SOL    HW134208   4.047   2.477   2.107 -0.9046 -0.2146  0.1050
 7582SOL    HW234209   3.981   2.451   1.976  1.6320 -0.1979  0.0393
 7583SOL     OW34210   0.484   3.246   9.293  0.5892 -0.2478 -0.8197
 7583SOL    HW134211   0.496   3.152   9.280  1.3706  0.0370 -2.1498
 7583SOL    HW234212   0.560   3.268   9.346 -0.3567 -1.1633  0.9268
 7584SOL     OW34213   3.914   1.224   7.921 -0.8446  0.0071  0.0267
 7584SOL    HW134214   3.997   1.218   7.872 -0.7309  1.5489  0.0408
 7584SOL    HW234215   3.918   1.309   7.965 -1.0026 -0.6651  1.3543
 7585SOL     OW34216   0.990   3.644   8.986  0.2290 -0.3677  0.4351
 7585SOL    HW134217   1.056   3.645   8.917 -0.1030  0.8271  0.1272
 7585SOL    HW234218   0.920   3.583   8.962 -0.6489  1.5429 -1.8670
 7586SOL     OW34219   3.475   0.774   7.651  0.5753  0.0118 -0.0847
 7586SOL    HW134220   3.540   0.797   7.718  0.5206 -1.6378  0.5389
 7586SOL    HW234221   3.420   0.853   7.652  2.4596  1.3155  0.3325
 7587SOL     OW34222   1.298   2.656   8.159  0.2826  0.1683 -0.1818
 7587SOL    HW134223   1.350   2.628   8.084 -0.1455 -0.3030 -0.3002
 7587SOL    HW234224   1.283   2.747   8.135  2.8380  0.6672  0.1358
 7588SOL     OW34225   0.669   1.779   6.901 -0.3679  0.4125 -0.1250
 7588SOL    HW134226   0.581   1.744   6.912  0.5132 -1.9524 -0.6300
 7588SOL    HW234227   0.659   1.820   6.815  2.8799  2.0948  0.3078
 7589SOL     OW34228   3.678   2.839   5.825  0.2253 -0.0558  0.4675
 7589SOL    HW134229   3.650   2.749   5.805 -0.3898  0.3474 -0.4654
 7589SOL    HW234230   3.621   2.865   5.898 -0.7106 -1.2749  0.1761
 7590SOL     OW34231   4.203   2.692   0.255  0.1610  0.7074 -0.1561
 7590SOL    HW134232   4.238   2.654   0.175  1.7233 -0.3048  1.0151
 7590SOL    HW234233   4.262   2.764   0.274  1.2276 -0.4763  1.0458
 7591SOL     OW34234   2.966   1.961   2.552  0.5157  0.6250  0.2474
 7591SOL    HW134235   3.012   1.949   2.469 -1.8217 -0.3261 -0.9101
 7591SOL    HW234236   3.005   1.890   2.604  0.4104  1.1905  1.1078
 7592SOL     OW34237   3.102   1.636   7.189 -0.1110 -0.4057  0.1170
 7592SOL    HW134238   3.077   1.583   7.265  0.8599  0.1497  0.8241
 7592SOL    HW234239   3.187   1.675   7.210 -0.5878  1.3407 -1.2804
 7593SOL     OW34240   2.927   2.102   8.975 -0.4835 -1.0046  0.0467
 7593SOL    HW134241   2.956   2.170   8.915  1.8328 -0.6583  1.5656
 7593SOL    HW234242   2.881   2.144   9.048  0.6901 -1.1641  0.8833
 7594SOL     OW34243   0.846   1.666   4.677 -0.5571 -0.2364 -0.5512
 7594SOL    HW134244   0.755   1.660   4.647 -0.6988  1.2374 -0.4166
 7594SOL    HW234245   0.893   1.626   4.604  2.0041  0.4537  0.7354
 7595SOL     OW34246   1.782   0.192  15.199  0.0315 -0.0010 -0.1789
 7595SOL    HW134247   1.798   0.115  15.254  2.4252  0.5237 -0.1251
 7595SOL    HW234248   1.702   0.161  15.157  0.4293  0.5642 -1.3499
 7596SOL     OW34249   0.104   0.989   2.271 -0.6956  0.8139 -0.2394
 7596SOL    HW134250   0.188   1.033   2.263  0.1427 -0.5051  1.4474
 7596SOL    HW234251   0.046   1.053   2.229 -1.3796  0.1763 -0.2654
 7597SOL     OW34252   0.433   4.520   9.340 -0.1957 -0.2465 -0.5063
 7597SOL    HW134253   0.504   4.555   9.286 -0.3150 -4.2538 -3.2506
 7597SOL    HW234254   0.372   4.593   9.350 -1.5928 -1.5697  0.6271
 7598SOL     OW34255   3.388   0.649  12.933 -0.2540  0.4585 -0.1427
 7598SOL    HW134256   3.373   0.554  12.940 -0.7578  0.6170  1.0577
 7598SOL    HW234257   3.481   0.658  12.912 -0.1080 -0.2620  0.1900
 7599SOL     OW34258   4.559   3.581   7.461  0.0368  0.0168  0.0564
 7599SOL    HW134259   4.592   3.653   7.515  0.2429  0.5454 -0.7764
 7599SOL    HW234260   4.467   3.585   7.489  0.7012  2.6273  1.9217
 7600SOL     OW34261   4.378   1.943   0.986  0.1384  0.8937 -0.0924
 7600SOL    HW134262   4.384   1.926   0.892 -2.5582  0.9245 -0.2717
 7600SOL    HW234263   4.316   1.874   1.011  2.4619 -1.2657 -0.3341
 7601SOL     OW34264   2.922   0.102   7.743  0.2689 -0.4217  0.0303
 7601SOL    HW134265   2.965   0.092   7.828 -1.6187 -0.8765  0.9244
 7601SOL    HW234266   2.956   0.190   7.729  2.0285 -0.5001  3.8267
 7602SOL     OW34267   2.520   0.259  14.790 -0.3243  0.2054  0.2055
 7602SOL    HW134268   2.595   0.311  14.818 -1.7442  3.1570 -1.3524
 7602SOL    HW234269   2.533   0.258  14.695  2.1269  1.2476  0.5272
 7603SOL     OW34270   3.586   1.822   7.053  0.3275 -0.2275 -0.5247
 7603SOL    HW134271   3.554   1.905   7.088 -0.2624  0.6004 -3.0056
 7603SOL    HW234272   3.524   1.815   6.980  1.2439  0.7656 -1.3955
 7604SOL     OW34273   0.687   4.180   0.274 -0.2202  0.1490  0.5831
 7604SOL    HW134274   0.717   4.095   0.307  3.7262  0.9552 -0.8927
 7604SOL    HW234275   0.755   4.197   0.209 -2.3498  2.9655 -0.8903
 7605SOL     OW34276   2.276   1.022   4.309 -0.1306  0.0003 -0.4914
 7605SOL    HW134277   2.337   1.092   4.288  1.1785 -0.8492  0.5272
 7605SOL    HW234278   2.203   1.061   4.260  0.5829 -0.3915 -1.8835
 7606SOL     OW34279   0.853   2.266   2.224  0.0030  0.8549 -0.3171
 7606SOL    HW134280   0.901   2.185   2.242 -2.0178 -0.2235  0.2118
 7606SOL    HW234281   0.767   2.225   2.233 -0.2771  1.2642 -1.1336
 7607SOL     OW34282   1.179   4.560  10.834  0.3920  0.0597 -0.3075
 7607SOL    HW134283   1.246   4.493  10.847  0.6041  0.4461  0.6601
 7607SOL    HW234284   1.222   4.619  10.896  0.5942  0.4359 -0.8033
 7608SOL     OW34285   3.534   1.133   4.160  0.4659  0.6502  0.2141
 7608SOL    HW134286   3.482   1.064   4.119 -0.1884 -0.2760  2.5987
 7608SOL    HW234287   3.614   1.134   4.106 -1.0527 -2.9790 -2.0745
 7609SOL     OW34288   0.173   2.544   9.503 -0.4912  0.3187  0.3158
 7609SOL    HW134289   0.165   2.449   9.499  1.6742  0.1331  0.4553
 7609SOL    HW234290   0.112   2.568   9.433  0.1582 -2.0358 -1.0671
 7610SOL     OW34291   3.119   4.491   6.731  0.4888 -0.5866 -0.3875
 7610SOL    HW134292   3.206   4.530   6.742 -0.0295  0.3690  0.3343
 7610SOL    HW234293   3.092   4.512   6.642  1.6248  0.5012 -0.4705
 7611SOL     OW34294   2.792   2.581   6.162  0.3449 -0.1028  0.1998
 7611SOL    HW134295   2.845   2.507   6.130 -0.5723 -0.6467 -0.0707
 7611SOL    HW234296   2.710   2.551   6.123 -0.1309  0.7606  0.5572
 7612SOL     OW34297   0.073   0.673   4.989 -0.3401  0.0097  0.3344
 7612SOL    HW134298   0.007   0.714   5.044  0.4758  0.1267  1.2409
 7612SOL    HW234299   0.133   0.745   4.970 -0.2279 -0.1823 -0.0284
 7613SOL     OW34300   3.608   0.113   6.621 -0.2413 -0.2228 -0.1698
 7613SOL    HW134301   3.677   0.178   6.636  2.3748 -3.1701  0.5907
 7613SOL    HW234302   3.617   0.083   6.531  2.6667 -2.0892  0.7401
 7614SOL     OW34303   1.464   1.063   8.573 -0.3940 -0.4747  0.4780
 7614SOL    HW134304   1.381   1.053   8.528 -1.9281  0.1639  3.1703
 7614SOL    HW234305   1.522   0.995   8.537  0.6448 -0.5301  2.2140
 7615SOL     OW34306   1.471   2.958   8.251  0.0418 -0.2418 -0.0164
 7615SOL    HW134307   1.515   2.883   8.213 -2.1581 -2.3278  1.5634
 7615SOL    HW234308   1.506   3.029   8.198  0.1300  1.4823  2.3413
 7616SOL     OW34309   1.570   0.309   7.070 -0.0597 -0.1810  0.4490
 7616SOL    HW134310   1.585   0.370   6.999 -0.7192 -1.3426 -0.6860
 7616SOL    HW234311   1.639   0.334   7.131  1.0166  1.8663 -1.6385
 7617SOL     OW34312   0.964   4.233   1.802 -0.2225 -0.5957 -0.4026
 7617SOL    HW134313   0.886   4.195   1.843  0.9874 -0.1245  2.3231
 7617SOL    HW234314   0.932   4.321   1.783 -1.3375 -0.9223 -0.0353
 7618SOL     OW34315   2.933   3.026   6.546  0.2067 -0.2320  0.5250
 7618SOL    HW134316   2.852   2.984   6.516 -0.3860 -0.9511  3.1597
 7618SOL    HW234317   2.995   3.010   6.474  0.7837  1.8970  0.5539
 7619SOL     OW34318   2.512   2.876   5.408  0.3068  0.6970 -0.4034
 7619SOL    HW134319   2.506   2.879   5.504  1.8531  0.6864 -0.3033
 7619SOL    HW234320   2.546   2.788   5.392  1.4404  1.0475  0.0747
 7620SOL     OW34321   0.199   1.077   5.444 -0.4847  0.4640  0.4853
 7620SOL    HW134322   0.251   1.038   5.515  1.7168  1.5872 -0.5017
 7620SOL    HW234323   0.247   1.040   5.370 -2.1790 -0.2238 -0.2518
 7621SOL     OW34324   3.188   1.401   4.644 -0.2607 -0.0960 -0.2660
 7621SOL    HW134325   3.198   1.309   4.620 -1.1153 -0.2507 -0.0345
 7621SOL    HW234326   3.280   1.426   4.649  0.3332 -2.7475  2.0931
 7622SOL     OW34327   3.436   2.708   2.659 -0.3445 -0.2935 -0.6579
 7622SOL    HW134328   3.519   2.666   2.635 -0.5391  0.0665 -1.9409
 7622SOL    HW234329   3.445   2.704   2.754 -2.3703 -1.3727 -0.5301
 7623SOL     OW34330   1.037   3.981  11.641  0.2620 -0.1151 -0.2847
 7623SOL    HW134331   1.018   4.046  11.573 -0.3281 -0.8255 -0.7959
 7623SOL    HW234332   1.089   3.911  11.603  0.9468 -1.4353  3.0557
 7624SOL     OW34333   1.266   1.702  16.121  0.3160 -0.2973 -0.0787
 7624SOL    HW134334   1.238   1.788  16.088  1.3883  0.7266  1.6815
 7624SOL    HW234335   1.243   1.656  16.041 -0.1975 -0.7784  0.3449
 7625SOL     OW34336   1.957   4.114   0.518 -0.4184 -0.4226  0.0335
 7625SOL    HW134337   1.960   4.163   0.436  0.9504 -0.4188  0.0771
 7625SOL    HW234338   2.044   4.130   0.556 -0.4040  1.0104 -0.5782
 7626SOL     OW34339   0.298   3.631   5.429  0.1582 -0.2635  0.4536
 7626SOL    HW134340   0.391   3.644   5.410  0.5668  0.1552  2.7807
 7626SOL    HW234341   0.285   3.538   5.409  3.0121 -0.7198  0.6611
 7627SOL     OW34342   4.076   0.942   4.366 -0.4494  0.2841  0.3623
 7627SOL    HW134343   4.143   0.942   4.297 -0.1020 -1.2645  0.6877
 7627SOL    HW234344   4.054   0.849   4.363 -1.4925  0.4891  1.5571
 7628SOL     OW34345   0.665   3.777  10.334  0.5282  0.2030  0.4077
 7628SOL    HW134346   0.676   3.737  10.247 -1.4365  0.5928 -0.0158
 7628SOL    HW234347   0.619   3.706  10.376  0.2484  1.1433  1.6734
 7629SOL     OW34348   2.405   2.515   5.600 -0.3920  0.0402  0.4477
 7629SOL    HW134349   2.378   2.589   5.546  1.9162  1.5139  1.2915
 7629SOL    HW234350   2.439   2.449   5.540 -1.1566  0.7306 -0.7333
 7630SOL     OW34351   2.899   4.196   7.237  0.2381 -0.0923 -0.4349
 7630SOL    HW134352   2.913   4.140   7.313 -2.4541  1.2125  1.0288
 7630SOL    HW234353   2.878   4.281   7.275  1.0743 -0.8030  1.6255
 7631SOL     OW34354   4.272   3.150   3.742  0.2012 -0.0005  0.1060
 7631SOL    HW134355   4.253   3.131   3.650 -0.5958 -2.5599  0.7990
 7631SOL    HW234356   4.316   3.067   3.763  0.5443  0.2025  0.1813
 7632SOL     OW34357   0.759   0.974  12.752  0.5767  0.2761  0.3975
 7632SOL    HW134358   0.705   0.911  12.703  1.0558  0.4885 -0.4063
 7632SOL    HW234359   0.761   1.054  12.700  0.6604  0.7594  1.1577
 7633SOL     OW34360   3.958   2.478   7.680 -0.6383  0.0339  0.1585
 7633SOL    HW134361   3.866   2.487   7.656 -0.8168 -1.3598  0.3269
 7633SOL    HW234362   3.955   2.412   7.748 -0.3748 -2.8816 -2.6704
 7634SOL     OW34363   1.388   2.535   0.145  0.1550 -0.3417  0.4328
 7634SOL    HW134364   1.359   2.626   0.151 -1.1048 -0.4200 -4.8634
 7634SOL    HW234365   1.442   2.550   0.068  1.2627 -0.2605  1.2152
 7635SOL     OW34366   3.540   2.086  14.117 -0.4262 -0.1627  0.5789
 7635SOL    HW134367   3.589   2.132  14.049 -1.2251  1.0490  0.8308
 7635SOL    HW234368   3.580   1.999  14.123 -0.8487 -0.3692  0.3862
 7636SOL     OW34369   4.042   0.266  12.654 -0.3924  0.4471 -0.4240
 7636SOL    HW134370   4.040   0.214  12.734  0.0679 -0.4005 -0.9637
 7636SOL    HW234371   4.136   0.266  12.633  0.1066 -0.0151  1.7874
 7637SOL     OW34372   1.722   1.153   2.869 -0.4106 -0.1386 -0.1121
 7637SOL    HW134373   1.776   1.212   2.816  1.7233 -1.3759  0.6981
 7637SOL    HW234374   1.701   1.080   2.811 -0.2921 -0.7393  0.6120
 7638SOL     OW34375   0.741   1.049   4.454 -0.0644  0.3109 -0.3302
 7638SOL    HW134376   0.730   0.970   4.401 -1.7161  1.0458 -1.0887
 7638SOL    HW234377   0.761   1.006   4.537  0.3820 -0.0657 -0.6325
 7639SOL     OW34378   2.914   2.394   5.104 -0.0836  0.5409 -0.3658
 7639SOL    HW134379   2.950   2.328   5.044 -1.0401  0.0305 -0.3764
 7639SOL    HW234380   2.902   2.467   5.044  2.4500  0.3976 -1.0472
 7640SOL     OW34381   2.741   1.001  11.765  0.4462  0.1121 -0.4379
 7640SOL    HW134382   2.824   0.973  11.804  0.1207  1.5000  1.2233
 7640SOL    HW234383   2.738   0.937  11.693  0.3508  0.3757 -0.6683
 7641SOL     OW34384   4.068   4.703   2.270 -0.1717  0.2648  0.4167
 7641SOL    HW134385   4.059   0.076   2.267 -2.5424 -0.0065 -1.1729
 7641SOL    HW234386   4.100   4.686   2.359  1.5911  0.2761 -0.2175
 7642SOL     OW34387   1.686   0.960   2.681 -0.3152  0.1288  0.5134
 7642SOL    HW134388   1.621   0.898   2.713 -0.5610  0.6932  1.1002
 7642SOL    HW234389   1.745   0.901   2.634  0.7036  1.0784  0.6163
 7643SOL     OW34390   2.298   3.212   7.270  0.1156  0.4465  0.1804
 7643SOL    HW134391   2.259   3.139   7.223  1.2326 -1.2795  1.9250
 7643SOL    HW234392   2.309   3.175   7.358 -1.3051  0.7950  0.5084
 7644SOL     OW34393   1.940   0.809   8.233 -0.2605 -0.6934  0.0378
 7644SOL    HW134394   1.939   0.786   8.325  2.4494 -0.0777  0.2186
 7644SOL    HW234395   2.034   0.813   8.214 -0.6237 -4.0435 -2.6337
 7645SOL     OW34396   2.658   1.932   8.154 -0.4027 -0.7057  0.2658
 7645SOL    HW134397   2.750   1.953   8.140 -0.9009  0.3103 -1.4886
 7645SOL    HW234398   2.635   2.009   8.206 -2.9173 -0.5056 -1.1372
 7646SOL     OW34399   0.079   1.217   6.009 -0.3245  0.8910  0.2675
 7646SOL    HW134400   0.174   1.219   6.003 -0.2782  1.7756  1.2587
 7646SOL    HW234401   0.061   1.156   6.080  1.5431  1.4200  1.1833
 7647SOL     OW34402   3.658   2.629   3.362  0.5450  0.6033 -0.2375
 7647SOL    HW134403   3.611   2.712   3.349  1.0475  1.2334  2.0465
 7647SOL    HW234404   3.611   2.565   3.308  0.6472  0.0956  0.2768
 7648SOL     OW34405   3.602   2.015   7.775  0.0261 -0.1740 -0.1691
 7648SOL    HW134406   3.610   1.926   7.741  1.2845 -0.2376  0.2780
 7648SOL    HW234407   3.508   2.029   7.767  0.1714  0.9447  0.0989
 7649SOL     OW34408   0.621   2.123   3.894 -0.3707 -0.4212  0.1073
 7649SOL    HW134409   0.597   2.039   3.857 -1.2998  0.9568 -2.4195
 7649SOL    HW234410   0.581   2.116   3.980  1.3158  1.8408  1.1057
 7650SOL     OW34411   3.792   2.661  15.309  0.3459  0.4620 -0.1123
 7650SOL    HW134412   3.848   2.708  15.371  3.4525 -1.1185 -1.7397
 7650SOL    HW234413   3.734   2.616  15.370  2.1892 -2.3101 -0.4134
 7651SOL     OW34414   3.240   4.373   3.913  0.5902 -0.0029 -0.0926
 7651SOL    HW134415   3.245   4.277   3.911  1.3331  0.0248  0.2983
 7651SOL    HW234416   3.235   4.394   3.820 -1.4573 -1.2054 -0.2636
 7652SOL     OW34417   3.352   2.088   4.940  0.3764  0.1854  0.9492
 7652SOL    HW134418   3.435   2.133   4.923  0.3761 -1.1440 -2.4705
 7652SOL    HW234419   3.371   2.027   5.012  2.4843  1.7798  1.7448
 7653SOL     OW34420   1.163   2.220   8.447 -0.6204  0.0775  0.1036
 7653SOL    HW134421   1.196   2.307   8.423  0.5612 -0.6567 -0.9410
 7653SOL    HW234422   1.188   2.216   8.539  0.4641  3.3687 -0.0392
 7654SOL     OW34423   1.675   2.696   2.272 -0.0335 -0.0841 -0.9385
 7654SOL    HW134424   1.707   2.606   2.267 -1.2709 -0.5698 -0.1917
 7654SOL    HW234425   1.729   2.726   2.345 -0.0857  1.5011 -1.5452
 7655SOL     OW34426   2.349   1.336   9.930 -0.0793  0.5122  0.5044
 7655SOL    HW134427   2.334   1.249   9.968  0.8778  0.6029  1.0712
 7655SOL    HW234428   2.282   1.342   9.861  0.6707 -0.0222 -0.2810
 7656SOL     OW34429   3.284   0.947   4.153 -0.1309 -1.1814 -0.0479
 7656SOL    HW134430   3.342   0.880   4.190  0.3487 -2.3682 -2.9680
 7656SOL    HW234431   3.221   0.951   4.225 -0.1033 -3.5626  0.1150
 7657SOL     OW34432   3.357   4.101   9.876 -0.5289 -0.3935 -0.7267
 7657SOL    HW134433   3.416   4.031   9.905  1.0478  1.1811 -0.2088
 7657SOL    HW234434   3.338   4.082   9.784 -1.0844 -0.8807 -0.5167
 7658SOL     OW34435   2.561   0.269  15.616 -0.1441 -0.3705 -0.0644
 7658SOL    HW134436   2.497   0.322  15.663  1.1472  1.7783 -0.7194
 7658SOL    HW234437   2.568   0.319  15.534  0.0346  1.8813  1.3192
 7659SOL     OW34438   1.352   1.868   8.319 -0.7768 -0.2574  0.2791
 7659SOL    HW134439   1.327   1.785   8.360  0.5055 -0.6558  0.2551
 7659SOL    HW234440   1.360   1.838   8.229 -0.1074  3.0227 -0.7497
 7660SOL     OW34441   0.126   0.703   5.410  0.5062  0.0464  0.1467
 7660SOL    HW134442   0.145   0.637   5.343 -2.7161 -2.2460  1.5050
 7660SOL    HW234443   0.044   0.671   5.446  0.3937  0.9996  0.7349
 7661SOL     OW34444   1.250   3.416   5.215  0.2101 -0.4084 -0.0738
 7661SOL    HW134445   1.278   3.475   5.285  0.4067  0.7269 -1.0904
 7661SOL    HW234446   1.228   3.339   5.267 -2.1193  0.6943  0.5568
 7662SOL     OW34447   1.554   2.082   1.590 -0.2388  0.5726  0.2677
 7662SOL    HW134448   1.554   2.016   1.520  2.8003 -0.8706  1.6155
 7662SOL    HW234449   1.607   2.153   1.554 -1.4675  0.9498 -0.7995
 7663SOL     OW34450   3.457   4.388  11.108  0.7826  0.3010  0.1295
 7663SOL    HW134451   3.479   4.476  11.138  1.6590 -0.3379  1.3360
 7663SOL    HW234452   3.545   4.357  11.088  0.7189  0.4680 -0.4082
 7664SOL     OW34453   4.212   2.632   4.791  0.0852  0.1364  0.5141
 7664SOL    HW134454   4.266   2.626   4.712  0.3094  2.0121  0.5234
 7664SOL    HW234455   4.255   2.563   4.839 -0.0854 -0.3741 -0.0654
 7665SOL     OW34456   3.955   3.064   1.255  0.2160 -0.3172 -0.2670
 7665SOL    HW134457   3.954   3.133   1.322  1.1131  2.1903 -2.8420
 7665SOL    HW234458   3.863   3.040   1.251  0.2581 -0.3660 -0.9056
 7666SOL     OW34459   0.781   0.019   1.126  0.3562  0.0063 -0.1888
 7666SOL    HW134460   0.867   0.003   1.166  2.1247  1.9692 -3.1963
 7666SOL    HW234461   0.804   0.077   1.054  0.5288  1.1242  0.7680
 7667SOL     OW34462   1.820   3.989   7.050  0.2229  0.3471  0.3777
 7667SOL    HW134463   1.854   3.900   7.042  0.0032  0.3300 -0.3306
 7667SOL    HW234464   1.848   4.024   6.965  2.9572 -1.9574  0.3320
 7668SOL     OW34465   2.605   3.968   4.323 -0.3360 -0.0458  0.0453
 7668SOL    HW134466   2.580   3.876   4.314 -0.3610 -0.0644  0.2869
 7668SOL    HW234467   2.700   3.973   4.310 -0.1402 -1.1241  1.0590
 7669SOL     OW34468   2.117   2.002   5.362  0.0130  0.2495 -0.0015
 7669SOL    HW134469   2.035   2.048   5.346 -0.8574 -1.2545  0.1863
 7669SOL    HW234470   2.098   1.970   5.450 -1.6721  1.3753  0.0334
 7670SOL     OW34471   3.108   2.344   1.947 -0.0258  0.4671 -0.5069
 7670SOL    HW134472   3.127   2.363   1.855  1.6440 -0.2315 -0.3116
 7670SOL    HW234473   3.107   2.248   1.944  0.8950  0.4882 -1.3546
 7671SOL     OW34474   2.194   0.901   3.993 -0.0863 -0.3352  0.0510
 7671SOL    HW134475   2.260   0.968   4.013 -1.4226  1.1784 -0.6010
 7671SOL    HW234476   2.118   0.932   4.042 -0.3501 -0.9005 -0.0010
 7672SOL     OW34477   4.143   2.995  15.990 -0.4674 -0.5881  0.5730
 7672SOL    HW134478   4.230   3.027  16.012 -0.0290 -1.4057  0.0310
 7672SOL    HW234479   4.113   3.081  15.959  1.1216  0.2445  1.3946
 7673SOL     OW34480   2.611   1.378   4.961 -0.3909 -0.0709 -0.1906
 7673SOL    HW134481   2.640   1.470   4.959 -0.5066  0.0004  1.1024
 7673SOL    HW234482   2.538   1.393   4.901 -0.9801  2.7403  1.1985
 7674SOL     OW34483   3.288   0.379  16.949 -0.1830  0.0099  0.7436
 7674SOL    HW134484   3.379   0.410  16.952 -0.9734  2.3971 -0.4498
 7674SOL    HW234485   3.251   0.445  16.891 -1.9119 -0.8789  0.8312
 7675SOL     OW34486   3.448   1.368   2.458  0.2589  0.1669 -0.6381
 7675SOL    HW134487   3.467   1.286   2.413 -1.4266 -1.0719  0.9192
 7675SOL    HW234488   3.360   1.395   2.432  0.0127  0.2088  0.2577
 7676SOL     OW34489   3.094   3.700   1.574  0.0852  0.1155  0.7102
 7676SOL    HW134490   3.127   3.697   1.663 -0.4661 -1.3573  0.8607
 7676SOL    HW234491   3.035   3.775   1.584  0.0247  0.2521 -0.5909
 7677SOL     OW34492   4.701   1.637   0.290  0.1852 -0.2221 -0.4059
 7677SOL    HW134493   4.656   1.705   0.239 -1.4939 -0.2567  1.0329
 7677SOL    HW234494   4.628   1.610   0.346 -0.0341  1.1306 -0.0376
 7678SOL     OW34495   0.746   1.406  17.199  0.5317 -0.1146  0.2203
 7678SOL    HW134496   0.658   1.441  17.183  0.1953 -0.6900  0.8469
 7678SOL    HW234497   0.732   1.354  17.278  2.3631 -2.9338 -1.3153
 7679SOL     OW34498   1.547   0.540   8.788  0.0633  0.2590  0.0087
 7679SOL    HW134499   1.545   0.590   8.870  0.7747  1.8961 -0.9710
 7679SOL    HW234500   1.600   0.462   8.806  2.9504  2.5161  1.3023
 7680SOL     OW34501   0.824   3.641   5.518  0.4446  0.6022 -0.5215
 7680SOL    HW134502   0.843   3.620   5.610  1.5938  1.1114 -0.6423
 7680SOL    HW234503   0.845   3.734   5.515 -1.7211  1.1290  0.5360
 7681SOL     OW34504   0.204   3.037  16.734 -0.1358 -0.0244 -0.7118
 7681SOL    HW134505   0.239   3.034  16.823 -0.4646  1.0150 -0.5508
 7681SOL    HW234506   0.131   2.975  16.738  0.3974 -0.7768 -2.2283
 7682SOL     OW34507   4.026   3.019   2.712 -0.4818  0.1521  0.0423
 7682SOL    HW134508   4.073   2.939   2.689 -0.1802  1.1190 -2.6695
 7682SOL    HW234509   4.080   3.049   2.786  0.1149  2.1963 -1.2052
 7683SOL     OW34510   3.852   2.529   9.105  0.0705 -0.2227  0.4693
 7683SOL    HW134511   3.837   2.522   9.199  1.7010 -0.8227  0.6744
 7683SOL    HW234512   3.847   2.435   9.085 -0.5008  0.1533 -1.1943
 7684SOL     OW34513   3.032   1.000   1.910  0.1866  0.4674  0.4053
 7684SOL    HW134514   2.979   0.970   1.836  1.3519 -0.9129  0.1264
 7684SOL    HW234515   2.968   1.059   1.951 -0.1825  0.8047 -0.6612
 7685SOL     OW34516   2.200   3.010   7.094  0.3963  0.5599  0.2234
 7685SOL    HW134517   2.139   2.944   7.061  2.8717 -1.7793  0.3544
 7685SOL    HW234518   2.158   3.094   7.073 -0.7087  0.0291  0.3364
 7686SOL     OW34519   3.229   1.025  12.952 -0.3242  0.3167  0.4630
 7686SOL    HW134520   3.301   1.087  12.938 -0.8393  0.7144 -0.4450
 7686SOL    HW234521   3.163   1.084  12.989 -0.3089  0.8462 -0.3440
 7687SOL     OW34522   3.038   2.682   3.192  0.7195 -0.0686 -0.4927
 7687SOL    HW134523   3.106   2.725   3.243  0.9450 -1.3399  0.2934
 7687SOL    HW234524   3.087   2.605   3.164  1.5345  0.0805  0.5275
 7688SOL     OW34525   2.666   0.648   7.025 -0.5250  0.2887 -0.2207
 7688SOL    HW134526   2.727   0.620   7.094  0.9200  3.6815 -0.1086
 7688SOL    HW234527   2.609   0.706   7.075 -2.0914 -1.3801 -0.1023
 7689SOL     OW34528   3.030   0.281   1.544 -0.0594  0.1139 -0.5557
 7689SOL    HW134529   2.986   0.197   1.532 -0.2836  0.3032 -1.0471
 7689SOL    HW234530   3.055   0.316   1.459 -1.9128  0.1343 -1.0805
 7690SOL     OW34531   2.304   4.296  17.531  0.5288  0.2449 -0.6443
 7690SOL    HW134532   2.223   4.346  17.530  0.4931  0.1892 -0.5700
 7690SOL    HW234533   2.271   4.207  17.523  1.1313 -0.2132  1.7203
 7691SOL     OW34534   1.317   4.373  15.427 -0.6545 -0.2299 -0.1832
 7691SOL    HW134535   1.284   4.436  15.492 -0.8118 -0.9137  0.4027
 7691SOL    HW234536   1.408   4.402  15.423 -0.5156 -0.5308  0.7984
 7692SOL     OW34537   4.526   2.867   6.608  0.5965  0.2389  0.5243
 7692SOL    HW134538   4.591   2.900   6.545  1.1902  0.8204  1.4462
 7692SOL    HW234539   4.550   2.919   6.685 -2.0072 -2.0249  2.8695
 7693SOL     OW34540   2.494   0.808   9.165  0.3843 -0.3320  0.3327
 7693SOL    HW134541   2.585   0.834   9.179  0.1812  0.7077 -0.2992
 7693SOL    HW234542   2.444   0.889   9.159  0.4508 -0.2206  1.3039
 7694SOL     OW34543   3.194   3.417   3.579  0.6203  0.0837 -0.1139
 7694SOL    HW134544   3.280   3.434   3.618  0.8251 -0.9701 -0.1016
 7694SOL    HW234545   3.203   3.354   3.508  0.9439 -0.2694  0.2418
 7695SOL     OW34546   0.875   0.935   8.298  0.1822  0.1021 -0.0260
 7695SOL    HW134547   0.785   0.948   8.327  0.5590 -1.7281  2.0040
 7695SOL    HW234548   0.907   0.881   8.370  0.1339 -0.3284 -0.3249
 7696SOL     OW34549   3.526   0.208  12.778 -0.2861  0.0471  0.2702
 7696SOL    HW134550   3.605   0.204  12.832 -0.8740  0.5430  1.1452
 7696SOL    HW234551   3.558   0.188  12.689 -0.3058 -2.7054  0.8699
 7697SOL     OW34552   0.586   4.397  13.410  0.0414  0.7601 -0.9417
 7697SOL    HW134553   0.507   4.397  13.463 -0.5142  0.9575 -1.7763
 7697SOL    HW234554   0.601   4.308  13.376 -1.1544 -0.0856  0.7839
 7698SOL     OW34555   4.473   0.553   9.643  0.3225 -0.5585 -0.0616
 7698SOL    HW134556   4.389   0.524   9.679 -0.1434  0.5111 -0.2916
 7698SOL    HW234557   4.502   0.470   9.605 -0.4117 -0.4167 -0.9114
 7699SOL     OW34558   2.791   2.533   4.406  0.6297 -0.1328  0.3379
 7699SOL    HW134559   2.848   2.456   4.412  0.6418 -0.1829 -0.4879
 7699SOL    HW234560   2.852   2.596   4.445  0.6871 -0.7996  1.3456
 7700SOL     OW34561   3.210   1.939   5.755  0.4560  0.6782  0.6176
 7700SOL    HW134562   3.264   1.974   5.826  0.1086 -0.1033  1.2803
 7700SOL    HW234563   3.274   1.916   5.687  2.2623  0.3166  2.4282
 7701SOL     OW34564   1.481   4.280   0.714  0.0944 -0.8369 -0.5814
 7701SOL    HW134565   1.506   4.367   0.745  3.5923 -1.9558 -0.3338
 7701SOL    HW234566   1.547   4.251   0.652  2.2868  0.6812  1.0350
 7702SOL     OW34567   0.930   0.880  14.647 -0.0837 -0.2479 -0.2283
 7702SOL    HW134568   0.961   0.794  14.616  1.7014  1.0552 -2.0361
 7702SOL    HW234569   0.841   0.873  14.612 -0.2285 -0.7396  0.2321
 7703SOL     OW34570   1.352   2.759   8.814 -0.1747  0.3409 -0.2783
 7703SOL    HW134571   1.377   2.787   8.726  0.4755  1.7651  0.3712
 7703SOL    HW234572   1.423   2.696   8.830 -0.2129  0.4133  0.1656
 7704SOL     OW34573   2.079   0.576   3.255  0.0837 -0.1451  0.2410
 7704SOL    HW134574   2.138   0.621   3.194 -1.6299  3.5704  1.3267
 7704SOL    HW234575   1.999   0.564   3.205 -1.1795 -3.0616  2.9622
 7705SOL     OW34576   0.306   2.999  16.433 -0.2294  0.2279  0.6165
 7705SOL    HW134577   0.277   2.916  16.396 -1.8869  0.1948  2.0137
 7705SOL    HW234578   0.401   2.983  16.436 -0.0706  1.3057  1.2427
 7706SOL     OW34579   1.701   4.574   2.058 -0.1180 -0.2571  0.1797
 7706SOL    HW134580   1.738   4.653   2.018 -0.2665 -0.3899 -0.2180
 7706SOL    HW234581   1.686   4.602   2.148 -0.7658  0.2649 -0.0906
 7707SOL     OW34582   4.260   3.162   7.441  0.1324  0.0022  0.3884
 7707SOL    HW134583   4.217   3.246   7.458  0.2353 -0.0005  0.6592
 7707SOL    HW234584   4.348   3.185   7.410 -0.0297  1.5104  1.0453
 7708SOL     OW34585   1.470   2.417  14.550 -0.0133  0.2446 -0.3875
 7708SOL    HW134586   1.525   2.494  14.535 -0.0458  0.2114 -0.6806
 7708SOL    HW234587   1.524   2.373  14.615 -2.5254 -1.3439  0.6150
 7709SOL     OW34588   1.292   1.248   2.379 -0.2992  0.3746 -0.0061
 7709SOL    HW134589   1.303   1.215   2.291 -0.1330 -0.4849  0.3374
 7709SOL    HW234590   1.344   1.180   2.422  0.2223 -1.0353 -2.9520
 7710SOL     OW34591   2.790   0.018   6.130  0.0178 -0.4031 -0.1542
 7710SOL    HW134592   2.700   0.048   6.125  0.0614 -0.2465 -0.0353
 7710SOL    HW234593   2.773   4.652   6.099  0.8553  0.1589 -2.2206
 7711SOL     OW34594   3.806   2.549  11.668  0.1224 -0.0567  0.3259
 7711SOL    HW134595   3.825   2.567  11.576 -1.1227 -0.7915 -0.0709
 7711SOL    HW234596   3.892   2.548  11.710 -0.3778  2.0962  1.4060
 7712SOL     OW34597   2.522   1.698   8.148  0.1972 -0.3280  0.1482
 7712SOL    HW134598   2.561   1.645   8.078 -0.2210 -0.4399  0.0014
 7712SOL    HW234599   2.596   1.759   8.149 -2.1318  2.5020 -3.1242
 7713SOL     OW34600   2.551   3.261  15.010 -0.0155 -0.0524 -0.0030
 7713SOL    HW134601   2.573   3.343  15.054 -1.1173  1.0869 -1.5798
 7713SOL    HW234602   2.499   3.307  14.944  1.5809 -0.3690 -1.4844
 7714SOL     OW34603   2.537   3.678   6.545 -0.2726  0.1874 -0.3318
 7714SOL    HW134604   2.446   3.707   6.544 -0.5350 -0.6485 -0.4996
 7714SOL    HW234605   2.581   3.756   6.578  0.5342 -0.2763 -0.2999
 7715SOL     OW34606   4.658   2.519   7.736 -0.0414 -0.2735 -0.0250
 7715SOL    HW134607   4.714   2.595   7.731  0.6880 -0.9027 -1.2780
 7715SOL    HW234608   4.665   2.497   7.829 -1.3442  0.1230  0.1726
 7716SOL     OW34609   2.543   2.444   6.063  0.0471  0.1946 -0.1585
 7716SOL    HW134610   2.535   2.348   6.057  0.6259  0.0229  1.7567
 7716SOL    HW234611   2.576   2.459   5.974  0.0993 -0.0233 -0.1773
 7717SOL     OW34612   4.718   2.754   8.079 -0.3813 -0.6412 -0.2434
 7717SOL    HW134613   4.662   2.678   8.060 -1.2017  0.8214 -3.6762
 7717SOL    HW234614   4.711   2.757   8.175 -2.4320 -1.1793 -0.3706
 7718SOL     OW34615   4.248   0.742   5.528 -0.5125  0.1359  0.1848
 7718SOL    HW134616   4.287   0.784   5.605 -1.4818  0.7466  0.3450
 7718SOL    HW234617   4.250   0.811   5.463  0.2493  1.4696  1.6236
 7719SOL     OW34618   1.697   4.622   9.813  0.6245  0.2101  0.2332
 7719SOL    HW134619   1.679   4.646   9.904 -0.5838  3.2036 -0.8065
 7719SOL    HW234620   1.743   4.702   9.788 -0.9113  1.2032  0.6002
 7720SOL     OW34621   4.472   3.053   1.957 -0.4919 -0.3980 -0.3970
 7720SOL    HW134622   4.458   2.980   1.896  0.5231  0.0426 -1.1500
 7720SOL    HW234623   4.462   3.002   2.037 -1.6358  1.8437  0.8859
 7721SOL     OW34624   1.794   3.008  17.528 -0.6175 -0.2433  0.9599
 7721SOL    HW134625   1.748   3.026  17.446  2.8304 -0.1717 -0.9331
 7721SOL    HW234626   1.783   3.095  17.568 -2.6529 -1.2025  2.5140
 7722SOL     OW34627   1.717   0.344   9.383 -0.2214  0.2628  0.2989
 7722SOL    HW134628   1.737   0.429   9.423  1.4204 -0.1621  0.3765
 7722SOL    HW234629   1.666   0.376   9.308  1.6297  1.1623 -0.5690
 7723SOL     OW34630   2.107   1.288   4.489  0.3144  0.0592 -0.6139
 7723SOL    HW134631   2.190   1.333   4.502  1.7652 -3.0569  1.0257
 7723SOL    HW234632   2.069   1.278   4.577  1.3394 -0.7320 -0.2586
 7724SOL     OW34633   3.372   3.268   1.721 -0.3550 -0.3811  0.0353
 7724SOL    HW134634   3.407   3.230   1.802 -2.8117 -0.6693  0.9643
 7724SOL    HW234635   3.394   3.360   1.732  2.8873 -1.5050  3.0795
 7725SOL     OW34636   3.475   3.876   5.435 -0.2107 -0.3733  0.6370
 7725SOL    HW134637   3.403   3.840   5.382 -1.8840  3.2106  0.5090
 7725SOL    HW234638   3.475   3.823   5.515  0.4190  0.3578  1.1179
 7726SOL     OW34639   4.235   1.329   0.555  0.0377  0.1838  0.0119
 7726SOL    HW134640   4.241   1.406   0.612 -1.0897  0.1918  0.1153
 7726SOL    HW234641   4.148   1.331   0.517 -0.3277  0.7319  0.8926
 7727SOL     OW34642   0.328   3.403   2.632 -0.1052 -0.1389  0.0454
 7727SOL    HW134643   0.357   3.478   2.684 -1.0275  1.4293 -1.6913
 7727SOL    HW234644   0.259   3.438   2.575 -0.8774 -2.8123 -0.6748
 7728SOL     OW34645   1.068   4.143  16.885 -0.4415 -0.3614 -0.5266
 7728SOL    HW134646   1.080   4.232  16.851  1.5123 -0.4665 -0.0826
 7728SOL    HW234647   1.141   4.129  16.944  0.6512  0.4356 -1.7015
 7729SOL     OW34648   1.136   2.819   2.995  0.0405 -0.6924 -0.3532
 7729SOL    HW134649   1.212   2.815   3.053  0.4349 -0.4445 -0.8500
 7729SOL    HW234650   1.106   2.908   2.978 -1.1953 -0.7729  1.4666
 7730SOL     OW34651   2.603   1.171  16.710  0.2505 -0.7370 -0.0470
 7730SOL    HW134652   2.511   1.145  16.709 -0.3600  1.3425  0.5454
 7730SOL    HW234653   2.603   1.230  16.634 -0.7639 -1.2194 -0.4197
 7731SOL     OW34654   0.548   2.826  12.863  0.1876  1.1230  0.3629
 7731SOL    HW134655   0.482   2.883  12.825 -2.6845 -1.9352  0.7631
 7731SOL    HW234656   0.628   2.879  12.856 -0.0494  1.7021  2.1998
 7732SOL     OW34657   2.207   2.919   0.788 -0.0994 -0.3743  0.0516
 7732SOL    HW134658   2.175   2.898   0.875  0.7738  1.6773  0.8746
 7732SOL    HW234659   2.209   2.832   0.747 -0.4133 -0.6616  0.6510
 7733SOL     OW34660   0.357   1.152  14.789 -0.2653 -0.3578 -0.0387
 7733SOL    HW134661   0.289   1.172  14.853 -1.4824  0.4223 -1.5858
 7733SOL    HW234662   0.366   1.236  14.745 -2.2622 -0.2998 -0.3280
 7734SOL     OW34663   0.600   0.175   1.267  0.3365  0.8600  0.3345
 7734SOL    HW134664   0.666   0.114   1.234 -0.8314 -0.5883  0.6834
 7734SOL    HW234665   0.549   0.196   1.189  0.0244  1.8618  0.8079
 7735SOL     OW34666   3.038   0.938   7.519 -0.3618 -0.4185  0.4531
 7735SOL    HW134667   3.095   0.861   7.511  1.7311  1.3872 -1.9666
 7735SOL    HW234668   3.013   0.953   7.428  2.2505 -0.9854 -0.3518
 7736SOL     OW34669   2.419   0.300   0.376  0.0188  0.1694  0.0595
 7736SOL    HW134670   2.420   0.355   0.455  0.1587  0.3626 -0.0771
 7736SOL    HW234671   2.432   0.208   0.399  1.9725  0.5338  0.4304
 7737SOL     OW34672   2.748   2.337   3.780 -0.1894 -0.2761 -0.3215
 7737SOL    HW134673   2.828   2.293   3.811 -0.5011  0.5270  1.6327
 7737SOL    HW234674   2.783   2.426   3.775  1.2093 -0.9070 -2.0403
 7738SOL     OW34675   3.499   0.647   5.213 -0.3177 -0.3986  0.2629
 7738SOL    HW134676   3.449   0.573   5.177  2.3573 -2.1885  0.2345
 7738SOL    HW234677   3.589   0.616   5.208 -0.3120 -0.3928  0.3313
 7739SOL     OW34678   0.879   3.230   5.244 -0.2199  0.1869 -0.0082
 7739SOL    HW134679   0.852   3.155   5.190  0.1968 -0.2728  0.4161
 7739SOL    HW234680   0.853   3.199   5.331  0.3830 -2.7927 -0.8703
 7740SOL     OW34681   2.176   0.272   5.363 -0.1808  0.3097 -0.1838
 7740SOL    HW134682   2.088   0.275   5.400 -0.4446  3.3070 -1.0305
 7740SOL    HW234683   2.156   0.246   5.273 -0.7923 -2.1070  0.6507
 7741SOL     OW34684   0.489   1.225   3.369  0.1160  0.6130  0.5818
 7741SOL    HW134685   0.449   1.203   3.285  1.2000  2.1377 -0.3367
 7741SOL    HW234686   0.582   1.227   3.348 -0.3079 -0.3788 -1.3815
 7742SOL     OW34687   3.052   1.568  14.244  0.1805 -0.3682 -0.1193
 7742SOL    HW134688   3.002   1.588  14.323 -1.0896 -2.0398 -0.5121
 7742SOL    HW234689   3.118   1.638  14.242  1.7757 -1.8937 -0.5071
 7743SOL     OW34690   3.593   4.073   8.809  0.0803  0.6425  0.2357
 7743SOL    HW134691   3.642   4.045   8.887 -0.8256 -1.2120  0.1435
 7743SOL    HW234692   3.538   4.139   8.852 -1.5901  1.3120 -2.9151
 7744SOL     OW34693   2.438   4.343   2.431 -0.2630 -0.5778 -0.0908
 7744SOL    HW134694   2.355   4.361   2.387 -0.5970 -0.8315  0.4401
 7744SOL    HW234695   2.402   4.301   2.509 -0.6489 -0.3099 -0.1257
 7745SOL     OW34696   4.246   1.387   8.031  0.4008  0.0372  0.2283
 7745SOL    HW134697   4.188   1.447   8.077  0.3725  0.3843 -0.2532
 7745SOL    HW234698   4.185   1.328   7.986  1.4389 -0.0914 -1.0289
 7746SOL     OW34699   4.149   4.717   7.449 -0.0199  0.0441  0.7473
 7746SOL    HW134700   4.202   0.074   7.458  0.5140 -0.1560 -0.6249
 7746SOL    HW234701   4.170   4.698   7.357  0.8341  1.2829  0.6872
 7747SOL     OW34702   2.031   3.392   6.086 -0.4218  0.2231 -0.2233
 7747SOL    HW134703   2.071   3.423   6.167  0.4085 -0.5360 -0.3433
 7747SOL    HW234704   2.002   3.305   6.112  0.9226  0.3348  1.6797
 7748SOL     OW34705   0.049   2.139   0.108 -0.3421  0.4487 -0.2174
 7748SOL    HW134706   0.047   2.143   0.203 -0.2932 -0.2759 -0.1832
 7748SOL    HW234707   0.035   2.045   0.099  0.8253  0.0078  2.5506
 7749SOL     OW34708   0.752   2.029   0.636  0.0245 -0.0514  1.3233
 7749SOL    HW134709   0.723   1.947   0.677  0.1792 -0.2847  0.9643
 7749SOL    HW234710   0.675   2.056   0.587  0.7445 -0.9004 -0.2658
 7750SOL     OW34711   3.611   2.615   7.615  0.6401 -0.5327  0.4821
 7750SOL    HW134712   3.631   2.529   7.653  1.2602 -1.1933 -1.3344
 7750SOL    HW234713   3.658   2.663   7.682  0.1424 -1.6870  1.6581
 7751SOL     OW34714   1.848   1.915   8.113 -0.2157 -0.5341 -0.3387
 7751SOL    HW134715   1.886   1.829   8.097 -2.0845 -1.3859 -0.2187
 7751SOL    HW234716   1.905   1.959   8.176 -2.4948  1.7605  0.0995
 7752SOL     OW34717   2.787   1.078  14.933 -0.5045  0.0895  0.2432
 7752SOL    HW134718   2.705   1.049  14.973 -1.4632  1.2335 -0.9157
 7752SOL    HW234719   2.846   1.086  15.008 -0.6142  1.5592  0.1761
 7753SOL     OW34720   4.695   4.013   4.294  0.3962 -0.3241 -0.0595
 7753SOL    HW134721   0.012   3.963   4.222  0.6290  2.2658 -1.7044
 7753SOL    HW234722   0.000   4.102   4.275  1.2185 -0.7223 -0.7650
 7754SOL     OW34723   0.533   4.511   9.621 -0.4849 -0.9475 -0.2258
 7754SOL    HW134724   0.526   4.511   9.526  0.2514 -0.3168 -0.2792
 7754SOL    HW234725   0.492   4.594   9.644  0.2179 -0.6617  0.0064
 7755SOL     OW34726   1.655   2.279  14.748  0.7714 -0.5711  0.9136
 7755SOL    HW134727   1.720   2.343  14.719  0.5644 -0.5351  0.5341
 7755SOL    HW234728   1.697   2.194  14.758  0.4472 -0.8773 -0.3823
 7756SOL     OW34729   2.021   2.961  10.624 -0.6363 -0.1675 -0.0067
 7756SOL    HW134730   2.085   3.025  10.656 -1.7204  0.6547  0.4769
 7756SOL    HW234731   2.013   2.897  10.695 -0.5220  0.9437  0.9960
 7757SOL     OW34732   2.579   3.577   0.115 -0.3320  0.1677 -0.3029
 7757SOL    HW134733   2.605   3.634   0.042 -0.0503  1.1573  0.5616
 7757SOL    HW234734   2.626   3.497   0.092 -1.0488  0.5390 -3.0502
 7758SOL     OW34735   3.748   4.553   6.125 -0.2252 -0.1865  0.0493
 7758SOL    HW134736   3.808   4.621   6.157  0.6583 -2.2879  2.8453
 7758SOL    HW234737   3.780   4.539   6.036  0.2303  0.6163  0.0837
 7759SOL     OW34738   4.019   1.127   4.861 -0.2498  0.3939 -0.6055
 7759SOL    HW134739   4.078   1.052   4.857 -2.3821 -1.2886 -0.6586
 7759SOL    HW234740   3.972   1.119   4.778 -2.2689 -0.1458  0.5822
 7760SOL     OW34741   0.430   4.216   7.115  0.7318 -0.3058 -0.3937
 7760SOL    HW134742   0.395   4.165   7.042  3.6161 -1.7576 -0.7822
 7760SOL    HW234743   0.520   4.183   7.121  0.5389 -0.4949  1.5240
 7761SOL     OW34744   0.881   2.212   4.264  0.5470  0.4133  0.7879
 7761SOL    HW134745   0.975   2.211   4.246 -0.1875 -0.5518 -3.1319
 7761SOL    HW234746   0.861   2.284   4.323 -0.1368  1.2250 -0.4211
 7762SOL     OW34747   4.215   2.633  11.563  0.4504 -0.1656 -0.2741
 7762SOL    HW134748   4.214   2.557  11.621 -1.9482 -1.8194 -2.5250
 7762SOL    HW234749   4.126   2.641  11.529  0.5270 -0.3467 -0.5179
 7763SOL     OW34750   1.306   2.008   9.872  0.3878  0.3197  0.1062
 7763SOL    HW134751   1.248   2.080   9.848  1.3718 -0.1930 -3.7745
 7763SOL    HW234752   1.256   1.958   9.936  1.2582 -0.7385 -0.0365
 7764SOL     OW34753   3.021   0.567   5.689  0.3142 -0.2693  0.3338
 7764SOL    HW134754   2.991   0.507   5.621 -1.7956  0.1342  0.9058
 7764SOL    HW234755   2.951   0.542   5.748  0.1902  1.4456  0.8980
 7765SOL     OW34756   1.380   0.592   0.917 -1.0228  0.2933  0.0233
 7765SOL    HW134757   1.469   0.559   0.931 -0.6673  1.9979  1.8486
 7765SOL    HW234758   1.347   0.553   0.997 -1.3265  1.1704  0.3306
 7766SOL     OW34759   3.098   1.689   0.615 -0.5962 -0.5908 -0.4190
 7766SOL    HW134760   3.072   1.629   0.684 -2.7029 -0.2919 -0.9445
 7766SOL    HW234761   3.026   1.678   0.552 -3.2532  3.4485  1.9553
 7767SOL     OW34762   3.962   0.434   8.285 -0.0348 -0.1294 -0.0265
 7767SOL    HW134763   4.027   0.503   8.291  1.4616 -1.3982 -1.5666
 7767SOL    HW234764   4.022   0.370   8.247  1.6175 -1.0287  4.0500
 7768SOL     OW34765   3.934   4.283  17.250  0.2025  0.2020 -0.6105
 7768SOL    HW134766   3.912   4.191  17.244 -2.8684  0.9767 -1.0380
 7768SOL    HW234767   3.939   4.312  17.158  1.4497  1.6776 -0.0858
 7769SOL     OW34768   1.737   1.068  16.381 -0.3492  0.0532 -0.3941
 7769SOL    HW134769   1.817   1.015  16.371 -0.4310 -0.1301 -0.0932
 7769SOL    HW234770   1.665   1.009  16.360  0.5529 -0.6826 -1.4324
 7770SOL     OW34771   0.856   0.045   9.238 -0.1275 -0.3645 -0.0686
 7770SOL    HW134772   0.772   0.042   9.191 -0.1651  0.7771 -0.0787
 7770SOL    HW234773   0.857   0.140   9.251 -1.0719 -0.5556  1.3870
 7771SOL     OW34774   3.367   4.176  13.802  1.1571  0.1551 -0.0666
 7771SOL    HW134775   3.329   4.249  13.752 -1.7934 -2.5108 -1.6736
 7771SOL    HW234776   3.391   4.113  13.735 -0.6829 -0.8016  0.1597
 7772SOL     OW34777   4.697   1.128   7.968 -0.2914  0.1659 -0.2231
 7772SOL    HW134778   4.720   1.221   7.958  0.0366  0.0372 -0.6470
 7772SOL    HW234779   0.052   1.079   7.940 -0.5588  0.5893 -1.7052
 7773SOL     OW34780   0.512   3.125   1.229  0.1743  0.1202  0.4244
 7773SOL    HW134781   0.480   3.047   1.184  0.3247 -0.8103  1.9281
 7773SOL    HW234782   0.570   3.168   1.167 -0.4599  0.5902  0.1530
 7774SOL     OW34783   4.164   4.052   2.765  0.3786  0.2697 -0.5326
 7774SOL    HW134784   4.190   3.966   2.732  1.8564  0.6915 -0.4320
 7774SOL    HW234785   4.129   4.091   2.685  1.7902  2.0596 -0.2713
 7775SOL     OW34786   1.264   0.521   4.810  0.1006 -0.0309  0.2207
 7775SOL    HW134787   1.358   0.530   4.828 -0.0949  0.0227  1.1794
 7775SOL    HW234788   1.248   0.431   4.837  0.6868  0.1347  1.0998
 7776SOL     OW34789   3.703   3.003   1.312 -0.3386 -0.0601 -0.2142
 7776SOL    HW134790   3.705   2.950   1.391  1.5712 -0.8366 -0.8039
 7776SOL    HW234791   3.639   2.949   1.265 -0.1394 -0.5891  0.1244
 7777SOL     OW34792   3.849   0.589   0.290  0.2447  0.0054 -0.1703
 7777SOL    HW134793   3.873   0.501   0.320 -2.0722 -1.0527 -1.4309
 7777SOL    HW234794   3.840   0.639   0.372  1.4127 -0.6389  0.3474
 7778SOL     OW34795   1.531   2.338   0.320 -0.1628  0.6447  0.1756
 7778SOL    HW134796   1.490   2.411   0.274 -0.2686  0.1463 -0.5218
 7778SOL    HW234797   1.459   2.276   0.310  1.2272 -1.1564  1.3469
 7779SOL     OW34798   4.477   1.326   5.268 -0.4978  0.1856  0.1976
 7779SOL    HW134799   4.426   1.391   5.218 -0.4702  0.6191  0.7357
 7779SOL    HW234800   4.497   1.385   5.341  3.4408 -0.9834  0.0880
 7780SOL     OW34801   4.534   1.048   9.516  0.2191  0.2374 -0.1069
 7780SOL    HW134802   4.501   0.992   9.586 -0.0100 -1.3521 -1.4987
 7780SOL    HW234803   4.626   1.056   9.540  0.1162 -1.5514  0.8598
 7781SOL     OW34804   4.256   1.153  16.441 -0.2929  0.5100  0.5254
 7781SOL    HW134805   4.279   1.175  16.350 -2.7250 -0.3673 -0.3206
 7781SOL    HW234806   4.336   1.192  16.476 -0.9868  1.4484  1.0714
 7782SOL     OW34807   0.616   3.856   2.822  0.5102 -0.0759 -0.6608
 7782SOL    HW134808   0.631   3.934   2.769  1.1165  0.6982  0.6503
 7782SOL    HW234809   0.579   3.888   2.905 -0.6316 -0.0753 -1.1776
 7783SOL     OW34810   4.475   3.607   4.292  0.4356  0.8617  0.3543
 7783SOL    HW134811   4.457   3.695   4.322 -0.3050  0.7771  0.1496
 7783SOL    HW234812   4.570   3.617   4.297  0.6792 -1.2651  0.0699
 7784SOL     OW34813   4.164   4.316   7.553 -0.0660  0.5637  0.6838
 7784SOL    HW134814   4.111   4.241   7.578  1.5953 -0.8565 -0.0703
 7784SOL    HW234815   4.103   4.380   7.516 -0.0615 -0.0492 -0.3828
 7785SOL     OW34816   2.655   2.618   2.459 -0.5645  0.1885 -0.0555
 7785SOL    HW134817   2.741   2.620   2.501 -1.7790  2.4189  2.3060
 7785SOL    HW234818   2.670   2.569   2.378  0.5798 -0.4956  0.5558
 7786SOL     OW34819   3.031   2.862  13.967 -0.0462  0.1147 -0.2788
 7786SOL    HW134820   3.060   2.903  13.886  1.8747  1.0169  0.8587
 7786SOL    HW234821   2.935   2.859  13.965 -0.0449 -0.0032 -0.1951
 7787SOL     OW34822   3.582   0.142   2.617  0.0972 -0.3305  0.5483
 7787SOL    HW134823   3.566   0.051   2.591 -1.3379 -0.0860  0.5814
 7787SOL    HW234824   3.526   0.153   2.694 -2.1918  0.1556 -1.1786
 7788SOL     OW34825   2.404   1.989  10.661  0.1506  0.4521  0.3603
 7788SOL    HW134826   2.362   2.067  10.625  0.8443  0.4173 -0.5364
 7788SOL    HW234827   2.422   1.941  10.581 -2.1289 -0.8072  0.6291
 7789SOL     OW34828   3.603   4.376   8.846 -0.0809  0.4622 -0.3321
 7789SOL    HW134829   3.539   4.336   8.905 -0.0067  1.3998  0.3987
 7789SOL    HW234830   3.600   4.462   8.889  0.5050  0.3853 -0.1477
 7790SOL     OW34831   0.076   0.177   6.696 -0.2665  0.1756  0.3486
 7790SOL    HW134832   0.038   0.231   6.627  0.2317 -1.3015 -1.0904
 7790SOL    HW234833   0.042   0.210   6.779 -2.5662 -0.3178 -0.4055
 7791SOL     OW34834   2.071   3.221   7.003  0.3986  0.0282 -0.0171
 7791SOL    HW134835   2.070   3.264   6.918 -0.0698 -1.8538 -0.9771
 7791SOL    HW234836   1.979   3.227   7.026  0.5264  1.1729  0.2020
 7792SOL     OW34837   3.071   2.279   1.000 -0.0277 -0.0492 -0.1521
 7792SOL    HW134838   3.027   2.297   1.083  2.1699 -1.2268  1.2658
 7792SOL    HW234839   3.052   2.185   1.000 -1.6976  0.2866 -1.6364
 7793SOL     OW34840   4.701   2.338   4.095 -0.0611  0.3722 -0.4818
 7793SOL    HW134841   0.001   2.282   4.021  1.0079  0.2647 -0.0862
 7793SOL    HW234842   0.021   2.423   4.080  0.7516 -0.1924 -1.3719
 7794SOL     OW34843   1.297   4.236  10.337 -0.1707  0.3289 -0.5905
 7794SOL    HW134844   1.202   4.227  10.329 -0.5951  1.3605  3.4809
 7794SOL    HW234845   1.308   4.309  10.275  0.0799  1.4971  0.8384
 7795SOL     OW34846   2.672   4.457   6.767  0.3435 -0.8381  0.5169
 7795SOL    HW134847   2.722   4.416   6.697 -2.1485  1.5576 -2.6120
 7795SOL    HW234848   2.634   4.532   6.722 -0.7594 -2.5508 -1.4031
 7796SOL     OW34849   3.861   0.804  16.302 -0.3873  0.4204  0.5258
 7796SOL    HW134850   3.894   0.735  16.244  1.2621  1.1910  0.5266
 7796SOL    HW234851   3.942   0.855  16.306 -0.9484  1.3954 -0.5065
 7797SOL     OW34852   4.000   3.983   2.253  0.0607  0.3705  0.3174
 7797SOL    HW134853   4.088   4.012   2.229  0.0935 -0.0169 -0.0484
 7797SOL    HW234854   3.968   3.995   2.163 -0.1209  1.7065  0.5635
 7798SOL     OW34855   4.294   2.211   5.011 -0.8473  0.1201 -0.0254
 7798SOL    HW134856   4.198   2.204   5.013 -0.8410 -0.0291 -0.4232
 7798SOL    HW234857   4.308   2.195   5.105  2.0051 -0.0185 -0.4755
 7799SOL     OW34858   0.226   0.422   8.223  0.0290  0.4757 -0.6285
 7799SOL    HW134859   0.210   0.378   8.139 -0.7460 -0.1175 -0.1728
 7799SOL    HW234860   0.147   0.405   8.275 -0.4220  0.9729 -1.1381
 7800SOL     OW34861   0.281   4.023   7.807 -0.0180  0.1486  0.2872
 7800SOL    HW134862   0.291   4.103   7.858  1.5259 -0.4573  0.9384
 7800SOL    HW234863   0.373   4.002   7.793  0.5212  1.1924  2.2736
 7801SOL     OW34864   1.662   0.619   5.584 -0.3906  0.2912 -0.6584
 7801SOL    HW134865   1.570   0.626   5.559 -0.7764 -0.2116  0.6100
 7801SOL    HW234866   1.675   0.525   5.599 -0.4180  0.3791 -0.0613
 7802SOL     OW34867   2.717   3.406   3.158  0.0131 -0.5552  0.8165
 7802SOL    HW134868   2.745   3.317   3.136 -2.4021 -1.2510  0.5746
 7802SOL    HW234869   2.744   3.453   3.079  2.0294  0.1404  1.9149
 7803SOL     OW34870   0.275   4.301   5.857 -0.5953  0.5250 -0.0758
 7803SOL    HW134871   0.354   4.355   5.860  0.4576 -0.9759 -0.9177
 7803SOL    HW234872   0.230   4.335   5.779 -1.3601  0.2957  0.2653
 7804SOL     OW34873   1.337   0.733   2.095  0.1768 -0.1398 -0.1013
 7804SOL    HW134874   1.307   0.778   2.017  0.5162 -2.3676 -1.5186
 7804SOL    HW234875   1.272   0.754   2.163 -1.2566 -2.1077 -0.8526
 7805SOL     OW34876   0.987   2.928  14.496 -0.4264 -0.4299 -0.0010
 7805SOL    HW134877   0.928   2.855  14.513 -1.4058  0.2653 -0.3688
 7805SOL    HW234878   1.034   2.941  14.579 -0.0241 -0.6188 -0.1994
 7806SOL     OW34879   4.338   1.794   8.501 -0.6403  0.6858  0.0029
 7806SOL    HW134880   4.353   1.875   8.550 -2.4795 -0.9341  3.2394
 7806SOL    HW234881   4.390   1.727   8.546 -1.5461 -1.1715 -1.7299
 7807SOL     OW34882   2.926   1.082   4.652  0.1878 -0.0151  0.1257
 7807SOL    HW134883   2.902   1.125   4.734  1.0953 -0.1723  0.4702
 7807SOL    HW234884   2.879   1.137   4.589  1.4144 -1.1768 -1.8097
 7808SOL     OW34885   4.004   0.128  12.889  0.4156 -0.3994  0.1658
 7808SOL    HW134886   3.909   0.126  12.898  0.4269 -0.0537  0.3769
 7808SOL    HW234887   4.023   0.044  12.933 -2.1196 -1.1144 -0.1333
 7809SOL     OW34888   1.882   1.110   9.404  0.3693  0.3960 -0.8646
 7809SOL    HW134889   1.877   1.104   9.309  0.9231  0.5850 -0.9041
 7809SOL    HW234890   1.977   1.118   9.407  0.2082  1.4731  2.2499
 7810SOL     OW34891   4.364   1.585   2.151 -0.4716  0.4084 -0.4280
 7810SOL    HW134892   4.337   1.614   2.064 -1.9011 -0.2069 -0.1941
 7810SOL    HW234893   4.334   1.494   2.141 -0.8731  0.2970  1.7715
 7811SOL     OW34894   4.239   1.683   4.554 -0.0709 -0.6739 -0.2506
 7811SOL    HW134895   4.278   1.668   4.640  0.1412 -0.3556 -0.2921
 7811SOL    HW234896   4.321   1.699   4.508 -2.0317  1.4415 -3.0077
 7812SOL     OW34897   3.014   0.966  11.569  0.4522  0.2028 -0.2852
 7812SOL    HW134898   2.968   1.050  11.568 -0.7155 -0.4072  2.0009
 7812SOL    HW234899   3.083   0.973  11.635  0.2641  0.1700 -0.0828
 7813SOL     OW34900   0.593   0.324   8.069  0.5378 -0.3208  0.1091
 7813SOL    HW134901   0.662   0.363   8.123 -1.2319  0.4530  1.8138
 7813SOL    HW234902   0.568   0.244   8.115 -0.3796  0.5540  1.1368
 7814SOL     OW34903   0.465   0.572   8.231 -0.5460  0.3496  0.1769
 7814SOL    HW134904   0.421   0.496   8.193 -1.3931 -0.0888  2.0332
 7814SOL    HW234905   0.398   0.627   8.272 -1.8807 -1.4435  0.3722
 7815SOL     OW34906   4.211   2.093  14.172  0.8917 -0.7603 -0.4764
 7815SOL    HW134907   4.303   2.081  14.149  1.7725  0.2105  2.4778
 7815SOL    HW234908   4.221   2.135  14.258 -1.3616 -0.8881 -0.1526
 7816SOL     OW34909   0.728   0.838   9.273 -0.1598  0.6903 -0.3055
 7816SOL    HW134910   0.642   0.820   9.233 -1.0922  1.9044  1.1883
 7816SOL    HW234911   0.699   0.842   9.364  2.8402 -1.6667  0.7433
 7817SOL     OW34912   1.589   0.663   6.371  0.0527  0.1568  0.2552
 7817SOL    HW134913   1.673   0.626   6.345 -0.1646 -0.4384  0.4042
 7817SOL    HW234914   1.538   0.584   6.386 -0.4325  0.4589  0.1900
 7818SOL     OW34915   4.697   2.441  15.148  0.1842  0.1449 -0.1520
 7818SOL    HW134916   4.648   2.368  15.108  0.7145  0.8401 -2.0333
 7818SOL    HW234917   0.065   2.411  15.145 -0.1804 -0.9462 -0.5371
 7819SOL     OW34918   0.716   2.081   7.469  0.1262  0.2510  0.1978
 7819SOL    HW134919   0.808   2.088   7.496 -0.1659 -2.1931  1.9174
 7819SOL    HW234920   0.714   1.988   7.446 -0.9605  0.6348 -1.1983
 7820SOL     OW34921   2.377   1.917   3.692  0.5563 -0.0994  0.2307
 7820SOL    HW134922   2.403   1.854   3.624  0.3997  3.7074 -3.3698
 7820SOL    HW234923   2.436   1.990   3.672  1.3805 -1.2354 -1.5376
 7821SOL     OW34924   3.837   3.977  13.741 -0.6314  0.4694 -0.3697
 7821SOL    HW134925   3.914   3.929  13.709  0.0634  0.4279  1.3950
 7821SOL    HW234926   3.869   4.042  13.803 -0.3992 -0.0491  0.0520
 7822SOL     OW34927   2.443   0.622   3.380  0.2038 -0.2675 -0.3514
 7822SOL    HW134928   2.423   0.694   3.321  1.9473  0.8193  0.3784
 7822SOL    HW234929   2.518   0.649   3.432 -0.0412  0.4870 -0.3972
 7823SOL     OW34930   3.905   2.746   6.682 -0.1267  0.5314  0.1211
 7823SOL    HW134931   3.876   2.655   6.674 -0.5077  0.6031  0.7165
 7823SOL    HW234932   3.870   2.769   6.768  0.3967  1.8273 -0.0144
 7824SOL     OW34933   2.876   2.848   6.932  0.0091  0.4584 -0.0364
 7824SOL    HW134934   2.926   2.787   6.878 -1.6970  0.5734 -1.7683
 7824SOL    HW234935   2.861   2.921   6.871 -0.1274 -0.5513 -1.2091
 7825SOL     OW34936   3.376   2.552   7.089  0.5717  0.1062  0.1104
 7825SOL    HW134937   3.382   2.466   7.130 -0.8234  0.4128  0.9714
 7825SOL    HW234938   3.317   2.600   7.147  1.3039 -2.0422  2.6142
 7826SOL     OW34939   3.122   2.695   8.030  0.0600 -0.2586  0.7034
 7826SOL    HW134940   3.036   2.736   8.023  0.3753  0.3262  0.3299
 7826SOL    HW234941   3.098   2.604   8.051  1.1776 -1.3381 -2.7314
 7827SOL     OW34942   1.053   2.302   4.973  0.4952  0.2988 -0.7917
 7827SOL    HW134943   1.101   2.284   4.891 -1.5783 -0.0211 -1.9381
 7827SOL    HW234944   0.992   2.230   4.990  0.3282  0.3074 -1.3378
 7828SOL     OW34945   4.178   0.960   1.148 -0.0446 -0.3370 -0.8075
 7828SOL    HW134946   4.177   0.971   1.243  0.1834 -1.0166 -0.7292
 7828SOL    HW234947   4.270   0.984   1.134 -0.1411  0.8064  0.5900
 7829SOL     OW34948   1.181   0.180   7.698 -0.1721  0.2573  0.8599
 7829SOL    HW134949   1.269   0.143   7.706  0.2306  1.3490  1.5435
 7829SOL    HW234950   1.124   0.135   7.760 -0.0217 -0.5507  0.4099
 7830SOL     OW34951   0.803   0.348   0.242 -0.2076  0.5744 -0.2858
 7830SOL    HW134952   0.741   0.420   0.241 -0.0591  0.6651 -2.2184
 7830SOL    HW234953   0.880   0.404   0.238  1.5299 -1.7838 -0.1073
 7831SOL     OW34954   0.456   1.110  13.810  0.3698  0.2737  0.2665
 7831SOL    HW134955   0.508   1.176  13.856 -1.6705  1.3278  1.0492
 7831SOL    HW234956   0.438   1.150  13.726  0.2834 -1.3877 -0.5150
 7832SOL     OW34957   1.432   2.314   6.560 -0.0388  0.5117 -0.0996
 7832SOL    HW134958   1.357   2.350   6.514 -0.7448  1.5048  1.8520
 7832SOL    HW234959   1.493   2.378   6.524 -0.4272  1.1086  0.3123
 7833SOL     OW34960   4.146   1.233   0.235  1.0580  0.4198 -0.3878
 7833SOL    HW134961   4.106   1.294   0.173 -0.5191 -1.1778 -0.9488
 7833SOL    HW234962   4.086   1.251   0.308  0.7781  1.6496 -0.9267
 7834SOL     OW34963   2.663   3.754   9.448 -0.0220 -0.4291  0.6428
 7834SOL    HW134964   2.620   3.738   9.363 -1.2848  1.0793  0.9883
 7834SOL    HW234965   2.727   3.683   9.450  0.5494  0.0633 -0.0660
 7835SOL     OW34966   4.040   2.371   9.272 -0.6408  0.1768 -0.5993
 7835SOL    HW134967   4.010   2.419   9.350 -1.1961 -4.7263  2.2037
 7835SOL    HW234968   4.091   2.305   9.319 -0.5811  0.5198 -0.1745
 7836SOL     OW34969   0.627   1.109   5.305 -0.1054  0.4125 -0.2028
 7836SOL    HW134970   0.659   1.142   5.389  2.1723  3.3697 -2.2302
 7836SOL    HW234971   0.706   1.062   5.280  1.2225  2.1415  0.6843
 7837SOL     OW34972   0.870   0.227   6.213  0.3906  0.2724 -0.2769
 7837SOL    HW134973   0.840   0.143   6.246 -0.4522 -0.1436 -2.0845
 7837SOL    HW234974   0.954   0.202   6.174 -0.2445 -1.5785 -0.4368
 7838SOL     OW34975   2.019   3.115   8.102  0.1314 -0.3023  0.4434
 7838SOL    HW134976   1.997   3.070   8.021 -1.1992  0.8767  0.1665
 7838SOL    HW234977   2.049   3.047   8.163  0.2163 -0.5843  0.0861
 7839SOL     OW34978   3.233   1.058   3.500  0.0808  0.2464 -0.0451
 7839SOL    HW134979   3.158   1.065   3.558  1.6867  2.4599  1.7199
 7839SOL    HW234980   3.206   1.099   3.418  1.8754 -0.7685 -1.1553
 7840SOL     OW34981   3.535   2.396   8.896 -0.2089  0.0374 -0.0623
 7840SOL    HW134982   3.561   2.472   8.949  0.6746 -0.6073  0.4356
 7840SOL    HW234983   3.498   2.440   8.820 -0.4151  0.7796  0.4674
 7841SOL     OW34984   1.876   2.453   4.936  0.1442 -0.4097  0.0315
 7841SOL    HW134985   1.892   2.378   4.995 -3.0125  1.6449  3.5280
 7841SOL    HW234986   1.791   2.478   4.972  1.3052  1.8260  1.2011
 7842SOL     OW34987   1.908   3.757   3.638 -0.2243  0.4860  0.1150
 7842SOL    HW134988   1.897   3.852   3.647  0.1248  0.6510 -1.2292
 7842SOL    HW234989   1.817   3.738   3.614 -0.4671  1.6576  0.1076
 7843SOL     OW34990   1.811   3.537  12.570 -0.8184 -0.1456  0.1010
 7843SOL    HW134991   1.754   3.528  12.493 -1.0433 -2.4734  0.5312
 7843SOL    HW234992   1.747   3.541  12.641 -0.8542  0.4689  0.0366
 7844SOL     OW34993   4.192   3.918   1.385  0.4549 -0.2407  0.3202
 7844SOL    HW134994   4.279   3.880   1.369  0.3343 -0.5700  0.4655
 7844SOL    HW234995   4.140   3.862   1.442  2.1013 -0.9554  1.1123
 7845SOL     OW34996   2.517   4.061  16.125  0.1089  0.3840  0.4438
 7845SOL    HW134997   2.457   4.074  16.198 -1.3080 -1.1756 -0.4798
 7845SOL    HW234998   2.466   4.098  16.053  0.7102  0.3228 -0.0139
 7846SOL     OW34999   3.250   0.655   6.080 -0.0559 -0.0886  0.8979
 7846SOL    HW135000   3.155   0.656   6.085 -0.1117 -0.0078 -0.2658
 7846SOL    HW235001   3.252   0.615   5.994 -0.7632 -3.0814  2.2678
 7847SOL     OW35002   4.515   4.397   1.129  0.3861 -0.1201  0.3420
 7847SOL    HW135003   4.610   4.384   1.126  0.3663  0.6989 -3.0630
 7847SOL    HW235004   4.491   4.488   1.114  0.6704 -0.1275 -0.1390
 7848SOL     OW35005   0.813   1.512  14.212 -0.0937  0.3092 -0.5245
 7848SOL    HW135006   0.864   1.593  14.207  0.2792  0.1025 -0.1163
 7848SOL    HW235007   0.728   1.543  14.244 -0.1085 -1.6902  1.4081
 7849SOL     OW35008   1.564   3.980   6.687 -0.4263  0.3290 -0.1597
 7849SOL    HW135009   1.656   4.002   6.670  0.4230 -0.9923  2.7222
 7849SOL    HW235010   1.554   3.903   6.630  1.4693 -0.9842  1.2744
 7850SOL     OW35011   0.551   1.112   7.650  0.5101  0.2954 -0.3064
 7850SOL    HW135012   0.550   1.204   7.624 -1.5249  0.6437  0.9974
 7850SOL    HW235013   0.627   1.103   7.708 -1.6471 -0.7638  2.3016
 7851SOL     OW35014   0.839   0.759  12.079 -0.3362 -0.7769 -0.2221
 7851SOL    HW135015   0.860   0.798  11.994 -0.5663 -1.0939 -0.4209
 7851SOL    HW235016   0.753   0.794  12.102  0.0320 -0.1509  0.2443
 7852SOL     OW35017   0.663   4.614  12.769  0.0086  0.3901  0.2410
 7852SOL    HW135018   0.757   4.632  12.762  0.5559 -2.4498  0.4011
 7852SOL    HW235019   0.666   4.569  12.853  1.4471  2.2851  1.2082
 7853SOL     OW35020   0.774   3.133   1.656 -0.6554 -0.5542 -0.1760
 7853SOL    HW135021   0.708   3.122   1.587 -1.5880  0.7853  0.5169
 7853SOL    HW235022   0.790   3.047   1.695 -1.6996  0.4972  2.5836
 7854SOL     OW35023   3.165   1.736   9.149  0.2681  0.2373 -0.0819
 7854SOL    HW135024   3.181   1.805   9.212  1.7214 -0.5722  0.4477
 7854SOL    HW235025   3.151   1.661   9.206 -1.5284  1.1134  0.6062
 7855SOL     OW35026   0.345   1.562   4.173  0.2320 -0.1017  0.5028
 7855SOL    HW135027   0.421   1.507   4.193  0.7868 -0.7090 -3.1413
 7855SOL    HW235028   0.363   1.589   4.082  2.1153 -0.0174  0.8872
 7856SOL     OW35029   2.399   3.137  10.934 -0.0941 -0.2268  0.6864
 7856SOL    HW135030   2.306   3.141  10.957 -0.1705 -0.8351  0.4870
 7856SOL    HW235031   2.414   3.043  10.942  0.8024 -0.1874 -0.4795
 7857SOL     OW35032   2.017   2.987  14.154 -0.0255 -0.1259  0.2156
 7857SOL    HW135033   1.925   3.008  14.168 -0.0733 -0.7848  0.9280
 7857SOL    HW235034   2.024   2.987  14.059 -5.4738 -0.0859 -0.2239
 7858SOL     OW35035   1.952   0.236  10.133  0.5134  0.1298 -0.3427
 7858SOL    HW135036   1.932   0.275  10.048  1.3348 -2.5665 -1.7699
 7858SOL    HW235037   1.888   0.278  10.191  1.6038 -0.5165  1.3210
 7859SOL     OW35038   0.040   3.710   5.435 -0.2921  0.2875  0.0666
 7859SOL    HW135039   4.687   3.660   5.466 -0.9131  2.4590  2.0490
 7859SOL    HW235040   0.116   3.680   5.486 -0.8221  0.2603  0.8460
 7860SOL     OW35041   3.277   2.042   2.763 -0.2986 -0.6257 -0.5736
 7860SOL    HW135042   3.189   2.004   2.760  0.0151 -1.3610 -0.2948
 7860SOL    HW235043   3.317   1.995   2.690  0.9554  0.7823 -0.7946
 7861SOL     OW35044   4.708   3.559   7.830 -0.1063 -0.4312 -0.3437
 7861SOL    HW135045   0.012   3.512   7.908 -2.9742 -0.9209  0.3223
 7861SOL    HW235046   4.682   3.486   7.773 -1.4535  1.2309 -1.8751
 7862SOL     OW35047   2.134   4.282  10.703  0.1892  0.2190  0.9143
 7862SOL    HW135048   2.223   4.311  10.681 -0.3997  1.2476 -0.1076
 7862SOL    HW235049   2.132   4.348  10.772 -1.6791 -0.6473  1.6663
 7863SOL     OW35050   4.410   2.064   3.420 -0.4250 -0.6562  0.1436
 7863SOL    HW135051   4.465   2.003   3.468  1.5836  0.3384 -0.8949
 7863SOL    HW235052   4.328   2.059   3.469 -0.0028  1.6318  1.0450
 7864SOL     OW35053   1.354   0.728   7.870 -0.3533 -0.8432  0.2775
 7864SOL    HW135054   1.427   0.673   7.841 -1.1256 -1.3119 -0.7932
 7864SOL    HW235055   1.284   0.680   7.825 -0.3450 -0.1451 -0.4852
 7865SOL     OW35056   3.326   2.908   5.482 -0.1558 -0.2755  0.0883
 7865SOL    HW135057   3.305   2.912   5.575  3.3267 -1.4093  0.9480
 7865SOL    HW235058   3.404   2.963   5.471 -0.8077  0.9097  1.5362
 7866SOL     OW35059   0.967   1.081   7.046 -0.4602  0.0664  0.2219
 7866SOL    HW135060   0.969   1.023   7.122 -0.0056  0.8021  0.7717
 7866SOL    HW235061   0.886   1.130   7.059 -0.0495  0.3326  1.6989
 7867SOL     OW35062   0.896   1.523   0.214  0.5867  0.1341  0.2013
 7867SOL    HW135063   0.837   1.598   0.216  1.0639  0.6409 -3.9170
 7867SOL    HW235064   0.844   1.453   0.252 -0.6149 -0.0208 -1.7121
 7868SOL     OW35065   3.914   2.422   4.616  0.0390  0.3043 -0.1023
 7868SOL    HW135066   3.858   2.392   4.545 -1.3758  1.2980  0.5985
 7868SOL    HW235067   3.975   2.349   4.625 -0.8646 -0.4849 -0.3843
 7869SOL     OW35068   0.780   0.873   4.184  0.0477  0.9212  0.2276
 7869SOL    HW135069   0.795   0.778   4.188 -0.8252  0.9148  3.6315
 7869SOL    HW235070   0.689   0.877   4.212 -0.1774  2.3092 -0.7184
 7870SOL     OW35071   1.486   3.659  13.053  0.5718  0.4688  0.0851
 7870SOL    HW135072   1.538   3.587  13.088 -1.6318 -1.3181 -0.3020
 7870SOL    HW235073   1.503   3.732  13.113 -2.3046 -0.6791  2.3391
 7871SOL     OW35074   4.100   3.322   5.909 -0.4831 -0.2584 -0.3939
 7871SOL    HW135075   4.125   3.342   5.999 -0.3952 -1.6989 -0.1023
 7871SOL    HW235076   4.148   3.241   5.892  0.5191  0.0399  0.9801
 7872SOL     OW35077   0.146   0.655  13.705 -0.4704 -0.4257  0.3193
 7872SOL    HW135078   0.189   0.598  13.641 -0.0471  1.3578 -0.9581
 7872SOL    HW235079   0.066   0.681  13.659 -0.6036  0.5987  1.1238
 7873SOL     OW35080   0.937   0.287   9.960  0.3272 -0.0424  0.2482
 7873SOL    HW135081   0.850   0.322   9.943  0.1903 -0.7593 -0.5550
 7873SOL    HW235082   0.984   0.354  10.009  0.7826  0.1997 -0.5257
 7874SOL     OW35083   2.617   3.586   5.477  0.0826 -0.3814  0.1935
 7874SOL    HW135084   2.710   3.599   5.496  0.4449 -1.0242 -1.1325
 7874SOL    HW235085   2.586   3.676   5.480 -0.4205 -0.5629  0.5688
 7875SOL     OW35086   0.945   0.639   9.456  0.0058  1.2351 -0.0875
 7875SOL    HW135087   0.854   0.662   9.474  0.1345  1.9764 -0.4015
 7875SOL    HW235088   0.983   0.663   9.540 -2.9654  0.4420  1.4837
 7876SOL     OW35089   3.851   1.673   4.023  0.1279  0.3978 -0.2650
 7876SOL    HW135090   3.817   1.721   3.948  0.9516  2.7914  0.9226
 7876SOL    HW235091   3.781   1.697   4.084  1.8370  2.8011  0.7463
 7877SOL     OW35092   2.313   1.029   9.199  0.1530  0.5581 -0.0171
 7877SOL    HW135093   2.294   1.068   9.284 -0.2259  0.9220 -0.2709
 7877SOL    HW235094   2.276   1.099   9.147  0.8856  1.6484  0.9306
 7878SOL     OW35095   3.231   2.916   0.203 -0.1879 -0.0358 -0.0427
 7878SOL    HW135096   3.212   2.853   0.273  1.2873 -2.1606 -1.5426
 7878SOL    HW235097   3.309   2.878   0.163  0.4398 -0.5932  1.6771
 7879SOL     OW35098   3.154   0.233   2.564  0.3467 -0.3973 -0.0127
 7879SOL    HW135099   3.125   0.323   2.581  0.0168 -0.6084  0.5596
 7879SOL    HW235100   3.080   0.207   2.510 -0.7132  0.7304  0.8814
 7880SOL     OW35101   4.218   3.548  16.676  0.3087  0.3977  0.3500
 7880SOL    HW135102   4.208   3.458  16.643 -0.4945  0.8722 -0.7310
 7880SOL    HW235103   4.254   3.594  16.600 -0.0635  2.1576  1.2607
 7881SOL     OW35104   2.277   2.701   5.227  0.0832  0.1316 -0.2915
 7881SOL    HW135105   2.251   2.791   5.207 -1.2889 -0.1254  0.3383
 7881SOL    HW235106   2.275   2.703   5.323 -1.5687  2.4451 -0.3652
 7882SOL     OW35107   3.883   1.088   9.884  0.7916  0.0645  0.3351
 7882SOL    HW135108   3.921   1.000   9.886 -0.3389 -0.3500  2.9226
 7882SOL    HW235109   3.917   1.116   9.799  1.8863 -1.5667  0.2470
 7883SOL     OW35110   3.631   4.479  10.335 -0.0728 -0.3209  0.5385
 7883SOL    HW135111   3.562   4.538  10.304  0.7240 -0.3080 -1.1676
 7883SOL    HW235112   3.701   4.492  10.272 -1.2053 -3.1529 -1.2595
 7884SOL     OW35113   2.790   0.366   5.553  0.5214  0.1602  0.4370
 7884SOL    HW135114   2.701   0.374   5.587  0.5494 -1.2313  0.8257
 7884SOL    HW235115   2.789   0.422   5.475  1.5976 -0.5669 -0.1084
 7885SOL     OW35116   3.290   2.598   0.264 -0.5950  0.0388 -0.2970
 7885SOL    HW135117   3.219   2.656   0.292  0.5873  1.1246  0.4587
 7885SOL    HW235118   3.330   2.668   0.211  0.4411  0.6213  1.2579
 7886SOL     OW35119   4.640   2.614  12.388  0.2987 -0.0489 -0.0086
 7886SOL    HW135120   0.010   2.590  12.383  0.5739  0.5455  2.4291
 7886SOL    HW235121   4.649   2.709  12.385 -0.6943 -0.0115 -2.1691
 7887SOL     OW35122   0.622   1.857   3.784 -0.1931 -0.1471  0.2047
 7887SOL    HW135123   0.606   1.874   3.691  0.7835  3.8095  0.7438
 7887SOL    HW235124   0.714   1.832   3.770  0.1264  0.6485  0.8699
 7888SOL     OW35125   0.171   3.707   8.082 -0.6607 -0.6134  0.3002
 7888SOL    HW135126   0.208   3.646   8.147  2.7234 -0.7059 -1.7359
 7888SOL    HW235127   0.220   3.787   8.104  0.3950 -0.7476 -1.5308
 7889SOL     OW35128   2.093   0.737   5.153  0.0330  0.1534  0.2209
 7889SOL    HW135129   2.020   0.735   5.091 -1.0116 -2.1359  1.5098
 7889SOL    HW235130   2.139   0.806   5.107  0.9273  0.7236  1.9482
 7890SOL     OW35131   3.786   2.331  11.872 -0.0785  0.0507  0.0483
 7890SOL    HW135132   3.851   2.394  11.905 -1.3344  1.7525 -0.7714
 7890SOL    HW235133   3.743   2.398  11.820 -2.5715 -0.3752  1.5756
 7891SOL     OW35134   0.040   2.319   3.686  0.0093  0.2257 -0.0009
 7891SOL    HW135135   0.101   2.263   3.735  1.0940  0.1541 -1.4090
 7891SOL    HW235136   4.711   2.262   3.628 -0.3106  2.0124 -1.4524
 7892SOL     OW35137   3.347   0.816   3.789 -0.3337 -0.6635  0.1029
 7892SOL    HW135138   3.345   0.740   3.730  0.6946  0.0182 -0.8248
 7892SOL    HW235139   3.432   0.801   3.831 -1.0470  1.4448  2.2940
 7893SOL     OW35140   4.438   1.577   8.640 -0.1655  0.0490 -0.4883
 7893SOL    HW135141   4.484   1.596   8.722  1.0462  0.7375 -1.3361
 7893SOL    HW235142   4.402   1.492   8.665 -0.2276  0.3351  0.4126
 7894SOL     OW35143   1.574   4.465  15.784 -0.3497  0.2339  0.1459
 7894SOL    HW135144   1.574   4.442  15.877  1.5638  0.6017  0.2386
 7894SOL    HW235145   1.482   4.440  15.771 -1.2644  3.1008  1.0561
 7895SOL     OW35146   3.642   3.644   0.396 -0.0793 -0.1396  0.0161
 7895SOL    HW135147   3.681   3.653   0.483  1.9930 -0.3487 -0.8876
 7895SOL    HW235148   3.630   3.549   0.393  1.2362 -0.2698 -0.9777
 7896SOL     OW35149   0.857   1.699   2.167 -0.1410 -0.4194 -0.3463
 7896SOL    HW135150   0.849   1.679   2.074 -0.9028  0.0485 -0.3869
 7896SOL    HW235151   0.951   1.712   2.174 -0.0894 -0.7599 -0.4124
 7897SOL     OW35152   0.166   4.256  15.176 -0.1350  0.6668 -0.0444
 7897SOL    HW135153   0.167   4.289  15.265 -1.4720 -0.1536  0.2668
 7897SOL    HW235154   0.087   4.298  15.143 -0.0858 -0.6268 -1.8400
 7898SOL     OW35155   2.127   1.392   5.329  0.3331 -0.9776  0.1564
 7898SOL    HW135156   2.127   1.334   5.253  2.1940  0.2369 -0.7611
 7898SOL    HW235157   2.214   1.426   5.310  0.1215 -1.8795 -2.4652
 7899SOL     OW35158   3.397   1.683   0.589  0.0302 -0.2780  0.1621
 7899SOL    HW135159   3.317   1.722   0.625  0.8324  0.1223  1.5379
 7899SOL    HW235160   3.366   1.594   0.571  1.1692  0.1556 -3.7956
 7900SOL     OW35161   4.358   4.018   8.706 -0.4850  0.1727  0.7298
 7900SOL    HW135162   4.328   4.055   8.789  1.1677  0.6928  1.0901
 7900SOL    HW235163   4.367   3.925   8.727  0.5964  0.0025 -0.5154
 7901SOL     OW35164   3.391   4.015   2.355 -0.3451 -0.7784  0.0734
 7901SOL    HW135165   3.464   4.066   2.390 -0.0901  0.0839 -1.7284
 7901SOL    HW235166   3.329   4.082   2.326  1.3089  0.1355 -1.3332
 7902SOL     OW35167   4.152   4.649  15.289 -0.0390 -0.0985 -0.0171
 7902SOL    HW135168   4.203   4.617  15.214  0.5420 -0.4652  0.5382
 7902SOL    HW235169   4.147   0.020  15.268 -1.8379 -0.5275 -1.4477
 7903SOL     OW35170   1.650   0.614   2.233 -0.2443 -0.0285 -0.3444
 7903SOL    HW135171   1.567   0.569   2.213 -0.1999 -0.2127 -0.1116
 7903SOL    HW235172   1.643   0.683   2.167 -0.0114 -0.2089 -0.5585
 7904SOL     OW35173   2.238   4.719  10.943 -0.2492  0.1282  0.6962
 7904SOL    HW135174   2.292   4.691  11.017 -1.2063 -0.5849  1.1321
 7904SOL    HW235175   2.193   0.062  10.997  0.5060  0.1188  1.3357
 7905SOL     OW35176   1.524   1.147   5.166 -0.2251 -0.3243  0.1157
 7905SOL    HW135177   1.492   1.221   5.116  1.4994  1.9694  2.4077
 7905SOL    HW235178   1.612   1.159   5.132  0.4654 -1.3833  1.5209
 7906SOL     OW35179   4.706   2.716  10.806 -0.3453 -0.2516  0.1418
 7906SOL    HW135180   4.696   2.624  10.828 -0.0079 -0.1282  0.8269
 7906SOL    HW235181   0.058   2.731  10.865 -1.2170 -0.2491  1.2322
 7907SOL     OW35182   2.843   3.844  14.248  0.1023 -0.2173 -0.0523
 7907SOL    HW135183   2.938   3.844  14.237  0.1735  1.1939  0.4699
 7907SOL    HW235184   2.841   3.861  14.342  3.1903 -1.0141  0.1534
 7908SOL     OW35185   1.988   3.312   8.540 -0.0975 -0.0124 -0.3572
 7908SOL    HW135186   2.004   3.377   8.471 -2.0265  0.8271 -0.0003
 7908SOL    HW235187   2.075   3.312   8.580  0.6773  1.2295 -2.0356
 7909SOL     OW35188   4.153   0.993   3.191  0.5117 -0.4905  0.2415
 7909SOL    HW135189   4.220   1.027   3.132 -0.7966  0.8864 -0.4665
 7909SOL    HW235190   4.093   1.067   3.198  2.0087  0.7962 -0.6077
 7910SOL     OW35191   4.675   1.186   3.878  0.1557  0.4702  0.0793
 7910SOL    HW135192   4.594   1.232   3.857  2.3000  2.2227 -4.3042
 7910SOL    HW235193   4.681   1.136   3.797  2.2029 -0.2498  0.6838
 7911SOL     OW35194   2.888   2.025  11.891 -0.0780 -0.3031  0.6332
 7911SOL    HW135195   2.798   1.992  11.884 -1.1837  2.4546  1.9332
 7911SOL    HW235196   2.883   2.107  11.842 -0.9259 -1.1204 -0.6696
 7912SOL     OW35197   2.128   1.453  13.399 -0.5289 -0.3083  0.2620
 7912SOL    HW135198   2.223   1.448  13.405 -0.4719  0.4310 -0.0004
 7912SOL    HW235199   2.115   1.379  13.340  0.4396  0.7563 -1.2839
 7913SOL     OW35200   4.645   4.569  13.304 -0.1536 -0.0082  0.4418
 7913SOL    HW135201   4.714   4.505  13.323 -0.6878 -0.6874  0.0739
 7913SOL    HW235202   4.595   4.556  13.384 -1.4430 -1.2837 -0.5798
 7914SOL     OW35203   3.745   2.689  15.051 -0.5004  0.0515  0.1002
 7914SOL    HW135204   3.748   2.669  15.144  0.5204  0.4271  0.1552
 7914SOL    HW235205   3.712   2.779  15.060  1.2917  0.9037 -1.6807
 7915SOL     OW35206   2.286   1.552   1.764 -0.2267 -0.7718  0.1317
 7915SOL    HW135207   2.201   1.592   1.781  0.6223  1.2557 -0.4037
 7915SOL    HW235208   2.349   1.617   1.794 -2.5124  1.1685  0.7244
 7916SOL     OW35209   0.360   4.473   2.522 -0.2304 -0.4566 -0.9879
 7916SOL    HW135210   0.372   4.379   2.506  2.7194 -0.7303  2.7506
 7916SOL    HW235211   0.446   4.513   2.507 -0.0210 -1.6305 -2.8416
 7917SOL     OW35212   2.560   1.338  13.872 -0.2784 -0.3165  0.5275
 7917SOL    HW135213   2.466   1.344  13.888 -0.7167 -3.5002 -0.9887
 7917SOL    HW235214   2.595   1.390  13.945  2.4388 -1.1803 -0.1351
 7918SOL     OW35215   0.488   4.473   5.867 -0.0519 -0.2176  0.0294
 7918SOL    HW135216   0.464   4.538   5.933  0.5472 -1.2399  1.2707
 7918SOL    HW235217   0.573   4.507   5.838 -0.3334  0.2614 -0.2251
 7919SOL     OW35218   2.149   3.310   5.418  0.1632  0.1558  0.4405
 7919SOL    HW135219   2.201   3.353   5.486 -0.9517 -1.2181  2.1682
 7919SOL    HW235220   2.215   3.308   5.349 -0.1050 -1.7647  0.2260
 7920SOL     OW35221   3.480   2.775  15.327 -0.3906  0.0903 -0.9174
 7920SOL    HW135222   3.442   2.855  15.366 -0.4964  0.3958 -1.6566
 7920SOL    HW235223   3.543   2.813  15.266 -0.0357  1.1635  0.1064
 7921SOL     OW35224   1.212   2.378   6.425  0.1941 -0.1987 -0.0209
 7921SOL    HW135225   1.237   2.453   6.371  1.6792 -1.2591 -0.8289
 7921SOL    HW235226   1.134   2.416   6.464 -0.4195  0.3768 -1.8027
 7922SOL     OW35227   3.680   4.131   7.670 -0.2111  0.3935 -0.3003
 7922SOL    HW135228   3.603   4.112   7.616 -0.6923  2.5274 -0.3838
 7922SOL    HW235229   3.710   4.207   7.620  1.5255 -2.2853 -3.3460
 7923SOL     OW35230   4.110   2.772   9.329 -0.2414 -0.7305 -0.7393
 7923SOL    HW135231   4.117   2.703   9.263 -0.8846 -1.4186 -0.0799
 7923SOL    HW235232   4.071   2.843   9.278  0.6076  0.9817  1.0233
 7924SOL     OW35233   2.191   0.955   2.719  0.2786  0.3969 -0.1758
 7924SOL    HW135234   2.241   1.022   2.672  1.0212 -0.6639 -0.9036
 7924SOL    HW235235   2.163   0.894   2.650  0.7736 -0.3677  0.2980
 7925SOL     OW35236   0.032   4.224   3.763 -0.1097  0.1594  0.2587
 7925SOL    HW135237   0.036   4.319   3.749  2.4991  0.3988  2.7467
 7925SOL    HW235238   0.055   4.192   3.675 -0.3318 -0.7720  0.5437
 7926SOL     OW35239   4.034   1.778   7.430 -0.8067 -0.0981 -0.5165
 7926SOL    HW135240   3.941   1.802   7.429 -1.0522 -1.0147  1.2234
 7926SOL    HW235241   4.063   1.868   7.445  1.2992 -0.7639 -0.5734
 7927SOL     OW35242   0.498   3.596  13.724 -0.4260 -0.5936  0.1497
 7927SOL    HW135243   0.434   3.608  13.795  2.0306 -0.2715  2.2995
 7927SOL    HW235244   0.514   3.686  13.695 -2.3623 -0.8689 -1.7846
 7928SOL     OW35245   1.736   2.058  12.354  0.2062  0.4309 -0.5902
 7928SOL    HW135246   1.789   2.122  12.402 -0.2103  0.5708 -0.3150
 7928SOL    HW235247   1.677   2.109  12.299 -1.5991 -0.5357  0.4449
 7929SOL     OW35248   4.163   2.359  15.004 -0.0264  0.2633 -0.2115
 7929SOL    HW135249   4.235   2.421  15.011  0.5618 -0.3411 -0.9023
 7929SOL    HW235250   4.092   2.406  15.049 -0.3984 -1.5593  1.1309
 7930SOL     OW35251   3.803   2.981   5.626  0.0212 -0.2644 -0.1900
 7930SOL    HW135252   3.846   3.055   5.669  1.1671 -0.5050 -0.9226
 7930SOL    HW235253   3.776   2.927   5.701  0.5640  0.7394  0.7194
 7931SOL     OW35254   3.963   1.939   9.849 -0.5099  0.1589 -0.1700
 7931SOL    HW135255   4.040   1.883   9.853 -0.5356  0.1778  0.5078
 7931SOL    HW235256   3.930   1.917   9.762 -0.7002 -1.4944  0.3307
 7932SOL     OW35257   1.339   1.073   2.148 -0.3578 -0.3189 -0.0085
 7932SOL    HW135258   1.419   1.087   2.200 -0.6508 -0.7352  0.5518
 7932SOL    HW235259   1.381   1.081   2.062 -2.0069  1.7016 -0.6156
 7933SOL     OW35260   0.989   0.774  14.901  0.3126 -0.0941  0.3299
 7933SOL    HW135261   0.988   0.803  14.809 -1.3926  1.2567  0.7604
 7933SOL    HW235262   1.032   0.847  14.946  1.2120 -1.2576  1.3358
 7934SOL     OW35263   1.450   2.948   9.665 -0.4520 -0.3853  0.1370
 7934SOL    HW135264   1.540   2.918   9.676 -0.3985 -0.3958 -0.3251
 7934SOL    HW235265   1.410   2.938   9.751  0.2199 -2.2150  0.2317
 7935SOL     OW35266   1.247   1.732   5.562  0.5118  0.2976  0.3166
 7935SOL    HW135267   1.249   1.640   5.538  1.2420  0.1619  0.8832
 7935SOL    HW235268   1.271   1.721   5.654 -0.2253 -2.1004  0.2258
 7936SOL     OW35269   0.991   4.538   8.593  0.3427 -0.4083  0.2018
 7936SOL    HW135270   0.896   4.523   8.589 -0.0168  0.6413  4.9456
 7936SOL    HW235271   1.014   4.491   8.673  1.6299  0.7939  0.5351
 7937SOL     OW35272   4.705   3.009   1.713 -0.5257 -0.1369 -0.2464
 7937SOL    HW135273   4.667   3.043   1.632 -0.3965 -2.3818 -1.2737
 7937SOL    HW235274   4.633   2.994   1.773 -1.1136 -0.9093 -1.1353
 7938SOL     OW35275   1.011   3.658  12.776 -0.0331 -0.7284 -0.3268
 7938SOL    HW135276   1.090   3.663  12.830 -0.2022 -1.2163 -0.0335
 7938SOL    HW235277   0.979   3.570  12.798  1.9280 -0.9781  1.4927
 7939SOL     OW35278   1.225   3.501  10.924  0.9150 -0.2698  0.4215
 7939SOL    HW135279   1.319   3.480  10.925  0.5742 -1.8841 -0.6429
 7939SOL    HW235280   1.229   3.587  10.882  1.6366 -0.3294  0.3591
 7940SOL     OW35281   2.693   0.175  14.241 -0.0106  0.7176  0.2046
 7940SOL    HW135282   2.649   0.127  14.169  0.9368 -0.1193  0.1888
 7940SOL    HW235283   2.777   0.206  14.208  2.3475 -3.7162  2.0539
 7941SOL     OW35284   2.726   1.613   6.068 -0.2489  0.1730  0.4038
 7941SOL    HW135285   2.642   1.600   6.112 -0.4612 -1.3878 -0.4745
 7941SOL    HW235286   2.789   1.601   6.139  0.4026 -0.7709 -0.3351
 7942SOL     OW35287   0.332   4.454  14.366  0.1555  0.5118  0.5574
 7942SOL    HW135288   0.416   4.471  14.409  0.6321 -0.4616  0.0034
 7942SOL    HW235289   0.279   4.493  14.436 -1.1213 -2.3428  1.1748
 7943SOL     OW35290   4.089   2.294   6.739 -0.2251 -0.3186  0.1343
 7943SOL    HW135291   4.053   2.369   6.785 -0.5764 -0.4314  0.0387
 7943SOL    HW235292   4.071   2.320   6.650 -0.9854 -1.8669 -0.1645
 7944SOL     OW35293   4.389   2.697  15.849 -0.2344 -0.1692  0.4709
 7944SOL    HW135294   4.426   2.614  15.820 -0.0974  0.3074 -0.7238
 7944SOL    HW235295   4.462   2.741  15.893  0.9386 -1.9850  0.3742
 7945SOL     OW35296   2.119   4.629   0.840  0.2294 -0.1692 -0.2285
 7945SOL    HW135297   2.070   4.553   0.808  1.0719 -0.4864 -0.7414
 7945SOL    HW235298   2.187   4.592   0.896 -1.5654 -2.0114  0.7372
 7946SOL     OW35299   0.775   0.544   5.568 -0.0469 -0.2521  0.1058
 7946SOL    HW135300   0.813   0.579   5.648  0.2486  0.1998 -0.2308
 7946SOL    HW235301   0.696   0.595   5.552  0.5768  1.5061  2.7105
 7947SOL     OW35302   0.881   2.098   6.472 -0.1452  0.3849  0.1312
 7947SOL    HW135303   0.970   2.102   6.506 -0.2106  2.0425  0.0946
 7947SOL    HW235304   0.832   2.159   6.528 -1.7889 -0.1753 -0.6833
 7948SOL     OW35305   4.101   0.255   6.963  0.2735  0.2559  0.3160
 7948SOL    HW135306   4.130   0.343   6.938 -2.4636  2.1095  3.7468
 7948SOL    HW235307   4.162   0.200   6.913 -1.6637 -2.1620  0.6276
 7949SOL     OW35308   4.151   0.654  16.793 -0.4939  0.1320  0.5471
 7949SOL    HW135309   4.091   0.668  16.866 -1.1126 -0.8124  0.2197
 7949SOL    HW235310   4.222   0.606  16.835 -1.5292 -1.8211  0.1037
 7950SOL     OW35311   1.946   4.153   2.662  0.0974 -0.0309 -0.1999
 7950SOL    HW135312   1.979   4.213   2.729 -0.8823 -0.8824  1.0405
 7950SOL    HW235313   1.869   4.196   2.626 -0.8852  0.6053  2.7229
 7951SOL     OW35314   4.577   2.639   7.370  0.3963 -0.2172  0.1339
 7951SOL    HW135315   4.514   2.707   7.394 -0.0071 -0.3723 -0.4697
 7951SOL    HW235316   4.647   2.699   7.346 -0.0387  0.7153  1.1795
 7952SOL     OW35317   0.085   1.283   7.418  0.1034  1.4108  0.1706
 7952SOL    HW135318   0.113   1.348   7.482 -1.7906  1.7595  0.6401
 7952SOL    HW235319   4.721   1.273   7.459  0.7449  0.2388  1.2513
 7953SOL     OW35320   1.916   2.039   3.947 -0.2595  0.2493  1.0500
 7953SOL    HW135321   1.912   2.123   3.901  0.2739 -0.3898 -0.1873
 7953SOL    HW235322   2.007   2.010   3.950  0.5516  2.5806 -0.9342
 7954SOL     OW35323   3.230   3.706  15.259  0.3957  0.0928  0.2684
 7954SOL    HW135324   3.318   3.690  15.227  0.6211 -1.4292  1.6509
 7954SOL    HW235325   3.187   3.720  15.174  2.7724  0.1708 -0.9237
 7955SOL     OW35326   1.766   2.032   3.058 -0.2869 -0.2843  0.2894
 7955SOL    HW135327   1.851   1.994   3.034  0.5423  1.4110  0.5498
 7955SOL    HW235328   1.773   2.029   3.153 -1.0675  0.6549  0.3776
 7956SOL     OW35329   0.659   2.975  14.874  0.6794 -0.0650  0.6572
 7956SOL    HW135330   0.751   2.968  14.897  0.5338 -3.0099  0.2850
 7956SOL    HW235331   0.636   3.067  14.889 -0.9476 -0.3451 -0.0319
 7957SOL     OW35332   0.356   0.923  13.563 -0.2070 -0.4169  0.1877
 7957SOL    HW135333   0.267   0.907  13.531  0.4184 -0.7888 -1.3936
 7957SOL    HW235334   0.372   1.015  13.541  4.5928 -0.8897  1.7543
 7958SOL     OW35335   4.123   0.793   2.234  0.5835 -0.3146  0.2466
 7958SOL    HW135336   4.154   0.720   2.179 -0.0703  1.0385 -1.9164
 7958SOL    HW235337   4.202   0.847   2.227 -1.0862  1.7669 -2.7153
 7959SOL     OW35338   4.023   1.742   2.815 -0.5751 -0.3857  0.2357
 7959SOL    HW135339   4.041   1.714   2.904 -0.9261 -2.2314 -0.2672
 7959SOL    HW235340   4.075   1.823   2.812  2.0048 -2.1427 -2.9756
 7960SOL     OW35341   2.984   2.197   0.505  0.1904 -0.0174  0.2898
 7960SOL    HW135342   2.908   2.148   0.536  0.6002  1.1652  3.1334
 7960SOL    HW235343   3.018   2.140   0.436 -0.1365 -0.7194  0.7056
 7961SOL     OW35344   2.108   3.938   9.998  0.0792  0.3952 -0.3895
 7961SOL    HW135345   2.139   4.025   9.975  0.9886  0.7290  2.1418
 7961SOL    HW235346   2.174   3.909  10.061  1.3375  0.1913 -1.7908
 7962SOL     OW35347   2.635   3.279   4.474 -0.0728 -0.0472  0.2503
 7962SOL    HW135348   2.712   3.229   4.446  0.0708 -0.4876  1.4513
 7962SOL    HW235349   2.652   3.280   4.568  0.9476 -3.0730  0.1237
 7963SOL     OW35350   3.556   0.413   7.577  0.0048  0.6994  0.6251
 7963SOL    HW135351   3.529   0.460   7.656 -1.1214 -0.6045  1.0158
 7963SOL    HW235352   3.500   0.337   7.589  0.5319  0.3273  0.7415
 7964SOL     OW35353   2.234   0.647   8.569 -0.6406 -0.1192 -0.0035
 7964SOL    HW135354   2.176   0.597   8.511 -1.6021  1.1801 -0.1661
 7964SOL    HW235355   2.304   0.675   8.509 -0.1879  0.1749  0.6617
 7965SOL     OW35356   3.620   3.801   8.216 -0.1200  0.0216  0.5609
 7965SOL    HW135357   3.629   3.706   8.207  1.7897  0.1405  1.1254
 7965SOL    HW235358   3.607   3.831   8.126  3.8421  0.8970  0.2908
 7966SOL     OW35359   2.199   0.067   6.335 -0.5732 -0.0690 -0.1035
 7966SOL    HW135360   2.125   0.071   6.396 -0.3316  0.6956  0.1399
 7966SOL    HW235361   2.232   4.700   6.337  2.5079  0.9997 -2.9481
 7967SOL     OW35362   1.871   1.593   1.734 -0.4429 -0.5783  0.5449
 7967SOL    HW135363   1.904   1.678   1.764  0.2411 -0.5575 -0.2835
 7967SOL    HW235364   1.912   1.535   1.798 -0.8070 -2.9489 -1.3484
 7968SOL     OW35365   2.407   0.987   4.554  0.1908  0.2909 -0.4071
 7968SOL    HW135366   2.314   0.973   4.570 -0.5359  2.7160 -2.4457
 7968SOL    HW235367   2.403   1.030   4.468 -0.7665  1.1890  0.0831
 7969SOL     OW35368   1.574   0.684   7.146  0.2310  0.5021 -0.1986
 7969SOL    HW135369   1.649   0.679   7.205 -1.7343 -0.1774  2.2271
 7969SOL    HW235370   1.517   0.652   7.215  1.1933  0.2178  0.4644
 7970SOL     OW35371   1.856   4.023   7.715 -0.4426 -0.0841  0.3716
 7970SOL    HW135372   1.938   4.061   7.683 -0.3738  0.1013  0.7591
 7970SOL    HW235373   1.791   4.079   7.671  1.0701  0.9179 -0.5875
 7971SOL     OW35374   1.415   3.989  12.054  0.1947 -0.1053 -0.4889
 7971SOL    HW135375   1.332   3.941  12.050  0.3739 -0.3482 -1.3281
 7971SOL    HW235376   1.418   4.034  12.138  1.4588 -3.0337  1.0296
 7972SOL     OW35377   1.326   1.331   7.313 -0.7114  0.1359 -0.3541
 7972SOL    HW135378   1.251   1.377   7.275  1.1067  3.3279 -0.1047
 7972SOL    HW235379   1.403   1.369   7.269 -0.6073  2.7733  2.0788
 7973SOL     OW35380   3.606   3.188   8.426  0.0507  0.0994  0.1979
 7973SOL    HW135381   3.527   3.171   8.374  0.1157 -0.8314  0.3930
 7973SOL    HW235382   3.582   3.227   8.510  0.7076 -0.1861  0.5178
 7974SOL     OW35383   4.570   4.074   3.453  0.1293 -0.1613 -0.1574
 7974SOL    HW135384   4.605   4.006   3.396 -1.2310 -1.7879  0.9095
 7974SOL    HW235385   4.514   4.019   3.508 -0.5296 -0.2658 -0.9313
 7975SOL     OW35386   2.825   3.746   7.452 -0.5899 -0.0023 -0.2455
 7975SOL    HW135387   2.794   3.721   7.539  2.0595  0.3115  0.8063
 7975SOL    HW235388   2.891   3.679   7.433  0.0787  0.6283 -0.1663
 7976SOL     OW35389   2.515   1.020   1.843 -0.0419  0.6947 -0.0564
 7976SOL    HW135390   2.494   0.931   1.813  0.5358  0.8333 -0.8791
 7976SOL    HW235391   2.436   1.068   1.815  0.0431  0.7440 -0.2124
 7977SOL     OW35392   3.641   1.224   3.704  0.0964 -0.2783 -0.2797
 7977SOL    HW135393   3.612   1.298   3.758 -0.0024  0.8860 -1.9487
 7977SOL    HW235394   3.557   1.207   3.661  0.2354 -2.6380  0.4079
 7978SOL     OW35395   4.040   2.325   6.446 -0.0210  0.2241  0.1052
 7978SOL    HW135396   4.033   2.328   6.351 -1.9673  0.6803  0.2597
 7978SOL    HW235397   4.024   2.233   6.466  1.4187 -0.0290  0.0550
 7979SOL     OW35398   4.160   4.544   3.003 -0.3249  0.5200 -0.0924
 7979SOL    HW135399   4.143   4.476   3.069 -0.8300 -1.3586 -2.1617
 7979SOL    HW235400   4.090   4.606   3.020 -0.6638 -0.2327  1.3030
 7980SOL     OW35401   1.149   3.172   2.688  0.0555  0.2821  0.3802
 7980SOL    HW135402   1.082   3.240   2.682 -1.2282 -0.9784  0.4942
 7980SOL    HW235403   1.109   3.136   2.767 -0.9472 -1.6403 -1.0148
 7981SOL     OW35404   4.344   0.352   8.777 -0.1565  0.4216 -0.4541
 7981SOL    HW135405   4.264   0.359   8.725 -1.1124 -0.4926  0.8694
 7981SOL    HW235406   4.312   0.286   8.840 -0.5503  0.0517 -1.0431
 7982SOL     OW35407   1.052   4.359   7.681 -0.5694 -0.0138 -0.2968
 7982SOL    HW135408   1.112   4.315   7.741  0.8190  0.4247 -1.3663
 7982SOL    HW235409   1.085   4.335   7.594  0.5567  0.8860 -0.1139
 7983SOL     OW35410   1.694   0.019   6.166  0.0294 -0.2503  0.2383
 7983SOL    HW135411   1.663   0.045   6.079  0.2623 -0.0475  0.2152
 7983SOL    HW235412   1.700   0.109   6.197  2.6140 -0.9128  1.6573
 7984SOL     OW35413   2.423   0.958   6.821  0.4319  0.9130  0.3609
 7984SOL    HW135414   2.473   1.032   6.788  0.4795  1.3900  1.4985
 7984SOL    HW235415   2.465   0.885   6.775 -0.0158  0.1004  1.2277
 7985SOL     OW35416   4.050   0.110   3.881  0.2875  0.0365  0.0333
 7985SOL    HW135417   4.120   0.046   3.874  1.1098  0.9767 -0.3684
 7985SOL    HW235418   3.993   0.071   3.815  0.3986 -0.3203  0.1481
 7986SOL     OW35419   0.026   2.954   6.471  0.0992 -0.0805 -0.4310
 7986SOL    HW135420   0.015   2.984   6.380  1.8792 -1.4617 -1.0985
 7986SOL    HW235421   0.110   2.909   6.467 -0.3072 -0.8513 -0.2886
 7987SOL     OW35422   0.619   1.902   6.657  0.1136 -0.4356  0.1614
 7987SOL    HW135423   0.683   1.891   6.586  1.3002  2.3628  0.7971
 7987SOL    HW235424   0.541   1.932   6.611 -0.0919 -1.5482 -0.2210
 7988SOL     OW35425   0.471   1.537   1.609 -0.4769  0.0670  0.0343
 7988SOL    HW135426   0.454   1.563   1.699  0.6222 -2.4895  0.9815
 7988SOL    HW235427   0.512   1.454   1.633 -1.7229 -0.2994  0.8609
 7989SOL     OW35428   3.519   1.248   5.391 -0.8652 -0.1123 -0.1130
 7989SOL    HW135429   3.464   1.178   5.426  1.1812 -1.8567 -0.4241
 7989SOL    HW235430   3.463   1.317   5.429 -1.1099 -1.2115  1.5471
 7990SOL     OW35431   0.903   0.987  10.008 -0.2920 -0.3078  0.4427
 7990SOL    HW135432   0.976   0.942   9.966 -0.1984  0.0760  0.2056
 7990SOL    HW235433   0.900   0.941  10.093 -0.6616 -2.7651 -0.8989
 7991SOL     OW35434   2.229   1.764   2.142 -0.1862  0.2629  0.3815
 7991SOL    HW135435   2.158   1.722   2.190 -1.1788  0.7695 -0.6652
 7991SOL    HW235436   2.216   1.732   2.053  1.3782 -1.0973  0.6477
 7992SOL     OW35437   3.138   2.409   9.754 -0.3224 -0.0965 -0.4592
 7992SOL    HW135438   3.232   2.392   9.742 -0.2165 -0.1455  0.4287
 7992SOL    HW235439   3.122   2.414   9.849  2.0710 -0.3740 -0.0380
 7993SOL     OW35440   0.996   0.664   4.017  0.3761  0.4011 -0.0480
 7993SOL    HW135441   0.930   0.721   3.976 -0.1530  0.1306  0.4370
 7993SOL    HW235442   1.082   0.704   4.003  0.4161  0.8832  1.6494
 7994SOL     OW35443   3.995   2.492  15.150  0.2388 -0.2511 -0.4245
 7994SOL    HW135444   3.928   2.424  15.148 -0.0513  0.0172  0.0757
 7994SOL    HW235445   3.945   2.567  15.182 -1.3251 -1.0480 -0.9991
 7995SOL     OW35446   2.736   0.616  12.720 -0.2406  0.2022  0.7626
 7995SOL    HW135447   2.675   0.549  12.689 -0.0180  0.4504 -0.1829
 7995SOL    HW235448   2.678   0.693  12.717  0.2607  0.5383 -0.0237
 7996SOL     OW35449   2.331   2.027  16.031 -0.2115  0.1922 -0.0780
 7996SOL    HW135450   2.420   2.042  16.000 -0.0147  1.1494  0.9296
 7996SOL    HW235451   2.300   1.954  15.978  0.7313 -0.6975  0.6050
 7997SOL     OW35452   3.578   3.294   8.110 -0.1140 -0.3429 -0.2523
 7997SOL    HW135453   3.533   3.283   8.026 -0.5806  2.7768 -0.4133
 7997SOL    HW235454   3.531   3.236   8.169 -0.6180  1.5903  1.2617
 7998SOL     OW35455   3.879   2.003  14.496 -0.5301  0.3247 -0.0038
 7998SOL    HW135456   3.865   1.909  14.507 -0.0937  0.0882 -1.4827
 7998SOL    HW235457   3.798   2.026  14.451 -0.4998  0.6162  0.0849
 7999SOL     OW35458   3.447   1.069   2.650 -0.1750 -0.3828 -0.0383
 7999SOL    HW135459   3.537   1.100   2.660  0.4866 -0.7195 -4.6144
 7999SOL    HW235460   3.408   1.147   2.687  1.3048  0.4523 -0.2337
 8000SOL     OW35461   1.519   0.186   3.967  0.3949 -0.1544 -0.2750
 8000SOL    HW135462   1.474   0.189   3.882 -0.5268 -1.7605  0.1702
 8000SOL    HW235463   1.610   0.208   3.943  1.0610 -0.7206  1.7642
 8001SOL     OW35464   0.336   4.080   6.113 -0.3294 -0.0081 -0.2195
 8001SOL    HW135465   0.276   4.101   6.042  2.0381  0.2025 -2.1335
 8001SOL    HW235466   0.394   4.156   6.119 -0.1521 -0.1991  0.5150
 8002SOL     OW35467   1.074   3.326  10.714 -0.9762  0.6184  0.6298
 8002SOL    HW135468   1.162   3.345  10.748 -1.3851 -0.6490  2.3887
 8002SOL    HW235469   1.082   3.244  10.665 -0.0473  0.0583  1.7071
 8003SOL     OW35470   3.643   3.342   1.020 -0.7030  0.9868  0.3247
 8003SOL    HW135471   3.608   3.295   1.096 -0.7100 -0.4404 -0.5467
 8003SOL    HW235472   3.713   3.385   1.069 -0.9721  1.6028  0.1566
 8004SOL     OW35473   4.367   3.809   2.732  0.1255  0.2937 -0.3504
 8004SOL    HW135474   4.404   3.857   2.659 -1.6849 -0.8287 -2.0143
 8004SOL    HW235475   4.384   3.874   2.800 -0.2810 -0.0419  0.0765
 8005SOL     OW35476   0.614   0.581  17.097  0.5252 -0.1086  0.3345
 8005SOL    HW135477   0.628   0.530  17.017 -0.4336  0.0996  0.0252
 8005SOL    HW235478   0.690   0.625  17.133 -1.1690  2.9861  0.1009
 8006SOL     OW35479   1.305   2.118   7.238 -0.5051 -0.2969  0.2396
 8006SOL    HW135480   1.321   2.035   7.284  0.6729  0.2382  0.7903
 8006SOL    HW235481   1.222   2.099   7.195 -0.3122  0.8001 -0.6048
 8007SOL     OW35482   1.961   2.268   6.138  0.3379  0.0205  0.3241
 8007SOL    HW135483   1.869   2.261   6.114  0.4341 -0.8117  0.2235
 8007SOL    HW235484   1.986   2.185   6.179  0.8692  0.4801  0.9494
 8008SOL     OW35485   0.401   0.905   5.272 -0.4510 -0.1345 -0.3535
 8008SOL    HW135486   0.447   0.846   5.213  0.8837  0.3880  0.1564
 8008SOL    HW235487   0.475   0.943   5.320  0.0017 -1.6885  0.1879
 8009SOL     OW35488   0.486   1.230   2.087 -0.0291 -0.2944  0.5458
 8009SOL    HW135489   0.480   1.173   2.163  0.5241  1.3172  1.7970
 8009SOL    HW235490   0.392   1.242   2.074  0.1959  2.3003  1.3317
 8010SOL     OW35491   2.616   4.151  15.245  0.0741 -0.0752 -0.2180
 8010SOL    HW135492   2.630   4.177  15.336  2.2879 -1.7219 -0.0906
 8010SOL    HW235493   2.543   4.090  15.256 -0.8992  0.7521 -2.0530
 8011SOL     OW35494   4.700   0.215   3.828 -0.4386 -0.2664 -0.0345
 8011SOL    HW135495   4.691   0.199   3.922 -2.8483 -0.0805 -0.2224
 8011SOL    HW235496   4.609   0.236   3.807  0.3506  1.6749 -1.5460
 8012SOL     OW35497   0.488   1.360   2.473 -0.3260  0.0006 -0.5765
 8012SOL    HW135498   0.411   1.413   2.491  0.1001  0.7767 -1.0040
 8012SOL    HW235499   0.554   1.414   2.518 -0.0633 -1.2561  0.5235
 8013SOL     OW35500   1.078   3.198   5.812  0.3417  0.0941 -0.2502
 8013SOL    HW135501   1.154   3.178   5.757 -1.3014 -1.0600 -2.1162
 8013SOL    HW235502   1.031   3.115   5.820  1.4715 -0.4623  0.5527
 8014SOL     OW35503   0.457   1.245   8.601  0.1052 -0.1399  0.0832
 8014SOL    HW135504   0.372   1.283   8.580  0.1843  1.2719  2.2228
 8014SOL    HW235505   0.426   1.197   8.678  0.9434 -0.1064  0.4496
 8015SOL     OW35506   0.849   4.192   5.606  0.4268 -0.1372  0.1403
 8015SOL    HW135507   0.758   4.221   5.608  0.6158  0.4195  0.7907
 8015SOL    HW235508   0.846   4.121   5.669  1.2833 -1.3947 -1.2313
 8016SOL     OW35509   3.771   0.729   7.220 -0.4444 -0.0482  0.3134
 8016SOL    HW135510   3.718   0.800   7.185 -2.3026 -0.6799  1.8083
 8016SOL    HW235511   3.720   0.718   7.300 -0.0347 -0.0134  0.5788
 8017SOL     OW35512   0.232   2.911   4.625 -0.4809 -0.5022 -0.2599
 8017SOL    HW135513   0.309   2.939   4.574  0.3976 -0.6154  1.0120
 8017SOL    HW235514   0.249   2.817   4.634  0.4106 -0.2449  0.7334
 8018SOL     OW35515   0.183   0.583  14.532 -0.1930  0.1439 -0.0824
 8018SOL    HW135516   0.244   0.628  14.474 -1.7115 -0.3431 -2.0546
 8018SOL    HW235517   0.207   0.615  14.619 -0.6207  1.7899 -0.5777
 8019SOL     OW35518   1.524   2.110   1.006 -0.2548 -0.0174  0.0674
 8019SOL    HW135519   1.617   2.087   1.008  0.4493  2.9258  0.5564
 8019SOL    HW235520   1.491   2.060   1.081 -0.1970 -2.3162 -1.4284
 8020SOL     OW35521   4.518   3.309   6.839  0.1272 -0.0730  0.1888
 8020SOL    HW135522   4.462   3.272   6.907  0.4570  2.1857  1.6766
 8020SOL    HW235523   4.484   3.275   6.756 -1.9358  1.4179  0.4240
 8021SOL     OW35524   0.404   0.950   8.482  0.1981  0.1310 -0.5228
 8021SOL    HW135525   0.326   0.963   8.428  0.6414  1.0441 -0.9502
 8021SOL    HW235526   0.368   0.973   8.568  1.3490  2.5370 -0.6840
 8022SOL     OW35527   1.639   4.534   0.591 -0.2094 -0.1002 -0.1148
 8022SOL    HW135528   1.729   4.553   0.566 -0.2893 -0.2946 -0.5495
 8022SOL    HW235529   1.587   4.566   0.517 -1.6663 -1.1699  0.4304
 8023SOL     OW35530   1.757   4.573   3.025  0.0130  0.5280  0.4456
 8023SOL    HW135531   1.801   4.515   3.086  1.1685 -3.4278 -4.1767
 8023SOL    HW235532   1.813   4.651   3.032  0.3670  0.3926 -0.8514
 8024SOL     OW35533   1.102   1.523   3.099 -0.2392  0.2424 -0.0900
 8024SOL    HW135534   1.098   1.516   3.004 -0.8439  0.9371 -0.1098
 8024SOL    HW235535   1.115   1.429   3.116 -0.3830  1.1163  4.9496
 8025SOL     OW35536   1.222   0.502   7.756 -0.0810  1.1248 -0.1216
 8025SOL    HW135537   1.153   0.486   7.821  0.8232  1.1489  0.8432
 8025SOL    HW235538   1.241   0.411   7.733  0.1981  1.0937  0.2243
 8026SOL     OW35539   0.067   2.190   0.363 -0.0313  0.3478  0.3328
 8026SOL    HW135540   0.143   2.133   0.378 -0.6224 -0.7279 -0.7039
 8026SOL    HW235541   0.052   2.220   0.452 -0.2454 -1.0222  0.7564
 8027SOL     OW35542   2.881   1.040   2.307 -0.1622 -0.2559 -0.0118
 8027SOL    HW135543   2.901   0.951   2.278  0.8025 -0.7987  2.2603
 8027SOL    HW235544   2.794   1.028   2.346 -1.0132  0.4910 -1.6580
 8028SOL     OW35545   2.644   0.134   7.821  0.4748  0.4076  0.0463
 8028SOL    HW135546   2.737   0.128   7.797  0.2319 -0.9759 -0.5667
 8028SOL    HW235547   2.618   0.211   7.770  3.2711  2.3422  1.5274
 8029SOL     OW35548   4.702   1.238   9.752 -0.5719  0.0668 -0.0346
 8029SOL    HW135549   0.043   1.167   9.764 -0.0179  0.3052 -1.5021
 8029SOL    HW235550   0.029   1.297   9.696  0.5073  0.8614  1.7857
 8030SOL     OW35551   2.884   4.340   5.813 -0.2089 -0.9403  0.1222
 8030SOL    HW135552   2.795   4.309   5.799 -1.2922  1.9316  0.7364
 8030SOL    HW235553   2.930   4.262   5.780 -0.3300 -2.0378  2.5301
 8031SOL     OW35554   0.340   3.562   7.823 -0.9726  0.5384  0.3374
 8031SOL    HW135555   0.284   3.592   7.895 -1.4214 -1.4320  0.8122
 8031SOL    HW235556   0.425   3.580   7.863  0.0196 -1.0288 -1.0725
 8032SOL     OW35557   3.862   0.476   2.300  0.2331 -0.6428 -0.3251
 8032SOL    HW135558   3.781   0.443   2.261  0.4472 -2.1013  0.4366
 8032SOL    HW235559   3.921   0.400   2.298  0.3208 -0.5438 -1.8842
 8033SOL     OW35560   0.552   2.916   2.892  0.3620  0.1399 -0.0864
 8033SOL    HW135561   0.647   2.923   2.885  0.2892  2.6198  1.3312
 8033SOL    HW235562   0.535   2.954   2.807  0.6779 -1.3106 -0.7986
 8034SOL     OW35563   4.530   1.469  13.923  0.1176 -0.0902 -0.1738
 8034SOL    HW135564   4.597   1.535  13.942  1.6821 -1.2692 -1.6680
 8034SOL    HW235565   4.546   1.399  13.986  0.8741  1.4667  1.3676
 8035SOL     OW35566   2.269   2.922  15.315  0.3709 -0.0762  0.0084
 8035SOL    HW135567   2.223   2.897  15.235 -0.0681 -0.0537  0.2535
 8035SOL    HW235568   2.355   2.937  15.275 -0.6850 -1.5443 -2.8693
 8036SOL     OW35569   4.001   1.999   5.248 -0.2562  0.3828 -0.3756
 8036SOL    HW135570   4.021   2.092   5.239  1.5842  0.1682  1.3680
 8036SOL    HW235571   3.923   1.987   5.195 -0.1594  2.4190 -0.9598
 8037SOL     OW35572   2.053   4.511   2.716  0.0826 -0.3791 -0.4907
 8037SOL    HW135573   2.128   4.462   2.750 -1.8104 -3.2298 -0.4689
 8037SOL    HW235574   1.978   4.465   2.752  0.7922 -1.4569 -0.3822
 8038SOL     OW35575   1.143   1.794   2.166 -0.1110 -0.0655  0.2013
 8038SOL    HW135576   1.188   1.759   2.090  1.2869 -0.6606  1.2912
 8038SOL    HW235577   1.205   1.762   2.232 -1.0723 -1.6664  0.3058
 8039SOL     OW35578   1.201   0.793   5.389 -0.3420  0.3561  0.2251
 8039SOL    HW135579   1.268   0.861   5.394  0.6888 -0.5065 -1.7732
 8039SOL    HW235580   1.149   0.824   5.462 -2.6095 -0.3048 -1.1075
 8040SOL     OW35581   3.696   2.703   2.260 -0.6879  0.1335  0.2661
 8040SOL    HW135582   3.780   2.658   2.251 -0.7092  0.5189 -1.7444
 8040SOL    HW235583   3.703   2.759   2.183  1.9560 -2.9326 -1.7326
 8041SOL     OW35584   2.073   1.412   7.041 -0.0880 -0.1736 -0.0318
 8041SOL    HW135585   2.039   1.425   6.952  0.4244 -1.8517 -0.4715
 8041SOL    HW235586   2.165   1.402   7.018  0.2773 -1.4668  2.0102
 8042SOL     OW35587   0.674   0.088   6.485 -0.2809 -0.3224 -0.2836
 8042SOL    HW135588   0.733   0.022   6.521 -2.4457 -2.1019  0.0031
 8042SOL    HW235589   0.597   0.031   6.485  0.9770 -1.9825  3.0155
 8043SOL     OW35590   1.194   2.109  11.882  0.2551 -0.0690 -0.5480
 8043SOL    HW135591   1.109   2.075  11.912 -2.2693  3.0117 -4.1276
 8043SOL    HW235592   1.189   2.071  11.794  1.5798 -1.2152 -0.1208
 8044SOL     OW35593   2.761   3.107   4.965 -0.3217  0.6332 -0.0833
 8044SOL    HW135594   2.724   3.179   4.913 -1.5337 -0.2226 -0.4089
 8044SOL    HW235595   2.727   3.122   5.053  0.4353 -2.4263  0.7055
 8045SOL     OW35596   0.077   3.429  17.581  0.1803  0.4827 -0.4708
 8045SOL    HW135597   0.002   3.379  17.549 -1.2398  1.7133  0.8928
 8045SOL    HW235598   0.036   3.515  17.590 -0.2236  0.1749  0.6666
 8046SOL     OW35599   3.198   1.872  11.874  0.6569  0.3008 -0.1482
 8046SOL    HW135600   3.112   1.831  11.876  1.1912 -0.7030  1.7164
 8046SOL    HW235601   3.214   1.897  11.965  1.2247 -0.0924 -0.1419
 8047SOL     OW35602   4.362   3.913   6.520  0.4071  0.0552 -0.4171
 8047SOL    HW135603   4.360   3.999   6.479  1.7114  1.4487  2.4122
 8047SOL    HW235604   4.342   3.855   6.446  1.1952 -2.2463  1.1525
 8048SOL     OW35605   4.125   1.490   8.894 -0.3335  0.5584  0.7077
 8048SOL    HW135606   4.083   1.410   8.926  0.3200 -0.4241 -0.9095
 8048SOL    HW235607   4.207   1.455   8.861 -0.0214  0.4241  1.6236
 8049SOL     OW35608   0.972   1.558  13.871 -0.7952 -0.8222  0.3501
 8049SOL    HW135609   1.042   1.494  13.885  0.0748 -0.1288 -0.7671
 8049SOL    HW235610   0.947   1.532  13.782  1.5839  0.4464 -0.7051
 8050SOL     OW35611   2.953   3.730  13.071  0.0409 -0.2674  0.6202
 8050SOL    HW135612   3.039   3.759  13.041  0.8767 -2.3971  0.9468
 8050SOL    HW235613   2.976   3.693  13.156 -1.0397 -0.1443  0.9699
 8051SOL     OW35614   0.465   2.370  16.838  0.1584 -0.2994 -0.0227
 8051SOL    HW135615   0.386   2.412  16.804  0.9505 -0.0830 -1.6030
 8051SOL    HW235616   0.511   2.339  16.760  4.0569  1.5641  1.5251
 8052SOL     OW35617   3.701   4.069   2.334 -0.1231 -0.1818 -0.0829
 8052SOL    HW135618   3.705   4.162   2.312  1.6510 -0.1045  0.5148
 8052SOL    HW235619   3.681   4.025   2.252 -0.8416 -2.0499  1.0986
 8053SOL     OW35620   2.084   0.839  14.352  0.0116 -0.7493  0.4276
 8053SOL    HW135621   2.013   0.814  14.293 -0.4185  0.4307  0.4334
 8053SOL    HW235622   2.053   0.925  14.382  2.2990  0.9716 -2.0774
 8054SOL     OW35623   0.661   4.535   7.721 -0.0996 -0.1172  0.2977
 8054SOL    HW135624   0.749   4.567   7.705 -0.2475  0.2475  0.2197
 8054SOL    HW235625   0.600   4.608   7.711 -1.9223 -1.7748 -0.7638
 8055SOL     OW35626   3.081   2.530  10.325 -0.7222 -0.4045 -0.5395
 8055SOL    HW135627   3.126   2.472  10.265 -0.4636  0.5946 -1.3089
 8055SOL    HW235628   3.091   2.616  10.284  1.8768 -0.8339 -0.7924
 8056SOL     OW35629   4.341   4.524  16.382 -0.0352 -0.2549  0.8043
 8056SOL    HW135630   4.328   4.443  16.333  0.8122  1.5439 -2.3354
 8056SOL    HW235631   4.414   4.501  16.439  0.2665  2.3408  1.4707
 8057SOL     OW35632   0.178   4.467   5.653  0.3164 -0.2309 -0.0926
 8057SOL    HW135633   0.219   4.414   5.585  1.2322  0.4211 -0.0474
 8057SOL    HW235634   0.203   4.555   5.625 -0.9549  0.9998  2.5339
 8058SOL     OW35635   1.875   0.770   6.976 -0.1974  0.2717 -0.6718
 8058SOL    HW135636   1.795   0.822   6.965 -0.8125  0.0568  2.8217
 8058SOL    HW235637   1.920   0.770   6.892 -0.8403  0.2861 -1.0222
 8059SOL     OW35638   2.878   2.627   2.645  0.6351  0.5789 -0.0043
 8059SOL    HW135639   2.937   2.568   2.691  1.2615  1.5570  0.4393
 8059SOL    HW235640   2.799   2.615   2.697 -0.0517 -1.2059 -1.4572
 8060SOL     OW35641   3.479   3.700  14.757 -0.1632 -0.2047 -0.2041
 8060SOL    HW135642   3.517   3.637  14.818  0.3929  0.3919  0.0629
 8060SOL    HW235643   3.529   3.686  14.676  0.6451  0.1914  0.2248
 8061SOL     OW35644   2.559   1.656   2.007 -0.6361  0.6238  0.3807
 8061SOL    HW135645   2.604   1.727   2.054 -0.3989  2.0438 -2.0025
 8061SOL    HW235646   2.497   1.708   1.956 -0.6260  1.2693  1.0209
 8062SOL     OW35647   2.593   3.987   4.825 -0.3055  0.2850 -0.2336
 8062SOL    HW135648   2.640   4.026   4.751 -0.6911 -1.5129 -1.4057
 8062SOL    HW235649   2.507   4.003   4.786 -0.7047  2.2241  1.4065
 8063SOL     OW35650   2.491   4.314   0.069 -0.5855 -0.1700  0.2658
 8063SOL    HW135651   2.416   4.324   0.010  0.0073  0.2199 -0.4231
 8063SOL    HW235652   2.529   4.400   0.052 -1.2185  0.7182  3.3214
 8064SOL     OW35653   2.054   0.945  10.168  1.0049 -0.3965 -0.0803
 8064SOL    HW135654   1.964   0.950  10.136  1.3483  1.3702 -0.7171
 8064SOL    HW235655   2.088   0.902  10.089  2.2393  1.7462 -0.6929
 8065SOL     OW35656   0.966   0.491   4.534 -0.6834 -0.5845 -0.2095
 8065SOL    HW135657   1.014   0.473   4.614 -1.0491  1.7236  0.5265
 8065SOL    HW235658   0.997   0.573   4.496 -0.3702 -1.3733 -1.6756
 8066SOL     OW35659   4.163   0.334   3.700  0.3444  0.4745 -0.3963
 8066SOL    HW135660   4.111   0.282   3.762 -1.2967  1.6226 -0.8046
 8066SOL    HW235661   4.136   0.423   3.723 -1.5912 -0.2692  0.2091
 8067SOL     OW35662   1.851   3.574   7.209 -0.0591  0.6646 -0.3140
 8067SOL    HW135663   1.868   3.602   7.120  1.9421 -0.9211 -0.4473
 8067SOL    HW235664   1.869   3.654   7.259  1.6462 -1.4475  2.4616
 8068SOL     OW35665   0.016   2.139   0.646 -0.3857 -0.2028  0.2519
 8068SOL    HW135666   4.672   2.206   0.633 -1.2036 -1.5739 -2.6171
 8068SOL    HW235667   0.072   2.183   0.710  1.0416  1.6982 -2.3197
 8069SOL     OW35668   2.808   0.397  13.303  0.6250  0.3041  0.6283
 8069SOL    HW135669   2.840   0.407  13.213  1.5138 -1.0854  0.7903
 8069SOL    HW235670   2.834   0.481  13.343 -0.2243  0.6832  0.3779
 8070SOL     OW35671   0.592   2.470   4.681 -0.9398 -0.1713 -0.0026
 8070SOL    HW135672   0.619   2.562   4.678  1.1923 -0.7322  2.2349
 8070SOL    HW235673   0.596   2.460   4.776  1.6843  0.4179 -0.0597
 8071SOL     OW35674   0.596   4.384   5.316 -0.0016  0.3178 -0.3499
 8071SOL    HW135675   0.555   4.376   5.230 -1.0743  0.2455  0.1753
 8071SOL    HW235676   0.583   4.475   5.340 -1.4539 -0.5250  2.1269
 8072SOL     OW35677   2.085   0.736  14.065  0.0182 -0.8219 -0.1426
 8072SOL    HW135678   2.022   0.728  13.993  0.1951 -3.7954  0.0257
 8072SOL    HW235679   2.092   0.643  14.085 -0.1920 -1.4595 -2.9950
 8073SOL     OW35680   0.315   0.337   3.736 -0.0759  0.3185 -0.5395
 8073SOL    HW135681   0.358   0.422   3.723 -0.0356  0.4450  0.4091
 8073SOL    HW235682   0.320   0.297   3.649 -1.1053  1.1533 -0.9744
 8074SOL     OW35683   0.512   2.764   6.724 -0.1740 -0.6713 -0.0371
 8074SOL    HW135684   0.510   2.860   6.720 -1.1296 -0.7296 -0.9266
 8074SOL    HW235685   0.458   2.736   6.797 -0.8557 -1.2524 -0.7616
 8075SOL     OW35686   1.539   2.811   3.937 -0.3231 -0.1966 -0.3880
 8075SOL    HW135687   1.520   2.776   3.850 -1.7039  1.5973 -0.8043
 8075SOL    HW235688   1.565   2.728   3.976 -2.2025 -1.6709 -2.2576
 8076SOL     OW35689   4.465   2.268  10.977  0.2558  0.7490 -0.4248
 8076SOL    HW135690   4.481   2.304  10.890  1.9792  1.1455  0.0402
 8076SOL    HW235691   4.488   2.175  10.971 -2.8005  0.0582 -1.1261
 8077SOL     OW35692   0.209   3.681   9.132 -0.0491  0.2877  0.5272
 8077SOL    HW135693   0.218   3.597   9.176 -0.8842 -0.4929 -0.7960
 8077SOL    HW235694   0.226   3.744   9.203  2.2471  0.2477 -0.0020
 8078SOL     OW35695   3.986   0.686  16.996 -0.1374  0.0517 -0.4653
 8078SOL    HW135696   3.910   0.723  17.041 -0.3635 -2.4929  1.2675
 8078SOL    HW235697   4.033   0.640  17.067 -2.9105 -0.0492  1.2963
 8079SOL     OW35698   1.337   4.103   5.239  0.1097  0.2684 -0.1603
 8079SOL    HW135699   1.276   4.037   5.274 -0.8031  0.3137 -1.6506
 8079SOL    HW235700   1.411   4.046   5.221  0.1294  0.4877 -0.7595
 8080SOL     OW35701   2.780   2.480   8.188 -0.0698  0.5265  0.1606
 8080SOL    HW135702   2.815   2.569   8.199  0.0312  0.4177  0.7489
 8080SOL    HW235703   2.711   2.500   8.125 -1.3902 -0.1305  1.4022
 8081SOL     OW35704   1.836   0.096  10.594  0.1134 -0.0772 -0.0808
 8081SOL    HW135705   1.812   0.126  10.682  1.8241  1.8074 -0.2702
 8081SOL    HW235706   1.769   0.028  10.586  1.3472 -1.0809 -1.7700
 8082SOL     OW35707   3.459   1.441   4.677  0.1652  0.3406  0.3869
 8082SOL    HW135708   3.530   1.434   4.613 -0.7702 -0.4376 -0.5634
 8082SOL    HW235709   3.446   1.536   4.673 -2.0207  0.0879  1.2717
 8083SOL     OW35710   4.471   4.192   5.672  0.5576  0.1911  0.7151
 8083SOL    HW135711   4.403   4.201   5.740  0.0821  4.3133 -0.2877
 8083SOL    HW235712   4.548   4.183   5.728  2.3174 -0.6372 -1.8323
 8084SOL     OW35713   0.528   4.691   4.996  0.2955 -0.1127 -0.2008
 8084SOL    HW135714   0.449   4.712   5.046 -1.1182 -0.8884 -2.1077
 8084SOL    HW235715   0.518   0.020   4.915  1.0271  0.0559 -0.1804
 8085SOL     OW35716   2.868   4.570   2.039  0.3795 -0.0008  0.4543
 8085SOL    HW135717   2.964   4.577   2.036  0.4235  0.9446  3.6946
 8085SOL    HW235718   2.844   4.630   1.968 -2.7172 -1.3498  0.3684
 8086SOL     OW35719   4.058   1.033   6.638  0.9335 -0.2569  0.7497
 8086SOL    HW135720   4.094   1.073   6.559  2.0830 -1.7074  0.5257
 8086SOL    HW235721   4.078   1.088   6.714  1.2893  1.2831 -0.4854
 8087SOL     OW35722   1.934   3.946   8.383  0.1826 -0.4583  0.3154
 8087SOL    HW135723   2.020   3.937   8.425  0.1347  0.5384  0.6447
 8087SOL    HW235724   1.882   3.991   8.450  3.4840  1.6729  1.4646
 8088SOL     OW35725   4.461   2.418   6.147 -0.6258  0.1268 -0.2051
 8088SOL    HW135726   4.424   2.334   6.121 -1.8597  0.9342 -1.0312
 8088SOL    HW235727   4.554   2.400   6.133 -0.3469  1.0310  0.4334
 8089SOL     OW35728   0.283   4.720   4.338  0.0913  0.3482 -0.3137
 8089SOL    HW135729   0.206   4.698   4.390 -1.0390  1.0499 -1.6666
 8089SOL    HW235730   0.329   4.636   4.338 -2.1480 -0.8709 -1.0737
 8090SOL     OW35731   3.273   0.267  11.698  0.2725  0.3063 -0.2644
 8090SOL    HW135732   3.268   0.317  11.616 -1.1559 -0.2768 -0.5378
 8090SOL    HW235733   3.342   0.307  11.751  0.4001  0.5603 -0.6201
 8091SOL     OW35734   2.778   2.766   5.180 -0.3427  0.0638  0.2697
 8091SOL    HW135735   2.794   2.797   5.091  0.2522 -0.6949  0.1180
 8091SOL    HW235736   2.815   2.834   5.236 -0.5077 -0.7343  1.3558
 8092SOL     OW35737   3.618   4.627   2.056  0.6571  0.0113 -0.1462
 8092SOL    HW135738   3.570   4.554   2.015  2.4822 -1.4429  0.3104
 8092SOL    HW235739   3.683   4.652   1.991  1.0516 -1.1334 -0.1912
 8093SOL     OW35740   1.536   4.288   5.345 -0.1670  0.0165  0.4134
 8093SOL    HW135741   1.597   4.217   5.367 -0.9432 -1.2905 -1.6866
 8093SOL    HW235742   1.456   4.244   5.317  0.9074 -2.6921  1.5149
 8094SOL     OW35743   0.206   3.945   2.627  0.2301  0.0731  0.1048
 8094SOL    HW135744   0.127   3.914   2.583 -0.8382  1.8102  0.8221
 8094SOL    HW235745   0.273   3.903   2.573 -0.3629 -0.1881 -0.4301
 8095SOL     OW35746   1.530   3.132   7.317  0.4150 -0.2679  0.8562
 8095SOL    HW135747   1.565   3.204   7.264  0.6039  0.2839  1.7220
 8095SOL    HW235748   1.442   3.163   7.336  0.2334 -0.5717  0.5066
 8096SOL     OW35749   4.358   0.559  14.665  0.1830 -0.4098 -0.3171
 8096SOL    HW135750   4.361   0.594  14.754  1.6840 -0.8315 -0.1999
 8096SOL    HW235751   4.305   0.481  14.680  1.6570 -1.2729  0.3948
 8097SOL     OW35752   3.833   1.995   8.492 -0.1178 -0.0081  0.2375
 8097SOL    HW135753   3.775   2.070   8.507 -0.0831  0.4167 -1.7696
 8097SOL    HW235754   3.865   2.023   8.406 -1.1173 -2.4662 -0.9230
 8098SOL     OW35755   1.880   2.254   2.651  0.3783  0.0392 -0.1237
 8098SOL    HW135756   1.859   2.255   2.558  0.4110  0.2960 -0.1271
 8098SOL    HW235757   1.968   2.288   2.663  0.0023  0.3037  1.9663
 8099SOL     OW35758   1.704   0.363  10.749 -0.2413 -0.6702 -0.2755
 8099SOL    HW135759   1.758   0.442  10.753 -0.4355 -0.3969 -2.6139
 8099SOL    HW235760   1.616   0.401  10.744  0.7348  1.6920  0.3336
 8100SOL     OW35761   3.584   2.019   8.324  0.4624  0.1143 -0.3450
 8100SOL    HW135762   3.574   2.034   8.230 -3.7897  0.7468  0.1867
 8100SOL    HW235763   3.504   2.066   8.349  0.8817  1.8820 -2.3692
 8101SOL     OW35764   2.297   2.472  10.419  0.4837  0.1046 -0.2546
 8101SOL    HW135765   2.267   2.563  10.428  0.5325  0.1224 -0.2710
 8101SOL    HW235766   2.365   2.482  10.351 -0.4796 -2.4920 -1.5992
 8102SOL     OW35767   0.384   3.291   6.956 -0.2390 -0.0587  0.2705
 8102SOL    HW135768   0.325   3.319   6.885  0.1244 -0.5172 -0.2086
 8102SOL    HW235769   0.462   3.292   6.901 -0.5255 -1.1273 -0.1553
 8103SOL     OW35770   1.363   4.105   0.403  0.7017 -0.1626  0.1461
 8103SOL    HW135771   1.434   4.163   0.376 -0.5577  1.1947 -0.2332
 8103SOL    HW235772   1.408   4.054   0.470  1.7427 -0.5920 -0.8754
 8104SOL     OW35773   3.369   4.128   3.177  0.3631 -0.1408  0.3446
 8104SOL    HW135774   3.337   4.142   3.088 -0.7943 -2.3982  0.4102
 8104SOL    HW235775   3.429   4.203   3.181  0.2397  0.0463 -1.2261
 8105SOL     OW35776   2.954   0.192   3.574 -0.2552  0.4963  0.5362
 8105SOL    HW135777   3.049   0.179   3.567 -0.5569 -0.8625 -1.0046
 8105SOL    HW235778   2.919   0.137   3.504  0.3404 -2.5023  2.5763
 8106SOL     OW35779   1.709   0.326   8.828  0.0396 -0.7032  0.6570
 8106SOL    HW135780   1.671   0.286   8.906  1.3905  0.0262  1.6834
 8106SOL    HW235781   1.799   0.329   8.860  1.0218 -0.8882 -2.1011
 8107SOL     OW35782   2.197   1.825   7.600  0.2776  0.2184  0.6576
 8107SOL    HW135783   2.189   1.730   7.601 -0.6049  0.2868  0.4242
 8107SOL    HW235784   2.195   1.829   7.695 -3.8945  0.9485  0.5267
 8108SOL     OW35785   3.547   0.630   4.864 -0.7295 -0.0918 -0.2842
 8108SOL    HW135786   3.560   0.538   4.887 -0.0104 -0.3923 -1.8648
 8108SOL    HW235787   3.532   0.626   4.770 -0.6221 -1.0280 -0.2671
 8109SOL     OW35788   3.771   3.390   4.278 -0.2061 -0.4092  0.0183
 8109SOL    HW135789   3.710   3.457   4.246  0.1571 -0.2407 -0.3237
 8109SOL    HW235790   3.850   3.434   4.309 -2.1574  1.3408  2.4822
 8110SOL     OW35791   3.809   0.297   7.572  0.0096 -0.2177 -0.6791
 8110SOL    HW135792   3.799   0.256   7.486  0.1554 -1.5461 -0.0623
 8110SOL    HW235793   3.729   0.350   7.567 -0.8255 -1.3529  0.5016
 8111SOL     OW35794   4.211   3.899   9.481 -0.3580  0.6082  0.2795
 8111SOL    HW135795   4.122   3.900   9.516  0.1446  0.7387  1.5805
 8111SOL    HW235796   4.260   3.873   9.559  1.0880 -0.0085 -0.8437
 8112SOL     OW35797   2.442   3.648  10.937  0.4001  0.6743 -0.4812
 8112SOL    HW135798   2.454   3.567  10.888  1.3245  0.7505 -0.3803
 8112SOL    HW235799   2.370   3.636  10.999  1.2398  0.7310  0.5160
 8113SOL     OW35800   1.912   2.568   4.364 -0.1943 -0.0224 -0.2145
 8113SOL    HW135801   1.941   2.604   4.281  1.3351 -0.5693  0.0940
 8113SOL    HW235802   1.889   2.650   4.408  0.2993 -0.7939  1.4826
 8114SOL     OW35803   0.185   1.608   2.028 -0.0212  0.2834  0.1206
 8114SOL    HW135804   0.103   1.558   2.032 -0.1022  0.6288  2.7829
 8114SOL    HW235805   0.221   1.603   2.116  1.6471  1.1505 -0.5032
 8115SOL     OW35806   0.894   0.433   3.204 -0.0951 -0.3527  0.0401
 8115SOL    HW135807   0.936   0.347   3.205  0.7031  0.0264 -0.2088
 8115SOL    HW235808   0.954   0.488   3.255  1.3246 -0.7313 -1.1931
 8116SOL     OW35809   2.631   1.597   3.739 -0.1602  0.5025 -0.7047
 8116SOL    HW135810   2.724   1.591   3.717 -0.3579 -0.3811 -1.3114
 8116SOL    HW235811   2.602   1.529   3.678  1.6017 -1.0618  0.1564
 8117SOL     OW35812   0.503   4.292   6.070  0.1563 -0.1528  0.1528
 8117SOL    HW135813   0.504   4.354   5.996 -2.6021  0.1876  0.3747
 8117SOL    HW235814   0.582   4.245   6.046 -0.4746  0.4107 -3.0935
 8118SOL     OW35815   1.190   0.086   4.070 -0.3134  0.2294 -0.6426
 8118SOL    HW135816   1.198   0.174   4.106  1.9980  0.3758 -1.5413
 8118SOL    HW235817   1.243   0.036   4.131 -0.2756  0.3999 -0.5350
 8119SOL     OW35818   0.037   2.632   9.056 -0.5165 -0.2761  0.1564
 8119SOL    HW135819   0.088   2.661   9.132 -0.7166  0.6949 -0.0804
 8119SOL    HW235820   4.711   2.559   9.095 -0.4888  0.4483  1.5579
 8120SOL     OW35821   1.043   3.267   4.276 -0.4816  0.1855  0.0971
 8120SOL    HW135822   0.951   3.281   4.253  0.0108  1.8108 -0.9196
 8120SOL    HW235823   1.052   3.286   4.369  0.8622  0.5348 -0.0980
 8121SOL     OW35824   3.031   2.815   8.900  0.0220  0.0101  0.6436
 8121SOL    HW135825   3.086   2.878   8.853 -0.3632 -0.5308 -0.5344
 8121SOL    HW235826   3.032   2.739   8.842 -0.7205 -1.4665  2.5743
 8122SOL     OW35827   4.366   0.567   1.746  0.0935  0.1883 -0.3726
 8122SOL    HW135828   4.376   0.498   1.681 -1.3000 -2.2391  2.0055
 8122SOL    HW235829   4.307   0.622   1.695  0.2269 -1.4137 -2.2544
 8123SOL     OW35830   4.304   0.008   3.860  0.2085  0.2013 -0.5757
 8123SOL    HW135831   4.324   0.095   3.826  4.0586 -0.0090  1.2345
 8123SOL    HW235832   4.362   4.715   3.935 -0.1341  2.0669  0.0630
 8124SOL     OW35833   3.178   3.263  11.121 -0.2433  0.5311  0.2108
 8124SOL    HW135834   3.214   3.306  11.199 -0.6494  1.6079 -0.1992
 8124SOL    HW235835   3.181   3.330  11.054  5.6768  0.1332  0.0957
 8125SOL     OW35836   4.452   3.445  12.116  0.0785  0.6009  0.0572
 8125SOL    HW135837   4.539   3.423  12.150 -0.6003 -2.2355 -0.0001
 8125SOL    HW235838   4.404   3.367  12.145 -3.1077  2.1134 -1.0785
 8126SOL     OW35839   1.126   3.901   0.755  0.3389  0.3887  0.2871
 8126SOL    HW135840   1.094   3.826   0.804  0.0899  1.3459  1.5847
 8126SOL    HW235841   1.206   3.864   0.716 -0.4172 -0.7398 -0.1901
 8127SOL     OW35842   1.086   3.970   1.191 -0.6959 -0.3498 -0.2235
 8127SOL    HW135843   1.130   3.969   1.276 -0.7340  1.5733 -0.1747
 8127SOL    HW235844   1.155   4.017   1.145 -0.9093  0.0231 -0.1634
 8128SOL     OW35845   4.475   2.685   5.162  0.2164  0.0859  0.3376
 8128SOL    HW135846   4.438   2.603   5.196  0.5502 -0.8015 -1.4421
 8128SOL    HW235847   4.452   2.752   5.226  1.0268 -1.7473  2.5389
 8129SOL     OW35848   1.996   1.214   6.563 -0.4247  0.2645  0.3371
 8129SOL    HW135849   1.924   1.153   6.579  0.2440 -0.8054 -0.6918
 8129SOL    HW235850   2.064   1.159   6.524 -0.1745  1.1871 -0.5443
 8130SOL     OW35851   2.263   0.894   5.004  0.0331  0.0749  0.3548
 8130SOL    HW135852   2.311   0.977   4.998 -1.3020  1.1202  3.8728
 8130SOL    HW235853   2.324   0.830   4.968  0.7702 -0.2193  2.1097
 8131SOL     OW35854   0.085   0.286   6.136  0.0527  0.1824  0.0927
 8131SOL    HW135855   0.100   0.198   6.170  0.9466  1.0855  2.0014
 8131SOL    HW235856   0.050   0.273   6.048  0.9921 -1.0186 -0.1067
 8132SOL     OW35857   2.362   0.499  15.052 -0.0100  0.2491  0.5496
 8132SOL    HW135858   2.414   0.464  15.124  0.7417  0.4705  0.1134
 8132SOL    HW235859   2.280   0.522  15.096  0.3329  2.3312  0.1216
 8133SOL     OW35860   3.654   3.454   1.549 -0.2781 -0.1071  0.1115
 8133SOL    HW135861   3.683   3.526   1.604  0.8813 -0.3818 -0.1396
 8133SOL    HW235862   3.560   3.440   1.561 -0.0115 -2.2535 -0.2207
 8134SOL     OW35863   0.528   2.990   9.183  0.0494 -0.9674 -0.1789
 8134SOL    HW135864   0.596   2.958   9.243  0.5519 -2.5028 -1.5567
 8134SOL    HW235865   0.469   2.918   9.207 -1.5462 -0.0816 -1.4570
 8135SOL     OW35866   1.668   1.832   9.124  0.8152  0.2676 -0.2502
 8135SOL    HW135867   1.724   1.885   9.181 -0.7906  0.1698  1.4119
 8135SOL    HW235868   1.692   1.746   9.159 -0.3022 -0.7698 -2.0935
 8136SOL     OW35869   3.227   1.444   6.295 -0.2256  0.1515 -0.0947
 8136SOL    HW135870   3.233   1.352   6.321 -2.6940 -0.2328 -0.9722
 8136SOL    HW235871   3.139   1.451   6.259 -0.2109 -1.5659 -0.4607
 8137SOL     OW35872   2.421   1.960  15.283 -0.0006 -0.1566 -0.3546
 8137SOL    HW135873   2.436   1.891  15.347 -1.5548 -0.3160 -0.1577
 8137SOL    HW235874   2.508   1.976  15.245 -0.5072 -0.1283 -1.4849
 8138SOL     OW35875   3.874   4.140   8.387  0.5508  0.0281 -0.3593
 8138SOL    HW135876   3.800   4.169   8.440  0.4382  0.1818 -0.5998
 8138SOL    HW235877   3.879   4.213   8.325 -1.2356  0.7004  0.2904
 8139SOL     OW35878   3.396   1.988   5.949  0.0118 -0.1723  0.2557
 8139SOL    HW135879   3.445   1.906   5.944 -2.0345 -1.4659  1.7541
 8139SOL    HW235880   3.471   2.046   5.963  2.2240 -2.5523 -1.6290
 8140SOL     OW35881   3.091   2.022  17.172 -0.0060 -0.0054  0.1780
 8140SOL    HW135882   3.165   1.999  17.116 -0.3294 -1.1381  0.2196
 8140SOL    HW235883   3.130   2.042  17.258  0.2724 -0.5803  0.1860
 8141SOL     OW35884   2.724   1.861   3.495  0.4583  0.2616  0.3488
 8141SOL    HW135885   2.640   1.819   3.510  0.3597  0.9545  1.6353
 8141SOL    HW235886   2.733   1.847   3.400  2.0867 -1.0930  0.7054
 8142SOL     OW35887   3.354   0.283   3.062 -0.1862  0.7127 -0.3451
 8142SOL    HW135888   3.303   0.280   3.143 -0.3930 -0.0268 -0.5042
 8142SOL    HW235889   3.402   0.366   3.071  0.1708  0.3468  1.0564
 8143SOL     OW35890   4.322   3.143  17.575 -0.1195  0.3073 -0.1113
 8143SOL    HW135891   4.406   3.124  17.532 -0.2469 -1.3792  0.3644
 8143SOL    HW235892   4.263   3.142  17.500 -2.1569 -0.4044  1.5078
 8144SOL     OW35893   1.364   4.266  10.843 -0.2255  0.1380  0.3452
 8144SOL    HW135894   1.374   4.172  10.830  1.5779  0.5013 -0.8801
 8144SOL    HW235895   1.389   4.306  10.760 -1.8201  1.1406  0.3379
 8145SOL     OW35896   2.237   4.265   8.100  0.0748  0.1276 -0.0462
 8145SOL    HW135897   2.249   4.311   8.182  2.7151  0.7168 -0.7512
 8145SOL    HW235898   2.265   4.324   8.030 -1.4133 -1.2040 -1.7618
 8146SOL     OW35899   2.279   4.696   3.099  0.4723  0.5042 -0.0165
 8146SOL    HW135900   2.238   0.018   3.024  0.5711  0.1000 -0.3084
 8146SOL    HW235901   2.368   0.008   3.108 -0.1136  1.8279  0.6899
 8147SOL     OW35902   3.850   1.910   7.889  0.6817  0.5417 -0.5743
 8147SOL    HW135903   3.772   1.953   7.855 -0.9759 -1.8186  0.2879
 8147SOL    HW235904   3.861   1.941   7.979 -0.6928  1.4362 -0.7246
 8148SOL     OW35905   4.324   0.763   6.862  0.1021  0.0107 -0.6424
 8148SOL    HW135906   4.327   0.858   6.856  2.6717  0.0450  0.9181
 8148SOL    HW235907   4.246   0.746   6.915 -1.0588 -2.3703 -3.1007
 8149SOL     OW35908   4.261   1.916  16.513  0.3289 -0.5065  0.1135
 8149SOL    HW135909   4.169   1.942  16.521  0.1929 -0.6186 -1.0281
 8149SOL    HW235910   4.271   1.905  16.418  0.8331 -0.1719  0.1260
 8150SOL     OW35911   3.820   1.403  15.676 -0.8137  0.2657  0.6927
 8150SOL    HW135912   3.844   1.456  15.600  0.0352 -0.5976  0.3549
 8150SOL    HW235913   3.730   1.428  15.698 -0.8879 -0.8536  1.7015
 8151SOL     OW35914   3.281   3.522   1.399 -0.0969  0.5318  0.2443
 8151SOL    HW135915   3.277   3.615   1.422 -0.3862  1.2619 -2.7545
 8151SOL    HW235916   3.348   3.531   1.330 -0.1131  1.1041  0.3047
 8152SOL     OW35917   1.801   3.533   1.574  0.0957  0.3639  0.2292
 8152SOL    HW135918   1.727   3.593   1.560 -0.4442 -0.5895 -1.0012
 8152SOL    HW235919   1.805   3.536   1.670 -1.1796  3.4348  0.1861
 8153SOL     OW35920   3.088   4.270   6.404 -0.2960 -0.5311  0.2130
 8153SOL    HW135921   3.107   4.228   6.320 -0.2188  0.0337 -0.0542
 8153SOL    HW235922   3.059   4.196   6.457  0.2697 -0.5060  0.5571
 8154SOL     OW35923   4.142   2.950   8.917 -0.0754 -0.0306  0.4236
 8154SOL    HW135924   4.220   2.950   8.973  0.9122 -0.1559 -0.9436
 8154SOL    HW235925   4.170   3.010   8.848 -1.4051 -1.1195 -1.0924
 8155SOL     OW35926   0.503   3.580   7.349 -0.0038 -0.3560 -0.2862
 8155SOL    HW135927   0.517   3.500   7.297 -2.6551 -2.8877  2.8962
 8155SOL    HW235928   0.412   3.557   7.371  0.5078 -0.5119  1.6987
 8156SOL     OW35929   2.039   2.021   7.479 -0.7421 -0.0383  0.3364
 8156SOL    HW135930   1.950   2.006   7.511  0.4483 -1.3080  3.0363
 8156SOL    HW235931   2.092   1.955   7.524  2.2040  0.9445 -1.7024
 8157SOL     OW35932   3.547   3.212  16.051  0.4668 -0.0824 -0.0134
 8157SOL    HW135933   3.478   3.166  16.004  1.1986 -0.0738 -1.1022
 8157SOL    HW235934   3.625   3.159  16.033  1.1429  0.2621  1.9159
 8158SOL     OW35935   3.685   3.547   8.177 -0.4858  0.2245 -0.0496
 8158SOL    HW135936   3.769   3.520   8.140  0.6374  0.6578  2.1367
 8158SOL    HW235937   3.635   3.467   8.163 -2.1738  1.1494  0.6544
 8159SOL     OW35938   2.781   1.447  11.388  0.2284 -0.6420 -0.3428
 8159SOL    HW135939   2.749   1.460  11.298 -1.0024  0.6889  0.2812
 8159SOL    HW235940   2.697   1.442  11.434  0.5947 -2.9544  0.1115
 8160SOL     OW35941   1.143   2.366  11.877 -0.2887 -0.3560 -0.2547
 8160SOL    HW135942   1.225   2.396  11.837  0.4587 -0.4582  1.2275
 8160SOL    HW235943   1.156   2.271  11.881 -0.0867 -0.3959 -1.6714
 8161SOL     OW35944   3.842   4.425   7.836 -0.1141 -0.6796  0.1375
 8161SOL    HW135945   3.823   4.413   7.743  0.8526  2.0087 -0.4120
 8161SOL    HW235946   3.755   4.423   7.875  0.0594  2.5906  0.6634
 8162SOL     OW35947   1.938   2.636  13.776 -0.0067  0.2771 -0.2851
 8162SOL    HW135948   1.877   2.688  13.828 -0.7821  0.5171 -1.4233
 8162SOL    HW235949   2.025   2.649  13.814  0.3436  0.7188 -1.2135
 8163SOL     OW35950   0.303   1.447   7.837  0.3003  0.3242 -0.1652
 8163SOL    HW135951   0.396   1.434   7.857  0.4356  0.4157 -0.7325
 8163SOL    HW235952   0.288   1.370   7.783 -2.3708  1.6886 -1.3667
 8164SOL     OW35953   2.141   1.678  16.306 -0.1175  0.2594 -0.1698
 8164SOL    HW135954   2.131   1.665  16.400  1.0397  4.0678  0.5139
 8164SOL    HW235955   2.105   1.594  16.279 -2.1755  0.3740  2.1501
 8165SOL     OW35956   0.763   0.229  12.621 -0.0815  0.6080 -0.3177
 8165SOL    HW135957   0.841   0.208  12.569  0.0699  2.1173 -0.6893
 8165SOL    HW235958   0.736   0.312  12.582 -2.3852  0.2807  0.5518
 8166SOL     OW35959   2.499   2.218   1.696 -0.3280 -0.1650 -0.0764
 8166SOL    HW135960   2.486   2.249   1.607  3.9242  0.1990 -0.5541
 8166SOL    HW235961   2.592   2.197   1.689 -0.1632  0.1399  1.1581
 8167SOL     OW35962   0.099   0.562  16.421 -0.1916 -0.3699 -0.5747
 8167SOL    HW135963   0.192   0.547  16.401 -0.2873 -3.1526  1.0118
 8167SOL    HW235964   0.092   0.529  16.510 -0.1479  1.8938  0.2490
 8168SOL     OW35965   1.658   1.885   1.429  0.3038  0.2559 -0.2797
 8168SOL    HW135966   1.658   1.840   1.514  0.1377  0.0587 -0.3844
 8168SOL    HW235967   1.736   1.843   1.393 -0.4398 -1.1842 -0.2014
 8169SOL     OW35968   2.450   1.010   5.872  0.1882  0.4347  0.2599
 8169SOL    HW135969   2.374   0.975   5.825  0.5586 -0.8607  0.6533
 8169SOL    HW235970   2.489   1.070   5.808  0.1965 -0.2482 -0.3723
 8170SOL     OW35971   1.449   2.834   5.773  0.3531 -0.2741  0.1216
 8170SOL    HW135972   1.371   2.869   5.817  0.4114  0.2775 -0.2166
 8170SOL    HW235973   1.500   2.831   5.854  2.3784 -0.1796 -1.1623
 8171SOL     OW35974   2.602   2.188   7.302 -0.1398  0.5846 -0.0484
 8171SOL    HW135975   2.566   2.125   7.239  1.1501 -0.9157  0.7120
 8171SOL    HW235976   2.696   2.179   7.287 -0.5077  1.9639 -3.1564
 8172SOL     OW35977   0.403   4.422   6.889  0.5378  1.1752  0.3854
 8172SOL    HW135978   0.462   4.363   6.937  1.2754  0.1798 -1.7499
 8172SOL    HW235979   0.456   4.480   6.834  0.7355  0.9458  0.3351
 8173SOL     OW35980   4.370   2.906  14.569  0.4786 -0.1341 -0.3053
 8173SOL    HW135981   4.348   2.933  14.658 -0.7897  1.1949 -0.9939
 8173SOL    HW235982   4.369   2.811  14.580  1.2241 -0.1279 -0.2294
 8174SOL     OW35983   2.940   0.295   7.394 -0.0216  0.2148 -0.4939
 8174SOL    HW135984   2.973   0.209   7.422  2.8337  2.5293  3.2380
 8174SOL    HW235985   2.874   0.300   7.464 -1.0917 -0.3841 -1.4553
 8175SOL     OW35986   3.452   0.849   4.995  0.1981  0.0598  0.2089
 8175SOL    HW135987   3.425   0.799   5.073  0.3246 -2.2879 -1.2346
 8175SOL    HW235988   3.476   0.776   4.937  0.7296  0.4821 -0.0969
 8176SOL     OW35989   1.496   4.702   9.199 -0.2469 -0.1118 -0.1244
 8176SOL    HW135990   1.421   0.023   9.240  1.2345  1.6491  0.7179
 8176SOL    HW235991   1.474   4.611   9.217 -1.5652  0.3748  0.7239
 8177SOL     OW35992   2.903   1.540   3.697  0.1739 -0.0069 -0.2446
 8177SOL    HW135993   2.890   1.485   3.774 -0.4972  1.2016  0.5147
 8177SOL    HW235994   2.975   1.502   3.647 -0.0485 -1.4479  0.5344
 8178SOL     OW35995   2.394   2.508   2.860 -0.4479 -0.1304 -0.2992
 8178SOL    HW135996   2.395   2.516   2.955  0.1426  0.6065 -0.3755
 8178SOL    HW235997   2.320   2.564   2.835 -0.9026 -0.9694 -0.8405
 8179SOL     OW35998   0.415   0.788   1.320  0.0855 -0.0373 -0.5161
 8179SOL    HW135999   0.476   0.789   1.246  0.3720  2.4954 -0.2246
 8179SOL    HW236000   0.338   0.763   1.269 -0.4987 -0.7271  0.7032
 8180SOL     OW36001   1.017   1.828   7.688  0.9829 -0.3468  0.5119
 8180SOL    HW136002   1.006   1.735   7.711  1.2866 -0.5597 -0.1968
 8180SOL    HW236003   1.107   1.846   7.716  0.3413  0.0522  2.3238
 8181SOL     OW36004   3.894   1.330   2.198 -0.5461  0.4427 -0.7454
 8181SOL    HW136005   3.880   1.418   2.164 -2.6667  0.3996  0.0018
 8181SOL    HW236006   3.926   1.283   2.121 -1.1302  2.0072 -1.9573
 8182SOL     OW36007   3.330   3.596  12.779  0.0982  0.0106  0.0998
 8182SOL    HW136008   3.325   3.588  12.683 -0.9233 -0.4767  0.2006
 8182SOL    HW236009   3.423   3.579  12.792  0.0270 -0.8111 -0.4363
 8183SOL     OW36010   3.191   0.727   7.545  0.4636 -0.5910  0.0837
 8183SOL    HW136011   3.265   0.768   7.499 -1.3762  1.2061 -1.3001
 8183SOL    HW236012   3.199   0.640   7.507 -2.8076 -1.4786  1.4797
 8184SOL     OW36013   1.949   1.625   2.161 -0.2669 -0.4007  0.0393
 8184SOL    HW136014   1.938   1.559   2.230 -0.8706  0.1800  0.5003
 8184SOL    HW236015   1.954   1.566   2.086  1.4108 -0.1584 -0.0318
 8185SOL     OW36016   0.420   1.317   5.449  0.3287  0.5021 -0.7010
 8185SOL    HW136017   0.340   1.293   5.496  1.3983 -1.3196  0.2085
 8185SOL    HW236018   0.477   1.243   5.470 -1.0504 -0.3541  0.0700
 8186SOL     OW36019   2.837   3.593   6.486  0.1551  0.0170 -0.4683
 8186SOL    HW136020   2.842   3.566   6.578 -0.6016 -0.3587 -0.5461
 8186SOL    HW236021   2.776   3.531   6.448 -0.9642  0.5965  0.3778
 8187SOL     OW36022   3.477   2.602   8.691  0.1870  0.5710 -0.3433
 8187SOL    HW136023   3.557   2.592   8.640  0.2263  1.8698 -0.5320
 8187SOL    HW236024   3.509   2.652   8.766  2.7234  0.0473 -1.0951
 8188SOL     OW36025   4.069   0.776  11.764 -1.0585  0.2887 -0.5583
 8188SOL    HW136026   4.005   0.814  11.823 -1.6620  1.1789 -1.7862
 8188SOL    HW236027   4.081   0.844  11.697 -0.6177  0.3843 -0.3832
 8189SOL     OW36028   2.009   0.292   3.095  1.2483  0.4286 -0.0288
 8189SOL    HW136029   2.010   0.309   3.001  3.1834 -2.6047 -0.5468
 8189SOL    HW236030   1.988   0.379   3.130  1.2417  0.2347  0.4543
 8190SOL     OW36031   3.188   1.157   4.599 -0.7048 -0.1924  0.9914
 8190SOL    HW136032   3.093   1.150   4.604 -0.9635  1.3744 -1.8432
 8190SOL    HW236033   3.214   1.069   4.626  2.2420  1.0973  2.4274
 8191SOL     OW36034   2.461   1.330  12.494  0.4687  0.5340 -0.3172
 8191SOL    HW136035   2.425   1.243  12.480  1.4304  0.5086 -2.5610
 8191SOL    HW236036   2.483   1.331  12.587  2.1653  0.8154 -0.7153
 8192SOL     OW36037   3.798   4.045   4.328  0.1849 -0.2815 -0.1144
 8192SOL    HW136038   3.851   4.002   4.395 -0.5401  0.3396  0.8584
 8192SOL    HW236039   3.713   4.036   4.372  1.9815 -0.0517  3.3729
 8193SOL     OW36040   0.502   3.041  17.323  0.3995  0.7457  0.2291
 8193SOL    HW136041   0.532   3.121  17.280 -1.5662  0.9248 -0.7909
 8193SOL    HW236042   0.490   2.977  17.253 -2.5242  0.4232  1.0143
 8194SOL     OW36043   1.833   1.539   2.983 -0.2773 -0.2462  0.0712
 8194SOL    HW136044   1.749   1.574   2.953 -0.5204 -0.7704  0.1403
 8194SOL    HW236045   1.812   1.486   3.060  0.9250  0.3688  0.8215
 8195SOL     OW36046   0.082   1.159   1.057 -0.0528 -0.6323 -0.7664
 8195SOL    HW136047   0.014   1.226   1.042  2.0514  1.5399 -0.5547
 8195SOL    HW236048   0.167   1.202   1.065 -0.6372  0.6801 -1.5738
 8196SOL     OW36049   2.489   0.733   8.073 -0.3274 -0.1615 -0.8826
 8196SOL    HW136050   2.541   0.812   8.053 -0.6725 -0.1812 -1.8672
 8196SOL    HW236051   2.403   0.758   8.041 -1.3586  1.0121  2.9002
 8197SOL     OW36052   4.693   4.255   7.349  0.4737  0.5740 -0.4012
 8197SOL    HW136053   0.043   4.224   7.294  1.2198  0.2657  0.7585
 8197SOL    HW236054   0.018   4.305   7.414  1.8726 -0.6370 -0.4990
 8198SOL     OW36055   3.674   3.124   1.630  0.2008  0.1955 -0.1780
 8198SOL    HW136056   3.586   3.140   1.665  0.1633 -0.4115 -0.0036
 8198SOL    HW236057   3.726   3.181   1.686 -0.9407  1.6225 -0.5560
 8199SOL     OW36058   1.305   0.364   1.461  0.5976  0.0947  0.6455
 8199SOL    HW136059   1.293   0.269   1.461  2.0580 -0.1010 -1.3294
 8199SOL    HW236060   1.214   0.394   1.461 -0.0471 -1.8345 -0.4910
 8200SOL     OW36061   3.062   1.996   1.116 -0.3964 -0.2566  0.1260
 8200SOL    HW136062   3.118   1.925   1.147 -0.4111 -0.0740  0.5797
 8200SOL    HW236063   3.045   1.969   1.026 -0.4819 -0.0135  0.0676
 8201SOL     OW36064   3.608   3.189  11.076  0.0463  0.7532 -0.2068
 8201SOL    HW136065   3.654   3.122  11.126 -0.4257 -1.3763 -2.6129
 8201SOL    HW236066   3.592   3.132  11.001 -2.2679  1.1880 -0.0328
 8202SOL     OW36067   2.777   2.336   2.868  0.6128  0.3776 -0.4997
 8202SOL    HW136068   2.733   2.372   2.791 -1.0489 -0.4608  0.0460
 8202SOL    HW236069   2.734   2.384   2.939  0.1034  1.2244 -1.3757
 8203SOL     OW36070   4.099   0.532   5.599  0.4384  0.3763  0.4750
 8203SOL    HW136071   4.028   0.589   5.627 -0.7947 -0.9255  0.0211
 8203SOL    HW236072   4.166   0.597   5.579  1.0671 -0.5215 -0.3416
 8204SOL     OW36073   4.426   0.233   3.754 -0.0855  0.3416 -0.3369
 8204SOL    HW136074   4.456   0.195   3.671  0.7844  2.9286 -1.1886
 8204SOL    HW236075   4.342   0.267   3.725 -0.5618 -0.4906  0.0628
 8205SOL     OW36076   1.314   3.280   7.300 -0.3733 -0.2700  0.1760
 8205SOL    HW136077   1.268   3.308   7.379  1.1697  0.0542  0.9665
 8205SOL    HW236078   1.304   3.342   7.228  0.9413 -0.0586  0.1844
 8206SOL     OW36079   1.823   3.028   1.298  0.6866  0.4511  0.3145
 8206SOL    HW136080   1.799   2.990   1.383  2.6925 -0.8910  0.2923
 8206SOL    HW236081   1.907   2.983   1.288 -0.5363 -1.2645 -2.4346
 8207SOL     OW36082   1.050   2.187   3.921 -0.5922  0.3410 -0.2306
 8207SOL    HW136083   1.012   2.099   3.923  1.0140 -0.3455  0.3894
 8207SOL    HW236084   0.973   2.242   3.935  0.3538  1.8484 -1.0032
 8208SOL     OW36085   3.802   4.233  13.553  0.1302  0.3819 -0.1523
 8208SOL    HW136086   3.746   4.173  13.505  1.6299 -0.8103 -0.4186
 8208SOL    HW236087   3.863   4.168  13.589  0.1320  1.0292  1.0252
 8209SOL     OW36088   1.833   2.152   0.703 -0.5948 -0.6853  0.0383
 8209SOL    HW136089   1.914   2.203   0.694 -1.2454  0.6827  1.8360
 8209SOL    HW236090   1.854   2.067   0.741 -0.8737 -1.2652 -1.1140
 8210SOL     OW36091   3.267   1.291   4.291  0.0645  0.2720 -0.6878
 8210SOL    HW136092   3.184   1.247   4.310  1.1798 -1.4413  0.2792
 8210SOL    HW236093   3.323   1.237   4.347 -0.9197 -0.1024 -0.0449
 8211SOL     OW36094   1.841   1.845   0.836 -0.4551  0.2713 -0.3140
 8211SOL    HW136095   1.846   1.904   0.912 -1.6368  0.1537 -0.1564
 8211SOL    HW236096   1.858   1.756   0.865 -0.3490  0.7434  1.0790
 8212SOL     OW36097   2.774   4.023  16.248 -0.1971 -0.6033  0.2259
 8212SOL    HW136098   2.693   4.045  16.202  0.1915  0.1238 -0.1097
 8212SOL    HW236099   2.749   3.960  16.315  0.1938 -1.4793 -0.4620
 8213SOL     OW36100   3.178   2.781  12.502  0.2466  0.4049  0.1019
 8213SOL    HW136101   3.093   2.805  12.466  1.0729 -0.3271 -2.3312
 8213SOL    HW236102   3.219   2.736  12.428 -1.6140 -0.6938 -0.2704
 8214SOL     OW36103   0.890   4.039   0.971 -0.0453 -0.1270  0.0312
 8214SOL    HW136104   0.966   3.998   1.012  0.0054 -0.1843 -0.1230
 8214SOL    HW236105   0.933   4.121   0.947  2.6035 -1.9064 -1.2717
 8215SOL     OW36106   0.501   2.968  16.783  0.6058 -0.1642  0.0147
 8215SOL    HW136107   0.421   2.950  16.734 -0.0523 -1.3317  1.5131
 8215SOL    HW236108   0.467   2.998  16.867  1.1282 -0.4275  0.3191
 8216SOL     OW36109   0.716   1.284  13.685  0.3213 -0.0610  0.2484
 8216SOL    HW136110   0.654   1.299  13.614  0.0366 -2.0101  0.0777
 8216SOL    HW236111   0.757   1.370  13.677 -0.9561  0.4815 -0.5202
 8217SOL     OW36112   2.596   1.847   2.359 -0.1400  0.5099  0.3091
 8217SOL    HW136113   2.509   1.865   2.324  0.5196  0.2355 -1.4707
 8217SOL    HW236114   2.646   1.920   2.322 -0.4680  0.2099 -0.7173
 8218SOL     OW36115   0.999   3.236   3.874 -0.3682 -0.2144  0.3716
 8218SOL    HW136116   0.962   3.148   3.877  0.4689 -0.5473  0.7274
 8218SOL    HW236117   0.963   3.254   3.787 -0.6710  2.5399  1.0522
 8219SOL     OW36118   2.428   2.059   4.978 -0.0272  0.1796  0.2031
 8219SOL    HW136119   2.411   1.965   4.984 -0.2228  0.2075  0.1044
 8219SOL    HW236120   2.335   2.083   4.975 -0.1618 -0.0900  2.0369
 8220SOL     OW36121   1.812   2.682   6.435  0.4489 -0.5489 -0.6367
 8220SOL    HW136122   1.863   2.742   6.489  0.0304  1.4975 -2.5312
 8220SOL    HW236123   1.808   2.738   6.358  1.3652 -0.4826 -0.6327
 8221SOL     OW36124   0.395   3.946  11.523 -0.4548 -0.6907 -0.1336
 8221SOL    HW136125   0.451   3.988  11.588  1.2714 -1.1661 -1.3335
 8221SOL    HW236126   0.454   3.878  11.492 -0.3055 -0.1915 -0.9455
 8222SOL     OW36127   2.251   0.558   7.823  0.0514 -0.3798 -0.2905
 8222SOL    HW136128   2.171   0.520   7.788 -0.9164  0.8320  0.6031
 8222SOL    HW236129   2.266   0.622   7.754 -0.4387  1.2063  1.0828
 8223SOL     OW36130   0.551   0.834  10.991 -0.0040  0.4301 -0.8266
 8223SOL    HW136131   0.513   0.786  10.917 -0.6382 -0.8648  0.3243
 8223SOL    HW236132   0.470   0.857  11.036 -0.7203  1.2621 -2.5601
 8224SOL     OW36133   1.270   3.037   6.830 -0.1508  0.1844  0.1345
 8224SOL    HW136134   1.211   3.098   6.874  1.8655  1.2861  1.3065
 8224SOL    HW236135   1.226   3.033   6.745 -0.0096 -0.1716  0.0770
 8225SOL     OW36136   2.418   3.823   3.907  0.2438  0.0010  0.5284
 8225SOL    HW136137   2.496   3.811   3.853  0.9040 -3.5983  2.2683
 8225SOL    HW236138   2.375   3.887   3.850  0.5716 -0.7633 -0.5877
 8226SOL     OW36139   3.944   0.207   2.769 -0.6990 -0.7369 -0.2448
 8226SOL    HW136140   3.884   0.238   2.702 -0.2015 -1.1377 -0.8739
 8226SOL    HW236141   4.022   0.254   2.740 -1.4082  0.0944 -0.7849
 8227SOL     OW36142   1.909   0.475  13.553 -0.1840 -0.0707  0.7405
 8227SOL    HW136143   1.825   0.469  13.507  0.6415  0.2686 -0.7963
 8227SOL    HW236144   1.915   0.569  13.569  1.2599  0.1874 -1.2421
 8228SOL     OW36145   0.694   3.838   9.551  0.8400  0.6971 -0.6185
 8228SOL    HW136146   0.781   3.797   9.546  1.7004  2.2669  1.2954
 8228SOL    HW236147   0.642   3.789   9.488 -1.2053 -1.0156  2.4369
 8229SOL     OW36148   4.218   1.208   5.488  0.4924 -0.2346  0.1819
 8229SOL    HW136149   4.260   1.136   5.441 -1.6300 -0.0718 -1.9400
 8229SOL    HW236150   4.130   1.206   5.452  0.8899  1.5812 -0.9299
 8230SOL     OW36151   3.822   1.613   2.204  0.7575 -0.5505 -0.2231
 8230SOL    HW136152   3.815   1.676   2.275  1.7451 -0.6574 -0.0333
 8230SOL    HW236153   3.815   1.678   2.134  2.2523 -1.7017 -1.4326
 8231SOL     OW36154   3.299   4.256   7.337  0.2915  0.1313 -0.2449
 8231SOL    HW136155   3.269   4.226   7.251 -0.4707  1.7579 -0.5487
 8231SOL    HW236156   3.285   4.186   7.401 -0.1845  2.6024  2.3512
 8232SOL     OW36157   0.858   2.614   3.773  0.5781 -0.1754  0.1234
 8232SOL    HW136158   0.766   2.624   3.746  1.1323  1.5599 -1.1285
 8232SOL    HW236159   0.899   2.699   3.759 -0.7506  0.6253  1.0860
 8233SOL     OW36160   3.608   4.380  13.715 -0.1321 -0.1923  0.2220
 8233SOL    HW136161   3.668   4.332  13.658 -3.4901 -0.0870 -3.3843
 8233SOL    HW236162   3.578   4.441  13.648 -1.4918  1.9046  2.7304
 8234SOL     OW36163   4.655   1.160   2.580 -0.0622  0.0258  0.3141
 8234SOL    HW136164   4.652   1.078   2.530 -0.8762  0.9116 -1.0725
 8234SOL    HW236165   4.564   1.163   2.610 -1.2446  1.2166 -3.4096
 8235SOL     OW36166   3.127   0.736   5.136 -0.1657 -0.6254  0.4723
 8235SOL    HW136167   3.162   0.663   5.085  0.0524 -0.3151  0.1778
 8235SOL    HW236168   3.088   0.797   5.074  1.4629 -2.4080 -2.2939
 8236SOL     OW36169   3.580   1.456   0.752 -0.5535  0.1147  0.1888
 8236SOL    HW136170   3.494   1.484   0.719  0.1428  1.3374 -0.5950
 8236SOL    HW236171   3.634   1.447   0.673 -1.1728  0.9179 -0.3344
 8237SOL     OW36172   2.007   1.782  11.331  0.1701 -0.0489 -0.2916
 8237SOL    HW136173   2.095   1.802  11.299 -0.3050 -0.0925 -1.6211
 8237SOL    HW236174   2.021   1.774  11.425  1.1038  2.4022 -0.2241
 8238SOL     OW36175   3.235   3.846   2.529  0.1060 -0.7837  0.0262
 8238SOL    HW136176   3.293   3.912   2.491 -1.0051  0.4777  0.5416
 8238SOL    HW236177   3.310   3.787   2.540 -0.1103 -1.0446  0.1109
 8239SOL     OW36178   4.432   1.759   6.391 -0.4191 -0.3764 -0.3412
 8239SOL    HW136179   4.527   1.759   6.379 -0.4552  1.4191 -0.6148
 8239SOL    HW236180   4.423   1.845   6.433  1.7443  0.4529 -1.5441
 8240SOL     OW36181   3.019   0.126   8.677  0.2511 -0.2786  0.1503
 8240SOL    HW136182   2.993   0.194   8.739  0.9819  0.4384 -0.3185
 8240SOL    HW236183   2.975   0.048   8.710  1.9658 -1.4499 -0.3079
 8241SOL     OW36184   3.094   4.040   7.917  0.5090 -0.1982  0.6401
 8241SOL    HW136185   3.148   3.992   7.980 -0.1860  0.7442  1.9653
 8241SOL    HW236186   3.042   4.096   7.975 -0.7376  1.2640 -1.9030
 8242SOL     OW36187   4.398   0.046  11.011  0.4345 -0.3573  0.4407
 8242SOL    HW136188   4.360   0.100  11.080 -0.5123 -0.0190 -0.3388
 8242SOL    HW236189   4.330   0.056  10.944  2.0069 -1.1067 -1.2821
 8243SOL     OW36190   4.175   3.355   4.120 -0.6293  0.0997 -0.3232
 8243SOL    HW136191   4.166   3.406   4.039 -1.0630  0.0187 -0.3272
 8243SOL    HW236192   4.118   3.282   4.096 -0.7503 -0.1147  0.6014
 8244SOL     OW36193   4.107   1.955   3.300  0.2049 -0.5863  0.0272
 8244SOL    HW136194   4.131   1.864   3.318 -0.0241 -0.8252 -0.8373
 8244SOL    HW236195   4.141   1.997   3.379 -0.5766  0.2034 -0.0512
 8245SOL     OW36196   3.002   1.233  10.911 -0.3293  0.2418  0.6285
 8245SOL    HW136197   2.939   1.295  10.874  2.6682  1.3485 -2.6542
 8245SOL    HW236198   3.014   1.259  11.002 -3.5275  2.2415  0.4917
 8246SOL     OW36199   3.691   2.482  14.883 -0.1160 -0.0067 -0.5250
 8246SOL    HW136200   3.737   2.551  14.930 -1.9329 -0.5646  2.1025
 8246SOL    HW236201   3.600   2.492  14.913  0.0077 -3.4580  1.0520
 8247SOL     OW36202   1.237   3.387  16.693  0.2086  0.2293  0.3626
 8247SOL    HW136203   1.226   3.478  16.669 -0.7605  0.4372  1.5802
 8247SOL    HW236204   1.210   3.401  16.784  0.0959 -2.3323  0.7376
 8248SOL     OW36205   2.803   0.819  11.496 -0.1499  0.0400  0.8056
 8248SOL    HW136206   2.762   0.880  11.434  1.8762  0.1614 -0.4307
 8248SOL    HW236207   2.881   0.862  11.530 -1.3893  2.3259  0.7462
 8249SOL     OW36208   3.113   1.554  16.457 -0.5838 -0.8048 -0.1411
 8249SOL    HW136209   3.026   1.516  16.470  0.0481 -2.4454 -0.7253
 8249SOL    HW236210   3.087   1.646  16.455  0.6748 -0.4680 -1.0792
 8250SOL     OW36211   1.314   4.398   7.063 -0.0826 -0.2682  0.1342
 8250SOL    HW136212   1.260   4.320   7.070 -0.9795  0.3641  0.1848
 8250SOL    HW236213   1.365   4.386   7.144  1.6106 -1.4194 -1.0952
 8251SOL     OW36214   4.376   4.190  17.466  0.6715 -0.2867 -0.5001
 8251SOL    HW136215   4.401   4.229  17.382  1.5457  0.6378  0.1941
 8251SOL    HW236216   4.297   4.243  17.474  1.0331  0.1017  0.4420
 8252SOL     OW36217   2.184   2.342   4.748  0.1278 -0.0247  0.0656
 8252SOL    HW136218   2.179   2.380   4.661 -0.3660 -1.4254 -0.5113
 8252SOL    HW236219   2.097   2.305   4.760  0.1040 -0.4152 -1.3487
 8253SOL     OW36220   4.199   2.337  12.393 -0.3519 -0.1074 -0.3273
 8253SOL    HW136221   4.272   2.317  12.334 -0.6451 -1.9997 -0.0308
 8253SOL    HW236222   4.221   2.270  12.457 -1.5481 -2.0919 -1.9994
 8254SOL     OW36223   0.611   4.258  17.231  0.5031 -0.3362  0.1130
 8254SOL    HW136224   0.631   4.342  17.190  2.3125 -0.4904  0.6575
 8254SOL    HW236225   0.583   4.286  17.319  1.6011 -1.8030  0.9441
 8255SOL     OW36226   1.270   0.535   8.416 -0.0857  0.5436 -0.4034
 8255SOL    HW136227   1.305   0.623   8.408 -0.0655  0.7117  1.6205
 8255SOL    HW236228   1.329   0.477   8.368  1.6611  0.9087  1.3407
 8256SOL     OW36229   1.785   4.068   5.112 -0.3351 -0.2018  0.1834
 8256SOL    HW136230   1.746   3.995   5.063 -1.3435 -0.1980  0.9792
 8256SOL    HW236231   1.719   4.135   5.092 -0.8408 -0.3865  1.2495
 8257SOL     OW36232   0.399   1.470   5.809 -0.6054 -0.3423  0.1500
 8257SOL    HW136233   0.335   1.494   5.741  1.4713 -0.0762 -1.6930
 8257SOL    HW236234   0.449   1.552   5.808 -0.5605 -0.3501  1.4872
 8258SOL     OW36235   0.243   3.328   9.179  0.1718 -0.1969  0.3384
 8258SOL    HW136236   0.322   3.279   9.203  0.6358  0.4921  0.2272
 8258SOL    HW236237   0.216   3.352   9.268  0.2519  1.7740 -0.1656
 8259SOL     OW36238   4.050   0.472  14.890 -0.1247 -0.1440  0.1518
 8259SOL    HW136239   4.123   0.448  14.833  0.7874  0.9745  0.8444
 8259SOL    HW236240   3.990   0.501  14.822 -0.0820 -3.1151 -1.1624
 8260SOL     OW36241   2.229   2.476   7.943  0.1128 -0.4336 -0.2426
 8260SOL    HW136242   2.188   2.394   7.914  1.2223  0.1043 -3.4001
 8260SOL    HW236243   2.206   2.538   7.873 -0.1221  0.5640  0.7119
 8261SOL     OW36244   3.138   3.746   4.655  0.1044 -0.4134  0.4644
 8261SOL    HW136245   3.047   3.774   4.663  0.6651  1.5994 -0.3168
 8261SOL    HW236246   3.139   3.671   4.715  0.2420 -0.5669  0.2724
 8262SOL     OW36247   4.244   4.097   4.620 -0.1526 -0.2518  0.6389
 8262SOL    HW136248   4.232   4.129   4.709 -0.1514 -1.9403  1.2437
 8262SOL    HW236249   4.296   4.019   4.640  0.0803 -0.1873  0.2991
 8263SOL     OW36250   2.159   4.332  13.112 -0.2314  0.1520  0.0821
 8263SOL    HW136251   2.216   4.400  13.149 -1.0197  1.7022 -1.5390
 8263SOL    HW236252   2.211   4.254  13.128 -1.9288 -0.9434  0.2796
 8264SOL     OW36253   0.542   4.317  12.187  1.0751  0.5734 -0.6953
 8264SOL    HW136254   0.455   4.329  12.224  0.8385 -0.0390 -1.0516
 8264SOL    HW236255   0.558   4.230  12.224  1.2336  1.6100  1.6966
 8265SOL     OW36256   1.027   0.570  12.110 -0.1978  0.1030  0.3678
 8265SOL    HW136257   1.108   0.611  12.138  0.7451 -0.9722 -0.7834
 8265SOL    HW236258   0.982   0.652  12.089 -0.4074 -0.1004  0.0103
 8266SOL     OW36259   3.251   0.525   5.851 -0.1416 -0.5809  0.4174
 8266SOL    HW136260   3.185   0.540   5.784 -0.1857  0.9767  0.8091
 8266SOL    HW236261   3.263   0.432   5.833 -2.4100 -0.6863 -0.6298
 8267SOL     OW36262   2.975   4.049   5.840  0.1506  0.3833  0.2587
 8267SOL    HW136263   3.045   4.027   5.779 -0.2702  0.9546 -0.4337
 8267SOL    HW236264   2.906   3.984   5.824 -0.2075  0.2638  2.3450
 8268SOL     OW36265   2.419   2.536  10.698  0.2288 -0.5084  0.1607
 8268SOL    HW136266   2.368   2.518  10.619  0.3615  0.1793 -0.0817
 8268SOL    HW236267   2.344   2.552  10.754  1.3711  0.5385  1.3802
 8269SOL     OW36268   0.932   1.734   5.120  0.0318  0.9155 -0.4517
 8269SOL    HW136269   0.969   1.646   5.110 -0.5398  0.5096  0.9072
 8269SOL    HW236270   0.995   1.793   5.080  1.1420  0.2431  0.2924
 8270SOL     OW36271   2.840   3.841  16.633 -0.2628  0.0891 -0.1521
 8270SOL    HW136272   2.862   3.817  16.543 -1.6102 -1.3694 -0.0729
 8270SOL    HW236273   2.813   3.930  16.609 -1.3528 -0.0646  0.5194
 8271SOL     OW36274   0.988   1.950   8.861  0.4884 -0.1410  0.5583
 8271SOL    HW136275   1.047   1.879   8.835  0.0916 -0.5161  0.6640
 8271SOL    HW236276   1.033   1.995   8.932  0.1617  1.9561 -0.5693
 8272SOL     OW36277   3.039   4.102   4.098 -0.3624 -0.0972  0.1296
 8272SOL    HW136278   3.016   4.171   4.161 -2.0249  0.5822 -1.2145
 8272SOL    HW236279   3.123   4.141   4.071  0.5819  0.6111  4.1025
 8273SOL     OW36280   2.570   1.193   6.441  0.1379  0.4056 -0.2773
 8273SOL    HW136281   2.544   1.101   6.437 -0.3001  0.4986  0.4632
 8273SOL    HW236282   2.525   1.226   6.363 -0.6724 -3.5288 -1.4771
 8274SOL     OW36283   2.349   3.487  16.667  0.1890 -0.4856  0.3116
 8274SOL    HW136284   2.363   3.468  16.574 -1.3816 -0.4004  0.0482
 8274SOL    HW236285   2.256   3.468  16.682 -0.5604  2.2277 -0.8944
 8275SOL     OW36286   1.819   4.000   1.774  0.1573  0.2140 -0.5867
 8275SOL    HW136287   1.749   4.046   1.820 -0.3805 -0.4719 -0.7056
 8275SOL    HW236288   1.777   3.921   1.739 -2.1324  0.2483  2.0522
 8276SOL     OW36289   2.436   3.463   1.839 -0.6729  0.2393 -0.4811
 8276SOL    HW136290   2.395   3.377   1.835  0.5675 -0.5020  2.4724
 8276SOL    HW236291   2.366   3.516   1.876  0.5913 -0.1549  2.4506
 8277SOL     OW36292   3.599   4.640   3.706 -0.0193  0.2712  0.3441
 8277SOL    HW136293   3.610   4.546   3.697  0.3596  0.1838  1.6411
 8277SOL    HW236294   3.561   4.650   3.619  0.0646 -0.9573  0.1750
 8278SOL     OW36295   1.350   1.501   6.604  0.4234 -0.0681 -0.3041
 8278SOL    HW136296   1.288   1.430   6.619  0.0796  0.2739 -0.0995
 8278SOL    HW236297   1.417   1.461   6.549  0.9863 -0.1605  0.4398
 8279SOL     OW36298   4.076   3.683   8.338  0.1665 -0.1217 -1.1625
 8279SOL    HW136299   4.147   3.728   8.293  0.1055  0.8556 -0.2806
 8279SOL    HW236300   4.009   3.750   8.345 -0.6761 -1.2491  1.6628
 8280SOL     OW36301   2.555   0.136   0.146 -0.0478  0.2763  0.2795
 8280SOL    HW136302   2.520   0.210   0.097 -0.6507  0.1943  0.5847
 8280SOL    HW236303   2.561   0.175   0.234 -1.0660  2.1365 -0.4797
 8281SOL     OW36304   1.527   4.388   6.328 -0.2202  0.2507  0.5416
 8281SOL    HW136305   1.463   4.322   6.354  0.7551 -1.2840 -0.9329
 8281SOL    HW236306   1.594   4.332   6.290  0.5976  1.4473  0.2127
 8282SOL     OW36307   2.021   1.153  17.533  0.4182 -0.1744 -0.2212
 8282SOL    HW136308   1.959   1.226  17.533 -0.6249 -1.0563 -0.9033
 8282SOL    HW236309   2.098   1.197  17.498 -0.3396  0.3959 -1.1899
 8283SOL     OW36310   2.068   1.012   5.416 -0.5680 -0.4665 -0.6991
 8283SOL    HW136311   2.054   0.922   5.445 -0.6474 -0.4765 -0.7682
 8283SOL    HW236312   1.980   1.049   5.422  0.4224  1.7430  0.2199
 8284SOL     OW36313   0.693   1.242  10.284  0.1711 -0.0762  0.1168
 8284SOL    HW136314   0.705   1.179  10.355 -1.4335 -0.6891 -0.1673
 8284SOL    HW236315   0.705   1.321  10.336 -0.5304  0.1417 -0.0549
 8285SOL     OW36316   4.130   0.842  10.806  0.2363 -0.4286 -0.5896
 8285SOL    HW136317   4.114   0.796  10.724 -3.2021  0.1989 -0.3064
 8285SOL    HW236318   4.172   0.772  10.856 -1.0592 -0.7547  0.0499
 8286SOL     OW36319   2.963   2.347   5.377 -0.2512 -0.0753  0.3563
 8286SOL    HW136320   2.952   2.383   5.289 -2.6751 -0.1841  0.6216
 8286SOL    HW236321   2.909   2.269   5.368 -0.0367 -0.2019  0.1531
 8287SOL     OW36322   1.319   1.084   3.779  0.6093 -0.3214 -0.3925
 8287SOL    HW136323   1.381   1.012   3.764  0.1006 -0.6449 -0.9440
 8287SOL    HW236324   1.245   1.041   3.737 -0.5562  3.7633 -2.4968
 8288SOL     OW36325   4.354   2.784   8.306 -0.4633  0.1173  0.0637
 8288SOL    HW136326   4.298   2.774   8.229 -0.0659 -1.5562 -0.0115
 8288SOL    HW236327   4.336   2.876   8.323 -0.8125  0.4181 -1.8790
 8289SOL     OW36328   2.269   0.038  15.634 -0.1355 -0.1689  0.5326
 8289SOL    HW136329   2.250   0.125  15.599  0.5711 -0.2275  0.0158
 8289SOL    HW236330   2.364   0.032  15.638 -0.0982 -1.2556 -2.1164
 8290SOL     OW36331   1.375   2.279   0.038 -0.0053  0.6804  0.1340
 8290SOL    HW136332   1.365   2.209   0.102 -2.2830  0.3629 -0.5627
 8290SOL    HW236333   1.358   2.361   0.085 -0.8980  0.1928  0.6586
 8291SOL     OW36334   0.621   3.580   5.950 -0.1888  0.0848  0.2605
 8291SOL    HW136335   0.638   3.488   5.933 -2.1801 -0.2033 -0.2163
 8291SOL    HW236336   0.623   3.589   6.045  2.5737 -2.7857  0.4641
 8292SOL     OW36337   1.329   3.270   4.441  0.0543  0.3010 -0.1965
 8292SOL    HW136338   1.294   3.341   4.387  1.7866  1.5601  0.3433
 8292SOL    HW236339   1.259   3.252   4.504 -1.1324 -0.2144 -1.6422
 8293SOL     OW36340   3.866   1.846   3.494  0.1961 -0.2459  0.1164
 8293SOL    HW136341   3.797   1.903   3.460 -0.4775  0.6614  3.0109
 8293SOL    HW236342   3.932   1.912   3.516 -0.2705 -0.4569  2.1459
 8294SOL     OW36343   3.207   1.282   8.467 -0.3887 -0.7592  1.0568
 8294SOL    HW136344   3.224   1.190   8.447 -2.5049 -0.3796 -2.5038
 8294SOL    HW236345   3.269   1.325   8.408 -0.2573 -1.3804  0.7419
 8295SOL     OW36346   1.661   3.147   4.988  0.2646  0.1226 -0.1210
 8295SOL    HW136347   1.629   3.194   5.065  1.0819 -0.7336  0.7456
 8295SOL    HW236348   1.612   3.066   5.002 -2.1545  1.3670 -1.4483
 8296SOL     OW36349   2.362   1.096   2.101 -0.4766 -0.8400 -0.0653
 8296SOL    HW136350   2.379   1.053   2.185  2.8671  0.3783 -0.1065
 8296SOL    HW236351   2.429   1.048   2.051 -1.0543  0.7217 -2.3239
 8297SOL     OW36352   2.570   2.271   2.674 -0.2739  0.3437 -0.1783
 8297SOL    HW136353   2.541   2.354   2.636  1.1562  0.9946  0.1615
 8297SOL    HW236354   2.595   2.231   2.591  0.8040 -2.4057  1.4990
 8298SOL     OW36355   1.645   0.187   3.149  0.7548 -0.6175 -0.0713
 8298SOL    HW136356   1.657   0.201   3.055 -1.0305  0.5468 -0.1168
 8298SOL    HW236357   1.657   0.275   3.186 -0.1359 -1.1712  1.5363
 8299SOL     OW36358   2.188   4.234   6.757 -0.5817  0.2803  0.4856
 8299SOL    HW136359   2.258   4.197   6.703 -0.9376  1.1266 -0.5527
 8299SOL    HW236360   2.205   4.328   6.757  1.3101 -0.0581  0.9875
 8300SOL     OW36361   4.537   4.717   9.264 -0.0076 -0.1588 -0.3584
 8300SOL    HW136362   4.567   4.710   9.355  0.2504  2.2516 -0.2543
 8300SOL    HW236363   4.454   4.669   9.272 -0.8906  1.9049  3.0477
 8301SOL     OW36364   4.128   0.988  16.836 -0.0018 -0.2168  0.1163
 8301SOL    HW136365   4.124   0.901  16.796  0.0226 -0.2057  0.0901
 8301SOL    HW236366   4.046   0.996  16.885  0.7470 -0.4555  1.4167
 8302SOL     OW36367   4.520   2.783  13.547  0.0536 -1.4225  0.3967
 8302SOL    HW136368   4.535   2.703  13.597 -0.6710 -1.0200  1.2594
 8302SOL    HW236369   4.579   2.763  13.474 -0.2360  1.4141 -0.6122
 8303SOL     OW36370   0.411   4.181   0.295  0.7036  0.1925 -0.3638
 8303SOL    HW136371   0.408   4.241   0.370  1.7610 -0.2665  0.0453
 8303SOL    HW236372   0.506   4.166   0.292  0.6599 -0.6372  2.1395
 8304SOL     OW36373   0.345   2.719   4.915 -0.1101 -0.3107 -0.5953
 8304SOL    HW136374   0.326   2.660   4.842 -2.5625  0.2537 -0.4044
 8304SOL    HW236375   0.348   2.651   4.982  2.3076  1.9584  1.5636
 8305SOL     OW36376   0.728   3.913  15.967  0.2069  0.4648  0.1446
 8305SOL    HW136377   0.822   3.925  15.978  0.5862 -1.9750 -0.3279
 8305SOL    HW236378   0.720   3.817  15.971 -2.7964  0.6789 -0.5010
 8306SOL     OW36379   1.233   3.256  12.761 -0.3190 -0.4312  0.5578
 8306SOL    HW136380   1.296   3.322  12.735  0.6352 -1.9663 -1.0180
 8306SOL    HW236381   1.289   3.179  12.763  0.1225 -0.1596 -1.7367
 8307SOL     OW36382   1.055   3.511   8.204  0.3582  0.2013  0.0733
 8307SOL    HW136383   1.124   3.553   8.255  0.9107  0.8218 -1.1626
 8307SOL    HW236384   1.018   3.586   8.157 -0.5264  1.1115  2.2309
 8308SOL     OW36385   4.322   3.351   8.534  0.2528 -0.4737  0.6823
 8308SOL    HW136386   4.397   3.316   8.486 -0.5523 -1.2511 -0.0080
 8308SOL    HW236387   4.266   3.400   8.473  0.6444  0.7669  1.3173
 8309SOL     OW36388   1.943   3.295  10.497 -0.2494 -0.0031  0.3418
 8309SOL    HW136389   1.985   3.377  10.524  0.2356  1.1563 -3.8954
 8309SOL    HW236390   1.994   3.233  10.549 -1.2602 -0.3346  0.9293
 8310SOL     OW36391   0.286   3.509  13.090  0.6733  0.6995  0.2415
 8310SOL    HW136392   0.314   3.579  13.032  0.3322 -0.4750 -1.3351
 8310SOL    HW236393   0.205   3.477  13.050  0.4518  0.2398  1.0410
 8311SOL     OW36394   3.480   2.725   9.720 -0.8544  0.0657  0.0969
 8311SOL    HW136395   3.457   2.638   9.688 -1.7008 -0.0899  1.1478
 8311SOL    HW236396   3.396   2.771   9.718 -0.8604  0.0835  0.6900
 8312SOL     OW36397   2.760   1.686  16.910 -0.2326  0.3022 -0.1477
 8312SOL    HW136398   2.755   1.606  16.858 -0.7920  0.3084 -0.0996
 8312SOL    HW236399   2.831   1.715  16.853  0.8167 -0.8472  0.5755
 8313SOL     OW36400   4.403   1.905   7.368 -0.8092 -0.0277 -0.9203
 8313SOL    HW136401   4.337   1.915   7.437  0.6268 -0.7098  0.5640
 8313SOL    HW236402   4.367   1.936   7.285  1.6526  2.9267 -0.8870
 8314SOL     OW36403   0.944   1.025   8.629 -0.8984  0.2826  0.5046
 8314SOL    HW136404   0.959   0.941   8.585  1.1290 -0.5175  2.7177
 8314SOL    HW236405   1.000   1.019   8.706  1.1023  0.0659 -0.9552
 8315SOL     OW36406   2.382   2.987   1.555 -0.6204  0.3056 -0.2105
 8315SOL    HW136407   2.304   3.029   1.521 -1.4146 -0.5895  0.5033
 8315SOL    HW236408   2.410   2.948   1.472 -1.1341 -0.5346  0.0101
 8316SOL     OW36409   3.694   1.732   8.402  0.1945  0.0178  0.3075
 8316SOL    HW136410   3.714   1.705   8.312  0.2912  1.1330 -0.0125
 8316SOL    HW236411   3.697   1.828   8.399  2.6520 -0.1317 -2.1431
 8317SOL     OW36412   3.064   1.441   0.749 -0.3282 -0.1394 -0.3038
 8317SOL    HW136413   3.084   1.353   0.718 -1.7213 -0.3298 -0.6850
 8317SOL    HW236414   3.071   1.427   0.844  1.3339  1.3771 -0.1937
 8318SOL     OW36415   1.122   1.030   7.627  0.1088 -0.4366 -0.2950
 8318SOL    HW136416   1.128   1.035   7.723 -1.9422  0.9354 -0.2396
 8318SOL    HW236417   1.123   0.935   7.632  0.3269 -0.4005  0.4740
 8319SOL     OW36418   1.686   1.044   9.005  0.1471  0.9116 -0.7387
 8319SOL    HW136419   1.656   0.953   9.013  0.8968  0.7261 -0.0944
 8319SOL    HW236420   1.603   1.090   9.020 -0.5261 -1.2690  2.1256
 8320SOL     OW36421   1.229   4.721  16.239 -0.7559  0.0231 -0.1103
 8320SOL    HW136422   1.235   4.643  16.184 -0.5709 -0.1718  0.1832
 8320SOL    HW236423   1.233   0.066  16.171 -1.8872 -1.0157 -1.1731
 8321SOL     OW36424   2.334   2.435   7.539  0.2640 -0.4419  0.1450
 8321SOL    HW136425   2.347   2.475   7.453  0.7408  0.2215  0.5278
 8321SOL    HW236426   2.374   2.350   7.519  0.0784  0.0780 -2.3697
 8322SOL     OW36427   2.918   1.525  11.775  0.1574 -0.2218  0.4247
 8322SOL    HW136428   2.934   1.607  11.822  3.3257 -0.4395 -0.2918
 8322SOL    HW236429   2.911   1.457  11.842  0.0020 -0.2530  0.3755
 8323SOL     OW36430   4.356   0.025   5.733  0.3360  0.1035  0.4173
 8323SOL    HW136431   4.286   0.002   5.673  0.1873 -0.8822  0.9633
 8323SOL    HW236432   4.421   0.062   5.674 -0.2552 -0.1114 -0.3587
 8324SOL     OW36433   3.410   1.748   9.486  0.4223  0.1107 -0.1535
 8324SOL    HW136434   3.449   1.676   9.536  1.7549 -0.0666 -1.4519
 8324SOL    HW236435   3.316   1.731   9.491 -0.0803  2.6870 -1.3001
 8325SOL     OW36436   3.047   1.340   4.969  0.4894 -0.9957  0.2835
 8325SOL    HW136437   3.078   1.268   5.023  2.6133 -0.2880  0.0018
 8325SOL    HW236438   2.987   1.295   4.910 -1.1528  0.3302  0.9412
 8326SOL     OW36439   3.599   3.809   4.392  0.2294 -0.0719  0.8457
 8326SOL    HW136440   3.514   3.825   4.433  0.0630  1.2416 -0.0137
 8326SOL    HW236441   3.611   3.716   4.414 -3.2004 -0.7320 -0.1650
 8327SOL     OW36442   1.550   3.538   9.175  0.1905  0.3010 -0.4551
 8327SOL    HW136443   1.562   3.465   9.114 -0.8833 -0.8591  0.6908
 8327SOL    HW236444   1.468   3.516   9.219 -0.5805 -0.1385 -2.1137
 8328SOL     OW36445   3.114   4.297   5.472 -0.0004 -0.2122  0.0816
 8328SOL    HW136446   3.150   4.375   5.514  0.1654 -0.2600  0.0282
 8328SOL    HW236447   3.021   4.309   5.493 -0.1659 -0.7517 -0.3252
 8329SOL     OW36448   2.357   3.251   4.568  0.1196  0.2643  1.0724
 8329SOL    HW136449   2.357   3.164   4.607 -0.4256 -0.1114  0.2291
 8329SOL    HW236450   2.428   3.240   4.505 -0.5111 -2.1512  0.7962
 8330SOL     OW36451   2.307   2.293   1.922 -0.4402  0.3818 -0.0406
 8330SOL    HW136452   2.360   2.285   1.843  1.3448  0.8771  1.1004
 8330SOL    HW236453   2.242   2.356   1.892 -0.5879  0.2518  0.0066
 8331SOL     OW36454   3.641   2.470  14.597 -0.0597  0.4189 -0.0953
 8331SOL    HW136455   3.622   2.494  14.687  2.8498  0.1912  0.5608
 8331SOL    HW236456   3.709   2.534  14.575  0.6354 -0.2580  0.0918
 8332SOL     OW36457   4.087   2.329   6.151  1.2835  0.0720  0.0266
 8332SOL    HW136458   4.014   2.305   6.095  1.6436 -0.0057 -0.4102
 8332SOL    HW236459   4.096   2.422   6.131  1.7518 -0.1933 -0.9828
 8333SOL     OW36460   3.299   2.354   7.980  0.6294  0.0286  0.3755
 8333SOL    HW136461   3.310   2.449   7.993  2.1295 -0.2015  0.6888
 8333SOL    HW236462   3.203   2.357   7.970  0.4960  0.9591  1.9339
 8334SOL     OW36463   2.729   3.539  16.639  0.3278  0.0056 -0.6587
 8334SOL    HW136464   2.702   3.597  16.710 -2.0368 -0.7567 -0.9385
 8334SOL    HW236465   2.719   3.451  16.675  1.4007  0.0782 -0.1921
 8335SOL     OW36466   0.543   0.538   8.998  0.0374 -0.5285 -0.2042
 8335SOL    HW136467   0.615   0.477   8.986  0.6699  0.3745 -1.0813
 8335SOL    HW236468   0.502   0.512   9.080 -0.6148 -0.3282 -0.4594
 8336SOL     OW36469   3.369   2.990   6.192 -0.0252 -0.1505 -0.2328
 8336SOL    HW136470   3.352   2.971   6.284  1.2376  1.7303  0.3884
 8336SOL    HW236471   3.281   3.017   6.165 -0.5394  0.0616  1.6858
 8337SOL     OW36472   0.382   1.527   3.632 -0.0301  0.3875  0.2893
 8337SOL    HW136473   0.377   1.592   3.561 -0.7098 -1.2504 -1.1685
 8337SOL    HW236474   0.451   1.566   3.685 -1.7239 -0.4932  3.1694
 8338SOL     OW36475   3.978   0.726  12.735  0.1593 -0.5595 -0.4982
 8338SOL    HW136476   3.949   0.814  12.711  1.8691  0.4916  1.3253
 8338SOL    HW236477   3.959   0.678  12.655 -1.0721 -0.2290 -0.4079
 8339SOL     OW36478   4.010   0.068   9.023 -0.2739  0.0997  1.0071
 8339SOL    HW136479   3.968   4.718   8.977 -0.9225 -0.0895  1.9004
 8339SOL    HW236480   3.947   0.133   8.991 -0.4978 -1.3043 -1.4019
 8340SOL     OW36481   1.347   0.956   4.901 -0.5006  0.0241  0.4310
 8340SOL    HW136482   1.436   0.989   4.887 -1.5604  2.1931 -1.2033
 8340SOL    HW236483   1.316   0.939   4.812 -0.5643  0.2956  0.4007
 8341SOL     OW36484   0.975   2.788  16.063 -0.5600 -0.7175  0.5152
 8341SOL    HW136485   1.001   2.709  16.109  0.5628  1.8083  4.2711
 8341SOL    HW236486   0.882   2.796  16.085 -0.7916  0.4543 -0.9280
 8342SOL     OW36487   1.270   4.666   8.083 -0.3340  0.1019 -0.2567
 8342SOL    HW136488   1.206   4.662   8.012 -0.1267  0.6184 -0.4664
 8342SOL    HW236489   1.237   0.025   8.122 -3.9956 -0.7811 -1.5044
 8343SOL     OW36490   4.448   4.183   8.523 -0.1538 -0.1311 -0.0069
 8343SOL    HW136491   4.373   4.241   8.537 -0.9819 -1.5166  1.3210
 8343SOL    HW236492   4.418   4.114   8.583 -2.6337  0.3087 -0.7348
 8344SOL     OW36493   1.945   1.097   3.443 -0.1736 -0.3479 -0.0464
 8344SOL    HW136494   1.905   1.140   3.518  2.0361  1.4246  0.1373
 8344SOL    HW236495   2.033   1.076   3.476 -0.6624  0.3352  1.6188
 8345SOL     OW36496   2.458   2.495  10.202  0.4496  0.5594 -0.2005
 8345SOL    HW136497   2.402   2.551  10.148 -0.0498 -0.1880 -0.4498
 8345SOL    HW236498   2.544   2.499  10.160 -0.0080  0.0906 -1.1928
 8346SOL     OW36499   1.296   3.489   9.298  0.0538 -0.5650 -0.5426
 8346SOL    HW136500   1.313   3.513   9.389  1.8080  1.0847 -1.3023
 8346SOL    HW236501   1.235   3.417   9.315  0.9866 -1.2738 -0.2089
 8347SOL     OW36502   3.394   2.778   7.546  0.1500 -0.9206 -0.4536
 8347SOL    HW136503   3.370   2.791   7.637  0.8969  0.5329 -0.4580
 8347SOL    HW236504   3.459   2.711   7.566  0.6872 -0.5949 -1.0761
 8348SOL     OW36505   4.174   1.698   9.543  0.4049 -0.5124  0.1525
 8348SOL    HW136506   4.197   1.696   9.450 -1.4434  1.6230 -0.3595
 8348SOL    HW236507   4.195   1.607   9.561  1.2214 -0.6114 -1.3321
 8349SOL     OW36508   0.113   3.010   8.344 -0.2867 -0.3229 -0.3578
 8349SOL    HW136509   0.050   2.940   8.330  0.5851 -0.7194 -2.2607
 8349SOL    HW236510   0.103   3.028   8.437 -1.2431  0.9318 -0.6964
 8350SOL     OW36511   2.423   1.935  10.376  0.0029 -0.6877 -0.2200
 8350SOL    HW136512   2.422   2.015  10.323  2.3795 -1.0525 -0.8057
 8350SOL    HW236513   2.340   1.896  10.349 -1.2963  1.0208  1.2460
 8351SOL     OW36514   0.052   0.340   7.645  0.3236  0.0394 -0.1352
 8351SOL    HW136515   0.066   0.370   7.555  0.7891 -1.9939 -0.7474
 8351SOL    HW236516   4.707   0.393   7.687  1.4163  0.0462  1.6441
 8352SOL     OW36517   1.426   3.939   4.862 -0.0718  0.2959 -0.4044
 8352SOL    HW136518   1.333   3.961   4.853  0.1476  1.2435 -0.3548
 8352SOL    HW236519   1.444   3.908   4.774 -1.0577 -0.1650 -0.4495
 8353SOL     OW36520   0.623   4.688   3.447 -0.3728 -0.0769  0.1939
 8353SOL    HW136521   0.541   4.696   3.398 -0.3985 -1.2094  0.0569
 8353SOL    HW236522   0.592   4.675   3.536 -0.5675  0.6695  0.2297
 8354SOL     OW36523   0.803   1.093   4.865 -0.3079  0.2689  0.0203
 8354SOL    HW136524   0.733   1.140   4.820  0.3498  0.2870 -0.9990
 8354SOL    HW236525   0.837   1.171   4.908 -1.4429  1.1129 -0.5998
 8355SOL     OW36526   1.142   3.547  15.649 -0.0725 -0.0918 -0.1707
 8355SOL    HW136527   1.228   3.524  15.615 -0.4184  1.2893 -1.9962
 8355SOL    HW236528   1.130   3.634  15.611 -0.5490  0.3776  1.0560
 8356SOL     OW36529   1.966   4.675   2.505 -0.1277 -0.0047 -0.4457
 8356SOL    HW136530   1.984   4.605   2.568 -2.1170  0.7045  0.9250
 8356SOL    HW236531   2.016   0.028   2.535  0.2056 -0.1906 -0.5340
 8357SOL     OW36532   4.288   2.574   3.629  0.0429 -0.1528  0.2119
 8357SOL    HW136533   4.377   2.606   3.644 -0.1529 -0.0181  1.0854
 8357SOL    HW236534   4.284   2.490   3.674 -2.1375  0.2281  0.7246
 8358SOL     OW36535   1.829   0.669  10.326 -0.4507 -0.1731  0.2861
 8358SOL    HW136536   1.923   0.682  10.327 -0.6095  1.0059 -0.1810
 8358SOL    HW236537   1.790   0.752  10.355  1.7334  0.5529  1.1547
 8359SOL     OW36538   3.229   0.805  13.115 -0.0031  0.1272  0.0267
 8359SOL    HW136539   3.220   0.878  13.054 -2.2802 -0.3533 -0.2055
 8359SOL    HW236540   3.298   0.755  13.072 -0.3015 -1.6519  1.6167
 8360SOL     OW36541   2.241   1.535  16.061 -0.5218 -0.1382 -0.3999
 8360SOL    HW136542   2.223   1.628  16.044 -0.0417  0.2361  1.1231
 8360SOL    HW236543   2.153   1.509  16.087  0.0087  0.9145  2.4789
 8361SOL     OW36544   0.945   1.508   4.920 -0.3519 -0.0298 -0.0344
 8361SOL    HW136545   0.861   1.537   4.884  0.9836  0.2012 -2.9629
 8361SOL    HW236546   0.920   1.449   4.991 -0.2024  0.1896  0.1999
 8362SOL     OW36547   4.096   2.447   9.888 -0.1592 -0.4463 -0.0386
 8362SOL    HW136548   4.086   2.475   9.797  1.7877 -1.2093 -0.4871
 8362SOL    HW236549   4.043   2.368   9.894 -0.5154 -0.1674  0.4521
 8363SOL     OW36550   1.333   1.274   5.319  0.2692  0.4920  0.1582
 8363SOL    HW136551   1.403   1.225   5.276  0.3058  0.7389 -0.0617
 8363SOL    HW236552   1.264   1.263   5.254  2.2912  3.5488 -2.4805
 8364SOL     OW36553   1.621   0.053   5.233 -0.7074 -0.4109  0.1996
 8364SOL    HW136554   1.529   0.069   5.253 -0.8440 -0.4830 -0.3825
 8364SOL    HW236555   1.615   4.703   5.170 -0.2274 -0.2627 -0.0158
 8365SOL     OW36556   4.547   1.326   1.310  0.5188  0.2380  0.5887
 8365SOL    HW136557   4.474   1.364   1.262  1.1970 -0.4139 -0.9288
 8365SOL    HW236558   4.592   1.314   1.227 -0.9389  0.3086 -0.2120
 8366SOL     OW36559   4.229   1.061   8.867  1.1142  0.4194 -0.1615
 8366SOL    HW136560   4.282   0.999   8.917  0.8359  0.0576 -0.3172
 8366SOL    HW236561   4.150   1.008   8.856 -0.8178  3.3417 -0.6054
 8367SOL     OW36562   0.898   2.852   4.788  0.3790  0.1969 -0.6077
 8367SOL    HW136563   0.979   2.805   4.768 -0.1200 -0.7970 -0.2981
 8367SOL    HW236564   0.934   2.939   4.773 -1.8482  1.0845 -0.7366
 8368SOL     OW36565   3.161   4.129   1.179  0.5105 -0.1017 -0.2305
 8368SOL    HW136566   3.238   4.074   1.169  0.9130  0.0093  2.1855
 8368SOL    HW236567   3.191   4.205   1.230 -0.0815 -0.5940  0.8492
 8369SOL     OW36568   4.311   1.024   6.319 -0.3174  0.1602 -0.5848
 8369SOL    HW136569   4.260   0.947   6.345  2.6697 -1.3419  0.8159
 8369SOL    HW236570   4.364   1.034   6.398  0.4529 -0.0680 -1.0701
 8370SOL     OW36571   3.665   4.198  14.014 -0.1341 -0.4532  0.0464
 8370SOL    HW136572   3.758   4.186  13.995 -0.3112 -1.3447 -0.2385
 8370SOL    HW236573   3.673   4.255  14.091 -0.6666 -0.3208  0.0022
 8371SOL     OW36574   1.868   3.769  10.175  0.3696 -0.2051 -0.1364
 8371SOL    HW136575   1.789   3.779  10.228  0.0768  1.8731 -0.9584
 8371SOL    HW236576   1.915   3.852  10.186 -2.6333  2.0789 -4.5675
 8372SOL     OW36577   4.077   0.800   0.323 -0.3914  0.1146  0.1008
 8372SOL    HW136578   4.101   0.760   0.239  0.5004  1.5563 -0.3261
 8372SOL    HW236579   4.113   0.730   0.378  0.7242  0.6925  0.1054
 8373SOL     OW36580   2.491   0.865   7.089  0.2601 -0.0520  0.1015
 8373SOL    HW136581   2.562   0.915   7.047 -1.5831  0.7182 -2.1208
 8373SOL    HW236582   2.412   0.895   7.044  0.7560  0.9172 -0.1315
 8374SOL     OW36583   3.060   1.482  10.645 -0.1195  0.5037 -0.0992
 8374SOL    HW136584   3.049   1.574  10.667  0.6864  0.7200 -0.5977
 8374SOL    HW236585   2.975   1.448  10.674 -0.4680  1.8485  0.4112
 8375SOL     OW36586   1.215   2.912   2.159 -0.0226 -0.0118 -0.3757
 8375SOL    HW136587   1.287   2.849   2.156 -0.2139 -0.2923  0.9046
 8375SOL    HW236588   1.206   2.953   2.245 -2.3668  1.0795 -1.1241
 8376SOL     OW36589   0.169   3.700   1.270 -0.3654 -0.0340  0.6014
 8376SOL    HW136590   0.171   3.627   1.208  2.4507  0.3360  0.2514
 8376SOL    HW236591   0.258   3.736   1.266 -0.5758  0.4223 -0.0360
 8377SOL     OW36592   2.167   3.922   8.517 -0.4038  0.3831  0.2452
 8377SOL    HW136593   2.220   3.922   8.597 -0.6397  2.1551  0.4145
 8377SOL    HW236594   2.236   3.946   8.455  2.0694 -0.0142  2.8487
 8378SOL     OW36595   1.999   1.239  10.126  0.5876  0.1189 -0.2779
 8378SOL    HW136596   1.997   1.225  10.032 -0.8540  1.7688 -0.4836
 8378SOL    HW236597   2.016   1.150  10.155  2.7778  0.8966  0.8545
 8379SOL     OW36598   1.451   4.483   3.374  0.6595 -0.9895 -0.1715
 8379SOL    HW136599   1.396   4.536   3.432 -0.2202 -2.5727  0.4363
 8379SOL    HW236600   1.512   4.553   3.353 -0.1403  0.3499  1.9535
 8380SOL     OW36601   4.180   2.780   6.722 -0.1190 -0.2111  0.2202
 8380SOL    HW136602   4.084   2.782   6.718 -0.1517  2.4821  2.0772
 8380SOL    HW236603   4.186   2.731   6.803  1.3435 -0.2603  0.0799
 8381SOL     OW36604   3.647   3.891   0.194  0.2761  0.1678 -0.1095
 8381SOL    HW136605   3.676   3.800   0.190  0.9196  0.2786  2.0531
 8381SOL    HW236606   3.682   3.924   0.276 -0.0235 -1.5039  0.6825
 8382SOL     OW36607   1.762   2.446   2.254 -0.0424 -0.8123 -0.3016
 8382SOL    HW136608   1.684   2.414   2.209  0.9133 -2.1338 -1.0048
 8382SOL    HW236609   1.817   2.369   2.264 -1.5820 -1.7790  0.6784
 8383SOL     OW36610   0.357   0.103   9.293 -0.2152 -0.0399  0.4647
 8383SOL    HW136611   0.451   0.094   9.306  0.1531  1.1771 -1.3127
 8383SOL    HW236612   0.328   0.165   9.360  1.4782 -1.1682  2.2369
 8384SOL     OW36613   3.715   4.003  16.297  0.9002  0.2373 -0.2224
 8384SOL    HW136614   3.626   3.968  16.290  0.5171  1.1354  0.1119
 8384SOL    HW236615   3.764   3.921  16.287  1.5653  0.6289 -0.1059
 8385SOL     OW36616   1.945   2.858   6.978 -0.4754 -0.0592  0.6784
 8385SOL    HW136617   1.852   2.841   6.996 -0.4220 -0.5875  0.4380
 8385SOL    HW236618   1.959   2.772   6.940  0.9009 -0.9886  3.3595
 8386SOL     OW36619   1.345   3.647   5.331  0.7150 -0.0139  0.1017
 8386SOL    HW136620   1.312   3.712   5.270 -0.1244  1.0818  1.7152
 8386SOL    HW236621   1.427   3.627   5.285 -0.5140 -0.3813 -1.8854
 8387SOL     OW36622   4.373   1.385   2.872  0.5136 -0.2876 -0.0117
 8387SOL    HW136623   4.351   1.377   2.779  0.9548 -0.7504 -0.0713
 8387SOL    HW236624   4.279   1.387   2.894  0.3310 -0.9172 -0.7449
 8388SOL     OW36625   2.239   2.406   8.374  0.4797 -0.4807 -0.8875
 8388SOL    HW136626   2.297   2.471   8.334 -1.0678  1.3240 -0.1744
 8388SOL    HW236627   2.174   2.465   8.413  1.1812  0.1122 -0.6134
 8389SOL     OW36628   3.037   1.374   7.627  0.5960 -0.1428 -0.1189
 8389SOL    HW136629   2.972   1.306   7.646 -1.7292  1.2679 -3.1382
 8389SOL    HW236630   3.112   1.317   7.644  1.1348 -0.1882 -2.6299
 8390SOL     OW36631   4.039   2.598  11.793 -0.3982  0.5120  0.0439
 8390SOL    HW136632   3.992   2.575  11.873 -1.7883  1.1106 -0.5788
 8390SOL    HW236633   4.075   2.683  11.817  1.1296 -0.1154 -0.0712
 8391SOL     OW36634   0.753   3.877   8.915  0.3892  0.3612  0.4111
 8391SOL    HW136635   0.767   3.913   9.003  1.7136 -0.2850  0.4633
 8391SOL    HW236636   0.735   3.786   8.938 -1.2671  1.2007  2.4089
 8392SOL     OW36637   1.260   0.905  17.187 -0.7075  0.1961  0.3302
 8392SOL    HW136638   1.330   0.967  17.205 -0.2168  0.2273 -1.6801
 8392SOL    HW236639   1.190   0.930  17.248 -1.2973 -0.7201  0.0373
 8393SOL     OW36640   0.656   1.134   9.427  0.3249  0.0401  0.0399
 8393SOL    HW136641   0.743   1.118   9.392  1.3240  1.0665  2.0770
 8393SOL    HW236642   0.670   1.204   9.491 -2.3021  0.8913 -0.3015
 8394SOL     OW36643   0.873   0.675   2.874  0.3385  0.1730 -0.4666
 8394SOL    HW136644   0.904   0.585   2.869  0.1292  0.1052 -0.5328
 8394SOL    HW236645   0.782   0.651   2.889  0.7783 -1.3446 -0.2942
 8395SOL     OW36646   1.057   3.010  12.754 -0.3959 -0.0734  0.8854
 8395SOL    HW136647   1.100   3.095  12.758  0.2783 -0.4501  1.7654
 8395SOL    HW236648   1.073   2.973  12.667  0.1817  1.8877  0.1543
 8396SOL     OW36649   2.521   4.181  17.428 -0.0908 -0.7129  0.0140
 8396SOL    HW136650   2.506   4.117  17.497 -3.1380 -0.1912 -0.1897
 8396SOL    HW236651   2.467   4.251  17.465  0.7678 -0.2454  0.4071
 8397SOL     OW36652   0.092   3.412   8.066  0.0642  0.5026  0.3148
 8397SOL    HW136653   0.136   3.405   8.151  1.2157 -0.4789 -0.3654
 8397SOL    HW236654   0.157   3.359   8.021 -1.3651 -0.0293 -1.1178
 8398SOL     OW36655   2.197   3.166  10.678 -0.1977  0.1197  0.5208
 8398SOL    HW136656   2.264   3.223  10.641 -0.3107 -0.0249  0.0929
 8398SOL    HW236657   2.192   3.209  10.763  0.6217 -0.5007  0.8794
 8399SOL     OW36658   3.778   1.623   7.867  0.0521  0.4399 -0.2564
 8399SOL    HW136659   3.745   1.594   7.782  0.5812  0.5424 -0.4921
 8399SOL    HW236660   3.791   1.713   7.839  1.9177  0.1895 -0.2124
 8400SOL     OW36661   0.188   2.833  14.101  0.4111 -0.5661 -0.2654
 8400SOL    HW136662   0.123   2.783  14.152 -0.7037 -0.4238 -1.5605
 8400SOL    HW236663   0.126   2.844  14.029  1.0235  0.6778 -0.5973
 8401SOL     OW36664   2.758   4.139  14.388 -0.1036 -0.4135 -0.2609
 8401SOL    HW136665   2.700   4.094  14.326  1.0152 -0.9385 -0.9272
 8401SOL    HW236666   2.693   4.179  14.445 -1.0066 -2.4281  0.1222
 8402SOL     OW36667   2.858   0.955   8.422 -0.0453 -0.5624 -0.6743
 8402SOL    HW136668   2.798   0.880   8.418 -0.2952 -0.3256 -1.4613
 8402SOL    HW236669   2.795   1.025   8.404  2.9495  1.9983 -1.0777
 8403SOL     OW36670   0.265   3.843   7.320 -0.2678 -0.1009 -0.4551
 8403SOL    HW136671   0.322   3.810   7.250  0.0498  0.7926 -0.6107
 8403SOL    HW236672   0.335   3.866   7.381 -0.8544 -0.1934  0.2514
 8404SOL     OW36673   3.950   2.402   4.008 -0.2910  0.4395  0.3551
 8404SOL    HW136674   3.947   2.478   4.065 -1.8556  0.7340 -0.1331
 8404SOL    HW236675   4.044   2.390   3.994 -0.5355 -0.8639 -0.2250
 8405SOL     OW36676   2.834   2.593   3.746  0.2657  0.1641 -0.6752
 8405SOL    HW136677   2.853   2.670   3.799 -2.3703 -0.9675  1.8888
 8405SOL    HW236678   2.748   2.624   3.721 -0.1567  0.6419  1.3677
 8406SOL     OW36679   4.124   2.670   0.628 -0.2860 -0.3995  0.4539
 8406SOL    HW136680   4.049   2.611   0.620 -1.0667  0.5211  1.0078
 8406SOL    HW236681   4.182   2.625   0.688 -0.7026 -0.2433  0.9801
 8407SOL     OW36682   2.330   4.143  13.204  0.3158 -0.2547  0.1197
 8407SOL    HW136683   2.378   4.060  13.202 -0.6331 -0.7484 -1.8772
 8407SOL    HW236684   2.355   4.184  13.287  0.7201  0.6489 -0.4420
 8408SOL     OW36685   3.509   3.337  12.769  0.1274 -0.0330  0.1459
 8408SOL    HW136686   3.597   3.308  12.791 -0.3430 -1.5039  0.1540
 8408SOL    HW236687   3.517   3.429  12.794 -0.4442  0.1534 -0.3593
 8409SOL     OW36688   0.436   1.058   2.719 -0.0224 -0.3001 -0.0091
 8409SOL    HW136689   0.444   1.021   2.631 -2.4076  0.0812 -0.3945
 8409SOL    HW236690   0.520   1.033   2.756 -0.0630 -0.9333 -0.3494
 8410SOL     OW36691   4.389   1.739   2.357  0.7020 -0.3045  0.9037
 8410SOL    HW136692   4.368   1.697   2.273 -0.3144  1.9844  0.0248
 8410SOL    HW236693   4.484   1.727   2.359  0.8140  0.5852  0.4876
 8411SOL     OW36694   1.915   4.498   6.942 -0.2118  0.7101 -0.0992
 8411SOL    HW136695   1.827   4.479   6.975  0.4774 -0.0513  1.2821
 8411SOL    HW236696   1.965   4.528   7.018 -0.0675  0.0410  0.0684
 8412SOL     OW36697   3.361   1.596   5.724  0.4712 -0.1786  0.1666
 8412SOL    HW136698   3.421   1.666   5.750  2.7003 -1.4493 -1.6175
 8412SOL    HW236699   3.311   1.642   5.657 -1.7848 -0.6418  1.5217
 8413SOL     OW36700   0.409   4.452  17.680  0.0775  0.1830  0.0967
 8413SOL    HW136701   0.373   4.536  17.654 -0.7241 -0.3542 -0.5412
 8413SOL    HW236702   0.447   4.460   0.076  2.3338 -0.0463 -0.8661
 8414SOL     OW36703   3.181   3.988  16.757 -0.0714 -0.1517 -0.5082
 8414SOL    HW136704   3.233   4.029  16.688 -0.7771 -0.5132 -1.2613
 8414SOL    HW236705   3.199   4.052  16.825 -2.4955 -0.8642  0.8059
 8415SOL     OW36706   4.607   4.506   5.586  0.1771  0.6085  0.1487
 8415SOL    HW136707   4.700   4.494   5.606 -0.0562  0.8132  1.3519
 8415SOL    HW236708   4.591   4.412   5.574  2.7207  0.5404 -2.6013
 8416SOL     OW36709   0.175   3.636   2.066 -0.5196  0.8943 -0.1677
 8416SOL    HW136710   0.233   3.712   2.057 -0.2370  0.6024 -0.8326
 8416SOL    HW236711   0.233   3.563   2.084 -0.3203  0.9248 -0.6836
 8417SOL     OW36712   3.190   4.711  12.269 -0.1507  0.4945  0.2379
 8417SOL    HW136713   3.259   0.041  12.227  0.1760 -1.1652 -1.2975
 8417SOL    HW236714   3.187   0.041  12.349  0.3977  0.1586  0.4787
 8418SOL     OW36715   0.548   3.584  10.464 -0.2521 -0.7844  0.2693
 8418SOL    HW136716   0.541   3.519  10.394  1.0559  0.2117 -0.8086
 8418SOL    HW236717   0.485   3.563  10.533 -0.0662 -1.9199  0.0954
 8419SOL     OW36718   3.676   4.394   3.360  0.3878 -0.0811  1.0701
 8419SOL    HW136719   3.744   4.458   3.380  1.8202 -0.5259 -2.3886
 8419SOL    HW236720   3.615   4.449   3.310 -0.1772 -1.1340  0.5973
 8420SOL     OW36721   1.829   2.254  14.278 -0.6423  0.5017  0.0760
 8420SOL    HW136722   1.846   2.203  14.357 -0.6105 -0.4746 -0.5613
 8420SOL    HW236723   1.823   2.343  14.313  1.7073  0.4179  0.7410
 8421SOL     OW36724   0.801   2.284   8.016  0.3297  0.0273  0.1744
 8421SOL    HW136725   0.775   2.376   8.028 -0.4902 -0.3280  1.0703
 8421SOL    HW236726   0.861   2.282   8.091  0.4521  0.8862  0.1071
 8422SOL     OW36727   4.280   4.371  16.930 -0.3980  0.0679  0.0752
 8422SOL    HW136728   4.217   4.307  16.897 -1.0273  0.9632 -0.4406
 8422SOL    HW236729   4.348   4.372  16.862 -0.1998 -2.0139  0.2270
 8423SOL     OW36730   4.296   1.840  17.457  0.5518  0.2639  0.4834
 8423SOL    HW136731   4.254   1.779  17.397  1.1795 -0.0446  0.3650
 8423SOL    HW236732   4.336   1.912  17.408  1.7662 -1.4138 -0.9664
 8424SOL     OW36733   1.954   3.113   4.956 -0.1084 -0.0252 -0.0126
 8424SOL    HW136734   1.859   3.117   4.971 -0.0898 -2.1598  0.6239
 8424SOL    HW236735   1.994   3.048   5.014 -0.1154  0.7203  0.8406
 8425SOL     OW36736   0.931   2.172  11.582  0.6736 -0.1906 -0.3407
 8425SOL    HW136737   0.982   2.101  11.621  2.1972  0.5781 -0.9291
 8425SOL    HW236738   0.894   2.129  11.505  1.3660  0.6228 -1.1419
 8426SOL     OW36739   1.877   2.779   8.873  0.0934  0.0145  0.0068
 8426SOL    HW136740   1.875   2.774   8.969 -0.2288 -1.9252 -0.0987
 8426SOL    HW236741   1.794   2.823   8.854 -0.0671  0.5409  1.9248
 8427SOL     OW36742   3.626   4.468   9.765  0.3514 -0.0754  0.1350
 8427SOL    HW136743   3.559   4.462   9.697 -1.5695 -0.4768  2.0533
 8427SOL    HW236744   3.568   4.488   9.839  0.2421 -1.3835  0.4103
 8428SOL     OW36745   4.566   0.580   7.212 -0.1655 -0.3760 -0.6026
 8428SOL    HW136746   4.617   0.649   7.255 -0.2790  0.8102 -2.3769
 8428SOL    HW236747   4.501   0.629   7.161  0.1150 -0.3210 -0.9061
 8429SOL     OW36748   0.647   1.202   3.839 -0.0458 -0.2834 -0.8296
 8429SOL    HW136749   0.684   1.153   3.912  1.0293 -1.7922 -2.3794
 8429SOL    HW236750   0.582   1.147   3.795 -1.1569  1.4587 -1.3780
 8430SOL     OW36751   3.104   4.344   4.979  0.4148  0.2819 -0.0903
 8430SOL    HW136752   3.153   4.330   5.060  0.1540  1.9620  0.3596
 8430SOL    HW236753   3.164   4.312   4.912 -1.2672  2.3718 -2.6059
 8431SOL     OW36754   0.439   1.450  14.922  0.1839 -0.3386 -0.6956
 8431SOL    HW136755   0.386   1.527  14.940 -0.7060 -0.7295 -1.6353
 8431SOL    HW236756   0.472   1.423  15.008  0.0064 -0.2767 -0.6091
 8432SOL     OW36757   3.758   3.057  11.269 -0.0328 -0.1931  0.2687
 8432SOL    HW136758   3.753   3.092  11.358 -2.2899 -1.3609  0.6112
 8432SOL    HW236759   3.850   3.074  11.250 -0.4087  0.3467 -1.0261
 8433SOL     OW36760   1.817   4.032  11.695  0.0010  0.0189  0.1474
 8433SOL    HW136761   1.761   4.043  11.772  2.0882  3.0211  1.2539
 8433SOL    HW236762   1.897   4.011  11.743  0.8970  0.3663 -1.1943
 8434SOL     OW36763   0.174   4.056   5.831  0.1970 -0.2421  0.1228
 8434SOL    HW136764   0.229   4.133   5.819  1.3170 -0.8329  1.5062
 8434SOL    HW236765   0.213   3.991   5.772 -0.3469  0.3895 -0.9487
 8435SOL     OW36766   2.403   1.681  16.757  0.5099 -0.2136  0.6422
 8435SOL    HW136767   2.323   1.729  16.739  1.3958  1.1998  0.4901
 8435SOL    HW236768   2.417   1.721  16.843 -1.5538  0.4733  0.6496
 8436SOL     OW36769   2.684   1.069   7.058 -0.1301 -0.0258  0.3832
 8436SOL    HW136770   2.740   1.147   7.055  0.0863 -0.1410  1.2016
 8436SOL    HW236771   2.712   1.013   6.986  0.9949 -2.3176  2.6059
 8437SOL     OW36772   2.998   3.051   1.376 -0.3771  0.2508 -0.0760
 8437SOL    HW136773   3.056   3.124   1.397 -0.8891  0.5342  0.3381
 8437SOL    HW236774   2.931   3.058   1.444  1.0932 -0.9042  1.4789
 8438SOL     OW36775   3.609   3.999   2.944  0.2529  0.3856  0.2919
 8438SOL    HW136776   3.663   3.976   3.020 -1.6870 -0.0514  1.5384
 8438SOL    HW236777   3.643   4.084   2.916  0.8027  0.2832  0.6515
 8439SOL     OW36778   3.714   0.100   4.962  0.7651  0.6135  0.0754
 8439SOL    HW136779   3.747   0.091   5.051 -0.2769  0.6444  0.4585
 8439SOL    HW236780   3.669   0.016   4.950 -0.6946  1.1516  1.8726
 8440SOL     OW36781   1.483   2.148  12.247  0.2035  0.1104 -0.7814
 8440SOL    HW136782   1.452   2.114  12.331  2.0479 -2.6663 -1.2477
 8440SOL    HW236783   1.407   2.188  12.203  0.7696 -0.1235 -1.9501
 8441SOL     OW36784   2.600   1.441   2.572  0.0484 -0.1490 -0.5488
 8441SOL    HW136785   2.610   1.424   2.665 -0.3963  0.4964 -0.3865
 8441SOL    HW236786   2.666   1.508   2.554  0.4227 -1.0939 -2.7141
 8442SOL     OW36787   1.899   1.206   2.069  0.5442 -0.3425  0.6450
 8442SOL    HW136788   1.937   1.176   2.151  1.6048  0.1099  0.3162
 8442SOL    HW236789   1.860   1.126   2.033 -1.4146  0.4451  1.0230
 8443SOL     OW36790   2.992   3.180  15.386 -0.4802  0.4115  0.4616
 8443SOL    HW136791   3.001   3.275  15.386 -0.1610  0.3785  1.2456
 8443SOL    HW236792   3.030   3.164  15.299  1.7438  2.1342  1.1409
 8444SOL     OW36793   4.130   0.970   8.000  0.0915  0.5182 -0.1811
 8444SOL    HW136794   4.097   0.959   7.911 -0.0933  0.7364 -0.1412
 8444SOL    HW236795   4.202   1.031   7.987  0.2612 -0.1202 -2.2750
 8445SOL     OW36796   2.503   4.043   2.929 -0.2946  0.3397 -0.0182
 8445SOL    HW136797   2.413   4.038   2.962 -0.6986 -0.1259 -1.2084
 8445SOL    HW236798   2.551   4.023   3.009 -1.1184  1.1562  0.6801
 8446SOL     OW36799   2.861   2.264   4.187 -0.1651  0.2139  0.2448
 8446SOL    HW136800   2.804   2.336   4.160 -1.5292 -0.3228  1.7419
 8446SOL    HW236801   2.879   2.215   4.106 -0.2423  1.5213 -0.5690
 8447SOL     OW36802   2.189   3.540   1.595  0.1914  0.1735 -0.1435
 8447SOL    HW136803   2.213   3.603   1.663  1.7002 -0.4413 -0.0959
 8447SOL    HW236804   2.270   3.545   1.545  0.7447 -1.1997  0.6141
 8448SOL     OW36805   4.243   4.099  11.859  0.2740 -0.0200 -0.2907
 8448SOL    HW136806   4.304   4.028  11.876  0.0369 -0.4139 -1.0895
 8448SOL    HW236807   4.299   4.171  11.887 -1.7728  0.4849  2.5429
 8449SOL     OW36808   0.442   2.625   2.502 -0.3683  0.1016 -0.1012
 8449SOL    HW136809   0.369   2.669   2.459  0.1679  0.6655 -0.4171
 8449SOL    HW236810   0.495   2.701   2.527 -0.3382  0.4132 -1.1327
 8450SOL     OW36811   2.375   0.418   0.607 -0.2205  0.4067 -0.5423
 8450SOL    HW136812   2.300   0.475   0.627 -1.0431 -0.9438  0.2306
 8450SOL    HW236813   2.368   0.355   0.679  0.3984  0.9297 -0.0288
 8451SOL     OW36814   1.323   4.473  16.051  0.4131 -0.2538  0.8742
 8451SOL    HW136815   1.230   4.449  16.043  0.4080  0.0982 -0.2276
 8451SOL    HW236816   1.372   4.400  16.012  0.0911  0.4028 -0.7646
 8452SOL     OW36817   0.688   4.686   8.489  0.3212  0.4632 -0.6381
 8452SOL    HW136818   0.745   0.036   8.516 -1.5160  1.5843  0.2135
 8452SOL    HW236819   0.608   0.012   8.511  0.0864  0.7880 -2.2565
 8453SOL     OW36820   1.999   1.435   1.952  0.0920  0.2304  0.0031
 8453SOL    HW136821   1.947   1.364   1.989 -1.0400  0.5243 -1.0201
 8453SOL    HW236822   2.089   1.415   1.979  0.0834 -1.8302 -1.5102
 8454SOL     OW36823   3.291   0.318   6.835 -0.0337 -0.3635  0.0365
 8454SOL    HW136824   3.328   0.333   6.922 -2.4121  1.2715  0.7656
 8454SOL    HW236825   3.321   0.228   6.824  1.3148  0.3685 -2.1304
 8455SOL     OW36826   2.996   1.926   6.710 -0.2432  0.6268 -0.3398
 8455SOL    HW136827   2.979   1.992   6.778  0.0490 -0.7211  1.0535
 8455SOL    HW236828   3.026   1.855   6.766 -2.3837  0.2818  0.3792
 8456SOL     OW36829   4.019   1.038   2.846  0.7414  0.0631  0.3932
 8456SOL    HW136830   4.099   1.056   2.895 -0.7587  0.1471  2.7869
 8456SOL    HW236831   4.051   1.049   2.756 -1.4541 -0.2113 -0.4324
 8457SOL     OW36832   4.574   2.059   2.032  0.2712 -0.1861 -0.0866
 8457SOL    HW136833   4.604   2.135   2.083  0.7676 -1.1308  1.0437
 8457SOL    HW236834   4.630   1.989   2.066  0.2465 -0.4213 -0.5335
 8458SOL     OW36835   2.623   1.766  13.723 -0.0302 -0.0216 -0.3942
 8458SOL    HW136836   2.615   1.674  13.748  0.6612 -0.1907 -0.7916
 8458SOL    HW236837   2.533   1.785  13.696 -0.5333 -2.3602 -0.3643
 8459SOL     OW36838   0.409   3.552   3.636 -0.1469 -0.1092 -0.3663
 8459SOL    HW136839   0.389   3.632   3.684 -1.6019 -1.2739  0.9587
 8459SOL    HW236840   0.375   3.570   3.548  0.4710 -1.1616 -0.8263
 8460SOL     OW36841   3.136   2.864   7.115  0.3624 -0.0127 -0.1408
 8460SOL    HW136842   3.102   2.875   7.204  1.6419  2.6826  0.0147
 8460SOL    HW236843   3.057   2.874   7.062  0.5196  0.2088 -0.3267
 8461SOL     OW36844   3.310   0.111   1.100 -0.3343  0.7014  0.5619
 8461SOL    HW136845   3.294   0.032   1.047  0.5215  0.0078  1.3386
 8461SOL    HW236846   3.383   0.150   1.052 -1.3204  1.5840 -0.2185
 8462SOL     OW36847   3.741   1.433   2.423  0.2183 -0.1379 -0.3890
 8462SOL    HW136848   3.794   1.418   2.345  0.1118 -0.3061 -0.4290
 8462SOL    HW236849   3.660   1.437   2.372 -0.6882 -1.6831  0.9071
 8463SOL     OW36850   2.374   4.367   1.850 -0.2060  0.1498 -0.1963
 8463SOL    HW136851   2.356   4.379   1.944  1.5235 -1.2118  0.3094
 8463SOL    HW236852   2.342   4.448   1.812 -1.5208 -1.0738 -1.7044
 8464SOL     OW36853   1.240   4.301   6.204  0.4064 -0.1299  0.1865
 8464SOL    HW136854   1.222   4.273   6.293 -1.0082  3.4529  1.0426
 8464SOL    HW236855   1.178   4.374   6.204  1.1672  0.4935  2.3467
 8465SOL     OW36856   0.225   0.799   9.471 -0.0916  0.6226 -0.4489
 8465SOL    HW136857   0.308   0.846   9.468 -0.4554  1.3724  0.8452
 8465SOL    HW236858   0.182   0.860   9.410 -1.6362  1.7267  1.7284
 8466SOL     OW36859   0.544   4.353  16.523  0.1822 -0.2268  0.1989
 8466SOL    HW136860   0.504   4.439  16.535  2.0642  1.1568 -3.3590
 8466SOL    HW236861   0.590   4.365  16.440 -0.0048  0.3763  0.1778
 8467SOL     OW36862   0.654   1.143   2.384  0.4385 -0.2074  0.4803
 8467SOL    HW136863   0.593   1.072   2.403 -0.4844 -0.6040 -3.9179
 8467SOL    HW236864   0.607   1.211   2.431  0.2989  0.0559 -0.0347
 8468SOL     OW36865   0.074   1.905   2.100  0.4772 -0.3231 -0.1064
 8468SOL    HW136866   0.139   1.975   2.094  0.7722 -0.6759 -1.0198
 8468SOL    HW236867   0.117   1.830   2.058 -2.8124 -2.0255 -0.4555
 8469SOL     OW36868   0.480   4.286   0.526  0.0242  0.2261  0.4525
 8469SOL    HW136869   0.498   4.225   0.598 -0.6295 -1.6914 -1.0088
 8469SOL    HW236870   0.561   4.338   0.524  0.5758 -0.8486 -5.2714
 8470SOL     OW36871   3.612   0.894   2.031  0.1857 -0.1918  0.2825
 8470SOL    HW136872   3.661   0.814   2.050  2.7519  1.6636  1.4440
 8470SOL    HW236873   3.613   0.895   1.936  1.4060  0.0362  0.3045
 8471SOL     OW36874   4.069   3.062   4.086  0.1038 -0.0739  0.6934
 8471SOL    HW136875   4.159   3.051   4.056 -0.1444 -0.6748  0.1762
 8471SOL    HW236876   4.032   3.098   4.005  2.2716 -1.3615 -0.8742
 8472SOL     OW36877   3.144   2.462   6.660  0.2082 -0.2006  0.7855
 8472SOL    HW136878   3.188   2.415   6.588  0.8341  2.3514 -0.4791
 8472SOL    HW236879   3.176   2.429   6.743  1.8249 -1.3584 -0.2863
 8473SOL     OW36880   0.613   1.486   4.190  0.2652  0.6819  0.4690
 8473SOL    HW136881   0.684   1.546   4.213 -0.7530  1.9889  0.2072
 8473SOL    HW236882   0.613   1.417   4.256 -3.1142  0.5572  0.3496
 8474SOL     OW36883   2.135   3.307   4.952 -0.2926 -0.3149  0.3455
 8474SOL    HW136884   2.199   3.238   4.937 -0.2323 -0.3137  0.6107
 8474SOL    HW236885   2.062   3.245   4.953 -0.9679  0.4631 -0.5574
 8475SOL     OW36886   1.329   0.932   7.347 -0.5545  0.2003  0.1092
 8475SOL    HW136887   1.305   0.845   7.315  0.7260  0.1834 -0.7827
 8475SOL    HW236888   1.244   0.974   7.358 -1.5885 -1.8778  0.0171
 8476SOL     OW36889   3.850   4.611  10.949  0.0855 -0.2958  0.3311
 8476SOL    HW136890   3.826   4.577  11.036 -3.2807  0.5208 -0.2647
 8476SOL    HW236891   3.759   4.629  10.923 -0.2075 -1.3540  0.5961
 8477SOL     OW36892   2.599   2.755  10.409  0.4531 -0.2964 -0.0077
 8477SOL    HW136893   2.636   2.817  10.346  1.4035 -0.7412  0.1114
 8477SOL    HW236894   2.563   2.692  10.348  1.8061 -0.9571 -0.1268
 8478SOL     OW36895   4.679   3.419   3.174  0.6084  0.4007 -0.0523
 8478SOL    HW136896   4.610   3.441   3.237  0.2438 -0.4781 -0.1370
 8478SOL    HW236897   4.627   3.405   3.095 -1.8999  0.6851  1.5373
 8479SOL     OW36898   0.106   4.593   2.570 -0.2874 -0.0684  0.2852
 8479SOL    HW136899   0.032   4.542   2.537 -1.6581  1.9958  0.1827
 8479SOL    HW236900   0.180   4.531   2.567 -1.2341 -1.0360 -2.5916
 8480SOL     OW36901   2.119   0.911   7.387  0.0851  0.4514  0.0527
 8480SOL    HW136902   2.077   0.837   7.343  2.0218 -0.6440  0.0449
 8480SOL    HW236903   2.061   0.984   7.371  0.0881  0.5596  0.5265
 8481SOL     OW36904   2.249   0.698   6.847  0.1380 -0.0511  0.0941
 8481SOL    HW136905   2.262   0.793   6.843  0.7257 -0.1850 -1.1585
 8481SOL    HW236906   2.308   0.648   6.790 -0.1620  0.5304 -0.7278
 8482SOL     OW36907   0.038   4.208  11.659 -0.1530 -0.9513  0.4122
 8482SOL    HW136908   0.099   4.227  11.588  1.0397  1.0261  1.9382
 8482SOL    HW236909   4.693   4.275  11.649  0.4223 -0.3365  0.6278
 8483SOL     OW36910   1.172   2.084   9.473  0.1181 -0.4191  0.1194
 8483SOL    HW136911   1.095   2.133   9.444 -1.0931 -1.8586  0.9256
 8483SOL    HW236912   1.145   2.013   9.414 -0.5807  0.0861 -0.1722
 8484SOL     OW36913   0.782   3.967   5.871 -0.0157  0.1419  0.2601
 8484SOL    HW136914   0.842   3.895   5.851  1.0931  0.9031  0.8247
 8484SOL    HW236915   0.697   3.937   5.840 -1.3479  1.0204  3.0496
 8485SOL     OW36916   4.159   3.766   8.604  0.6188  0.2395  0.2287
 8485SOL    HW136917   4.143   3.729   8.518 -2.7814  0.8059  0.6258
 8485SOL    HW236918   4.161   3.860   8.583 -0.0310  0.1775 -0.0959
 8486SOL     OW36919   3.028   2.381   7.653  0.2104  0.0476 -0.7099
 8486SOL    HW136920   3.046   2.426   7.736 -0.2237 -0.9759 -0.0699
 8486SOL    HW236921   2.959   2.324   7.688  0.7001 -0.1703 -0.0909
 8487SOL     OW36922   1.595   4.677   3.287  0.3009 -0.0459  0.6048
 8487SOL    HW136923   1.681   4.661   3.325  0.0913  0.7850  1.4256
 8487SOL    HW236924   1.599   0.041   3.245 -0.8288 -0.2712  0.0194
 8488SOL     OW36925   0.673   0.153   9.702 -0.2305  0.0133 -0.0243
 8488SOL    HW136926   0.590   0.110   9.723  0.5526 -1.9032 -0.8562
 8488SOL    HW236927   0.638   0.241   9.687 -1.4952 -0.3322  0.8631
 8489SOL     OW36928   2.093   2.191   9.559  0.0388  0.3135 -0.2038
 8489SOL    HW136929   2.102   2.111   9.507 -1.5152  0.0652 -0.0813
 8489SOL    HW236930   1.998   2.201   9.557 -0.1334 -0.9252  1.5907
 8490SOL     OW36931   1.393   0.179   6.158  0.0850  0.3514  0.0210
 8490SOL    HW136932   1.347   0.095   6.158 -0.1754  0.4896  0.4014
 8490SOL    HW236933   1.444   0.160   6.236 -0.5911 -0.2494  0.3167
 8491SOL     OW36934   3.362   3.150   2.197 -0.3095 -0.0150 -0.3592
 8491SOL    HW136935   3.453   3.150   2.170  0.3718  0.7723  1.8617
 8491SOL    HW236936   3.309   3.192   2.130  2.7949  2.7220 -1.1097
 8492SOL     OW36937   1.935   0.086   3.589 -0.1877 -0.2817 -0.2158
 8492SOL    HW136938   1.991   0.154   3.629 -1.6383  1.5939 -1.3658
 8492SOL    HW236939   1.865   0.094   3.654  1.5693 -0.6557  1.7087
 8493SOL     OW36940   1.429   0.448   6.454  0.6316  0.2542 -0.1723
 8493SOL    HW136941   1.368   0.431   6.383  0.4780 -3.5181  0.8530
 8493SOL    HW236942   1.374   0.495   6.516  1.1770  3.0213 -1.8089
 8494SOL     OW36943   3.781   4.226   4.575 -0.2880 -0.2176 -0.5702
 8494SOL    HW136944   3.852   4.165   4.552  1.0557  1.1447 -0.0672
 8494SOL    HW236945   3.801   4.257   4.664 -2.0937 -0.1887 -0.1702
 8495SOL     OW36946   0.929   4.223   4.215 -0.2296  0.6325  0.1687
 8495SOL    HW136947   0.971   4.233   4.129 -1.6504  1.2106 -0.4615
 8495SOL    HW236948   0.944   4.308   4.256  0.3560  1.6721 -2.2099
 8496SOL     OW36949   3.650   1.763  10.332 -0.5349 -0.9831 -0.4788
 8496SOL    HW136950   3.647   1.709  10.253  1.2888 -1.2148 -0.3872
 8496SOL    HW236951   3.652   1.689  10.393 -1.1287  0.3052  1.0956
 8497SOL     OW36952   4.455   1.620   3.057  0.2299  0.0762 -0.1947
 8497SOL    HW136953   4.521   1.641   2.992 -0.0782 -0.3184 -0.6340
 8497SOL    HW236954   4.375   1.612   3.005 -0.1817 -0.8633  0.5840
 8498SOL     OW36955   0.911   4.270   6.215 -0.4785  0.5192  0.2712
 8498SOL    HW136956   0.955   4.353   6.195  2.2925 -0.9032  0.5714
 8498SOL    HW236957   0.854   4.263   6.138 -1.0053  1.1170  0.6040
 8499SOL     OW36958   1.068   3.276  11.078 -0.0099 -0.0167 -0.1840
 8499SOL    HW136959   1.086   3.346  11.140  0.0681 -0.6415  0.4944
 8499SOL    HW236960   1.012   3.211  11.121 -2.9078  3.1226  0.7715
 8500SOL     OW36961   4.384   2.384  10.136  0.0887  0.4854  0.0208
 8500SOL    HW136962   4.301   2.432  10.132  0.7694  1.4923 -2.1811
 8500SOL    HW236963   4.386   2.355  10.045 -2.1687 -0.7947  0.3793
 8501SOL     OW36964   1.278   4.352   8.186  0.0191 -0.0354  0.2517
 8501SOL    HW136965   1.257   4.436   8.226 -1.1392  0.4963 -1.5057
 8501SOL    HW236966   1.251   4.357   8.095 -0.3321 -1.0832  0.2880
 8502SOL     OW36967   4.061   3.022  16.317 -0.1263 -0.0001  0.4071
 8502SOL    HW136968   4.005   3.075  16.374 -0.3319 -0.3470  0.5286
 8502SOL    HW236969   4.139   3.013  16.371  0.0671  2.2451  0.4685
 8503SOL     OW36970   0.620   4.548  13.051 -0.3749 -0.2330  0.0011
 8503SOL    HW136971   0.532   4.580  13.072  0.5521  0.8191  2.2652
 8503SOL    HW236972   0.662   4.552  13.136  0.0885  0.8321 -0.2685
 8504SOL     OW36973   2.130   4.425   3.501 -0.1032  0.0055  0.0240
 8504SOL    HW136974   2.068   4.364   3.462  0.3898 -0.9006  0.6771
 8504SOL    HW236975   2.150   4.489   3.432 -0.3959 -0.8961 -0.9005
 8505SOL     OW36976   2.453   1.095   8.976 -0.5073  0.2058 -0.3952
 8505SOL    HW136977   2.405   1.050   9.045 -0.6323  0.7268 -0.1397
 8505SOL    HW236978   2.492   1.170   9.020 -0.2303 -0.6803  0.8694
 8506SOL     OW36979   0.248   2.384  15.157 -0.2190  0.2788 -0.4064
 8506SOL    HW136980   0.316   2.391  15.090  0.2087 -2.2512 -0.2429
 8506SOL    HW236981   0.297   2.370  15.238  0.4345  2.7724 -0.3668
 8507SOL     OW36982   2.521   3.288   3.421 -0.2960 -0.5821 -0.3746
 8507SOL    HW136983   2.484   3.339   3.350  0.7875  0.2540 -0.3360
 8507SOL    HW236984   2.591   3.246   3.372  0.2757 -2.4456  1.9915
 8508SOL     OW36985   0.023   0.894   4.353 -0.2955  0.4352 -0.0829
 8508SOL    HW136986   0.014   0.976   4.402  2.2281 -0.8595  2.5621
 8508SOL    HW236987   4.656   0.887   4.319 -0.4603  0.9279  0.2494
 8509SOL     OW36988   3.581   0.717   3.100  1.1088  0.1520  0.2502
 8509SOL    HW136989   3.606   0.801   3.062  0.3055  0.0279 -0.5660
 8509SOL    HW236990   3.510   0.737   3.161  1.3591 -0.4748  0.7480
 8510SOL     OW36991   1.888   3.833  15.231 -0.3074  0.0846  0.5195
 8510SOL    HW136992   1.955   3.887  15.187  0.7561 -0.4908  1.4251
 8510SOL    HW236993   1.834   3.810  15.155  0.0708  2.6595 -0.5395
 8511SOL     OW36994   0.599   1.181  12.625  0.3503  0.0726  0.4923
 8511SOL    HW136995   0.600   1.252  12.690  3.5522  2.1907 -1.8472
 8511SOL    HW236996   0.666   1.203  12.560 -0.2936 -0.1662 -0.2576
 8512SOL     OW36997   2.777   2.787   1.401 -0.1029 -0.6010  0.2489
 8512SOL    HW136998   2.850   2.788   1.463  0.1799  3.0006 -0.1439
 8512SOL    HW236999   2.766   2.882   1.404  0.5946 -0.4809 -0.8448
 8513SOL     OW37000   2.056   4.381  13.425 -0.4848  0.7547 -0.0972
 8513SOL    HW137001   1.981   4.322  13.417  1.7661 -1.9946 -0.7120
 8513SOL    HW237002   2.074   4.403  13.516  1.9031 -0.1051 -0.3614
 8514SOL     OW37003   0.490   1.099   9.093 -1.1139  0.0501 -0.1192
 8514SOL    HW137004   0.561   1.034   9.096 -0.2083  1.0475 -0.1047
 8514SOL    HW237005   0.519   1.159   9.024  1.3443 -2.2028 -1.0683
 8515SOL     OW37006   2.726   3.182   2.424  0.5986 -0.1786 -0.2114
 8515SOL    HW137007   2.800   3.121   2.431  0.7902  0.0871  0.0963
 8515SOL    HW237008   2.656   3.117   2.418  0.6324 -0.2435  0.1182
 8516SOL     OW37009   1.582   1.874   4.966 -0.0589  0.1441 -0.0410
 8516SOL    HW137010   1.558   1.960   5.000 -1.0020  0.1123 -0.6252
 8516SOL    HW237011   1.620   1.823   5.038  1.8741  0.7843 -0.6124
 8517SOL     OW37012   0.765   4.624   5.998  0.1026  0.1040  0.0189
 8517SOL    HW137013   0.770   4.663   6.085  0.9473  1.3749 -0.6210
 8517SOL    HW237014   0.806   4.537   6.005 -2.1009 -1.3340 -4.7914
 8518SOL     OW37015   2.470   2.093   9.989  0.0163  0.1111  0.5472
 8518SOL    HW137016   2.490   2.130  10.075 -1.0257  0.7044  0.5253
 8518SOL    HW237017   2.543   2.032   9.976  0.2982  0.9810 -1.8337
 8519SOL     OW37018   1.190   2.985  14.708  0.6611  0.4949 -0.4999
 8519SOL    HW137019   1.255   3.041  14.664  1.1246  0.7452  0.5168
 8519SOL    HW237020   1.218   2.981  14.799 -1.5181 -4.3337 -0.0790
 8520SOL     OW37021   3.315   3.957   8.063  0.8341 -0.0385  1.1004
 8520SOL    HW137022   3.373   4.030   8.086  0.8467  0.2465  0.1874
 8520SOL    HW237023   3.268   3.926   8.140  0.2492  2.2038  1.6335
 8521SOL     OW37024   0.026   2.804   7.245  0.5118  0.5722  0.1654
 8521SOL    HW137025   0.085   2.800   7.170 -0.7018  1.2862 -0.8224
 8521SOL    HW237026   0.089   2.792   7.317 -1.1852 -0.0906  1.5481
 8522SOL     OW37027   2.060   3.278   3.107  0.3041  0.0661 -0.6093
 8522SOL    HW137028   2.125   3.269   3.177 -1.1224 -2.0548  0.4414
 8522SOL    HW237029   2.022   3.360   3.140 -1.5984 -1.2118  0.3679
 8523SOL     OW37030   2.078   3.765   5.450  0.3072  0.1216 -0.1799
 8523SOL    HW137031   2.095   3.712   5.528 -0.5597  1.5659  0.9926
 8523SOL    HW237032   2.115   3.851   5.473  0.0349  0.5372 -1.3132
 8524SOL     OW37033   4.266   0.226   0.770  0.2140  0.1082 -0.1839
 8524SOL    HW137034   4.323   0.150   0.760 -2.3440 -1.8403 -0.0030
 8524SOL    HW237035   4.201   0.196   0.832 -1.0901 -0.9977 -2.0807
 8525SOL     OW37036   1.414   3.995  10.758  0.4193 -0.1892 -0.4431
 8525SOL    HW137037   1.391   3.903  10.771 -0.4266  0.3564  2.0260
 8525SOL    HW237038   1.508   3.990  10.772  0.2520 -1.1573  0.3275
 8526SOL     OW37039   1.855   0.417   6.944 -0.7081  0.1370 -0.2215
 8526SOL    HW137040   1.832   0.413   7.037 -1.6973 -0.4617 -0.4895
 8526SOL    HW237041   1.774   0.449   6.904 -1.7712 -1.2390  0.8250
 8527SOL     OW37042   2.938   2.371  16.167  0.5521 -0.1485 -0.5906
 8527SOL    HW137043   2.887   2.452  16.176  0.7594 -0.3955  2.7039
 8527SOL    HW237044   2.969   2.383  16.077 -0.4378 -1.4788 -1.1127
 8528SOL     OW37045   2.707   1.731  12.098  0.0586  0.3601 -0.3162
 8528SOL    HW137046   2.755   1.650  12.078 -0.1649 -0.5854  2.9779
 8528SOL    HW237047   2.765   1.780  12.156  0.0975  0.0902 -0.1281
 8529SOL     OW37048   3.334   1.718   9.841  0.2702 -0.5721  0.2648
 8529SOL    HW137049   3.281   1.639   9.846 -3.7587  2.0824 -0.3907
 8529SOL    HW237050   3.419   1.690   9.807  1.1702 -1.6225  3.4155
 8530SOL     OW37051   4.534   3.046   2.658  0.0974 -0.3571  0.5192
 8530SOL    HW137052   4.470   3.041   2.587  2.1435 -1.6814 -1.2372
 8530SOL    HW237053   4.610   3.084   2.614 -0.2138 -0.9147 -0.4986
 8531SOL     OW37054   3.326   1.086   6.407 -0.3433 -0.0765  0.1876
 8531SOL    HW137055   3.333   1.141   6.485  0.2549  3.0438 -2.0473
 8531SOL    HW237056   3.232   1.067   6.411  0.0250 -2.1302 -0.7865
 8532SOL     OW37057   1.796   3.393  12.176  0.1420 -0.0100 -0.6396
 8532SOL    HW137058   1.863   3.325  12.173 -0.1336 -0.3919  2.1772
 8532SOL    HW237059   1.850   3.466  12.204  2.8649 -1.6163 -1.7104
 8533SOL     OW37060   2.742   0.874   3.138  0.3654 -0.2762  0.0568
 8533SOL    HW137061   2.671   0.814   3.115  0.9371 -1.1973  0.7063
 8533SOL    HW237062   2.794   0.821   3.198  1.8305 -0.5417 -1.4341
 8534SOL     OW37063   0.722   4.398  15.131  0.2749  0.6919 -0.1964
 8534SOL    HW137064   0.681   4.417  15.046 -2.0284  1.1203  1.0103
 8534SOL    HW237065   0.697   4.473  15.185  0.6112  0.0016  0.9108
 8535SOL     OW37066   1.202   1.763   8.061 -0.4162  0.1888  0.1138
 8535SOL    HW137067   1.294   1.753   8.037 -0.1445 -0.3533  1.3419
 8535SOL    HW237068   1.172   1.712   7.985  0.1838 -0.6983  0.4622
 8536SOL     OW37069   1.329   3.744   5.607  0.1256  0.1022  0.1360
 8536SOL    HW137070   1.339   3.701   5.522 -0.6635 -1.2782  0.7383
 8536SOL    HW237071   1.234   3.750   5.616  0.2527  1.3910  0.5691
 8537SOL     OW37072   3.744   1.545  11.868 -0.1899 -0.2163 -0.8498
 8537SOL    HW137073   3.795   1.485  11.922  2.5180  0.6274 -2.4914
 8537SOL    HW237074   3.658   1.509  11.890 -0.4231  1.6276  1.2740
 8538SOL     OW37075   1.651   0.409   9.699  0.0950  0.0335  0.0085
 8538SOL    HW137076   1.724   0.350   9.683  0.0376  0.0592 -0.3472
 8538SOL    HW237077   1.667   0.432   9.791 -0.7128  0.1831  0.1103
 8539SOL     OW37078   4.082   2.798   1.517  0.1396 -0.0217  0.1082
 8539SOL    HW137079   4.005   2.852   1.534  1.1131  1.5816 -0.5723
 8539SOL    HW237080   4.072   2.724   1.576  1.2726  0.7564  1.2655
 8540SOL     OW37081   2.416   4.223  17.084  0.2108 -0.4912  0.0554
 8540SOL    HW137082   2.324   4.198  17.083 -0.5221  2.2372 -0.8383
 8540SOL    HW237083   2.436   4.184  17.000  1.2321 -0.1701  0.1463
 8541SOL     OW37084   4.285   1.349   7.533 -0.0186  0.2264  0.0825
 8541SOL    HW137085   4.231   1.346   7.454 -3.3994  1.5239  2.3279
 8541SOL    HW237086   4.335   1.430   7.525 -0.2052  0.4650  1.2618
 8542SOL     OW37087   1.365   4.239   8.574 -0.6817  0.1814  0.2436
 8542SOL    HW137088   1.386   4.219   8.665 -0.0763 -1.5448 -0.2746
 8542SOL    HW237089   1.447   4.279   8.547  0.5520 -2.5963 -0.1596
 8543SOL     OW37090   2.247   4.339   2.856  0.0881 -0.0183  1.0652
 8543SOL    HW137091   2.330   4.383   2.874  1.8670 -2.2179 -1.7899
 8543SOL    HW237092   2.200   4.373   2.933 -0.6353 -2.1441  1.5839
 8544SOL     OW37093   0.329   3.164   3.279 -0.3564  0.0031  0.3950
 8544SOL    HW137094   0.278   3.244   3.291 -0.8775  0.0397 -2.2062
 8544SOL    HW237095   0.317   3.149   3.185 -1.5917  4.1099 -0.1038
 8545SOL     OW37096   3.106   3.238   0.662  0.2761 -0.2232 -0.8260
 8545SOL    HW137097   3.096   3.324   0.702  2.9254  0.2429 -1.2292
 8545SOL    HW237098   3.095   3.254   0.568 -2.1270  1.3289 -0.3050
 8546SOL     OW37099   2.793   3.114   4.175  0.1245 -0.1532 -0.2641
 8546SOL    HW137100   2.716   3.160   4.142  0.1841 -0.6868 -1.1532
 8546SOL    HW237101   2.864   3.162   4.130  0.8501 -0.9485  0.0319
 8547SOL     OW37102   1.848   1.661  10.332  0.0821  0.5779  0.1544
 8547SOL    HW137103   1.775   1.678  10.392 -0.1889 -1.0651  0.3028
 8547SOL    HW237104   1.921   1.621  10.381 -2.5713 -3.4199  0.8811
 8548SOL     OW37105   2.001   4.330  14.281  0.1491 -0.0620  0.1933
 8548SOL    HW137106   2.055   4.392  14.232 -0.9447  1.0594  0.3920
 8548SOL    HW237107   2.069   4.294  14.338  1.5247  0.9823 -0.7831
 8549SOL     OW37108   2.794   1.404   5.399  0.2044 -0.1112  0.3705
 8549SOL    HW137109   2.778   1.317   5.436 -2.2081  1.1152  2.2070
 8549SOL    HW237110   2.736   1.464   5.446 -2.0509 -0.0257 -2.5379
 8550SOL     OW37111   1.646   1.858   8.360 -0.7915 -0.0344  0.3027
 8550SOL    HW137112   1.675   1.818   8.278 -1.7785 -1.0664  0.4496
 8550SOL    HW237113   1.558   1.888   8.334  0.0819  0.6641 -1.8961
 8551SOL     OW37114   3.407   4.024   7.614 -0.3247  0.6912 -0.2129
 8551SOL    HW137115   3.422   3.951   7.554 -1.9677  1.0549 -1.0784
 8551SOL    HW237116   3.440   3.985   7.695 -2.9510  0.0175  0.5372
 8552SOL     OW37117   3.067   0.060   7.172  0.3524  0.0886  0.0115
 8552SOL    HW137118   3.051   0.017   7.256 -2.1552  2.1822  0.6172
 8552SOL    HW237119   3.075   4.701   7.123  2.9303  0.2157  0.2191
 8553SOL     OW37120   0.294   4.232   7.990 -1.3205  0.5464 -0.2233
 8553SOL    HW137121   0.334   4.317   7.977 -0.3120 -0.1150 -1.3752
 8553SOL    HW237122   0.216   4.262   8.037 -1.5478 -0.0748 -0.2023
 8554SOL     OW37123   2.159   1.572   0.366  0.2570 -0.1501  0.2353
 8554SOL    HW137124   2.237   1.544   0.414 -0.7315 -0.5220  1.6478
 8554SOL    HW237125   2.149   1.664   0.391  0.1632  0.0439 -0.5176
 8555SOL     OW37126   3.202   3.257  16.087 -0.8715  0.3616 -0.0878
 8555SOL    HW137127   3.219   3.192  16.155 -1.2498  1.8687  1.4510
 8555SOL    HW237128   3.159   3.204  16.020  0.8153 -3.0468  1.5761
 8556SOL     OW37129   3.817   2.845   6.894  0.0651 -0.1599  0.3590
 8556SOL    HW137130   3.761   2.923   6.890 -0.1536 -0.5328 -3.3119
 8556SOL    HW237131   3.753   2.779   6.921  0.7979 -1.8675 -2.1418
 8557SOL     OW37132   0.272   3.229   8.325  0.0690 -0.4403  0.0059
 8557SOL    HW137133   0.297   3.210   8.235 -2.7917  1.2096 -1.1094
 8557SOL    HW237134   0.239   3.142   8.349  0.5202 -0.9166 -1.1042
 8558SOL     OW37135   1.237   2.486  11.074 -0.3052 -0.5146 -0.0651
 8558SOL    HW137136   1.324   2.449  11.083 -0.6861 -1.5608 -0.6124
 8558SOL    HW237137   1.236   2.521  10.985 -0.5449 -0.4398 -0.0338
 8559SOL     OW37138   0.908   4.531   5.627 -0.5012  0.5510  0.1541
 8559SOL    HW137139   0.815   4.545   5.612  0.2155  1.8921 -3.0163
 8559SOL    HW237140   0.933   4.545   5.536  0.5417  0.3589  0.4039
 8560SOL     OW37141   3.332   0.535  15.207  0.0128 -0.0032  0.3782
 8560SOL    HW137142   3.397   0.533  15.277 -0.1555  1.4234  0.5617
 8560SOL    HW237143   3.277   0.466  15.244 -2.4252  0.5872 -2.1216
 8561SOL     OW37144   4.080   3.184   1.047 -0.2085  0.7759 -0.1919
 8561SOL    HW137145   4.147   3.138   0.996 -0.8159 -0.6753  0.3082
 8561SOL    HW237146   4.021   3.117   1.082 -1.0026  1.2282 -0.6513
 8562SOL     OW37147   1.179   4.121   7.533 -0.0666 -0.2111 -1.1072
 8562SOL    HW137148   1.269   4.149   7.549 -0.1097  0.3142 -1.7829
 8562SOL    HW237149   1.166   4.065   7.609  0.3327  1.3594  0.1311
 8563SOL     OW37150   3.110   2.034  14.695  0.5423 -0.9962 -0.3784
 8563SOL    HW137151   3.048   2.086  14.643  2.2082  1.0219 -0.3332
 8563SOL    HW237152   3.175   2.020  14.626  1.8191 -1.2369  0.8897
 8564SOL     OW37153   4.627   2.942   5.956  0.0386 -0.4642 -0.3269
 8564SOL    HW137154   4.591   2.929   6.044  1.4406 -1.0460  0.1526
 8564SOL    HW237155   4.719   2.936   5.981 -0.3086  1.3782  1.4307
 8565SOL     OW37156   1.013   0.509  11.070  0.0741  0.1272 -0.3479
 8565SOL    HW137157   0.985   0.555  11.149  2.4781 -1.1633  1.2251
 8565SOL    HW237158   0.937   0.528  11.015 -0.1771  0.5232  0.1405
 8566SOL     OW37159   3.217   0.529   7.154 -0.0620  0.1527 -0.1501
 8566SOL    HW137160   3.195   0.596   7.219 -1.6885 -0.3207 -0.2373
 8566SOL    HW237161   3.177   0.452   7.192  0.4701 -0.3034 -0.5107
 8567SOL     OW37162   1.678   1.465   2.333 -0.3650 -0.0201 -0.1552
 8567SOL    HW137163   1.666   1.534   2.267  2.3558 -0.7347 -1.4319
 8567SOL    HW237164   1.601   1.471   2.389  0.4123  0.8664  0.8085
 8568SOL     OW37165   4.533   4.677   7.733  0.4081 -1.0388  0.0358
 8568SOL    HW137166   4.459   4.618   7.727  0.8559 -1.6985  0.9771
 8568SOL    HW237167   4.606   4.627   7.696 -0.1743 -0.9115 -1.2786
 8569SOL     OW37168   2.799   0.565  11.635 -0.5822  0.2389 -0.4361
 8569SOL    HW137169   2.815   0.641  11.578  1.4913 -0.2436 -0.5138
 8569SOL    HW237170   2.763   0.608  11.713  0.9762 -1.1019  1.0115
 8570SOL     OW37171   4.693   1.539   1.556  0.4912  0.4612  0.3684
 8570SOL    HW137172   0.041   1.477   1.541 -1.6706 -1.8010 -0.3078
 8570SOL    HW237173   4.663   1.560   1.468 -1.0609  2.3132  1.3274
 8571SOL     OW37174   2.486   1.115   7.669 -0.2212 -0.0075  0.2410
 8571SOL    HW137175   2.439   1.116   7.586 -1.4478 -0.5742  0.9246
 8571SOL    HW237176   2.461   1.202   7.699  1.0205  0.5755 -0.4366
 8572SOL     OW37177   3.164   4.400  15.726 -0.3010 -0.3391 -0.2522
 8572SOL    HW137178   3.240   4.364  15.679 -1.3253 -0.2058 -1.9906
 8572SOL    HW237179   3.132   4.327  15.780 -0.4242 -1.0837 -1.3460
 8573SOL     OW37180   3.801   1.545   8.780  0.1886 -0.5465 -0.1862
 8573SOL    HW137181   3.769   1.610   8.842  0.4886  0.3819 -0.9959
 8573SOL    HW237182   3.838   1.604   8.714 -0.5122 -0.1484 -0.2191
 8574SOL     OW37183   1.593   1.024   8.199 -0.8949 -0.5767  0.4456
 8574SOL    HW137184   1.519   1.083   8.213 -0.5631  0.7245 -3.1334
 8574SOL    HW237185   1.573   1.010   8.106  0.0650  1.7236 -0.1250
 8575SOL     OW37186   3.993   1.013   8.223 -0.2807 -0.4339  0.1757
 8575SOL    HW137187   4.044   1.007   8.142  0.8916 -1.5975  0.9914
 8575SOL    HW237188   4.057   1.058   8.279  1.2125 -0.3432 -1.5944
 8576SOL     OW37189   2.098   2.738   6.201 -0.1044 -0.0787 -0.2946
 8576SOL    HW137190   2.102   2.699   6.289 -1.1843  0.3677 -0.0494
 8576SOL    HW237191   2.132   2.661   6.156 -1.7208 -0.4643 -0.8706
 8577SOL     OW37192   2.150   2.374   0.988 -0.1371  0.2088  0.4283
 8577SOL    HW137193   2.137   2.410   0.900 -1.2811  2.0408  1.3463
 8577SOL    HW237194   2.239   2.340   0.988 -0.2410 -0.0820 -3.1062
 8578SOL     OW37195   4.448   0.063  15.665 -0.4420  0.0918  0.0253
 8578SOL    HW137196   4.482   4.705  15.704  1.5981  0.2480 -1.4316
 8578SOL    HW237197   4.392   0.028  15.595  0.9953 -0.6515 -0.7552
 8579SOL     OW37198   0.663   0.623   8.440 -0.1301 -0.4652 -0.3511
 8579SOL    HW137199   0.662   0.717   8.460 -1.2195 -0.7704  1.0407
 8579SOL    HW237200   0.574   0.613   8.406 -0.3024  0.0443 -0.0579
 8580SOL     OW37201   2.091   0.654   7.102 -0.8667 -0.4573 -0.0113
 8580SOL    HW137202   2.158   0.708   7.060 -2.4608  0.2168 -1.6831
 8580SOL    HW237203   2.017   0.711   7.080  0.2889  0.3904 -1.7141
 8581SOL     OW37204   0.953   1.493   6.744  0.5791 -0.4334  0.6555
 8581SOL    HW137205   0.888   1.424   6.760 -0.5848  0.3914 -0.5778
 8581SOL    HW237206   1.030   1.436   6.737  1.7164  1.1988  0.0763
 8582SOL     OW37207   1.324   0.911   3.046 -0.1409 -1.0296 -0.3249
 8582SOL    HW137208   1.394   0.874   3.100 -0.3648 -1.4761 -0.3374
 8582SOL    HW237209   1.362   0.989   3.005 -0.9074 -0.3272  0.3209
 8583SOL     OW37210   0.208   3.493   8.320 -0.3620 -0.2130  0.0407
 8583SOL    HW137211   0.224   3.401   8.343 -1.4844 -0.9087 -1.9986
 8583SOL    HW237212   0.268   3.534   8.382 -2.5607  0.4087  1.7567
 8584SOL     OW37213   0.029   1.543   8.521  0.4921  0.1434  0.4535
 8584SOL    HW137214   0.010   1.636   8.507 -1.2670 -0.4939 -1.5457
 8584SOL    HW237215   0.032   1.540   8.616  0.6356  0.3603  0.4563
 8585SOL     OW37216   4.301   0.916   5.729  0.3861  0.7040 -0.4507
 8585SOL    HW137217   4.305   1.012   5.730 -1.4781  0.7823 -1.1406
 8585SOL    HW237218   4.333   0.904   5.819 -1.8898 -2.3324 -0.0576
 8586SOL     OW37219   0.793   4.531   0.340  0.0357  0.5113  0.1801
 8586SOL    HW137220   0.875   4.490   0.313 -0.3479  0.3550 -0.7432
 8586SOL    HW237221   0.772   4.495   0.426 -2.1028  1.7765  0.2048
 8587SOL     OW37222   3.980   2.133   9.147  0.3391 -0.0241 -0.1534
 8587SOL    HW137223   3.959   2.209   9.202 -0.9575  0.1381 -0.8742
 8587SOL    HW237224   4.058   2.167   9.105  1.5374  0.0860  2.1471
 8588SOL     OW37225   0.615   4.603   4.517 -0.5868 -0.0249  0.9705
 8588SOL    HW137226   0.638   4.673   4.457  1.8179 -2.1552 -0.5751
 8588SOL    HW237227   0.620   4.529   4.457  0.9306  0.3739  0.6097
 8589SOL     OW37228   4.262   3.389   8.028  0.6853  0.9857  0.0286
 8589SOL    HW137229   4.283   3.412   8.118  1.7682 -1.8352  0.4896
 8589SOL    HW237230   4.334   3.329   8.010  0.5734  0.7167  0.4946
 8590SOL     OW37231   0.378   3.795   3.030 -0.4195 -0.7574  0.2220
 8590SOL    HW137232   0.291   3.766   3.003 -0.4747  0.5978 -1.0449
 8590SOL    HW237233   0.361   3.889   3.033 -1.4343 -0.9436  0.4622
 8591SOL     OW37234   1.862   1.687   4.505  0.1992  0.0265 -0.3768
 8591SOL    HW137235   1.929   1.687   4.573 -0.1496  2.5482 -0.0259
 8591SOL    HW237236   1.905   1.636   4.436  0.4913 -0.5605  0.2402
 8592SOL     OW37237   1.990   1.127   7.821 -0.2073 -0.3977  0.2684
 8592SOL    HW137238   1.958   1.038   7.835 -0.5101 -0.5896 -1.5484
 8592SOL    HW237239   2.049   1.131   7.896 -0.2752  2.3100  0.1855
 8593SOL     OW37240   1.619   4.485   0.858 -0.1629 -0.1769 -0.4074
 8593SOL    HW137241   1.635   4.572   0.894 -3.7195  0.8717 -1.2598
 8593SOL    HW237242   1.633   4.506   0.765 -0.9774  2.9556  0.1800
 8594SOL     OW37243   4.442   2.259   2.295 -0.2412  0.2977  0.6931
 8594SOL    HW137244   4.475   2.288   2.380 -2.2218 -3.3522  2.7339
 8594SOL    HW237245   4.527   2.245   2.254 -1.2780 -1.0267 -1.0177
 8595SOL     OW37246   3.242   3.389   4.377 -0.2736  0.2800 -0.2516
 8595SOL    HW137247   3.297   3.321   4.415  1.0967  2.9234  2.4472
 8595SOL    HW237248   3.172   3.332   4.346  0.3269  0.5261 -2.0654
 8596SOL     OW37249   1.237   2.050   7.914 -0.8582 -0.5816  0.1854
 8596SOL    HW137250   1.249   2.029   8.007 -1.8574 -0.7349  0.2882
 8596SOL    HW237251   1.212   2.141   7.930 -1.7851 -0.6885 -0.6584
 8597SOL     OW37252   3.346   2.194   1.438  0.1182 -0.3413 -0.6237
 8597SOL    HW137253   3.331   2.105   1.471  0.7458  0.3481  1.5070
 8597SOL    HW237254   3.355   2.177   1.344 -0.3256 -1.8819 -0.3906
 8598SOL     OW37255   1.710   2.396  10.475  0.0884 -0.4767  0.1887
 8598SOL    HW137256   1.677   2.309  10.500 -1.6630 -0.1048 -0.8608
 8598SOL    HW237257   1.631   2.450  10.475 -0.2446 -0.9605  0.4150
 8599SOL     OW37258   1.758   0.800   3.584  0.6007  0.1631  0.4532
 8599SOL    HW137259   1.772   0.763   3.671 -1.2415 -1.5765  0.0221
 8599SOL    HW237260   1.848   0.823   3.562  0.0050  0.2014 -1.9496
 8600SOL     OW37261   4.084   3.988  14.918 -0.0714  0.1043  0.2494
 8600SOL    HW137262   4.065   4.052  14.849  3.8032  1.4385  0.4249
 8600SOL    HW237263   4.012   3.995  14.981  1.8448  0.8591  2.3420
 8601SOL     OW37264   1.320   0.445   8.680 -0.5092 -0.5285 -0.0772
 8601SOL    HW137265   1.340   0.488   8.597  2.7954  0.5473  1.2849
 8601SOL    HW237266   1.377   0.488   8.743 -0.7713  0.3710 -0.4497
 8602SOL     OW37267   4.712   4.582  12.861 -0.0563  0.2655 -0.6118
 8602SOL    HW137268   0.010   4.641  12.933  0.2717 -0.9556  0.2988
 8602SOL    HW237269   4.710   4.641  12.786  1.5987 -1.8571 -2.3047
 8603SOL     OW37270   3.880   4.242   5.969 -0.4887  0.5297  0.0222
 8603SOL    HW137271   3.815   4.230   5.900 -0.1981  2.1199 -0.5347
 8603SOL    HW237272   3.829   4.263   6.047  2.6671 -0.0067  2.2420
 8604SOL     OW37273   4.232   2.475   0.795 -0.2811 -0.0461 -0.7304
 8604SOL    HW137274   4.187   2.453   0.876  0.6851 -0.8212 -0.4009
 8604SOL    HW237275   4.237   2.387   0.756  2.3087 -0.6916  1.0534
 8605SOL     OW37276   0.018   0.871   1.019 -0.0436 -0.5837  0.5310
 8605SOL    HW137277   0.071   0.950   1.007 -1.6177  0.5425  0.9322
 8605SOL    HW237278   4.705   0.870   1.109  0.9129  0.6290  0.9098
 8606SOL     OW37279   2.637   1.812   1.600 -0.1756  0.1216 -0.3113
 8606SOL    HW137280   2.720   1.765   1.609 -1.8175 -2.8228 -0.4849
 8606SOL    HW237281   2.656   1.869   1.526 -0.2260  0.4512 -0.0696
 8607SOL     OW37282   3.166   2.709   1.417 -0.2502  0.4297 -0.1271
 8607SOL    HW137283   3.136   2.636   1.364  1.4615 -1.1600  1.1036
 8607SOL    HW237284   3.171   2.777   1.349 -1.9505  1.1374  0.4568
 8608SOL     OW37285   3.085   3.559   3.381 -0.4115 -0.2841 -0.1614
 8608SOL    HW137286   3.095   3.518   3.467 -2.5875 -1.6684 -0.5803
 8608SOL    HW237287   2.990   3.565   3.377 -0.4058 -2.3328 -3.0286
 8609SOL     OW37288   0.679   1.369   1.987 -1.0839 -0.2544  0.4101
 8609SOL    HW137289   0.759   1.356   2.038 -0.0042 -2.5072 -1.8317
 8609SOL    HW237290   0.617   1.328   2.047 -1.7717 -0.9834 -0.8008
 8610SOL     OW37291   4.659   0.984   3.690 -0.1059 -0.1052 -0.9514
 8610SOL    HW137292   4.610   0.915   3.645  0.5207 -1.5680  0.6014
 8610SOL    HW237293   0.022   0.940   3.684 -0.3556 -0.9108  1.5178
 8611SOL     OW37294   3.785   0.061   1.051  0.4523 -0.2629  0.4031
 8611SOL    HW137295   3.744   0.031   1.131  0.5455  2.2788  1.4112
 8611SOL    HW237296   3.872   0.021   1.057  0.9041  0.5129 -0.9384
 8612SOL     OW37297   0.874   2.363   5.302 -0.1865  0.2592 -0.2154
 8612SOL    HW137298   0.804   2.340   5.241  1.4021 -2.0705 -1.1760
 8612SOL    HW237299   0.880   2.287   5.359 -0.0087 -1.1213 -2.0738
 8613SOL     OW37300   4.370   0.621   1.302 -0.2030  0.4033 -0.6015
 8613SOL    HW137301   4.396   0.533   1.330 -2.6891  0.1102  0.7843
 8613SOL    HW237302   4.315   0.652   1.374 -0.4558  1.4015 -1.2301
 8614SOL     OW37303   2.557   2.699   7.396  0.0950  0.4305  0.3460
 8614SOL    HW137304   2.501   2.647   7.454  0.8494  0.9908  1.5940
 8614SOL    HW237305   2.569   2.631   7.331 -1.4624  0.1913  0.3055
 8615SOL     OW37306   4.713   1.736   5.445  0.2981 -0.6401 -0.2313
 8615SOL    HW137307   4.641   1.793   5.472 -0.7003 -1.9136 -0.2316
 8615SOL    HW237308   0.057   1.803   5.426  1.7631 -2.3746 -1.1978
 8616SOL     OW37309   3.570   2.801  16.950  0.2642 -0.1486 -0.3241
 8616SOL    HW137310   3.587   2.762  17.035 -2.0854 -1.1234 -0.3083
 8616SOL    HW237311   3.488   2.763  16.917  0.3805  0.5301 -1.4152
 8617SOL     OW37312   1.577   4.513  10.887  0.3077 -0.4314 -0.4616
 8617SOL    HW137313   1.531   4.597  10.898  0.4825 -0.0904 -2.3998
 8617SOL    HW237314   1.541   4.455  10.954 -0.8570  1.7103  0.7662
 8618SOL     OW37315   2.047   1.475   8.326 -0.0031  1.3426 -0.3061
 8618SOL    HW137316   2.014   1.478   8.416 -1.9915  1.0406 -1.0163
 8618SOL    HW237317   2.115   1.542   8.327  1.9924 -0.7047  2.5010
 8619SOL     OW37318   4.598   4.118   8.132 -0.1307 -0.2026  0.1271
 8619SOL    HW137319   4.661   4.190   8.128 -0.5663  0.2223  0.8599
 8619SOL    HW237320   4.652   4.050   8.092  1.0049  1.0691 -0.4885
 8620SOL     OW37321   3.600   2.716   8.430  0.3475  0.1714 -0.1540
 8620SOL    HW137322   3.572   2.768   8.505 -0.2404  0.5607 -0.6460
 8620SOL    HW237323   3.523   2.659   8.426 -1.7403  2.8074  1.9602
 8621SOL     OW37324   3.729   3.207  11.492  0.1506 -0.1903  0.1997
 8621SOL    HW137325   3.670   3.170  11.557  0.8028  0.4227  1.1373
 8621SOL    HW237326   3.654   3.255  11.456  1.2756  1.2651 -0.2121
 8622SOL     OW37327   1.802   0.740   5.971  0.1212  0.0585 -0.0693
 8622SOL    HW137328   1.873   0.678   5.955  1.1499  1.1806  0.1959
 8622SOL    HW237329   1.728   0.686   5.943 -0.1946 -1.4296  3.7278
 8623SOL     OW37330   2.450   2.221  10.251  0.0274  0.3771 -0.3655
 8623SOL    HW137331   2.416   2.309  10.236  1.0381  1.4014  3.3608
 8623SOL    HW237332   2.509   2.225  10.326 -0.2400 -0.3848 -0.1138
 8624SOL     OW37333   2.193   0.921   7.065 -0.6880 -0.3212  0.5584
 8624SOL    HW137334   2.177   1.010   7.098  0.3154 -0.2081  0.7483
 8624SOL    HW237335   2.199   0.945   6.972 -0.0051  0.2636  0.7547
 8625SOL     OW37336   3.868   4.214   2.675  0.1606 -0.7460  0.3245
 8625SOL    HW137337   3.857   4.125   2.641 -3.8789 -0.3144  0.4603
 8625SOL    HW237338   3.938   4.245   2.617 -1.1831  0.2434 -0.7623
 8626SOL     OW37339   3.589   1.695   2.961  0.3494  0.2145  0.0171
 8626SOL    HW137340   3.641   1.766   2.921 -1.0350  0.4684 -1.3387
 8626SOL    HW237341   3.661   1.643   2.996 -1.3025 -0.9858  1.6070
 8627SOL     OW37342   1.743   0.428  10.362  0.4839  0.4778  0.5399
 8627SOL    HW137343   1.760   0.522  10.363  1.0702  0.3524  1.9619
 8627SOL    HW237344   1.712   0.422  10.272  1.3073 -0.0215  0.2874
 8628SOL     OW37345   4.674   0.668  15.165  0.0584  0.2402  0.0484
 8628SOL    HW137346   4.613   0.695  15.233  1.3073  0.4028  1.1174
 8628SOL    HW237347   4.642   0.580  15.144 -0.2460  0.7567 -1.6188
 8629SOL     OW37348   2.346   2.922   6.265  0.1931 -0.2751 -0.0401
 8629SOL    HW137349   2.294   2.866   6.322 -0.8160  3.1726  2.4415
 8629SOL    HW237350   2.387   2.859   6.207 -1.8340 -1.3779 -0.2822
 8630SOL     OW37351   3.118   1.396   4.076  0.0168 -0.7351 -0.4962
 8630SOL    HW137352   3.155   1.372   4.161  0.7686 -0.5880 -0.7816
 8630SOL    HW237353   3.149   1.486   4.063  2.7165 -1.5232  0.4340
 8631SOL     OW37354   1.737   2.297   0.126  0.0952  0.1166  0.1784
 8631SOL    HW137355   1.780   2.382   0.121 -1.3465  1.0794  4.6192
 8631SOL    HW237356   1.668   2.316   0.189  0.9350 -0.4781  1.2692
 8632SOL     OW37357   4.423   4.706   4.970  0.6157 -0.0147 -0.1026
 8632SOL    HW137358   4.471   4.704   5.053 -0.5188 -2.2454  0.5036
 8632SOL    HW237359   4.447   4.623   4.928  3.7421  0.7526  0.1769
 8633SOL     OW37360   1.816   2.807  13.951 -0.4155 -0.5531 -0.0221
 8633SOL    HW137361   1.816   2.744  14.023  1.0784  1.0041  1.3574
 8633SOL    HW237362   1.743   2.861  13.982 -0.3206  0.4032 -1.4530
 8634SOL     OW37363   1.071   1.220  12.739 -0.3207  0.6932  0.2793
 8634SOL    HW137364   1.066   1.257  12.651 -1.1643  0.8354  0.3886
 8634SOL    HW237365   1.144   1.257  12.789 -1.2225  0.9262  1.4214
 8635SOL     OW37366   0.182   3.501   8.669  0.0439  0.7463 -0.4466
 8635SOL    HW137367   0.137   3.488   8.753  1.2421 -0.0832  0.0763
 8635SOL    HW237368   0.252   3.440   8.691 -1.2191 -0.5160  0.0559
 8636SOL     OW37369   1.632   0.774  10.713  0.4454  0.2608  0.2599
 8636SOL    HW137370   1.671   0.692  10.683 -0.9068 -0.2121 -0.1740
 8636SOL    HW237371   1.626   0.826  10.633  0.4896 -1.3404 -0.7930
 8637SOL     OW37372   4.068   2.129  14.918 -0.0155 -0.2356  0.1876
 8637SOL    HW137373   4.036   2.098  15.003 -0.0135  1.8290  0.9291
 8637SOL    HW237374   4.108   2.211  14.945  0.2260 -0.4910  0.5998
 8638SOL     OW37375   2.970   2.479   8.410  0.0687  0.5465 -0.4971
 8638SOL    HW137376   2.896   2.479   8.349 -1.2164 -0.2017  1.0703
 8638SOL    HW237377   2.971   2.394   8.455  1.5682  1.3259  0.9244
 8639SOL     OW37378   1.259   3.519   7.150  0.2674 -0.6912  0.1089
 8639SOL    HW137379   1.276   3.528   7.056 -0.2889 -1.2045 -0.0415
 8639SOL    HW237380   1.336   3.566   7.183  1.0746  0.1649 -2.9282
 8640SOL     OW37381   4.620   3.602   2.706  0.6506  0.3014 -0.6246
 8640SOL    HW137382   4.636   3.685   2.662 -0.5520  1.2474  0.7129
 8640SOL    HW237383   4.706   3.559   2.704  0.9649  0.9275 -0.2762
 8641SOL     OW37384   0.384   4.240  11.132 -0.5802  0.3896 -0.1074
 8641SOL    HW137385   0.446   4.168  11.123 -0.1727  0.6897  0.3068
 8641SOL    HW237386   0.447   4.304  11.166  1.3349  0.0173 -3.0240
 8642SOL     OW37387   0.461   3.638  14.325  0.5472 -0.3788  0.1417
 8642SOL    HW137388   0.515   3.716  14.336  0.3919 -0.3769  0.9245
 8642SOL    HW237389   0.383   3.685  14.354  2.0793  2.7740 -0.7715
 8643SOL     OW37390   0.530   0.404   1.399 -0.3685  0.3403 -0.2060
 8643SOL    HW137391   0.529   0.371   1.488  0.5293  0.7046 -0.0673
 8643SOL    HW237392   0.565   0.327   1.354 -1.7894 -0.1960 -0.4137
 8644SOL     OW37393   1.414   1.454   1.072  0.3046 -0.2512 -0.3613
 8644SOL    HW137394   1.372   1.405   1.143  0.5985  1.4333  0.9629
 8644SOL    HW237395   1.478   1.390   1.041  0.2339 -0.7215  0.4589
 8645SOL     OW37396   1.254   0.256   0.891 -0.2753  0.1178  0.4962
 8645SOL    HW137397   1.345   0.239   0.867 -0.6143  3.1826 -2.9792
 8645SOL    HW237398   1.272   0.308   0.969 -0.1373  0.0677  0.4978
 8646SOL     OW37399   2.508   3.284   2.909 -0.5259  0.8621  0.2908
 8646SOL    HW137400   2.538   3.204   2.866 -0.7069  0.0830  1.6139
 8646SOL    HW237401   2.413   3.278   2.910 -0.6717  3.2806  0.4874
 8647SOL     OW37402   1.064   3.861  13.764 -0.2175  0.1291  0.0196
 8647SOL    HW137403   1.084   3.941  13.716 -1.2469  1.7350  2.2850
 8647SOL    HW237404   1.032   3.903  13.844 -1.9812 -1.0293 -0.0705
 8648SOL     OW37405   0.731   0.467   9.888 -0.5473  0.1078  0.1319
 8648SOL    HW137406   0.672   0.514   9.946 -0.0550  0.8363  0.0464
 8648SOL    HW237407   0.692   0.483   9.802 -1.5986  2.5015  1.0783
 8649SOL     OW37408   1.003   0.646   3.340  0.4720 -0.2062 -0.3436
 8649SOL    HW137409   0.999   0.712   3.270 -0.8659  1.0789  0.9285
 8649SOL    HW237410   0.972   0.693   3.418 -1.7151 -1.8297 -0.2481
 8650SOL     OW37411   2.250   1.942   0.923 -0.6641 -0.6090  0.3364
 8650SOL    HW137412   2.252   2.014   0.859  1.1477 -0.7903  0.2014
 8650SOL    HW237413   2.205   1.976   1.000  2.8914 -0.2074  2.2330
 8651SOL     OW37414   1.743   1.766   8.706  0.8237 -0.1155 -0.4119
 8651SOL    HW137415   1.793   1.837   8.747 -0.3403  1.5590 -1.9046
 8651SOL    HW237416   1.704   1.734   8.788  0.7942  1.2523  0.1082
 8652SOL     OW37417   0.529   2.579   5.552  0.1669  0.0240 -0.2685
 8652SOL    HW137418   0.564   2.489   5.554 -1.7794 -0.7435 -0.1815
 8652SOL    HW237419   0.568   2.630   5.623  0.1882  0.7222 -0.7816
 8653SOL     OW37420   0.666   3.782   5.141 -0.1932  0.5554  0.0171
 8653SOL    HW137421   0.636   3.693   5.127  0.0899  0.1127  2.0942
 8653SOL    HW237422   0.591   3.828   5.179 -1.2098 -0.6678 -0.5267
 8654SOL     OW37423   4.217   0.497  16.559  0.0197  0.3151 -0.5335
 8654SOL    HW137424   4.192   0.555  16.631  1.9150  0.6086 -0.0918
 8654SOL    HW237425   4.222   0.559  16.486 -0.2959  1.2511  0.2350
 8655SOL     OW37426   3.988   0.284   4.511 -0.2547  0.0689  0.5326
 8655SOL    HW137427   4.034   0.359   4.472  1.4574 -0.1444  2.1551
 8655SOL    HW237428   3.915   0.280   4.449  1.4733 -0.6561 -1.4738
 8656SOL     OW37429   2.078   2.051   2.037 -0.3817  0.2994 -0.0259
 8656SOL    HW137430   2.146   2.096   2.087 -0.9664  0.4679  0.6214
 8656SOL    HW237431   2.049   1.991   2.105 -0.9987 -1.5068 -1.8852
 8657SOL     OW37432   3.203   3.141  17.066 -0.0937  0.1774  0.3534
 8657SOL    HW137433   3.157   3.178  17.141 -1.3217 -0.0050 -0.3130
 8657SOL    HW237434   3.244   3.069  17.114  0.0094 -1.8461 -2.7567
 8658SOL     OW37435   1.307   0.522   5.816 -0.0500 -0.3424  0.9951
 8658SOL    HW137436   1.257   0.556   5.890 -1.1808 -0.4642  0.2959
 8658SOL    HW237437   1.299   0.426   5.820  2.4383 -0.5870 -0.0731
 8659SOL     OW37438   0.985   2.711   5.199  0.1997 -0.3032 -0.3833
 8659SOL    HW137439   1.019   2.676   5.116  1.7949 -3.3189  1.5395
 8659SOL    HW237440   0.894   2.728   5.173 -0.5258 -1.5264  1.3666
 8660SOL     OW37441   4.307   4.513   4.272 -0.3983  0.5804 -0.2239
 8660SOL    HW137442   4.223   4.501   4.316 -1.0052  0.3719 -1.4333
 8660SOL    HW237443   4.285   4.482   4.184  1.5603 -0.8529 -0.2066
 8661SOL     OW37444   2.953   0.309  15.930  0.0311  0.4376 -0.2702
 8661SOL    HW137445   2.858   0.299  15.944 -0.0561  0.2385 -1.0141
 8661SOL    HW237446   2.968   0.348  16.016 -2.8905 -3.1085  1.8296
 8662SOL     OW37447   2.331   0.392   3.164 -0.6138 -0.2548  0.9687
 8662SOL    HW137448   2.296   0.465   3.215  1.9327  1.1622  0.6956
 8662SOL    HW237449   2.360   0.431   3.081  1.7465  0.6858  2.2258
 8663SOL     OW37450   1.740   0.318   5.899 -0.2695 -0.4531 -0.2787
 8663SOL    HW137451   1.790   0.342   5.978  1.7489  1.8436 -2.2392
 8663SOL    HW237452   1.675   0.388   5.890  2.0753  1.7593 -0.3438
 8664SOL     OW37453   1.306   3.369   6.862  0.0230 -0.2105 -0.6284
 8664SOL    HW137454   1.216   3.383   6.832 -0.3532 -0.1505  0.5450
 8664SOL    HW237455   1.338   3.294   6.811  0.1210 -1.9226  1.9440
 8665SOL     OW37456   1.880   2.577  11.032 -0.1319 -0.1412  0.4522
 8665SOL    HW137457   1.845   2.666  11.033 -0.1680 -0.1263 -2.4510
 8665SOL    HW237458   1.860   2.560  10.940 -2.8170  1.8938  0.6724
 8666SOL     OW37459   0.959   1.930   4.417  0.5459 -0.8253  0.2882
 8666SOL    HW137460   1.011   1.873   4.473  1.4202 -0.6716 -0.3734
 8666SOL    HW237461   1.037   1.976   4.386  0.2855 -1.1032 -0.7949
 8667SOL     OW37462   1.101   4.055  17.307  0.1029  0.6704  0.2802
 8667SOL    HW137463   1.017   4.075  17.267  0.5256  0.4014 -0.7501
 8667SOL    HW237464   1.091   4.092  17.395  1.5072 -1.1555  1.2407
 8668SOL     OW37465   0.625   3.507   9.239  0.3021  0.2094 -0.1200
 8668SOL    HW137466   0.572   3.453   9.180 -0.3995  0.9511 -0.1671
 8668SOL    HW237467   0.673   3.439   9.286  1.1417  0.7686 -0.1621
 8669SOL     OW37468   0.621   0.168   2.522  0.3991 -0.0072 -0.1613
 8669SOL    HW137469   0.543   0.138   2.569 -0.3507  0.4684 -1.1141
 8669SOL    HW237470   0.597   0.183   2.430 -0.0210 -0.5959 -0.1466
 8670SOL     OW37471   3.889   3.088   8.162 -0.4085 -0.3630 -0.0798
 8670SOL    HW137472   3.855   3.101   8.251 -0.1268  1.5862 -0.2610
 8670SOL    HW237473   3.904   3.182   8.147 -0.8332 -0.5388 -1.6537
 8671SOL     OW37474   2.708   1.057  11.359 -0.8765 -0.4469  0.1125
 8671SOL    HW137475   2.633   1.109  11.329  0.2136  1.3639  0.5442
 8671SOL    HW237476   2.770   1.075  11.289 -0.6918  2.7675  1.0993
 8672SOL     OW37477   0.565   0.010   2.019  0.2401 -0.4626  0.8130
 8672SOL    HW137478   0.517   4.679   2.082  0.9149  1.3659  2.8763
 8672SOL    HW237479   0.593   4.680   1.944 -1.1925 -1.3680  0.9075
 8673SOL     OW37480   3.774   4.158   3.281  0.3988 -0.0289 -0.0014
 8673SOL    HW137481   3.742   4.243   3.313 -0.8168 -0.4068 -0.1840
 8673SOL    HW237482   3.697   4.104   3.302 -0.7310  0.9399 -1.6044
 8674SOL     OW37483   1.460   2.638   6.504 -0.3814  0.4648  0.2516
 8674SOL    HW137484   1.543   2.661   6.463 -1.6630 -0.7340 -3.0583
 8674SOL    HW237485   1.489   2.633   6.595 -1.7139  2.4853  0.7853
 8675SOL     OW37486   0.294   1.910   6.933 -0.1401 -0.2910  0.2845
 8675SOL    HW137487   0.337   1.829   6.961  0.7425  0.2084  0.3819
 8675SOL    HW237488   0.235   1.926   7.007  0.3522  1.2241  0.3488
 8676SOL     OW37489   3.126   4.588   3.527 -0.4298 -0.0770  0.3479
 8676SOL    HW137490   3.125   4.492   3.522 -0.7534  0.0065 -1.1544
 8676SOL    HW237491   3.104   4.613   3.437  0.5455 -3.1871 -0.7776
 8677SOL     OW37492   0.130   3.034   2.852  0.2807 -0.0106 -0.3040
 8677SOL    HW137493   0.126   3.119   2.808 -0.2975 -0.6814 -1.5691
 8677SOL    HW237494   0.134   2.975   2.776 -0.2647  0.3385 -0.5989
 8678SOL     OW37495   3.180   2.790  16.283 -0.7909  0.0529 -0.0585
 8678SOL    HW137496   3.243   2.718  16.286 -0.3661  0.3751 -1.0962
 8678SOL    HW237497   3.230   2.871  16.290  0.4464 -0.5557 -1.7220
 8679SOL     OW37498   1.115   1.276   6.639 -0.4874 -0.5602  0.0910
 8679SOL    HW137499   1.082   1.230   6.562  0.1060 -1.0844  0.1485
 8679SOL    HW237500   1.186   1.220   6.669  1.8818  0.8722 -2.7754
 8680SOL     OW37501   4.396   3.373   3.848 -0.2907  0.0586  0.2416
 8680SOL    HW137502   4.370   3.300   3.792  0.8166 -0.8353  0.8914
 8680SOL    HW237503   4.482   3.343   3.876 -0.4373  2.2684  3.1684
 8681SOL     OW37504   4.017   4.214   7.874 -0.7038 -0.2824  0.0444
 8681SOL    HW137505   3.967   4.295   7.868  0.3419  0.3563 -0.1657
 8681SOL    HW237506   4.028   4.181   7.785 -1.2003  0.8838 -0.4509
 8682SOL     OW37507   2.546   1.362   1.827  0.6378  0.0888 -0.1314
 8682SOL    HW137508   2.571   1.316   1.747 -1.3565  1.5799 -1.6018
 8682SOL    HW237509   2.468   1.408   1.796  1.6054  0.2698 -2.2996
 8683SOL     OW37510   1.395   0.672   4.483 -0.0206  0.3807 -0.0655
 8683SOL    HW137511   1.394   0.618   4.561 -0.3969 -0.8520 -0.9267
 8683SOL    HW237512   1.477   0.719   4.497 -0.0515  0.1127  0.9939
 8684SOL     OW37513   1.008   4.705   7.228 -0.1647  0.3171 -0.1645
 8684SOL    HW137514   0.965   4.660   7.300  0.7088 -0.8588 -0.3842
 8684SOL    HW237515   1.015   4.635   7.164  0.3856  0.9346 -0.7819
 8685SOL     OW37516   4.410   1.457   4.168  0.0743  0.1641 -0.3189
 8685SOL    HW137517   4.427   1.482   4.078 -3.7890  1.9858 -0.5183
 8685SOL    HW237518   4.430   1.541   4.208 -1.8493  1.6301 -2.4820
 8686SOL     OW37519   1.158   2.879   6.296 -0.2895  0.2010 -0.1708
 8686SOL    HW137520   1.083   2.922   6.253  0.1029  0.7752 -0.2839
 8686SOL    HW237521   1.229   2.885   6.233 -0.7858  3.8368 -0.4035
 8687SOL     OW37522   3.278   0.862   2.680 -0.1295  0.1330 -0.1607
 8687SOL    HW137523   3.320   0.947   2.695 -1.4960  0.5665  1.0972
 8687SOL    HW237524   3.188   0.874   2.710 -0.1219 -2.3899  0.8936
 8688SOL     OW37525   3.281   2.877  17.117 -0.1232 -0.3679 -0.1899
 8688SOL    HW137526   3.334   2.798  17.113 -0.7858 -0.7375 -1.5655
 8688SOL    HW237527   3.196   2.833  17.109 -0.2711 -0.2353  0.6091
 8689SOL     OW37528   1.097   4.017   5.817  0.0642 -0.8933  0.1363
 8689SOL    HW137529   1.130   4.107   5.814 -0.8832 -0.5039  1.1788
 8689SOL    HW237530   1.078   3.990   5.727  0.5969  0.2526 -0.3287
 8690SOL     OW37531   1.660   2.336   3.308 -0.1831 -0.4822  0.0672
 8690SOL    HW137532   1.603   2.412   3.317  1.2925  0.1205  4.1603
 8690SOL    HW237533   1.655   2.286   3.390 -0.9627  0.4131  0.5599
 8691SOL     OW37534   3.757   2.192   5.000  0.0340 -0.0274  0.2035
 8691SOL    HW137535   3.738   2.229   5.086  0.0495 -0.3339  0.3388
 8691SOL    HW237536   3.767   2.097   5.013 -0.9639 -0.2989 -1.0634
 8692SOL     OW37537   0.956   2.166   3.447  0.2434  0.1864 -0.4193
 8692SOL    HW137538   0.978   2.095   3.507  2.3316  0.7762 -0.4984
 8692SOL    HW237539   0.881   2.201   3.494  1.1014  0.2566  0.9055
 8693SOL     OW37540   3.142   0.023   8.241 -0.2110  0.0239 -0.1864
 8693SOL    HW137541   3.180   0.069   8.315 -2.6811 -1.6203  2.0780
 8693SOL    HW237542   3.068   4.705   8.287 -0.4151  0.8532  0.2151
 8694SOL     OW37543   4.021   1.151  15.390 -0.1112 -0.0407  0.3630
 8694SOL    HW137544   3.959   1.164  15.318 -0.9253  0.5718  1.1662
 8694SOL    HW237545   3.958   1.112  15.450 -2.0998 -0.6747 -2.1067
 8695SOL     OW37546   3.029   1.953  13.237  0.3554  0.8363 -0.0329
 8695SOL    HW137547   2.965   1.883  13.246 -0.1463  1.1159 -1.4819
 8695SOL    HW237548   3.035   1.971  13.331  4.3850  0.9950 -0.2894
 8696SOL     OW37549   4.250   1.958   4.337 -0.0417  0.3407 -0.1176
 8696SOL    HW137550   4.200   1.975   4.257  0.3996 -0.1247 -0.4982
 8696SOL    HW237551   4.229   2.036   4.389 -1.3683  0.4159 -0.7580
 8697SOL     OW37552   4.686   1.003   0.189 -0.1999 -0.4429 -0.5576
 8697SOL    HW137553   4.600   1.009   0.231  0.3966  1.1719  0.3977
 8697SOL    HW237554   4.675   0.912   0.161  1.9331 -0.5685 -0.9589
 8698SOL     OW37555   3.380   3.039   2.973  0.5359 -0.1480  0.1497
 8698SOL    HW137556   3.293   3.046   2.934  0.4535 -0.6182  0.2517
 8698SOL    HW237557   3.407   3.130   2.957  1.2351  0.1407  2.8945
 8699SOL     OW37558   4.629   2.545   6.514  0.9085  0.5293  0.1415
 8699SOL    HW137559   4.718   2.542   6.480  0.6864 -2.6496 -0.2053
 8699SOL    HW237560   4.594   2.600   6.444 -0.6842  1.7779  1.9338
 8700SOL     OW37561   3.345   3.353   9.608  0.4712 -0.2932 -0.8499
 8700SOL    HW137562   3.410   3.406   9.655 -0.4818 -1.0280  1.2958
 8700SOL    HW237563   3.303   3.314   9.685  1.9306  0.6765  0.4429
 8701SOL     OW37564   0.053   2.944  17.491 -0.1286  0.3181 -0.0579
 8701SOL    HW137565   0.111   2.871  17.468 -0.2147  1.0000 -2.4324
 8701SOL    HW237566   0.120   3.005  17.522 -0.1092  0.8403 -1.1383
 8702SOL     OW37567   3.160   2.004  12.099  0.2514 -0.1982  0.3319
 8702SOL    HW137568   3.075   1.968  12.124 -0.7180  2.4929  0.8741
 8702SOL    HW237569   3.139   2.093  12.071  0.1613 -0.8992 -1.8339
 8703SOL     OW37570   0.373   2.253   2.546  0.4268  0.2182  0.2419
 8703SOL    HW137571   0.459   2.291   2.562  0.8613 -1.0438  0.8820
 8703SOL    HW237572   0.377   2.193   2.621 -3.9672 -1.2761 -0.7075
 8704SOL     OW37573   3.828   3.079   6.341 -0.1703 -0.3598  0.2929
 8704SOL    HW137574   3.858   3.024   6.413  0.1182 -2.7885 -1.6846
 8704SOL    HW237575   3.900   3.069   6.278 -0.8859  1.5050 -0.8376
 8705SOL     OW37576   0.888   2.350   2.497 -0.5973 -0.1160  0.4108
 8705SOL    HW137577   0.881   2.320   2.407  0.6559  0.8721 -0.0106
 8705SOL    HW237578   0.962   2.411   2.491 -0.5121 -0.3874 -1.3138
 8706SOL     OW37579   2.722   2.179   4.799  0.7360  0.4822 -0.0273
 8706SOL    HW137580   2.663   2.197   4.872 -1.2297  0.5374 -1.6360
 8706SOL    HW237581   2.669   2.217   4.729  0.2256  0.0805  0.1424
 8707SOL     OW37582   0.142   3.802   5.210  0.0860  0.2607  0.2208
 8707SOL    HW137583   0.063   3.852   5.187  0.6733  0.4379 -1.4037
 8707SOL    HW237584   0.119   3.753   5.289  1.1015 -0.3653  0.1116
 8708SOL     OW37585   3.263   4.420   3.362  0.2442  0.0900 -0.1360
 8708SOL    HW137586   3.318   4.379   3.295 -0.6503  0.4556 -1.0977
 8708SOL    HW237587   3.269   4.513   3.340 -0.5202  0.1528 -0.0554
 8709SOL     OW37588   2.655   1.349  10.131  0.0676  0.4594  0.0039
 8709SOL    HW137589   2.707   1.273  10.158  1.3838  2.1002  2.1005
 8709SOL    HW237590   2.619   1.373  10.216  1.9804 -1.9467  1.5263
 8710SOL     OW37591   1.513   0.601   1.799  0.2848  0.4586 -0.9745
 8710SOL    HW137592   1.549   0.578   1.713 -1.8910  1.6388 -2.2052
 8710SOL    HW237593   1.482   0.515   1.824  1.4305  1.1767  2.8560
 8711SOL     OW37594   3.916   1.556   9.774 -0.0155 -0.0215 -0.4820
 8711SOL    HW137595   3.869   1.636   9.750  0.4797  0.5382  0.4149
 8711SOL    HW237596   3.929   1.510   9.691  1.2534  0.3034 -0.4680
 8712SOL     OW37597   4.452   3.176   6.221 -0.0868 -0.3317  0.1378
 8712SOL    HW137598   4.457   3.174   6.125  2.6302 -1.7816  0.3227
 8712SOL    HW237599   4.415   3.091   6.244  0.3075 -0.5054  0.1361
 8713SOL     OW37600   0.184   4.255  14.099  0.2850  0.1794  0.0349
 8713SOL    HW137601   0.139   4.265  14.183 -0.0743  3.3427 -0.5325
 8713SOL    HW237602   0.120   4.257  14.028 -0.7718  1.1607  0.9996
 8714SOL     OW37603   2.530   2.314   4.951  0.1807 -0.2416 -0.0436
 8714SOL    HW137604   2.493   2.235   4.988  0.4624  0.2463  1.2584
 8714SOL    HW237605   2.456   2.348   4.901 -0.1288 -0.4192  0.3023
 8715SOL     OW37606   1.347   3.768   9.172  0.6853 -0.3350 -0.3544
 8715SOL    HW137607   1.388   3.689   9.207  1.4845  0.0172 -0.4961
 8715SOL    HW237608   1.404   3.832   9.214  0.3793  1.3708 -2.5563
 8716SOL     OW37609   2.074   1.419   4.725  0.3831 -0.1666 -0.4315
 8716SOL    HW137610   2.066   1.395   4.818  1.5407  1.4920  0.1076
 8716SOL    HW237611   2.163   1.452   4.713  0.0571  1.2133  0.9527
 8717SOL     OW37612   1.470   3.636   6.144 -0.2752 -0.6377 -0.5503
 8717SOL    HW137613   1.537   3.609   6.081  2.5801  0.9597  1.7854
 8717SOL    HW237614   1.487   3.730   6.155 -0.5785 -0.5327 -0.9598
 8718SOL     OW37615   1.635   3.186   6.309  0.4142 -0.2664 -0.3468
 8718SOL    HW137616   1.635   3.281   6.312  0.2786 -0.2760 -0.1172
 8718SOL    HW237617   1.728   3.165   6.299  0.7855  1.4857 -0.6079
 8719SOL     OW37618   3.123   4.072  14.658 -0.5987  0.4114  0.4308
 8719SOL    HW137619   3.180   4.016  14.710 -0.6522 -1.3363 -1.4001
 8719SOL    HW237620   3.186   4.143  14.645  0.2205 -0.1215  1.5236
 8720SOL     OW37621   1.673   1.261  16.569 -0.4801  0.0156  0.1040
 8720SOL    HW137622   1.588   1.247  16.609 -1.5798 -2.2882 -3.0614
 8720SOL    HW237623   1.675   1.192  16.502 -0.7558 -0.2288  0.3491
 8721SOL     OW37624   2.980   3.176  15.688 -0.1790 -0.1064 -0.6501
 8721SOL    HW137625   2.953   3.152  15.599 -0.7038  2.3421 -1.1523
 8721SOL    HW237626   3.069   3.206  15.668 -0.1187  1.2486  1.6622
 8722SOL     OW37627   1.459   2.249   8.607 -0.6442  0.3512  0.2273
 8722SOL    HW137628   1.473   2.338   8.575 -1.6594  1.2110  2.2125
 8722SOL    HW237629   1.366   2.246   8.627 -0.9255  0.0396 -1.1045
 8723SOL     OW37630   3.200   3.730   7.297  0.0051 -0.0677  0.8254
 8723SOL    HW137631   3.175   3.638   7.305  1.1663 -0.3352  1.2490
 8723SOL    HW237632   3.119   3.769   7.263  1.0687  0.3414 -1.2404
 8724SOL     OW37633   0.678   2.100  15.952 -0.2935 -0.3004 -0.1744
 8724SOL    HW137634   0.738   2.032  15.920  0.5508  0.8811 -1.0882
 8724SOL    HW237635   0.682   2.098  16.048  0.5492  1.2673 -0.1928
 8725SOL     OW37636   0.457   2.480   3.009 -0.4963 -0.5314  0.2710
 8725SOL    HW137637   0.475   2.570   3.036  0.5285 -0.8128  0.5201
 8725SOL    HW237638   0.412   2.502   2.926  1.3079  0.2725 -0.4828
 8726SOL     OW37639   3.084   1.947   3.581  0.0303  0.0055  0.6491
 8726SOL    HW137640   3.116   1.953   3.671 -0.6004  1.7319  0.7604
 8726SOL    HW237641   3.027   2.023   3.568  0.7401  0.1439 -1.5141
 8727SOL     OW37642   2.725   3.807   5.144  0.4834  0.3135  0.6419
 8727SOL    HW137643   2.745   3.763   5.061  2.8524 -0.5361  1.6705
 8727SOL    HW237644   2.714   3.899   5.121 -0.4513  0.2409  0.7965
 8728SOL     OW37645   1.014   2.829   8.310  0.3213 -0.2376  0.0419
 8728SOL    HW137646   1.078   2.859   8.245 -0.9856  0.2192 -1.0269
 8728SOL    HW237647   0.947   2.801   8.247  1.8339 -1.7689 -0.9070
 8729SOL     OW37648   1.510   1.720   4.738 -0.2499  0.0618  0.3520
 8729SOL    HW137649   1.531   1.751   4.825 -0.1649 -1.2109  0.7879
 8729SOL    HW237650   1.567   1.779   4.689 -0.6249 -0.0133 -0.1825
 8730SOL     OW37651   2.833   0.230   2.373 -0.1146 -0.3607 -0.0906
 8730SOL    HW137652   2.876   0.144   2.369 -0.3161 -0.4548 -0.2672
 8730SOL    HW237653   2.771   0.221   2.300 -0.7700  1.8591  0.2153
 8731SOL     OW37654   3.250   0.923   4.731  0.1961  0.0151 -0.3404
 8731SOL    HW137655   3.345   0.911   4.733  0.0517 -0.6903  1.8730
 8731SOL    HW237656   3.227   0.920   4.824 -1.8583  1.4445 -0.8209
 8732SOL     OW37657   1.971   0.284  10.454  0.3533  0.2203 -0.1171
 8732SOL    HW137658   1.933   0.214  10.507 -0.1271  0.6713  0.1379
 8732SOL    HW237659   1.893   0.334  10.430 -0.1019  0.7560  2.4930
 8733SOL     OW37660   4.400   0.906   1.798 -0.4710  0.6184 -0.4006
 8733SOL    HW137661   4.441   0.945   1.721  1.3478 -0.4640  0.0375
 8733SOL    HW237662   4.457   0.830   1.806 -2.4257 -0.7136  1.0701
 8734SOL     OW37663   2.083   1.475   2.610  0.5626 -0.0359  0.5305
 8734SOL    HW137664   2.146   1.528   2.560  2.4273 -0.9307  1.9467
 8734SOL    HW237665   2.045   1.432   2.533  1.0085  0.5785 -0.0309
 8735SOL     OW37666   0.911   0.135   0.072  0.5053 -0.1187 -0.5057
 8735SOL    HW137667   0.884   0.215   0.117  0.5023 -1.1292  1.2987
 8735SOL    HW237668   0.825   0.093   0.066  0.9586 -0.9819 -0.9948
 8736SOL     OW37669   1.251   1.509   4.848  0.3489 -0.2996 -0.3138
 8736SOL    HW137670   1.156   1.511   4.833  0.3897  1.7463 -0.2896
 8736SOL    HW237671   1.242   1.461   4.930 -1.1870  1.2915  0.4508
 8737SOL     OW37672   3.283   1.303   6.606  0.2831  0.1813  0.0333
 8737SOL    HW137673   3.262   1.293   6.699 -1.6078  1.7908 -0.2180
 8737SOL    HW237674   3.194   1.324   6.579 -0.5971 -0.9440  2.0462
 8738SOL     OW37675   3.003   3.027  13.476  0.2331 -0.4395 -0.5707
 8738SOL    HW137676   2.987   3.039  13.382  1.6036 -1.8050 -0.9897
 8738SOL    HW237677   2.987   2.933  13.482 -0.0151 -0.4586 -1.5068
 8739SOL     OW37678   3.813   0.191   8.888  0.1937 -0.0328 -0.4138
 8739SOL    HW137679   3.724   0.201   8.921 -0.8370 -1.9045 -2.5915
 8739SOL    HW237680   3.815   0.218   8.796 -1.3358  1.9951  0.1487
 8740SOL     OW37681   1.228   2.251  13.004 -0.1182 -0.2438  0.0010
 8740SOL    HW137682   1.277   2.181  12.960 -0.4449  1.6526 -3.4434
 8740SOL    HW237683   1.269   2.324  12.957  0.8077  0.6194  2.1641
 8741SOL     OW37684   3.489   3.113   7.187  0.8644  0.2174 -0.3736
 8741SOL    HW137685   3.465   3.078   7.273 -0.7100  1.6908 -0.1967
 8741SOL    HW237686   3.585   3.117   7.191  0.9336  0.6972 -2.3949
 8742SOL     OW37687   1.095   2.316  17.316 -0.1790 -0.8803 -0.0891
 8742SOL    HW137688   1.169   2.330  17.376  0.7095 -0.9615 -1.1571
 8742SOL    HW237689   1.129   2.246  17.260 -0.7364 -0.8693 -0.4409
 8743SOL     OW37690   1.676   3.857   7.240  0.4642  0.0296 -0.1623
 8743SOL    HW137691   1.713   3.857   7.328 -2.2435 -2.5159  0.9930
 8743SOL    HW237692   1.732   3.926   7.204  0.6051  0.9406  1.8247
 8744SOL     OW37693   0.861   0.360   5.390  0.0881  0.3924 -0.1504
 8744SOL    HW137694   0.847   0.429   5.455 -0.0703  1.2684 -1.1264
 8744SOL    HW237695   0.872   0.406   5.307  0.3689  0.0974 -0.2803
 8745SOL     OW37696   4.289   1.428   9.539  0.6717 -0.4427 -0.6319
 8745SOL    HW137697   4.354   1.418   9.608 -0.3550  0.6816  0.4973
 8745SOL    HW237698   4.337   1.448   9.460  2.2676 -1.8570 -0.0137
 8746SOL     OW37699   2.700   2.697   6.543 -0.2780  0.3941  0.3028
 8746SOL    HW137700   2.764   2.695   6.472  3.0256 -2.7922  3.3332
 8746SOL    HW237701   2.756   2.665   6.614 -0.2994 -1.4795 -0.5317
 8747SOL     OW37702   0.321   1.680  10.285 -0.3018  0.0944 -0.0301
 8747SOL    HW137703   0.290   1.760  10.328  1.3755 -0.5722  2.4415
 8747SOL    HW237704   0.378   1.646  10.354 -2.1365  0.5236  1.6976
 8748SOL     OW37705   3.461   2.807   0.135  0.1092  0.3243  0.3593
 8748SOL    HW137706   3.541   2.790   0.085  1.4545  0.6337  2.3953
 8748SOL    HW237707   3.495   2.828   0.222 -1.2699  0.9940  0.7393
 8749SOL     OW37708   4.232   3.406   7.157 -0.1799  0.0812  0.1606
 8749SOL    HW137709   4.273   3.389   7.242  0.1720 -1.2524 -0.2780
 8749SOL    HW237710   4.226   3.320   7.117 -0.2428 -0.2544  0.8995
 8750SOL     OW37711   2.566   2.143   3.729 -0.4341 -0.3192  0.4017
 8750SOL    HW137712   2.507   2.161   3.801  0.1855  0.0142  0.8230
 8750SOL    HW237713   2.633   2.210   3.741 -1.6556  1.1386 -0.7802
 8751SOL     OW37714   0.145   0.626   7.918  0.4166  0.5015  0.0754
 8751SOL    HW137715   0.219   0.606   7.861 -0.2533 -0.9338 -0.2839
 8751SOL    HW237716   0.084   0.553   7.909  2.1474 -0.8254 -1.0126
 8752SOL     OW37717   3.675   0.138   2.195  0.0649  0.1400  0.6127
 8752SOL    HW137718   3.669   0.205   2.126 -3.0099  1.8355  2.5464
 8752SOL    HW237719   3.657   0.057   2.148 -2.0248  1.5148 -0.9719
 8753SOL     OW37720   1.830   3.193   4.103  0.0457 -0.4815  0.1743
 8753SOL    HW137721   1.742   3.230   4.103  0.6472  0.9252 -0.9810
 8753SOL    HW237722   1.877   3.276   4.097 -0.1551 -0.3093  0.9767
 8754SOL     OW37723   4.296   4.422  10.752  0.6343 -0.2551 -0.2293
 8754SOL    HW137724   4.233   4.470  10.805 -0.4075 -1.8420 -0.0271
 8754SOL    HW237725   4.270   4.331  10.769  1.2981 -0.3931  0.0636
 8755SOL     OW37726   3.468   0.499   3.260  0.1012  0.4760 -0.4072
 8755SOL    HW137727   3.487   0.504   3.353 -0.3959  1.0483 -0.3360
 8755SOL    HW237728   3.415   0.575   3.235 -1.1135 -1.1666 -2.8693
 8756SOL     OW37729   1.996   1.354  11.086 -0.3421 -0.5310  0.1849
 8756SOL    HW137730   1.916   1.389  11.046 -0.4427  0.5483  1.3462
 8756SOL    HW237731   1.989   1.401  11.169 -0.3359  2.5204 -1.5494
 8757SOL     OW37732   2.195   3.864   1.290 -0.7702 -0.4317  0.0864
 8757SOL    HW137733   2.256   3.832   1.357 -1.5448 -2.9672 -0.4345
 8757SOL    HW237734   2.164   3.786   1.244 -2.0937  0.3449 -0.3580
 8758SOL     OW37735   1.408   3.059   2.755  0.5333 -0.1838 -0.4255
 8758SOL    HW137736   1.454   3.141   2.773  0.3562 -0.5519  1.7080
 8758SOL    HW237737   1.322   3.096   2.733  0.6980 -1.0297 -2.4487
 8759SOL     OW37738   2.244   3.197   3.361 -0.4350  0.5023  0.5173
 8759SOL    HW137739   2.327   3.239   3.385 -0.3237  0.6645 -0.1576
 8759SOL    HW237740   2.265   3.104   3.365  1.3209  0.8984  0.4026
 8760SOL     OW37741   2.534   1.640  15.667 -0.4267  0.5494  0.0293
 8760SOL    HW137742   2.531   1.600  15.754  2.5847  1.0109  0.3437
 8760SOL    HW237743   2.598   1.587  15.620 -1.0196  0.1008 -0.2742
 8761SOL     OW37744   3.575   0.514   8.053 -0.4344  0.3274 -0.4097
 8761SOL    HW137745   3.661   0.471   8.058 -0.8734 -0.4327  0.7631
 8761SOL    HW237746   3.534   0.461   7.985  0.4741 -0.6860 -0.1877
 8762SOL     OW37747   2.002   3.758   9.810 -0.4652  0.5547 -0.4849
 8762SOL    HW137748   2.035   3.800   9.890 -0.6441  1.3011 -0.8000
 8762SOL    HW237749   1.921   3.808   9.802 -0.0151  1.8103  2.5132
 8763SOL     OW37750   3.376   1.977   3.354  0.2573  0.1055 -0.3378
 8763SOL    HW137751   3.395   2.034   3.279  4.7029 -1.6326 -0.5565
 8763SOL    HW237752   3.424   1.899   3.327 -0.5925 -0.2255 -0.8851
 8764SOL     OW37753   0.408   4.250   3.609 -0.8274  0.4714  0.7641
 8764SOL    HW137754   0.479   4.189   3.630 -1.0205 -0.3236 -0.9547
 8764SOL    HW237755   0.375   4.282   3.694  2.8400  1.8442  1.6611
 8765SOL     OW37756   1.024   1.289   7.557 -0.0399 -0.2055  0.1340
 8765SOL    HW137757   1.045   1.304   7.465  2.3758 -1.5620  0.4603
 8765SOL    HW237758   1.065   1.202   7.561 -1.4255 -0.9174 -1.1960
 8766SOL     OW37759   0.679   2.998  10.527  0.1934 -0.1370 -0.0203
 8766SOL    HW137760   0.677   2.918  10.474  0.4757  1.1870 -2.0321
 8766SOL    HW237761   0.585   3.018  10.526 -0.5834 -3.7627 -0.8287
 8767SOL     OW37762   1.670   2.496   4.633  0.4440 -0.0315  0.4530
 8767SOL    HW137763   1.701   2.431   4.570 -1.6889 -0.5879 -0.0354
 8767SOL    HW237764   1.749   2.549   4.626  1.3585 -1.5267 -0.4238
 8768SOL     OW37765   2.896   2.225   8.111 -0.2624 -0.1951 -0.4939
 8768SOL    HW137766   2.976   2.215   8.163  0.2339  0.2279 -1.1732
 8768SOL    HW237767   2.856   2.304   8.146  0.1007  0.7960 -2.3003
 8769SOL     OW37768   1.129   2.296   0.578  0.1196 -0.1916 -0.1291
 8769SOL    HW137769   1.130   2.384   0.540  1.3241  0.1446  0.6796
 8769SOL    HW237770   1.208   2.293   0.633 -0.2198 -0.6538  0.3226
 8770SOL     OW37771   3.785   0.249  14.173  0.1290  0.2171 -0.8039
 8770SOL    HW137772   3.756   0.321  14.230 -0.6043 -1.1129  0.5063
 8770SOL    HW237773   3.794   0.300  14.093  0.8680  0.9529 -0.2591
 8771SOL     OW37774   2.100   3.689  11.717 -0.4769 -0.1814 -0.0526
 8771SOL    HW137775   2.140   3.707  11.803  1.0483 -3.6456 -0.0196
 8771SOL    HW237776   2.116   3.595  11.703 -0.2584 -0.1028 -0.3233
 8772SOL     OW37777   1.577   2.846   1.593  0.8937 -0.2122 -0.4875
 8772SOL    HW137778   1.596   2.939   1.591 -0.6200  0.1686  2.4737
 8772SOL    HW237779   1.564   2.833   1.687  1.0612 -0.3641 -0.4857
 8773SOL     OW37780   0.849   2.780  15.755 -0.2071  0.3078 -0.0018
 8773SOL    HW137781   0.767   2.780  15.705 -1.5230  1.1348  2.1309
 8773SOL    HW237782   0.851   2.695  15.798  1.0862 -0.5869 -1.8289
 8774SOL     OW37783   2.446   3.831  16.985 -0.4820 -0.7819 -0.2049
 8774SOL    HW137784   2.412   3.748  16.952 -0.8829  0.0978 -2.0211
 8774SOL    HW237785   2.368   3.881  17.009 -0.1704 -0.1758 -0.4545
 8775SOL     OW37786   4.590   2.251   6.559 -0.2219  0.0453 -0.3669
 8775SOL    HW137787   4.616   2.341   6.539 -2.8831  1.2866  1.8091
 8775SOL    HW237788   4.525   2.274   6.625  0.5140  3.2673 -0.7682
 8776SOL     OW37789   4.031   0.212   0.941 -0.4398  0.5201  0.3062
 8776SOL    HW137790   3.971   0.274   0.982 -1.0134  0.2069 -0.0594
 8776SOL    HW237791   4.032   0.137   1.000  1.7515  1.0895  1.0074
 8777SOL     OW37792   1.186   1.943  13.124 -0.3630 -0.2675 -0.7302
 8777SOL    HW137793   1.201   1.964  13.217  1.6498 -1.4888 -0.7816
 8777SOL    HW237794   1.273   1.908  13.108 -0.9646 -0.9686 -2.4321
 8778SOL     OW37795   0.680   4.582   1.806  0.7557  0.6446 -0.4311
 8778SOL    HW137796   0.675   4.559   1.713 -0.3662 -2.2866  0.3677
 8778SOL    HW237797   0.738   4.511   1.835  0.6679 -0.0179 -1.8692
 8779SOL     OW37798   4.207   1.043   8.422  0.3003  0.3194  0.6597
 8779SOL    HW137799   4.171   0.975   8.480 -0.4197 -1.2546 -1.6349
 8779SOL    HW237800   4.167   1.120   8.463 -1.7964 -1.6177  2.2899
 8780SOL     OW37801   3.924   0.407   7.786  0.6761  0.5539  0.1066
 8780SOL    HW137802   3.859   0.373   7.725 -0.4983 -0.2149  1.7774
 8780SOL    HW237803   3.938   0.497   7.759 -0.4629  1.6383  3.0883
 8781SOL     OW37804   1.035   2.935   4.285 -0.4207  0.4501 -0.3390
 8781SOL    HW137805   1.090   2.859   4.264  0.3241  0.3535  1.9711
 8781SOL    HW237806   1.083   3.012   4.253  1.5116 -0.8643 -0.6062
 8782SOL     OW37807   0.641   3.062  11.034 -0.3730  0.2184 -0.2221
 8782SOL    HW137808   0.667   3.066  11.126  0.2660  0.4668 -0.4104
 8782SOL    HW237809   0.563   3.009  11.049  0.3076 -0.5245  0.7002
 8783SOL     OW37810   1.811   1.593   6.577 -0.4243  0.0552  0.3064
 8783SOL    HW137811   1.891   1.548   6.546 -0.2673  1.4732 -1.3793
 8783SOL    HW237812   1.856   1.650   6.640  1.8235 -3.3562  1.7879
 8784SOL     OW37813   2.160   2.361   9.780  0.2733  0.0782 -0.1425
 8784SOL    HW137814   2.247   2.342   9.814 -0.6168  0.4147  2.3082
 8784SOL    HW237815   2.151   2.310   9.699 -0.2585  1.3297 -0.8722
 8785SOL     OW37816   0.813   3.895   7.743  1.3161 -0.5277 -0.0628
 8785SOL    HW137817   0.903   3.885   7.772  1.9156  2.8167 -0.8159
 8785SOL    HW237818   0.825   3.906   7.648 -1.9374 -1.4420 -0.5858
 8786SOL     OW37819   4.481   0.482   7.511  0.4579 -0.0870  0.0389
 8786SOL    HW137820   4.522   0.451   7.430  0.5730  0.0021  0.0620
 8786SOL    HW237821   4.469   0.396   7.550 -1.9180  0.0221 -0.4977
 8787SOL     OW37822   0.156   0.080   7.531 -0.1337  0.2658 -0.2305
 8787SOL    HW137823   0.210   0.067   7.453  0.4787  2.0848 -0.0989
 8787SOL    HW237824   0.167   0.174   7.546  1.0856  0.1348 -0.3196
 8788SOL     OW37825   2.463   4.303   6.238  0.0332 -0.8728  0.3024
 8788SOL    HW137826   2.498   4.352   6.312 -0.6322 -1.5133  1.0352
 8788SOL    HW237827   2.480   4.210   6.250  0.1955 -1.0296 -1.0881
 8789SOL     OW37828   0.375   1.713   2.321  0.2317 -0.4262 -0.4961
 8789SOL    HW137829   0.313   1.646   2.351 -1.8320  0.3733 -2.9284
 8789SOL    HW237830   0.460   1.670   2.333 -0.0276 -0.7918  0.0648
 8790SOL     OW37831   4.072   4.601  16.390 -0.2705 -0.2410  0.3101
 8790SOL    HW137832   4.160   4.580  16.420 -0.7342  0.5276  2.1643
 8790SOL    HW237833   4.062   4.558  16.305 -0.6744  1.5188 -0.5289
 8791SOL     OW37834   1.193   3.723  15.358 -0.2442  0.7379  0.3629
 8791SOL    HW137835   1.287   3.706  15.350 -0.4263 -0.0011 -0.1496
 8791SOL    HW237836   1.199   3.813  15.391 -0.3446  0.7181  0.4330
 8792SOL     OW37837   3.018   0.087   7.985 -0.2909 -0.3996 -0.7406
 8792SOL    HW137838   3.046   0.145   8.056 -1.1390 -2.0267  0.9093
 8792SOL    HW237839   2.982   0.007   8.023 -1.3077  0.3778 -0.0535
 8793SOL     OW37840   0.129   1.652   6.020 -0.6319  0.4160 -0.0535
 8793SOL    HW137841   0.205   1.704   6.048  0.0899  0.4805 -2.1765
 8793SOL    HW237842   0.070   1.727   6.029 -1.3623 -0.3890  2.0560
 8794SOL     OW37843   2.336   1.957  16.545 -0.2748  0.0142 -0.3874
 8794SOL    HW137844   2.420   1.912  16.534 -0.6464 -1.1051  1.3280
 8794SOL    HW237845   2.306   1.944  16.455  1.1654 -1.1887 -0.6957
 8795SOL     OW37846   3.156   2.075  17.440 -0.3635  0.3875 -0.1343
 8795SOL    HW137847   3.230   2.136  17.440  0.7680 -0.9980  0.5575
 8795SOL    HW237848   3.129   2.089  17.531  1.9280  1.9884  0.3159
 8796SOL     OW37849   2.185   4.167   5.877 -0.6509 -0.4198 -0.3613
 8796SOL    HW137850   2.127   4.242   5.893  1.3617  1.1337 -0.3505
 8796SOL    HW237851   2.262   4.208   5.916 -1.5411  1.8190 -0.9285
 8797SOL     OW37852   1.679   3.674   2.753 -0.5361 -0.2073  0.3061
 8797SOL    HW137853   1.653   3.765   2.770  0.2947 -0.1687  1.3598
 8797SOL    HW237854   1.592   3.637   2.762 -0.4778 -0.2671  0.6078
 8798SOL     OW37855   2.831   3.436   7.184  0.3525 -0.4126  0.7944
 8798SOL    HW137856   2.923   3.438   7.211  1.4644  0.4740 -3.1221
 8798SOL    HW237857   2.805   3.363   7.241  0.1111  0.7597  2.2062
 8799SOL     OW37858   2.086   0.861   4.754  0.5670  0.4280  0.6128
 8799SOL    HW137859   2.161   0.825   4.801  0.0794 -0.2248  0.9090
 8799SOL    HW237860   2.112   0.856   4.662  1.5134  0.3634  0.8907
 8800SOL     OW37861   2.408   3.205  14.296  0.0339  0.8057 -0.4077
 8800SOL    HW137862   2.461   3.171  14.368  1.5031  1.1456 -1.3492
 8800SOL    HW237863   2.322   3.216  14.338  2.2439  0.4285  4.2687
 8801SOL     OW37864   3.275   2.308  10.005  0.3959  0.0857 -0.2192
 8801SOL    HW137865   3.315   2.309  10.092 -1.3809  0.0014  0.5979
 8801SOL    HW237866   3.184   2.329  10.028  0.4245 -1.0704  0.9591
 8802SOL     OW37867   0.936   1.896   3.916 -0.1540 -0.5261 -0.0175
 8802SOL    HW137868   0.927   1.802   3.932  1.3737 -0.8034 -0.7951
 8802SOL    HW237869   0.862   1.923   3.970 -0.4999 -2.3190  0.4043
 8803SOL     OW37870   4.525   4.476   4.827 -0.5022 -0.7394  0.4600
 8803SOL    HW137871   4.532   4.399   4.884  0.3452 -0.9869  0.0263
 8803SOL    HW237872   4.481   4.440   4.750  1.1706 -0.6414 -0.5369
 8804SOL     OW37873   1.676   4.188   4.225  0.2661  0.2714  0.3141
 8804SOL    HW137874   1.589   4.228   4.228 -0.1375 -0.5003 -1.4620
 8804SOL    HW237875   1.672   4.096   4.250 -1.8952  0.0021 -1.0242
 8805SOL     OW37876   0.235   1.363   8.280 -0.4075  0.2038  0.0154
 8805SOL    HW137877   0.143   1.372   8.256 -0.0681 -0.8737 -1.6983
 8805SOL    HW237878   0.237   1.276   8.320 -0.5457  1.4860  2.8158
 8806SOL     OW37879   2.831   2.344  14.221 -0.1937  0.0414  0.4157
 8806SOL    HW137880   2.790   2.261  14.243 -3.9393  2.1103  1.2321
 8806SOL    HW237881   2.919   2.323  14.189  0.3315 -0.5021  2.1822
 8807SOL     OW37882   2.165   4.520  14.189  0.3625  0.5428  0.1174
 8807SOL    HW137883   2.185   4.612  14.170 -0.1342  0.1485 -2.3102
 8807SOL    HW237884   2.214   4.503  14.269 -0.6100  0.7841  0.7574
 8808SOL     OW37885   1.597   2.599   1.486 -0.0356 -0.5652 -0.2099
 8808SOL    HW137886   1.592   2.685   1.529  3.1910 -0.6564  0.3545
 8808SOL    HW237887   1.579   2.619   1.394 -1.9304  0.5200  0.3964
 8809SOL     OW37888   2.366   3.294  14.606  0.1493 -0.0978 -0.2694
 8809SOL    HW137889   2.299   3.289  14.538  0.5453 -0.8393 -0.6113
 8809SOL    HW237890   2.397   3.203  14.609  0.3038  0.0417  2.2191
 8810SOL     OW37891   2.787   1.185   0.704  0.3399 -0.1398  0.0132
 8810SOL    HW137892   2.788   1.185   0.799 -0.4469  0.9200  0.0201
 8810SOL    HW237893   2.789   1.090   0.693  0.4479 -0.2097  0.6327
 8811SOL     OW37894   1.116   1.281   9.081 -0.3803 -0.3775 -0.6056
 8811SOL    HW137895   1.129   1.301   9.174  0.2510 -2.6892 -0.1756
 8811SOL    HW237896   1.025   1.310   9.076  0.5103  2.8715  2.3453
 8812SOL     OW37897   4.266   0.731  12.944 -0.3924 -0.0073 -0.8514
 8812SOL    HW137898   4.246   0.822  12.923 -0.6070  0.3921  1.0226
 8812SOL    HW237899   4.283   0.695  12.857 -1.8989 -1.5196 -0.5180
 8813SOL     OW37900   3.450   3.838  11.323  0.2080 -0.5390  0.5039
 8813SOL    HW137901   3.512   3.777  11.283 -0.7924 -1.6951  0.7170
 8813SOL    HW237902   3.371   3.786  11.338 -0.9384  1.3222  0.8830
 8814SOL     OW37903   4.331   3.532   1.848  0.3139 -0.1338 -0.2573
 8814SOL    HW137904   4.372   3.451   1.819 -2.2744 -1.9026  0.9709
 8814SOL    HW237905   4.404   3.581   1.885  0.2829 -0.0639 -0.2895
 8815SOL     OW37906   4.160   4.191   4.318 -0.0725  0.1151  0.7050
 8815SOL    HW137907   4.186   4.190   4.410 -0.5677 -0.4201  0.8396
 8815SOL    HW237908   4.169   4.285   4.301  1.8124  0.3618  3.0515
 8816SOL     OW37909   3.763   1.746   1.771  0.3201 -0.2118  0.0873
 8816SOL    HW137910   3.758   1.783   1.860 -0.3692  1.5986 -0.7028
 8816SOL    HW237911   3.687   1.792   1.735  0.5535  0.9711  1.0838
 8817SOL     OW37912   1.254   1.763   3.811  0.1221  0.0597 -0.3991
 8817SOL    HW137913   1.264   1.763   3.716 -0.4473 -0.2990 -0.4559
 8817SOL    HW237914   1.303   1.684   3.836 -0.3647 -0.2795 -0.5260
 8818SOL     OW37915   3.506   1.191   8.653  0.0327 -0.5287  0.2707
 8818SOL    HW137916   3.565   1.234   8.592  0.3474 -0.7141  0.4461
 8818SOL    HW237917   3.441   1.258   8.677 -0.4656 -1.2336  0.9107
 8819SOL     OW37918   2.581   0.971   2.832  0.0779  0.1979  0.3001
 8819SOL    HW137919   2.663   1.005   2.867  0.1107 -1.8251  2.2506
 8819SOL    HW237920   2.567   1.024   2.755 -0.7478  0.0335  0.3297
 8820SOL     OW37921   3.872   1.070   9.599 -0.0404 -0.0117 -0.0226
 8820SOL    HW137922   3.934   1.131   9.559 -1.2076  1.4467  0.3694
 8820SOL    HW237923   3.914   0.990   9.569 -0.0755 -0.8291  2.1363
 8821SOL     OW37924   1.639   2.999  13.524  0.2436  0.6046 -0.2508
 8821SOL    HW137925   1.695   2.980  13.600 -1.2182 -1.1024  0.4149
 8821SOL    HW237926   1.657   2.912  13.488 -1.5344  0.2750 -0.3095
 8822SOL     OW37927   0.848   3.400   5.800  0.5006  0.2669  0.0921
 8822SOL    HW137928   0.920   3.337   5.792  0.2623  0.0755 -0.6066
 8822SOL    HW237929   0.796   3.381   5.722  0.6413  0.5534 -0.0734
 8823SOL     OW37930   1.778   4.279   5.893 -0.3626 -0.2074 -0.2182
 8823SOL    HW137931   1.786   4.219   5.818  0.1350 -1.7347  1.0530
 8823SOL    HW237932   1.713   4.340   5.857  0.9938 -0.0731 -2.3928
 8824SOL     OW37933   1.717   2.115  11.461 -0.3013 -0.1167 -0.2035
 8824SOL    HW137934   1.695   2.205  11.437  1.9443  0.6433  0.5345
 8824SOL    HW237935   1.700   2.131  11.554 -1.1950 -1.5856 -0.1229
 8825SOL     OW37936   3.249   1.363  13.611 -0.5037 -0.1373  0.2859
 8825SOL    HW137937   3.168   1.343  13.658 -0.5418 -0.2708  0.1631
 8825SOL    HW237938   3.257   1.287  13.554 -1.2538 -1.0441  1.3994
 8826SOL     OW37939   0.522   0.702   7.993 -0.1261  0.4206  0.0251
 8826SOL    HW137940   0.488   0.655   8.070 -0.1669  0.8491  0.2660
 8826SOL    HW237941   0.448   0.682   7.936  0.2701 -1.2846  0.0934
 8827SOL     OW37942   1.587   3.056   0.159  0.1236 -0.2289  0.0436
 8827SOL    HW137943   1.553   2.969   0.139 -0.3836  0.2826 -1.3188
 8827SOL    HW237944   1.653   3.030   0.223 -1.5162  0.9812  2.2229
 8828SOL     OW37945   2.476   1.757   3.495  0.2988 -0.4578 -0.4372
 8828SOL    HW137946   2.508   1.667   3.502  0.0818 -0.4333  0.7834
 8828SOL    HW237947   2.407   1.761   3.429  0.6767 -0.7830 -0.8555
 8829SOL     OW37948   1.541   0.773   2.816 -0.3617 -0.2485 -0.5776
 8829SOL    HW137949   1.464   0.742   2.769  0.4630 -1.5540 -1.0793
 8829SOL    HW237950   1.543   0.707   2.886 -2.7770 -0.1525 -0.4139
 8830SOL     OW37951   3.110   2.885   1.208  0.0083  0.3334  0.0487
 8830SOL    HW137952   3.132   2.942   1.134  1.7098  0.5653  0.7405
 8830SOL    HW237953   3.083   2.946   1.276 -0.2441 -2.0758  2.1294
 8831SOL     OW37954   2.930   1.144   9.999  0.6933 -0.0474  0.2341
 8831SOL    HW137955   2.865   1.155  10.068 -2.2454  1.7619 -2.8150
 8831SOL    HW237956   2.898   1.062   9.962 -2.1896  0.8005  0.8181
 8832SOL     OW37957   2.739   4.722   2.856  0.1055 -0.4816 -0.2297
 8832SOL    HW137958   2.766   0.078   2.904  1.5529 -0.8188 -0.4923
 8832SOL    HW237959   2.726   0.038   2.769 -1.1102 -0.6360 -0.1078
 8833SOL     OW37960   2.516   3.704   4.407  0.1230 -0.1108 -0.1294
 8833SOL    HW137961   2.426   3.710   4.438 -0.2802  0.7591 -1.4810
 8833SOL    HW237962   2.564   3.710   4.490 -0.9503 -2.7283  0.6636
 8834SOL     OW37963   3.803   2.689  12.434  0.0848 -0.4421  0.2732
 8834SOL    HW137964   3.881   2.639  12.454  0.5717  0.1414 -0.1736
 8834SOL    HW237965   3.807   2.748  12.509 -0.1550 -0.0561 -0.0139
 8835SOL     OW37966   3.878   1.852   8.730  0.8300 -0.0133 -0.0935
 8835SOL    HW137967   3.875   1.893   8.643 -0.9862  0.1348  0.0338
 8835SOL    HW237968   3.802   1.896   8.769  1.0328  2.2590 -2.2525
 8836SOL     OW37969   0.007   0.049  13.090  0.6341 -0.0045  0.6319
 8836SOL    HW137970   4.705   4.711  13.161 -0.7663  1.1067  1.0969
 8836SOL    HW237971   4.690   0.126  13.131 -1.7708  0.7429 -3.0747
 8837SOL     OW37972   0.030   3.387   5.495 -0.4141  0.0516 -0.2000
 8837SOL    HW137973   4.660   3.406   5.478 -0.9010 -2.5615 -0.4200
 8837SOL    HW237974   0.062   3.382   5.405 -1.2351 -1.1611 -0.4249
 8838SOL     OW37975   2.155   2.117   0.364 -0.6073 -0.3425  0.1335
 8838SOL    HW137976   2.070   2.122   0.321  0.3938  1.2351 -1.6908
 8838SOL    HW237977   2.163   2.202   0.408  1.0715 -1.3333  1.7290
 8839SOL     OW37978   1.642   2.563   7.181  0.1518  0.5256  0.0754
 8839SOL    HW137979   1.602   2.584   7.265  0.6746  3.4086 -0.4159
 8839SOL    HW237980   1.578   2.513   7.130 -0.3549  0.1495  1.0843
 8840SOL     OW37981   2.931   1.299   7.269 -0.0931  0.1325 -0.5171
 8840SOL    HW137982   2.924   1.212   7.307 -0.3507  1.4202  2.4337
 8840SOL    HW237983   2.916   1.283   7.176  0.8617  1.0109 -0.8237
 8841SOL     OW37984   0.673   3.874  11.540  0.5745  0.4395  0.1249
 8841SOL    HW137985   0.697   3.823  11.463 -1.2634  0.0562 -0.1849
 8841SOL    HW237986   0.670   3.960  11.498  0.8415  0.2194 -0.3511
 8842SOL     OW37987   3.185   0.910  11.374  0.5168  0.3946 -1.0183
 8842SOL    HW137988   3.112   0.937  11.430  1.9434  0.2863  0.8677
 8842SOL    HW237989   3.249   0.977  11.397  0.1722  1.3006 -2.6588
 8843SOL     OW37990   0.280   4.641   2.307 -0.0249 -0.1459 -0.2871
 8843SOL    HW137991   0.345   4.608   2.246  0.4799 -0.5992  0.4922
 8843SOL    HW237992   0.263   4.569   2.368 -0.0237  1.0482  1.1206
 8844SOL     OW37993   0.462   2.159   8.865  0.8885  0.3902  0.2216
 8844SOL    HW137994   0.387   2.216   8.848  0.1369 -0.4220  0.8274
 8844SOL    HW237995   0.465   2.141   8.959 -1.0079 -2.2319 -0.2283
 8845SOL     OW37996   1.695   4.521   4.627 -0.2673 -0.0807 -0.2996
 8845SOL    HW137997   1.702   4.431   4.596  0.5896 -0.7430  1.7930
 8845SOL    HW237998   1.736   4.526   4.714 -1.8526  1.3438  0.3748
 8846SOL     OW37999   0.342   0.616  13.196 -0.3292  0.0954 -0.7175
 8846SOL    HW138000   0.308   0.578  13.116  0.7872 -0.1382 -1.0833
 8846SOL    HW238001   0.428   0.579  13.176 -0.1080 -0.2571  0.8763
 8847SOL     OW38002   2.508   1.413   7.357 -0.1059  0.2862 -0.1655
 8847SOL    HW138003   2.491   1.368   7.274 -2.8717  1.0539 -0.0298
 8847SOL    HW238004   2.560   1.343   7.397 -1.7739 -1.0703 -0.3558
 8848SOL     OW38005   0.038   0.451   5.274  0.0126  0.1902  0.2146
 8848SOL    HW138006   4.699   0.378   5.283 -0.1903  0.4087  0.6084
 8848SOL    HW238007   4.696   0.507   5.232 -1.4855 -0.4553  1.6208
 8849SOL     OW38008   2.273   2.797   4.817 -0.0247  0.0524 -0.1384
 8849SOL    HW138009   2.312   2.730   4.873 -0.6654  1.5802  2.1636
 8849SOL    HW238010   2.191   2.820   4.860  0.0187 -0.3967  0.1827
 8850SOL     OW38011   3.962   2.071   6.441 -0.0578 -0.0043  0.3445
 8850SOL    HW138012   3.933   2.005   6.378 -1.6224  2.6049 -1.6891
 8850SOL    HW238013   4.034   2.020   6.477  0.3857  0.9134  0.7552
 8851SOL     OW38014   2.494   2.164   6.599  0.6173 -0.3927  0.4204
 8851SOL    HW138015   2.501   2.244   6.548  1.7047 -0.2473  0.8092
 8851SOL    HW238016   2.573   2.122   6.565 -0.7595 -2.6158 -0.0912
 8852SOL     OW38017   4.121   4.375   6.033  0.4738  0.3872 -0.7721
 8852SOL    HW138018   4.041   4.327   6.013 -0.6767  1.2126  1.7564
 8852SOL    HW238019   4.135   4.338   6.121 -0.3402 -2.2171 -1.7580
 8853SOL     OW38020   1.917   4.206  15.723 -0.1576 -0.4093  0.5968
 8853SOL    HW138021   1.935   4.140  15.656  0.4663 -1.4792  1.8150
 8853SOL    HW238022   1.826   4.231  15.706  1.0565  0.9966 -3.5787
 8854SOL     OW38023   3.388   3.160   8.863 -0.6061  0.7802  0.0913
 8854SOL    HW138024   3.478   3.155   8.896 -0.8521  5.6846  1.6336
 8854SOL    HW238025   3.348   3.189   8.945  0.5434 -2.1574  1.6748
 8855SOL     OW38026   4.316   0.976   5.361 -0.1200 -0.0052  0.1653
 8855SOL    HW138027   4.408   0.970   5.383 -0.8229  0.4342  3.2457
 8855SOL    HW238028   4.330   1.011   5.273  1.1897  0.8041  0.7053
 8856SOL     OW38029   2.700   0.464  11.940 -0.1976  0.0505  0.5743
 8856SOL    HW138030   2.633   0.399  11.962  1.1889 -1.3153  0.8189
 8856SOL    HW238031   2.733   0.419  11.862 -0.5992  1.7369 -0.5462
 8857SOL     OW38032   1.049   4.090  12.826  0.2844  0.3230 -0.0748
 8857SOL    HW138033   1.027   4.117  12.737 -0.7045  0.8543  0.3242
 8857SOL    HW238034   0.965   4.068  12.865 -1.1100  3.7288 -1.1781
 8858SOL     OW38035   0.012   3.800   7.338  0.2197 -0.9224  0.0418
 8858SOL    HW138036   0.105   3.821   7.332  0.8804 -3.5206  1.3149
 8858SOL    HW238037   4.719   3.768   7.427 -0.9805 -0.6054 -0.0502
 8859SOL     OW38038   1.784   3.612   1.862 -0.5096 -0.0151 -0.1299
 8859SOL    HW138039   1.729   3.660   1.925  0.1135 -1.9524  1.8858
 8859SOL    HW238040   1.843   3.681   1.833 -0.8449  0.0505 -0.6535
 8860SOL     OW38041   4.169   3.094   0.385 -0.0721 -0.1083  0.0520
 8860SOL    HW138042   4.122   3.067   0.306 -0.0852  0.9759 -0.3024
 8860SOL    HW238043   4.256   3.086   0.346  0.0958  1.4437  0.1162
 8861SOL     OW38044   1.720   3.827   5.558 -0.3585 -0.1592 -0.1826
 8861SOL    HW138045   1.723   3.904   5.615  2.9014  0.6616 -1.4963
 8861SOL    HW238046   1.725   3.858   5.468 -0.0017 -1.2572 -0.5412
 8862SOL     OW38047   4.107   2.811   4.479  0.7923  0.2542 -0.4596
 8862SOL    HW138048   4.191   2.850   4.455  1.0163  1.4191  2.1623
 8862SOL    HW238049   4.055   2.845   4.406  1.9721  0.8246 -1.0340
 8863SOL     OW38050   0.226   2.294   4.698 -0.7516  0.0717 -0.0569
 8863SOL    HW138051   0.172   2.238   4.755  0.0347 -0.7374 -0.1121
 8863SOL    HW238052   0.303   2.238   4.689 -2.4172 -2.2260 -0.2403
 8864SOL     OW38053   1.523   3.907   5.191  0.3974 -0.1549 -0.1891
 8864SOL    HW138054   1.517   3.828   5.138 -0.4095  0.1310 -0.5247
 8864SOL    HW238055   1.570   3.867   5.264  0.5641 -0.0562 -0.2425
 8865SOL     OW38056   0.790   2.391  11.664  0.2754 -0.7310  0.3576
 8865SOL    HW138057   0.827   2.305  11.648  0.8166 -0.8840  2.5002
 8865SOL    HW238058   0.702   2.387  11.627  0.0963 -1.3120  0.8541
 8866SOL     OW38059   1.761   1.488   4.085 -0.1216 -0.0421  0.0683
 8866SOL    HW138060   1.726   1.577   4.077 -1.5961 -0.7122 -0.8647
 8866SOL    HW238061   1.845   1.481   4.040 -0.3496 -1.4125 -0.1355
 8867SOL     OW38062   3.265   0.143   3.525  0.2870 -0.2300  0.3344
 8867SOL    HW138063   3.352   0.172   3.553 -0.3616  1.6446  0.4387
 8867SOL    HW238064   3.282   0.050   3.537 -0.8805 -0.4554  0.1826
 8868SOL     OW38065   0.174   0.651   7.297 -0.2987 -0.0416 -0.6339
 8868SOL    HW138066   0.094   0.664   7.349 -0.9275 -1.3239 -1.2735
 8868SOL    HW238067   0.210   0.575   7.342 -1.9862 -0.3412  0.2322
 8869SOL     OW38068   1.008   2.001  12.058 -0.7714  0.4262 -0.5060
 8869SOL    HW138069   0.967   2.052  12.128  0.8295 -0.8353  1.3609
 8869SOL    HW238070   0.941   1.981  11.993 -0.0796  0.3638 -1.2016
 8870SOL     OW38071   0.431   1.464   5.223 -0.4052 -0.0509 -0.2016
 8870SOL    HW138072   0.361   1.407   5.189 -1.6441  0.5566  1.3039
 8870SOL    HW238073   0.446   1.420   5.306 -4.0095  1.9366  1.4965
 8871SOL     OW38074   0.954   0.782   7.871  0.7766 -0.4451 -0.3863
 8871SOL    HW138075   0.878   0.725   7.863 -0.3507  0.7089  2.1910
 8871SOL    HW238076   0.930   0.859   7.921 -3.2506 -1.5659 -0.6495
 8872SOL     OW38077   3.280   1.946   9.314 -0.3986  0.4053 -0.0815
 8872SOL    HW138078   3.242   2.022   9.358 -0.3165  0.8274 -0.7361
 8872SOL    HW238079   3.347   1.908   9.371 -2.2184 -0.3216  1.5694
 8873SOL     OW38080   1.570   2.555   2.947  1.0421  0.0892  0.2543
 8873SOL    HW138081   1.512   2.491   2.988  1.0174 -1.2789 -1.9225
 8873SOL    HW238082   1.614   2.504   2.878 -1.3287  0.7350 -1.7261
 8874SOL     OW38083   2.319   3.490  17.632 -0.1170  0.1127  0.3788
 8874SOL    HW138084   2.336   3.468   0.033  0.1320 -0.8933  0.0840
 8874SOL    HW238085   2.268   3.570  17.644 -2.3048 -0.7257 -3.4647
 8875SOL     OW38086   4.346   1.891   0.031  0.2171  0.0079  0.0203
 8875SOL    HW138087   4.258   1.905   0.066  0.0239 -3.8296  1.0040
 8875SOL    HW238088   4.332   1.877  17.628 -1.0899 -0.2734  0.2574
 8876SOL     OW38089   1.189   1.831   6.962  0.9574 -0.2702 -0.2478
 8876SOL    HW138090   1.098   1.831   6.933  1.2058  0.4722 -1.0089
 8876SOL    HW238091   1.238   1.804   6.885  1.7348 -1.4402  0.6459
 8877SOL     OW38092   1.120   3.358   6.425  0.1607  0.2732  0.8352
 8877SOL    HW138093   1.064   3.399   6.491 -2.7226  2.0960 -2.6870
 8877SOL    HW238094   1.127   3.438   6.372 -1.2503  0.9745  1.6861
 8878SOL     OW38095   3.620   2.972   3.504 -0.2795  0.0398  0.5379
 8878SOL    HW138096   3.620   3.059   3.544  0.1973 -1.1480  3.1585
 8878SOL    HW238097   3.574   2.928   3.575 -0.2398  1.2510  1.3083
 8879SOL     OW38098   4.217   1.012   0.077 -0.4652  0.3234 -0.8572
 8879SOL    HW138099   4.142   0.952   0.079  0.4785 -0.8532 -0.7422
 8879SOL    HW238100   4.186   1.069   0.148 -0.6268 -2.6029  1.4264
 8880SOL     OW38101   1.109   3.071   8.636  0.0696 -0.2691 -0.2311
 8880SOL    HW138102   1.076   2.982   8.623 -0.9705  0.0271  0.3712
 8880SOL    HW238103   1.150   3.084   8.550 -0.6979  0.1952 -0.5262
 8881SOL     OW38104   1.622   3.673   5.914 -0.6670 -0.3190 -0.0845
 8881SOL    HW138105   1.637   3.615   5.839  0.9224 -0.1311  0.0892
 8881SOL    HW238106   1.662   3.757   5.890  0.7272 -1.3632 -1.4456
 8882SOL     OW38107   2.221   3.277   9.670  0.2616 -0.5234  0.3083
 8882SOL    HW138108   2.187   3.335   9.738  3.2770  2.2410 -0.5759
 8882SOL    HW238109   2.257   3.332   9.601  2.4202 -0.9364  1.0847
 8883SOL     OW38110   0.550   2.023   8.648 -0.4283 -0.2186  0.6467
 8883SOL    HW138111   0.500   2.062   8.721  0.4234  1.5948  0.2631
 8883SOL    HW238112   0.639   2.058   8.645  0.5016 -2.6344  0.2841
 8884SOL     OW38113   0.665   3.481   3.701 -0.6636  0.5888 -0.7266
 8884SOL    HW138114   0.594   3.529   3.658 -1.5546 -0.3952 -0.3466
 8884SOL    HW238115   0.617   3.455   3.779 -0.5190  1.9224 -0.1917
 8885SOL     OW38116   4.115   2.184  12.087 -0.3916  0.1083 -0.1603
 8885SOL    HW138117   4.054   2.162  12.016 -0.5457  1.0302 -0.3070
 8885SOL    HW238118   4.179   2.231  12.034  0.7260 -0.1555  0.9629
 8886SOL     OW38119   0.690   4.492   7.089  0.7130 -0.0810 -0.0215
 8886SOL    HW138120   0.762   4.541   7.050  1.0182 -1.1959 -0.8529
 8886SOL    HW238121   0.721   4.450   7.169  1.2773 -0.7546 -0.5947
 8887SOL     OW38122   4.177   4.491   5.069 -1.0906 -0.1569 -0.2757
 8887SOL    HW138123   4.167   4.494   4.974  1.8475  0.4290 -0.5899
 8887SOL    HW238124   4.199   4.399   5.081 -1.8021 -0.2884  0.0063
 8888SOL     OW38125   2.579   2.733  17.584  0.1436  0.1167  0.0875
 8888SOL    HW138126   2.628   2.668  17.533 -1.5705 -0.1674 -1.2167
 8888SOL    HW238127   2.489   2.708  17.562  0.3465 -2.2382  1.9731
 8889SOL     OW38128   4.254   4.552   7.658 -0.1148  0.0032 -0.3495
 8889SOL    HW138129   4.250   4.456   7.653  2.4298 -0.0310 -1.2270
 8889SOL    HW238130   4.237   4.585   7.570  0.1391 -1.5940 -0.9872
 8890SOL     OW38131   2.323   3.996   5.197 -1.0592  0.5159  0.3574
 8890SOL    HW138132   2.298   3.908   5.170 -0.9767  0.3747  0.7397
 8890SOL    HW238133   2.243   4.042   5.175 -0.4470  1.3006 -0.2373
 8891SOL     OW38134   1.251   4.152   5.614  0.3994 -0.8013  0.5863
 8891SOL    HW138135   1.255   4.231   5.667  0.5971 -1.1649  1.1098
 8891SOL    HW238136   1.343   4.125   5.615  0.7585  0.4078  0.4816
 8892SOL     OW38137   0.714   4.603   3.847 -0.0164  0.2111 -0.0365
 8892SOL    HW138138   0.702   4.664   3.774 -1.8460 -1.0289 -0.7818
 8892SOL    HW238139   0.807   4.619   3.863  0.3407 -0.0844 -1.7690
 8893SOL     OW38140   4.423   3.982   2.470  0.0888 -0.2787  0.3069
 8893SOL    HW138141   4.454   4.065   2.505  0.7634 -0.8351  1.0057
 8893SOL    HW238142   4.431   4.006   2.377 -2.2437 -0.8286 -0.0417
 8894SOL     OW38143   0.941   1.785  13.213  0.5640  0.1822  0.4010
 8894SOL    HW138144   0.864   1.751  13.167  0.1911  0.0138  1.1469
 8894SOL    HW238145   0.974   1.853  13.154 -0.0523  1.9317  2.0660
 8895SOL     OW38146   3.588   2.877   8.640 -0.0722  0.4989 -0.2455
 8895SOL    HW138147   3.663   2.920   8.599  0.0647  1.2518  0.7699
 8895SOL    HW238148   3.560   2.942   8.705  1.7604  1.1567 -0.1006
 8896SOL     OW38149   2.755   1.653   2.466 -0.2896  0.0300 -0.4569
 8896SOL    HW138150   2.678   1.685   2.419 -1.0097 -2.0344 -0.6531
 8896SOL    HW238151   2.753   1.704   2.547 -0.7677  0.8025 -0.9507
 8897SOL     OW38152   3.223   1.938   0.552  0.0626  0.4085  0.0842
 8897SOL    HW138153   3.166   1.977   0.485  0.7379 -0.7022 -1.1312
 8897SOL    HW238154   3.171   1.858   0.564 -0.5397  0.7184 -0.4363
 8898SOL     OW38155   2.472   2.833   6.600  0.2958 -0.3048 -0.0310
 8898SOL    HW138156   2.549   2.782   6.575 -0.3893 -0.3383 -2.0552
 8898SOL    HW238157   2.521   2.913   6.619 -2.4890  1.4614 -0.3473
 8899SOL     OW38158   2.200   1.811  15.205 -0.6348 -0.6500  0.0423
 8899SOL    HW138159   2.277   1.857  15.241 -0.8466 -0.0739 -0.2493
 8899SOL    HW238160   2.160   1.773  15.283 -0.3469 -1.7430 -0.3463
 8900SOL     OW38161   1.317   0.851   6.490  0.1826 -0.0830 -0.1999
 8900SOL    HW138162   1.348   0.835   6.580  2.2665 -0.3962 -0.9723
 8900SOL    HW238163   1.391   0.807   6.449  1.6060  2.0453  0.0882
 8901SOL     OW38164   2.685   1.657  10.327 -0.5885 -0.1267  0.1249
 8901SOL    HW138165   2.752   1.592  10.351  0.4508  1.6713  2.0485
 8901SOL    HW238166   2.713   1.670  10.236 -1.1354 -0.0731 -0.0350
 8902SOL     OW38167   0.302   1.650   8.588 -0.7904 -0.1846  0.5227
 8902SOL    HW138168   0.242   1.647   8.661 -2.0520 -1.3021 -0.5619
 8902SOL    HW238169   0.248   1.690   8.519 -0.2284  1.0508  0.7976
 8903SOL     OW38170   2.006   2.606   5.634  0.0693 -0.0884 -0.4647
 8903SOL    HW138171   1.974   2.574   5.718  0.3184 -0.5087 -0.5312
 8903SOL    HW238172   1.962   2.543   5.577 -0.6567 -1.3039  1.4490
 8904SOL     OW38173   3.290   0.729  10.117  0.0811 -0.6243 -0.3006
 8904SOL    HW138174   3.331   0.800  10.068  1.8040 -0.3164  1.5937
 8904SOL    HW238175   3.317   0.774  10.197  1.0088 -2.4588  0.4245
 8905SOL     OW38176   3.692   3.681  17.353  0.0090 -0.8380 -0.7061
 8905SOL    HW138177   3.641   3.695  17.432  1.8376 -1.9276  0.6514
 8905SOL    HW238178   3.695   3.772  17.321  1.5737 -1.5461 -2.5767
 8906SOL     OW38179   4.512   0.434  14.492  0.3015 -0.5962 -0.8167
 8906SOL    HW138180   4.452   0.491  14.541 -0.0820 -1.1404 -0.6570
 8906SOL    HW238181   4.542   0.376  14.562 -1.5177  2.3137  2.3619
 8907SOL     OW38182   4.308   3.659  16.440  0.0798 -0.3064 -0.4334
 8907SOL    HW138183   4.380   3.661  16.377 -1.3581  1.8598 -2.0408
 8907SOL    HW238184   4.241   3.630  16.378  0.3055  1.5784 -1.5746
 8908SOL     OW38185   1.903   3.695   7.641 -0.5179 -1.2081  0.1916
 8908SOL    HW138186   1.979   3.675   7.695 -0.2839  0.3225  0.4224
 8908SOL    HW238187   1.876   3.780   7.676  1.6808 -0.6312  0.4660
 8909SOL     OW38188   1.239   1.674   1.960 -0.3658  0.4993 -0.5411
 8909SOL    HW138189   1.211   1.623   1.884 -0.3547  1.0516 -0.9190
 8909SOL    HW238190   1.333   1.676   1.941 -0.0910  0.2359  0.8053
 8910SOL     OW38191   3.744   2.511   3.585 -0.2003 -0.1667 -0.2089
 8910SOL    HW138192   3.658   2.497   3.623  0.5397  0.2576  1.6201
 8910SOL    HW238193   3.729   2.546   3.497  0.1038 -2.7533 -1.3006
 8911SOL     OW38194   1.337   1.771   2.592  0.2706 -0.1116 -0.2215
 8911SOL    HW138195   1.313   1.839   2.655  0.0655  0.0401 -0.4637
 8911SOL    HW238196   1.423   1.796   2.558  0.0322 -1.1088 -1.5751
 8912SOL     OW38197   3.353   1.129   6.122  0.0632  0.0254  0.0488
 8912SOL    HW138198   3.358   1.142   6.217  1.9219  2.4634 -0.3660
 8912SOL    HW238199   3.259   1.134   6.108 -0.1344  1.5714  1.8933
 8913SOL     OW38200   3.826   3.498   6.021  0.0010  0.6252  0.1555
 8913SOL    HW138201   3.820   3.593   6.010 -2.4045  0.3996 -0.4807
 8913SOL    HW238202   3.895   3.494   6.087 -1.0623 -0.6502  1.1831
 8914SOL     OW38203   4.027   3.861   0.528  0.1836 -0.1090  1.1331
 8914SOL    HW138204   4.032   3.904   0.613  0.7271  0.0557  1.0171
 8914SOL    HW238205   4.122   3.846   0.520  0.0336 -1.5283  1.9426
 8915SOL     OW38206   4.261   0.847  17.166 -0.3544 -0.5034  0.1309
 8915SOL    HW138207   4.226   0.887  17.246  1.0266 -1.2197  1.1014
 8915SOL    HW238208   4.179   0.834  17.119  0.7234  0.6736 -2.0851
 8916SOL     OW38209   1.785   1.361   4.332 -0.0458  0.5901 -0.1267
 8916SOL    HW138210   1.828   1.419   4.269  1.6767 -0.5690  0.0001
 8916SOL    HW238211   1.781   1.404   4.417 -0.8220 -0.3622  0.3124
 8917SOL     OW38212   2.364   2.875   2.108 -0.2623  0.8606 -0.2249
 8917SOL    HW138213   2.334   2.796   2.062 -0.7768  0.6375  0.5013
 8917SOL    HW238214   2.394   2.932   2.037  1.2327 -0.8456 -1.0071
 8918SOL     OW38215   2.195   1.925   4.520 -0.6103  0.3874 -0.3652
 8918SOL    HW138216   2.235   1.997   4.568 -1.6009  1.6311 -1.3959
 8918SOL    HW238217   2.207   1.946   4.427 -0.3754 -0.4268 -0.5233
 8919SOL     OW38218   1.824   3.875   1.263 -0.1564 -0.3041  0.1763
 8919SOL    HW138219   1.855   3.892   1.175  0.5021 -3.2206 -0.1671
 8919SOL    HW238220   1.833   3.969   1.279 -0.7869 -0.3054  0.5353
 8920SOL     OW38221   1.929   0.471   4.480  0.3249  0.0161 -0.2460
 8920SOL    HW138222   1.903   0.381   4.500  0.4550 -0.1814 -0.9792
 8920SOL    HW238223   1.892   0.478   4.392 -0.3145 -0.0267  0.0156
 8921SOL     OW38224   1.038   4.722   7.902 -0.7263  0.2596 -0.7127
 8921SOL    HW138225   0.964   4.675   7.939  2.0777 -2.6501  1.2073
 8921SOL    HW238226   1.038   0.069   7.967  0.6242 -0.5600  0.1785
 8922SOL     OW38227   3.102   2.200   5.022  0.0843 -0.4840  0.4365
 8922SOL    HW138228   3.162   2.194   4.948 -0.0147  0.0334  0.3176
 8922SOL    HW238229   3.149   2.261   5.079  2.8453 -2.5332  0.3552
 8923SOL     OW38230   2.660   0.090   7.415 -0.8635  0.2561  0.1043
 8923SOL    HW138231   2.716   0.076   7.339  0.1408 -0.5384  0.9957
 8923SOL    HW238232   2.658   4.719   7.439 -1.7285  0.4126  0.6573
 8924SOL     OW38233   1.132   2.456   7.831 -0.2025 -0.5967 -0.7333
 8924SOL    HW138234   1.156   2.423   7.917 -0.0952  3.3616  0.7546
 8924SOL    HW238235   1.036   2.454   7.835 -0.2009 -0.5758 -0.6896
 8925SOL     OW38236   2.689   3.347   4.744 -0.1469  0.2005 -0.0034
 8925SOL    HW138237   2.719   3.438   4.744 -0.1402  0.2038 -0.8285
 8925SOL    HW238238   2.598   3.354   4.773 -0.7950 -0.5974 -1.8704
 8926SOL     OW38239   4.180   2.334   1.884  0.4494  0.0372  0.1078
 8926SOL    HW138240   4.270   2.327   1.853  0.9325  1.1603  1.2303
 8926SOL    HW238241   4.193   2.322   1.978  1.2996 -3.1134 -0.4081
 8927SOL     OW38242   1.018   3.512   7.242 -0.6077  0.4949  0.2469
 8927SOL    HW138243   1.032   3.460   7.322 -0.9561  0.1961  0.1107
 8927SOL    HW238244   1.108   3.515   7.210 -0.6616 -0.8370 -0.0076
 8928SOL     OW38245   3.463   2.144   8.565 -0.0675 -0.0219  0.4494
 8928SOL    HW138246   3.546   2.164   8.522 -0.2253 -0.3646 -0.0205
 8928SOL    HW238247   3.463   2.209   8.635 -0.5005  0.2903  0.1586
 8929SOL     OW38248   4.230   4.166  16.553 -0.2051 -0.6645  0.2849
 8929SOL    HW138249   4.161   4.232  16.556 -0.3420 -0.7655 -0.7312
 8929SOL    HW238250   4.300   4.218  16.592  0.3516  0.5284 -2.2579
 8930SOL     OW38251   2.992   4.613   3.770  0.2150 -0.1091 -0.9093
 8930SOL    HW138252   3.060   4.610   3.703  0.7607  2.7934 -0.4611
 8930SOL    HW238253   2.982   4.707   3.782 -1.5567 -0.3342 -0.5299
 8931SOL     OW38254   0.547   2.834   9.570  0.2245  0.5603 -0.7027
 8931SOL    HW138255   0.472   2.874   9.614 -0.4760 -1.1584 -0.3212
 8931SOL    HW238256   0.590   2.796   9.646 -0.0392 -0.5934 -1.1248
 8932SOL     OW38257   1.238   0.884   6.999 -0.5949  0.8631 -0.7887
 8932SOL    HW138258   1.260   0.840   6.916  2.0244  2.7479 -1.0748
 8932SOL    HW238259   1.175   0.952   6.976  2.0657  3.8200  0.7520
 8933SOL     OW38260   3.400   1.049   2.384  0.0744 -0.0514  0.2768
 8933SOL    HW138261   3.419   1.051   2.478  2.3417 -0.8507 -0.1624
 8933SOL    HW238262   3.359   0.963   2.378 -1.6642  0.8988 -1.3549
 8934SOL     OW38263   2.185   3.337   8.111  0.1003 -0.5522 -0.7251
 8934SOL    HW138264   2.140   3.254   8.097 -1.5199  0.3172 -0.6099
 8934SOL    HW238265   2.277   3.311   8.123 -0.0861 -2.1988 -2.8528
 8935SOL     OW38266   3.670   0.827   7.856 -0.5117  0.7628  0.0654
 8935SOL    HW138267   3.683   0.754   7.916  1.4424  0.3980 -0.8306
 8935SOL    HW238268   3.672   0.902   7.916 -0.4087  1.2684 -0.5750
 8936SOL     OW38269   0.693   1.426  13.101  0.3429 -0.0389  0.4117
 8936SOL    HW138270   0.762   1.403  13.039 -0.0490  0.2395 -0.1318
 8936SOL    HW238271   0.614   1.414  13.048 -0.2626  1.2345  1.0407
 8937SOL     OW38272   2.064   4.177   5.412  0.2010 -0.0583  0.0472
 8937SOL    HW138273   2.018   4.252   5.450  2.6404 -0.4382  3.7591
 8937SOL    HW238274   2.134   4.214   5.359  0.6449 -0.8106  0.0993
 8938SOL     OW38275   4.312   0.518   6.606 -0.1651 -0.2546  0.2343
 8938SOL    HW138276   4.368   0.518   6.684  0.8407  0.1223 -0.4817
 8938SOL    HW238277   4.321   0.607   6.572  2.5404  0.2430  2.2458
 8939SOL     OW38278   3.825   4.407   6.624 -0.5480  0.3575  0.1071
 8939SOL    HW138279   3.835   4.313   6.641  1.0867  0.5447  0.1814
 8939SOL    HW238280   3.763   4.428   6.694 -0.7886  0.0919 -0.0231
 8940SOL     OW38281   2.846   2.536  11.263  0.5299  0.4280  0.0167
 8940SOL    HW138282   2.758   2.499  11.264  0.2632  1.0286 -0.7365
 8940SOL    HW238283   2.896   2.455  11.254 -0.0024 -0.0091  1.0185
 8941SOL     OW38284   1.453   4.034   3.562  0.2170  0.1421  0.3153
 8941SOL    HW138285   1.367   4.030   3.521  0.5699  3.9175 -0.7838
 8941SOL    HW238286   1.442   4.115   3.613  1.3038  0.1958  0.4690
 8942SOL     OW38287   0.594   3.177   6.811 -0.7744  0.7304  0.2742
 8942SOL    HW138288   0.647   3.099   6.798 -2.6598 -0.7649  1.6396
 8942SOL    HW238289   0.657   3.249   6.809  1.9114 -1.6037  1.5355
 8943SOL     OW38290   2.517   4.423  13.069 -0.1494 -0.0197 -0.5260
 8943SOL    HW138291   2.551   4.512  13.079  2.5052 -1.1681  0.5939
 8943SOL    HW238292   2.450   4.411  13.136  0.4208 -0.0539  0.0395
 8944SOL     OW38293   1.003   1.579   8.319 -0.0829  0.3228 -0.2289
 8944SOL    HW138294   0.925   1.623   8.286  0.3212  0.4752 -0.9680
 8944SOL    HW238295   1.002   1.624   8.404 -2.0106  1.0232 -0.6224
 8945SOL     OW38296   2.296   2.988   3.081  0.4340  0.0076 -0.1650
 8945SOL    HW138297   2.276   3.065   3.027  0.8355  0.0584 -0.2406
 8945SOL    HW238298   2.361   2.938   3.032  0.1351  0.0133 -0.5636
 8946SOL     OW38299   1.254   3.746  10.797  0.6405 -0.4647  0.1400
 8946SOL    HW138300   1.183   3.753  10.734  1.6863  0.7246 -0.9093
 8946SOL    HW238301   1.206   3.799  10.862  0.3349  1.8391 -1.9613
 8947SOL     OW38302   4.049   2.682   2.487  0.0929 -0.0299  0.1197
 8947SOL    HW138303   4.106   2.736   2.543  0.2665  0.4264 -0.5003
 8947SOL    HW238304   3.964   2.723   2.505  0.3767  0.2214  0.9179
 8948SOL     OW38305   3.323   1.597   7.761  0.7941  0.2563  0.2184
 8948SOL    HW138306   3.228   1.601   7.772  0.8098 -3.2492  1.6702
 8948SOL    HW238307   3.331   1.652   7.684  2.2722  1.0121  0.9136
 8949SOL     OW38308   1.601   3.144   8.718 -0.0666 -0.3127  0.0240
 8949SOL    HW138309   1.615   3.084   8.645 -0.3924 -1.2832  0.7462
 8949SOL    HW238310   1.678   3.200   8.717 -0.9164  0.8349 -0.5281
 8950SOL     OW38311   1.216   3.117  11.332 -0.0701  0.2667 -0.4806
 8950SOL    HW138312   1.132   3.124  11.287  0.3101  1.1193 -1.0697
 8950SOL    HW238313   1.270   3.074  11.265 -0.3728 -0.9715  0.0687
 8951SOL     OW38314   2.786   2.209   6.744  0.1941 -0.2993  0.0569
 8951SOL    HW138315   2.849   2.172   6.807 -1.7232  0.1219  2.2184
 8951SOL    HW238316   2.812   2.182   6.656 -3.5137 -1.7968 -0.5697
 8952SOL     OW38317   0.730   3.934   4.940 -0.3767  0.4003 -0.8958
 8952SOL    HW138318   0.692   3.989   5.009  3.1734  1.6781  0.0551
 8952SOL    HW238319   0.719   3.849   4.983 -1.0360  1.9636  2.0688
 8953SOL     OW38320   0.895   1.155  13.246  0.1328  0.0960  0.5167
 8953SOL    HW138321   0.969   1.194  13.199 -0.7964  1.6639  0.3482
 8953SOL    HW238322   0.857   1.119  13.166 -0.5595  2.0304 -0.0207
 8954SOL     OW38323   3.885   0.327   9.643 -0.3328  0.6279 -0.4279
 8954SOL    HW138324   3.854   0.251   9.693 -0.2903  0.8192 -0.1128
 8954SOL    HW238325   3.842   0.314   9.558 -1.5592 -1.6232  0.5236
 8955SOL     OW38326   3.682   1.025   7.446  0.0374  0.5887  0.5493
 8955SOL    HW138327   3.671   1.119   7.459  0.4752  0.2926  3.0890
 8955SOL    HW238328   3.594   1.010   7.410  0.9424 -2.4028 -0.4237
 8956SOL     OW38329   0.889   1.723  16.298  0.3129 -0.2698 -0.0552
 8956SOL    HW138330   0.838   1.680  16.367  0.5484  0.0095  0.2918
 8956SOL    HW238331   0.980   1.731  16.325  1.0373  0.6668 -2.7589
 8957SOL     OW38332   3.603   0.866   1.749  0.1461  0.3100 -0.0894
 8957SOL    HW138333   3.583   0.926   1.678  2.3617 -0.2324 -1.1902
 8957SOL    HW238334   3.636   0.792   1.697  1.2484  0.9471 -0.2844
 8958SOL     OW38335   0.862   1.790  13.987 -0.0859 -0.3639 -0.0098
 8958SOL    HW138336   0.871   1.696  13.967  0.3319 -0.3512  0.1135
 8958SOL    HW238337   0.941   1.809  14.038 -0.0526 -0.4868 -0.0137
 8959SOL     OW38338   0.469   2.120   6.875  0.4217  0.7084 -0.3188
 8959SOL    HW138339   0.417   2.045   6.902  0.2302  0.0807 -2.4155
 8959SOL    HW238340   0.486   2.092   6.785 -2.0143  1.7672 -1.1211
 8960SOL     OW38341   1.757   0.659   8.104  1.4124  0.1404  0.1931
 8960SOL    HW138342   1.824   0.718   8.138 -0.5847  1.7102  1.4161
 8960SOL    HW238343   1.696   0.721   8.064 -0.4886 -0.9766  1.3311
 8961SOL     OW38344   0.204   1.174   7.008 -0.8883  0.1818  0.3523
 8961SOL    HW138345   0.213   1.095   6.954 -0.8709 -0.3639  1.1509
 8961SOL    HW238346   0.111   1.179   7.027 -1.0394  1.3253 -0.7296
 8962SOL     OW38347   0.404   1.023   0.949 -0.2747  0.7065 -0.2091
 8962SOL    HW138348   0.338   0.958   0.925 -1.6141  1.3088  1.9003
 8962SOL    HW238349   0.446   1.031   0.863 -2.5642  1.7473 -1.2422
 8963SOL     OW38350   1.430   0.970   7.626  0.5522 -0.7615  0.2055
 8963SOL    HW138351   1.447   1.062   7.605 -2.8713 -0.3579 -0.9536
 8963SOL    HW238352   1.358   0.953   7.565  1.3489 -3.0747 -0.1095
 8964SOL     OW38353   2.046   1.463   6.469  0.2078 -0.1415 -0.4991
 8964SOL    HW138354   2.137   1.464   6.496  0.6039  0.8920 -1.8632
 8964SOL    HW238355   2.031   1.373   6.498  1.8114 -0.4001 -0.4650
 8965SOL     OW38356   2.640   2.416   5.208 -0.6425 -0.6468  0.0393
 8965SOL    HW138357   2.735   2.416   5.196 -0.4378  0.8927  1.6090
 8965SOL    HW238358   2.610   2.388   5.122  0.1429 -1.3342 -0.0133
 8966SOL     OW38359   3.460   4.445   7.441 -0.1037  0.1536 -0.4242
 8966SOL    HW138360   3.410   4.374   7.399  3.1685 -2.2181 -0.2950
 8966SOL    HW238361   3.467   4.507   7.369 -0.4403  1.2152  0.4627
 8967SOL     OW38362   1.353   4.696   6.650  0.3235 -0.2371  0.4332
 8967SOL    HW138363   1.425   4.708   6.589 -0.4144  0.4006 -0.3021
 8967SOL    HW238364   1.380   4.619   6.701 -0.3996  0.1323  1.3789
 8968SOL     OW38365   2.908   1.821  13.753  0.5716 -0.5539  0.0692
 8968SOL    HW138366   2.818   1.839  13.728  1.4228 -1.3376 -3.6413
 8968SOL    HW238367   2.953   1.906  13.751  0.6921 -0.6553 -1.7403
 8969SOL     OW38368   2.082   1.413   4.048  0.0351 -0.1505  0.4271
 8969SOL    HW138369   2.172   1.387   4.026  0.2234  1.5510 -0.7871
 8969SOL    HW238370   2.054   1.440   3.960  2.0982  0.5681 -0.0014
 8970SOL     OW38371   4.520   3.181   5.970  0.6766 -0.8125 -0.0565
 8970SOL    HW138372   4.549   3.096   5.938  2.0835 -0.9073  1.5011
 8970SOL    HW238373   4.606   3.222   5.956  0.5824 -0.6615 -0.1952
 8971SOL     OW38374   3.960   2.735   0.165  0.3095  0.3280 -0.1241
 8971SOL    HW138375   3.945   2.785   0.245 -0.6400  0.1768 -0.1988
 8971SOL    HW238376   4.046   2.705   0.193  0.0391 -0.6212 -0.2748
 8972SOL     OW38377   4.594   2.258   2.543 -0.0965  0.3788  0.3041
 8972SOL    HW138378   4.685   2.288   2.535  0.1376 -0.6177 -0.7278
 8972SOL    HW238379   4.604   2.163   2.545 -2.0750  0.1569 -1.3501
 8973SOL     OW38380   3.302   0.294   5.695  0.5762 -0.4841  0.1801
 8973SOL    HW138381   3.216   0.289   5.654  0.8940 -2.3852 -0.2746
 8973SOL    HW238382   3.360   0.313   5.621  0.6857  0.2104  0.4452
 8974SOL     OW38383   0.637   1.261  10.015 -0.2289 -0.0261 -0.1927
 8974SOL    HW138384   0.665   1.350  10.034 -0.0902 -0.4444  1.5296
 8974SOL    HW238385   0.631   1.236  10.107  1.7529  3.0550  0.7787
 8975SOL     OW38386   4.338   0.214   4.268  0.0664 -0.3222 -0.9657
 8975SOL    HW138387   4.368   0.267   4.194  1.4056 -0.8199 -0.7701
 8975SOL    HW238388   4.250   0.207   4.230  0.0919 -2.0102 -0.7252
 8976SOL     OW38389   2.916   2.444  16.457 -0.2061  0.5023 -0.1125
 8976SOL    HW138390   2.888   2.353  16.469 -2.7426  1.0221 -2.1182
 8976SOL    HW238391   2.981   2.423  16.389 -0.2220 -1.5256  0.5043
 8977SOL     OW38392   3.296   0.379   8.313  0.3568 -0.1880 -0.7953
 8977SOL    HW138393   3.264   0.364   8.402  2.0972  0.5491 -0.0419
 8977SOL    HW238394   3.268   0.470   8.308  0.2978 -0.1641 -0.0204
 8978SOL     OW38395   2.868   2.254   2.180  0.1290 -0.3770 -0.2978
 8978SOL    HW138396   2.870   2.324   2.245  0.3094 -1.6338  1.0507
 8978SOL    HW238397   2.920   2.301   2.115  0.4423  0.4165  0.5358
 8979SOL     OW38398   2.589   0.782   4.686  0.0532 -0.6264 -0.5738
 8979SOL    HW138399   2.599   0.710   4.625  0.3005 -2.1140  1.2341
 8979SOL    HW238400   2.549   0.846   4.627 -0.7771  0.7600  1.4976
 8980SOL     OW38401   0.497   4.314   9.804  0.8691  0.3363 -0.5482
 8980SOL    HW138402   0.549   4.247   9.760  0.5219 -0.3948  0.1773
 8980SOL    HW238403   0.518   4.387   9.745 -1.7264  2.0585  0.6421
 8981SOL     OW38404   4.669   3.633   3.437 -0.4879 -0.1054  0.1421
 8981SOL    HW138405   4.686   3.568   3.506 -1.4548  0.2275  0.6932
 8981SOL    HW238406   4.613   3.585   3.377  2.6654 -2.5642 -0.8248
 8982SOL     OW38407   3.051   2.719   2.249 -0.3771  0.0876  0.0584
 8982SOL    HW138408   2.980   2.659   2.226 -1.3299  1.3691 -0.3778
 8982SOL    HW238409   3.034   2.783   2.180 -0.8455 -0.0122  0.0795
 8983SOL     OW38410   1.674   3.052   2.433 -0.2417  0.3516 -0.0708
 8983SOL    HW138411   1.743   3.016   2.488  2.2116 -0.0650 -3.4147
 8983SOL    HW238412   1.705   3.139   2.410  1.3415 -0.5011 -1.1527
 8984SOL     OW38413   3.316   3.013   4.190 -0.7613  0.4988  0.2574
 8984SOL    HW138414   3.388   3.017   4.126  0.8970 -0.3978  2.0755
 8984SOL    HW238415   3.324   2.925   4.228 -1.8641  0.8769  1.3363
 8985SOL     OW38416   4.224   3.505   6.582 -0.2571  0.4375 -0.0983
 8985SOL    HW138417   4.267   3.497   6.497  1.5788 -2.9414  1.1219
 8985SOL    HW238418   4.244   3.415   6.607 -2.0029 -0.4862 -2.0216
 8986SOL     OW38419   4.011   2.036   6.734 -0.1406 -0.5209  0.0463
 8986SOL    HW138420   4.062   2.013   6.656  2.1119 -0.3736  1.4805
 8986SOL    HW238421   4.040   2.126   6.747 -3.1956  0.4966 -0.2244
 8987SOL     OW38422   2.489   1.538   6.169 -0.2714  0.0480  0.0826
 8987SOL    HW138423   2.397   1.531   6.194 -0.3657  0.1225 -0.2434
 8987SOL    HW238424   2.496   1.458   6.117 -2.5780 -0.1877  0.1615
 8988SOL     OW38425   4.327   0.976   3.859 -0.7636 -0.2111  1.1275
 8988SOL    HW138426   4.301   0.986   3.768  0.1787  0.8783  0.9813
 8988SOL    HW238427   4.312   1.065   3.890 -3.5820 -1.5791  3.7319
 8989SOL     OW38428   1.772   2.225   9.966  0.0936 -0.0491 -0.1341
 8989SOL    HW138429   1.831   2.199  10.036  0.0643 -2.2047 -0.9109
 8989SOL    HW238430   1.719   2.146   9.957  0.6923 -0.4744  0.0723
 8990SOL     OW38431   0.636   2.598   4.306 -0.9086  0.7772 -0.0076
 8990SOL    HW138432   0.696   2.633   4.372 -0.1332  2.5785 -1.7009
 8990SOL    HW238433   0.609   2.677   4.259 -1.7854  0.2734 -0.3468
 8991SOL     OW38434   3.196   0.256   4.202  0.1496 -0.2354 -0.3131
 8991SOL    HW138435   3.200   0.162   4.220 -0.9480 -0.7484 -2.7412
 8991SOL    HW238436   3.162   0.297   4.282  1.0724  0.6900 -0.3985
 8992SOL     OW38437   1.345   3.130   7.990 -0.3938 -0.7207  0.4003
 8992SOL    HW138438   1.336   3.225   7.990 -0.7537 -0.7508 -0.4444
 8992SOL    HW238439   1.289   3.111   8.065  2.0642 -0.0791  2.3844
 8993SOL     OW38440   0.338   0.131   6.911 -0.2337 -0.1372  0.0337
 8993SOL    HW138441   0.258   0.083   6.931 -1.5645  1.5846 -1.1510
 8993SOL    HW238442   0.404   0.080   6.958 -0.4591  0.4790  1.0150
 8994SOL     OW38443   4.287   4.236   5.451  0.0479  0.2036  0.2092
 8994SOL    HW138444   4.350   4.253   5.522  1.1167  0.3111 -0.7645
 8994SOL    HW238445   4.305   4.313   5.398  0.4522 -0.4236 -0.5698
 8995SOL     OW38446   3.732   1.437  14.917  0.3083 -0.0725  0.5939
 8995SOL    HW138447   3.690   1.352  14.905  2.2806 -0.9338 -0.0718
 8995SOL    HW238448   3.667   1.496  14.878  0.5998  0.1059  0.3821
 8996SOL     OW38449   1.042   2.601   4.975  0.3802  0.6072  0.5583
 8996SOL    HW138450   0.996   2.600   4.891  0.3768 -1.4170  0.6027
 8996SOL    HW238451   1.038   2.507   4.992  0.4948  0.3506 -0.8515
 8997SOL     OW38452   3.546   2.757  12.355  0.1894 -0.0730 -0.3156
 8997SOL    HW138453   3.551   2.834  12.412 -0.3632 -0.6875  0.5727
 8997SOL    HW238454   3.628   2.716  12.382 -0.1265  0.0475  0.8429
 8998SOL     OW38455   4.486   0.230   7.667  0.0449 -0.0571  0.2966
 8998SOL    HW138456   4.401   0.214   7.708 -0.5466 -0.6424 -1.1456
 8998SOL    HW238457   4.522   0.142   7.682 -1.5720 -0.9732 -1.1468
 8999SOL     OW38458   3.496   0.822   4.410  0.3217  0.0525  0.2564
 8999SOL    HW138459   3.544   0.796   4.332  2.0578  2.0128  0.6610
 8999SOL    HW238460   3.418   0.767   4.402  0.2997  0.3721 -1.6098
 9000SOL     OW38461   3.352   1.899   5.160  0.0533  0.3823 -0.0550
 9000SOL    HW138462   3.425   1.840   5.178  0.6427  0.6044 -1.7550
 9000SOL    HW238463   3.278   1.839   5.164 -1.0905  1.7651 -0.1771
 9001SOL     OW38464   0.375   4.024   9.682 -0.4232  0.0996  0.3055
 9001SOL    HW138465   0.299   4.074   9.652  1.3335  1.5631 -1.7478
 9001SOL    HW238466   0.344   3.944   9.725  3.0287 -1.5082 -0.1823
 9002SOL     OW38467   1.311   0.560  16.481  0.0978 -0.0121 -1.0790
 9002SOL    HW138468   1.326   0.629  16.416 -0.2536 -0.6778 -1.8646
 9002SOL    HW238469   1.219   0.541  16.463 -0.6701  0.7629  2.1041
 9003SOL     OW38470   0.436   0.005  16.028  0.4242  0.0446  0.2824
 9003SOL    HW138471   0.365   0.061  15.997  0.5614 -0.6119 -1.1980
 9003SOL    HW238472   0.505   0.036  15.969  0.6897 -1.9901 -0.4798
 9004SOL     OW38473   2.988   1.373   6.630  0.4427 -0.2711  0.2861
 9004SOL    HW138474   2.950   1.355   6.544 -0.3372  2.2708  0.1041
 9004SOL    HW238475   2.959   1.462   6.651  1.7992  0.4920 -1.1275
 9005SOL     OW38476   4.045   0.336   5.810  0.8478 -0.0730 -0.3616
 9005SOL    HW138477   4.015   0.298   5.728  3.1482 -2.9628  0.1340
 9005SOL    HW238478   4.074   0.419   5.773 -0.4864  0.2246 -0.7230
 9006SOL     OW38479   4.122   3.657   3.579 -0.1366  0.7617 -0.4176
 9006SOL    HW138480   4.038   3.695   3.551 -1.1095 -0.0109  1.4449
 9006SOL    HW238481   4.166   3.738   3.607  1.7317 -0.8089  1.1616
 9007SOL     OW38482   0.944   3.525  10.023  0.7985  0.8176  0.1838
 9007SOL    HW138483   0.949   3.534   9.928  2.3087 -0.0040  0.1794
 9007SOL    HW238484   0.994   3.601  10.053 -0.4185  2.0936 -1.0341
 9008SOL     OW38485   2.467   0.099   4.971  0.4244  0.0036  0.2536
 9008SOL    HW138486   2.513   0.140   4.898  0.7238 -2.7865 -1.1209
 9008SOL    HW238487   2.375   0.108   4.946 -0.4575  0.2288  3.6122
 9009SOL     OW38488   2.755   2.547   3.422  0.0717 -0.1294 -0.4240
 9009SOL    HW138489   2.817   2.489   3.378 -0.6183 -1.3281  0.2010
 9009SOL    HW238490   2.671   2.510   3.396 -1.8340  1.9522  2.6855
 9010SOL     OW38491   4.486   2.243  13.380  0.1706  0.0399  0.0254
 9010SOL    HW138492   4.430   2.201  13.445  0.8175 -0.1915  0.4385
 9010SOL    HW238493   4.441   2.206  13.304 -0.9498  2.6643 -0.5612
 9011SOL     OW38494   3.507   3.524   1.211 -0.1273 -0.8483  0.2851
 9011SOL    HW138495   3.550   3.441   1.228  0.5210 -0.9097 -1.6712
 9011SOL    HW238496   3.578   3.571   1.167 -1.0348  1.0346  0.7883
 9012SOL     OW38497   0.028   0.628  12.325  0.0152  0.0184 -0.9966
 9012SOL    HW138498   0.081   0.558  12.287 -0.4854 -1.2676  0.6760
 9012SOL    HW238499   0.092   0.658  12.389 -0.4848  0.1857 -0.5719
 9013SOL     OW38500   3.470   0.320   5.152  0.5083 -0.0284 -0.2635
 9013SOL    HW138501   3.399   0.356   5.206 -0.5864  0.8339 -2.2637
 9013SOL    HW238502   3.476   0.231   5.188  0.6569  0.0584 -0.0814
 9014SOL     OW38503   3.763   3.817  14.614  0.0232 -0.2757  0.1138
 9014SOL    HW138504   3.842   3.838  14.564  0.6922 -1.9319  0.4715
 9014SOL    HW238505   3.692   3.871  14.579 -0.9757 -1.2382  0.6514
 9015SOL     OW38506   2.004   2.205   5.619 -0.1704  0.1482  0.0065
 9015SOL    HW138507   2.002   2.210   5.715  2.4918 -1.5020  0.1408
 9015SOL    HW238508   2.053   2.124   5.605  1.4815  0.9034  1.4609
 9016SOL     OW38509   1.069   3.750  10.581  0.4203  0.0220  0.0586
 9016SOL    HW138510   1.088   3.721  10.492 -0.3407 -0.1193 -0.0648
 9016SOL    HW238511   0.985   3.791  10.561  1.1526  0.7670 -1.4252
 9017SOL     OW38512   4.109   2.838  15.771  0.6999 -0.0745 -0.3928
 9017SOL    HW138513   4.141   2.889  15.845  0.3796 -0.2161 -0.1618
 9017SOL    HW238514   4.014   2.842  15.773  0.6920  0.1880 -1.2107
 9018SOL     OW38515   2.120   2.072   6.326 -0.3349 -0.3501 -0.1728
 9018SOL    HW138516   2.055   2.003   6.314 -0.8469  0.1489 -0.2586
 9018SOL    HW238517   2.078   2.131   6.388 -1.2445 -1.3822  0.1997
 9019SOL     OW38518   4.496   1.386  14.424 -0.5121  0.1475  0.2105
 9019SOL    HW138519   4.484   1.470  14.380 -1.0165 -0.9902 -1.8091
 9019SOL    HW238520   4.465   1.400  14.514 -1.1831 -1.5379  0.2486
 9020SOL     OW38521   4.046   2.312  15.991 -0.2376  0.0296 -0.4519
 9020SOL    HW138522   3.954   2.333  15.973 -0.1270  0.6503 -0.2843
 9020SOL    HW238523   4.076   2.402  15.977 -2.4659  1.3469  3.2631
 9021SOL     OW38524   0.398   4.498   2.839 -0.7105 -0.1861  0.0894
 9021SOL    HW138525   0.324   4.438   2.829 -1.0988  0.3483 -0.3155
 9021SOL    HW238526   0.469   4.446   2.875 -0.2729 -0.9118 -1.8226
 9022SOL     OW38527   4.356   1.850   0.724 -0.1562 -0.1751  0.0442
 9022SOL    HW138528   4.427   1.793   0.692 -0.4414 -1.5257  1.7913
 9022SOL    HW238529   4.275   1.811   0.691 -1.4479  0.7257  2.1382
 9023SOL     OW38530   1.567   4.107   1.630  0.7773  0.1332 -0.0873
 9023SOL    HW138531   1.477   4.121   1.603  1.5443 -0.2279 -2.8666
 9023SOL    HW238532   1.552   4.036   1.692  2.0445  1.1577  1.4154
 9024SOL     OW38533   2.535   0.584   9.023 -0.2246 -0.1001  0.1470
 9024SOL    HW138534   2.513   0.662   9.074 -1.6606 -0.3404 -0.0934
 9024SOL    HW238535   2.592   0.624   8.957  1.4435 -3.7128 -0.6174
 9025SOL     OW38536   2.125   3.861   1.748 -0.1701 -0.5229  0.5373
 9025SOL    HW138537   2.130   3.945   1.793  0.5353 -0.2072 -0.1435
 9025SOL    HW238538   2.056   3.872   1.682 -0.7240  0.2716  1.2367
 9026SOL     OW38539   0.470   0.656   4.509  0.1273 -0.7308 -0.3379
 9026SOL    HW138540   0.479   0.729   4.569 -1.2024 -1.0521  0.2539
 9026SOL    HW238541   0.549   0.604   4.526  0.5935  0.9063  2.5048
 9027SOL     OW38542   4.610   0.399  15.132  0.2872 -0.0001  0.5087
 9027SOL    HW138543   4.528   0.354  15.110 -0.8235  1.6970  1.2346
 9027SOL    HW238544   4.674   0.341  15.090 -1.0158 -1.6831  0.7926
 9028SOL     OW38545   0.777   0.775   6.883 -0.1273 -0.2143 -0.2950
 9028SOL    HW138546   0.758   0.869   6.875 -1.8670 -0.6492 -1.1569
 9028SOL    HW238547   0.691   0.745   6.912 -0.6619  0.0448 -1.5944
 9029SOL     OW38548   3.912   3.943  11.185 -0.3716 -0.7258 -0.2650
 9029SOL    HW138549   3.904   3.910  11.275 -1.6988 -0.2074 -0.2053
 9029SOL    HW238550   3.906   4.038  11.194 -1.2691 -0.8215  0.2091
 9030SOL     OW38551   1.582   3.039   7.836  0.4287 -0.0209 -0.4697
 9030SOL    HW138552   1.534   3.069   7.913  0.0788 -0.2464 -0.5954
 9030SOL    HW238553   1.599   2.949   7.866  0.7890  0.4324  0.6881
 9031SOL     OW38554   0.453   2.684  14.300  0.2325 -0.2875 -0.4361
 9031SOL    HW138555   0.378   2.686  14.240 -1.1052  0.2255  1.2576
 9031SOL    HW238556   0.521   2.732  14.252 -0.4827  0.7890 -0.3818
 9032SOL     OW38557   4.143   3.190   2.124 -0.4674  1.0339  0.3190
 9032SOL    HW138558   4.128   3.255   2.056  1.9159 -1.2600 -2.4571
 9032SOL    HW238559   4.230   3.203   2.163 -0.7209  1.6004  0.6847
 9033SOL     OW38560   1.401   3.234  17.003 -0.1724  0.6235 -0.5411
 9033SOL    HW138561   1.328   3.295  16.994 -0.3680  0.3298 -0.9223
 9033SOL    HW238562   1.407   3.171  16.931 -1.2985 -0.2667  0.1530
 9034SOL     OW38563   0.310   2.260   9.197 -0.2753 -0.3686 -0.7440
 9034SOL    HW138564   0.300   2.300   9.283 -0.1850  0.3481 -1.0717
 9034SOL    HW238565   0.306   2.166   9.216  1.4017 -0.0752  1.0637
 9035SOL     OW38566   3.034   3.350   7.855 -0.2114 -0.0865 -0.5073
 9035SOL    HW138567   2.943   3.319   7.858  0.3064 -1.6323 -0.7718
 9035SOL    HW238568   3.043   3.355   7.950 -0.1703  0.4208 -0.5381
 9036SOL     OW38569   3.336   0.936   9.979 -0.2037  0.1711 -0.3177
 9036SOL    HW138570   3.384   0.996  10.036 -0.6943 -0.7584  1.0610
 9036SOL    HW238571   3.341   0.969   9.889  0.6501  0.3494 -0.2114
 9037SOL     OW38572   3.333   4.620   8.103  0.4572  0.3304 -0.0210
 9037SOL    HW138573   3.261   4.668   8.144  0.3876  0.4850 -0.3233
 9037SOL    HW238574   3.403   4.646   8.163 -0.1159 -0.1891  0.8619
 9038SOL     OW38575   1.693   4.025  10.774  0.2727 -0.0795  0.2568
 9038SOL    HW138576   1.737   4.098  10.732  1.7450 -0.0296  1.8896
 9038SOL    HW238577   1.747   3.952  10.742  2.1111  0.2362  2.6353
 9039SOL     OW38578   3.243   2.710   0.649 -0.4445  0.1576  0.3317
 9039SOL    HW138579   3.213   2.629   0.690 -1.4284 -0.3506 -1.3909
 9039SOL    HW238580   3.233   2.775   0.718  1.5713  0.0925  0.6877
 9040SOL     OW38581   4.701   2.270   2.145  0.1505 -0.2407  0.1399
 9040SOL    HW138582   0.016   2.344   2.097 -0.4153 -0.9160 -1.3422
 9040SOL    HW238583   0.052   2.223   2.184 -0.1310 -0.4688  0.3905
 9041SOL     OW38584   1.255   3.471   9.009  1.0562  0.3717 -0.6977
 9041SOL    HW138585   1.275   3.492   9.101  0.4578  1.2173 -0.7560
 9041SOL    HW238586   1.159   3.471   9.011  1.0778 -1.7073  0.0721
 9042SOL     OW38587   3.588   0.982   1.509 -0.0578 -0.3110  0.1543
 9042SOL    HW138588   3.625   1.069   1.498  0.5556 -0.4134  1.4327
 9042SOL    HW238589   3.517   0.987   1.445 -0.9130 -1.3190  1.0246
 9043SOL     OW38590   3.084   1.276  11.671  0.1182  1.2030 -0.1052
 9043SOL    HW138591   3.003   1.260  11.623  0.3201 -2.6641  0.8242
 9043SOL    HW238592   3.065   1.366  11.697  1.1491  0.7016  2.4123
 9044SOL     OW38593   3.390   0.899  12.287  0.1032  0.0667  0.0469
 9044SOL    HW138594   3.472   0.887  12.334  0.1097  0.7012  0.1977
 9044SOL    HW238595   3.323   0.880  12.353  0.4686  0.8207  0.6442
 9045SOL     OW38596   0.631   4.169   8.401 -0.2718  0.2348  0.0204
 9045SOL    HW138597   0.589   4.251   8.427 -0.8081  0.0954 -0.3926
 9045SOL    HW238598   0.586   4.159   8.316 -1.5163 -0.1509  0.7184
 9046SOL     OW38599   3.708   2.820  13.793  0.2451 -0.9865  0.3496
 9046SOL    HW138600   3.733   2.796  13.882  1.0166 -0.5536  0.2493
 9046SOL    HW238601   3.795   2.834  13.757 -0.6239  0.7250 -1.1415
 9047SOL     OW38602   1.937   2.910   5.575 -0.1820  0.0723 -0.3639
 9047SOL    HW138603   1.944   2.898   5.670 -0.8558  0.6730 -0.2345
 9047SOL    HW238604   1.905   2.824   5.549 -0.5055  0.0677  0.0436
 9048SOL     OW38605   3.268   2.327   3.764  0.0361  0.2588 -0.3170
 9048SOL    HW138606   3.278   2.415   3.728 -1.2043  0.5677  0.0824
 9048SOL    HW238607   3.264   2.274   3.685  1.2640  0.7130 -0.6801
 9049SOL     OW38608   4.506   4.141  16.895  0.1356  0.4195  0.0617
 9049SOL    HW138609   4.555   4.110  16.972 -1.1583 -1.6389  0.0621
 9049SOL    HW238610   4.484   4.054  16.862  1.4654  0.2255 -0.3278
 9050SOL     OW38611   3.202   3.383   4.758 -0.0264 -0.5065  0.1723
 9050SOL    HW138612   3.161   3.455   4.806  0.7068  0.6618 -0.9795
 9050SOL    HW238613   3.123   3.333   4.736 -0.1442 -0.3957  0.3431
 9051SOL     OW38614   4.207   0.632   5.221  0.0403  0.0679  0.2908
 9051SOL    HW138615   4.227   0.668   5.134 -1.1212 -1.2290 -0.5124
 9051SOL    HW238616   4.297   0.626   5.253 -0.2796  2.4974  1.5838
 9052SOL     OW38617   4.585   1.278   4.994  0.0179 -0.7286  0.1114
 9052SOL    HW138618   4.558   1.278   5.086 -0.0703 -0.8519  0.0850
 9052SOL    HW238619   4.501   1.276   4.949  0.6397 -3.2538 -0.9515
 9053SOL     OW38620   0.145   4.378   2.809 -0.1118 -0.1905  0.6185
 9053SOL    HW138621   0.068   4.388   2.864 -1.4810  1.3969 -1.6249
 9053SOL    HW238622   0.111   4.344   2.727  1.0776  0.2324 -0.0538
 9054SOL     OW38623   0.038   2.367  14.812  0.7894 -0.1005  0.8426
 9054SOL    HW138624   0.082   2.451  14.824  0.4250  0.5016 -1.9494
 9054SOL    HW238625   4.675   2.392  14.847 -0.8963  0.3183 -3.5163
 9055SOL     OW38626   1.239   2.532   4.351  0.1073  0.3913 -0.1780
 9055SOL    HW138627   1.249   2.582   4.431  0.3957  0.5213 -0.2971
 9055SOL    HW238628   1.155   2.566   4.319 -0.5425 -1.8315 -0.8917
 9056SOL     OW38629   0.592   3.696   7.830  0.6148  0.1558 -0.1315
 9056SOL    HW138630   0.565   3.783   7.801  0.0839 -0.0460 -0.2276
 9056SOL    HW238631   0.688   3.699   7.833  0.6643 -2.6599  0.5345
 9057SOL     OW38632   2.900   2.436  14.502  0.0277  0.1663 -0.2936
 9057SOL    HW138633   2.836   2.399  14.441 -0.5035  0.0784  0.3245
 9057SOL    HW238634   2.863   2.512  14.547 -0.0755  1.2856 -2.2594
 9058SOL     OW38635   0.901   1.383   1.755  0.4023 -0.3229 -0.3000
 9058SOL    HW138636   0.876   1.313   1.695  1.0761  1.6415 -2.8548
 9058SOL    HW238637   0.987   1.354   1.785 -0.0972  0.0806  1.5110
 9059SOL     OW38638   3.982   2.500   6.863  0.0292  0.3411 -0.0739
 9059SOL    HW138639   3.922   2.491   6.937 -0.5949 -1.2327 -0.7583
 9059SOL    HW238640   4.032   2.577   6.889 -3.6958  2.9644 -0.5999
 9060SOL     OW38641   3.047   1.614   1.091  0.4525  0.3294  0.1214
 9060SOL    HW138642   3.004   1.651   1.014  3.5219 -0.4315 -1.9406
 9060SOL    HW238643   3.030   1.522   1.069 -0.9315  0.8701 -1.0396
 9061SOL     OW38644   0.344   0.284   8.565 -0.9509 -0.0122 -0.4046
 9061SOL    HW138645   0.308   0.370   8.587  1.4599  1.3155 -1.6702
 9061SOL    HW238646   0.348   0.284   8.470 -1.8323  2.0421 -0.4437
 9062SOL     OW38647   0.471   1.208  13.518  0.5789 -0.1322 -0.0649
 9062SOL    HW138648   0.519   1.206  13.435  0.3877  1.4944 -0.2118
 9062SOL    HW238649   0.394   1.258  13.492  0.4410 -0.2463  0.1213
 9063SOL     OW38650   1.163   1.024  14.709 -0.1824 -0.0029  0.1112
 9063SOL    HW138651   1.089   0.978  14.668 -0.7798  0.1724  0.9959
 9063SOL    HW238652   1.113   1.096  14.748  0.2483 -1.4877  3.3657
 9064SOL     OW38653   3.917   2.476   9.509  0.0081  0.2088 -0.2748
 9064SOL    HW138654   4.002   2.515   9.530 -0.2680  0.6016  0.0943
 9064SOL    HW238655   3.861   2.553   9.512  0.3495  0.4201  0.5857
 9065SOL     OW38656   1.479   0.234   3.645 -0.2209  0.1646 -0.3384
 9065SOL    HW138657   1.467   0.329   3.637  3.3529  1.1408  5.9581
 9065SOL    HW238658   1.442   0.203   3.562  0.0605 -0.1454 -0.3505
 9066SOL     OW38659   2.886   4.240   9.656  0.6615  0.8583 -0.9665
 9066SOL    HW138660   2.858   4.189   9.580  1.8760  2.2687 -2.3614
 9066SOL    HW238661   2.866   4.329   9.627 -2.1041 -0.1185 -2.0402
 9067SOL     OW38662   0.502   1.459   2.872  0.1824  0.0848 -1.2738
 9067SOL    HW138663   0.433   1.463   2.806  0.6354 -2.2760 -1.8720
 9067SOL    HW238664   0.571   1.418   2.820  2.6493 -0.0358  2.1290
 9068SOL     OW38665   0.479   2.989  11.474  0.1589  0.4089  0.6188
 9068SOL    HW138666   0.428   2.910  11.455  1.5723  0.4526 -3.3364
 9068SOL    HW238667   0.438   3.009  11.558  1.2654  2.9933  0.5388
 9069SOL     OW38668   3.566   3.407   6.321 -0.0184 -0.1412 -0.3942
 9069SOL    HW138669   3.484   3.368   6.350 -0.7675  0.9803 -1.0170
 9069SOL    HW238670   3.542   3.492   6.284  0.6084 -0.2285 -1.0109
 9070SOL     OW38671   0.139   0.979   9.313 -0.5765  0.0266  0.3192
 9070SOL    HW138672   0.056   0.950   9.274  1.0745 -1.8940 -1.7690
 9070SOL    HW238673   0.146   1.068   9.279  0.2714 -0.4877 -0.8413
 9071SOL     OW38674   4.068   2.381   2.407  0.5968 -0.5056  0.3222
 9071SOL    HW138675   4.117   2.400   2.327  2.0435 -1.9381  0.8809
 9071SOL    HW238676   4.073   2.463   2.457  0.5646  0.0753 -0.6259
 9072SOL     OW38677   1.235   3.597  11.205 -0.1109  0.4816 -0.1663
 9072SOL    HW138678   1.158   3.548  11.234 -0.0910  0.4302 -0.2001
 9072SOL    HW238679   1.227   3.587  11.110 -1.1319 -1.4547  0.1315
 9073SOL     OW38680   0.738   0.555   7.926  0.0209 -0.1059 -0.4075
 9073SOL    HW138681   0.721   0.491   7.995 -0.8635  1.0571  0.4520
 9073SOL    HW238682   0.664   0.611   7.949  0.5413 -0.5478  2.4159
 9074SOL     OW38683   2.987   1.802  16.828 -0.0207  0.0839 -0.3628
 9074SOL    HW138684   2.969   1.854  16.750 -0.2610  0.0353 -0.3390
 9074SOL    HW238685   3.077   1.772  16.813 -0.4748 -1.3920 -0.1690
 9075SOL     OW38686   2.084   4.572   4.197 -0.2537  0.0257  0.1122
 9075SOL    HW138687   2.123   4.486   4.214 -0.1050  0.6669  3.0354
 9075SOL    HW238688   2.008   4.558   4.141 -0.8035  1.3428  0.5325
 9076SOL     OW38689   2.504   4.197   5.231  0.0912 -0.0684 -0.0703
 9076SOL    HW138690   2.580   4.167   5.181  0.4822  2.1139 -0.7958
 9076SOL    HW238691   2.446   4.121   5.223  0.8740 -0.4581 -1.9840
 9077SOL     OW38692   3.395   4.413  10.571 -0.3183 -0.3067 -0.2060
 9077SOL    HW138693   3.474   4.463  10.589 -0.7372 -0.3496  1.7664
 9077SOL    HW238694   3.382   4.345  10.638 -2.3328 -0.1373 -0.4316
 9078SOL     OW38695   3.256   2.392   5.128  0.4683 -0.3382  0.3172
 9078SOL    HW138696   3.319   2.320   5.125  2.0849  1.1225 -0.5847
 9078SOL    HW238697   3.260   2.418   5.221 -1.5045  1.0456  0.0185
 9079SOL     OW38698   0.034   2.516  11.530 -0.4918  0.3464 -0.0486
 9079SOL    HW138699   0.033   2.589  11.469 -3.2501  0.3579  0.0357
 9079SOL    HW238700   0.130   2.522  11.531 -0.5064  0.0072  2.2949
 9080SOL     OW38701   4.238   2.101   2.433 -0.2245  0.4570  0.5400
 9080SOL    HW138702   4.199   2.058   2.356  2.6103 -1.1403  0.0050
 9080SOL    HW238703   4.302   2.156   2.387 -1.1398  2.7841  2.0770
 9081SOL     OW38704   1.050   4.507   6.176  0.1056  0.0476  0.2674
 9081SOL    HW138705   1.084   4.580   6.228  1.0766  0.1609 -0.5188
 9081SOL    HW238706   1.041   4.549   6.091  2.4191 -1.9712 -0.9739
 9082SOL     OW38707   0.216   2.148   1.877 -0.1375  0.3289 -0.1393
 9082SOL    HW138708   0.188   2.103   1.797 -2.0934 -0.0490  0.7626
 9082SOL    HW238709   0.184   2.233   1.847  4.3683  2.0824 -0.0338
 9083SOL     OW38710   4.021   4.342  16.474  0.4355 -0.2339  0.7443
 9083SOL    HW138711   3.966   4.302  16.407  2.9072  1.4899 -2.3335
 9083SOL    HW238712   4.004   4.433  16.448 -2.2659 -0.9217  0.0940
 9084SOL     OW38713   0.192   4.366   5.327  0.5006 -0.4291 -0.4939
 9084SOL    HW138714   0.236   4.302   5.383  0.3940  0.5484  0.6888
 9084SOL    HW238715   0.101   4.348   5.346  0.3938  0.9890  0.3453
 9085SOL     OW38716   2.797   1.031   1.630  0.0626  0.5537  0.1986
 9085SOL    HW138717   2.735   0.959   1.619  0.6548  0.1021 -0.1448
 9085SOL    HW238718   2.847   1.033   1.549  0.5972  1.9686  0.5531
 9086SOL     OW38719   0.334   0.252   9.879 -0.6717 -0.2619  0.0350
 9086SOL    HW138720   0.346   0.337   9.921 -3.9394  0.7338 -1.0294
 9086SOL    HW238721   0.262   0.228   9.936 -1.6856  0.9777 -0.7128
 9087SOL     OW38722   1.184   2.109   6.450 -0.6964 -0.9412 -0.5046
 9087SOL    HW138723   1.212   2.200   6.447 -0.5932 -0.9411  0.3093
 9087SOL    HW238724   1.219   2.088   6.364 -0.2794 -1.9388 -0.0873
 9088SOL     OW38725   4.221   4.502   3.993  0.2068 -0.0344  0.5148
 9088SOL    HW138726   4.276   4.576   3.965  0.9566 -0.1433  1.6835
 9088SOL    HW238727   4.214   4.456   3.909 -1.2330  0.7206  0.2207
 9089SOL     OW38728   2.004   1.700  14.902 -0.0344 -0.2801 -0.6303
 9089SOL    HW138729   1.963   1.613  14.901 -1.3575  0.3387  0.2932
 9089SOL    HW238730   1.992   1.724  14.810 -1.1326 -1.3036 -0.7514
 9090SOL     OW38731   4.368   1.671   6.682 -0.6709 -0.3129 -0.4733
 9090SOL    HW138732   4.350   1.706   6.594 -1.5236  1.5544  0.4472
 9090SOL    HW238733   4.280   1.655   6.716 -1.3436  0.2830 -1.9252
 9091SOL     OW38734   3.367   3.187   4.511  0.3825 -0.3428 -0.4744
 9091SOL    HW138735   3.396   3.180   4.602 -1.1525  0.5629  0.0734
 9091SOL    HW238736   3.448   3.176   4.460  1.9201  0.7264  1.7023
 9092SOL     OW38737   3.433   4.111   0.598 -0.0141 -0.0597 -0.0328
 9092SOL    HW138738   3.378   4.189   0.600 -2.4005 -1.7319  0.2015
 9092SOL    HW238739   3.504   4.138   0.540 -0.3689  2.8438  0.8989
 9093SOL     OW38740   1.935   4.643  10.830  0.2145  0.5274 -0.1570
 9093SOL    HW138741   1.890   4.563  10.858  0.1582  1.1951  1.6719
 9093SOL    HW238742   1.872   4.705  10.867 -0.1853 -0.0227  0.0909
 9094SOL     OW38743   2.091   4.418   3.086  0.0085  0.2033  0.7007
 9094SOL    HW138744   2.166   4.442   3.139 -0.5113 -0.2863  1.6658
 9094SOL    HW238745   2.023   4.469   3.130  1.6115  0.7351  2.5682
 9095SOL     OW38746   4.409   3.621   4.036  0.1027  0.1187 -0.2697
 9095SOL    HW138747   4.406   3.528   4.012 -1.3528  0.0107  0.3766
 9095SOL    HW238748   4.448   3.618   4.123 -1.0458 -2.9584  0.1404
 9096SOL     OW38749   4.555   0.163   8.051 -0.1235 -0.4058  0.0006
 9096SOL    HW138750   4.570   0.084   8.104  0.9090 -0.9871 -1.1847
 9096SOL    HW238751   4.627   0.161   7.989  0.7639 -0.8816  1.0320
 9097SOL     OW38752   4.576   1.667   7.032 -0.5145  0.7845  0.0960
 9097SOL    HW138753   4.490   1.625   7.040 -0.1565  0.0250 -0.0375
 9097SOL    HW238754   4.590   1.679   7.125 -1.1314 -1.2360  0.4567
 9098SOL     OW38755   3.813   0.082   3.695 -0.2016 -0.1476 -0.0386
 9098SOL    HW138756   3.727   0.040   3.688  1.0251 -2.7670  0.5520
 9098SOL    HW238757   3.792   0.157   3.750 -1.5925 -1.0270  0.6436
 9099SOL     OW38758   1.677   3.519   6.716 -0.1464 -0.4530 -0.2793
 9099SOL    HW138759   1.648   3.427   6.718 -0.2819 -0.4193 -0.6736
 9099SOL    HW238760   1.698   3.533   6.624 -0.0552 -0.0742 -0.1983
 9100SOL     OW38761   1.699   0.204  16.025  0.2799 -0.1414 -0.7667
 9100SOL    HW138762   1.616   0.184  15.982 -0.7482  1.1172  0.6109
 9100SOL    HW238763   1.762   0.149  15.978  0.8076 -1.8339  1.9202
 9101SOL     OW38764   0.144   3.114   5.785  0.4341 -0.0291  0.0878
 9101SOL    HW138765   0.157   3.019   5.780 -0.3238 -0.2042  1.2143
 9101SOL    HW238766   0.177   3.121   5.875  1.9119 -0.2004 -0.4491
 9102SOL     OW38767   1.343   4.193   9.079 -0.1980  0.5520  0.2871
 9102SOL    HW138768   1.389   4.261   9.028  0.4849 -1.0448 -1.2374
 9102SOL    HW238769   1.272   4.183   9.016 -0.1859  0.1370  0.3396
 9103SOL     OW38770   3.292   3.065  13.373 -0.1175  0.1669 -0.0176
 9103SOL    HW138771   3.302   3.055  13.278  0.1650  0.3661 -0.0086
 9103SOL    HW238772   3.339   2.989  13.408  2.6031  2.3096  0.9776
 9104SOL     OW38773   1.586   3.393   8.932  0.0890  0.1984  0.4471
 9104SOL    HW138774   1.607   3.451   8.859  0.3815 -0.0865  0.3057
 9104SOL    HW238775   1.508   3.347   8.901  1.2441 -1.7610  0.3984
 9105SOL     OW38776   3.763   2.836   4.903 -0.0827 -0.5127 -0.9255
 9105SOL    HW138777   3.799   2.761   4.951 -1.0071 -0.1327  0.3540
 9105SOL    HW238778   3.671   2.814   4.918 -0.1514  0.8761  0.7732
 9106SOL     OW38779   1.837   0.988   6.551  0.1035 -0.3418 -0.1491
 9106SOL    HW138780   1.744   1.006   6.560  0.1610 -0.2281  0.2137
 9106SOL    HW238781   1.842   0.939   6.469  0.8576 -0.1159 -0.2402
 9107SOL     OW38782   2.342   1.749   6.935  0.6431 -0.1427 -0.2911
 9107SOL    HW138783   2.373   1.823   6.883 -0.3353  1.2157  1.0488
 9107SOL    HW238784   2.257   1.789   6.951  1.0902  0.5213  0.4392
 9108SOL     OW38785   3.053   3.813   6.212 -0.0810  0.4051 -0.0009
 9108SOL    HW138786   2.982   3.764   6.170  2.5757 -2.4754 -1.1153
 9108SOL    HW238787   3.102   3.740   6.252 -0.6464  0.6613  1.1766
 9109SOL     OW38788   0.856   2.713  14.597 -0.1690 -0.1730 -0.4596
 9109SOL    HW138789   0.913   2.638  14.586  1.2829  0.4467  2.6849
 9109SOL    HW238790   0.775   2.668  14.623  0.2049 -0.2963  0.5055
 9110SOL     OW38791   1.020   4.192   9.486 -0.3174  0.1807  0.0943
 9110SOL    HW138792   1.084   4.142   9.435  0.0140  1.1707 -0.4640
 9110SOL    HW238793   1.059   4.182   9.572  0.4451  1.2378 -0.1201
 9111SOL     OW38794   1.153   3.396  12.465 -0.4072 -0.0681  0.0416
 9111SOL    HW138795   1.234   3.403  12.517 -1.4650  0.6445  1.5849
 9111SOL    HW238796   1.127   3.306  12.483  0.8034  0.0572  2.5176
 9112SOL     OW38797   2.215   2.720   4.540 -0.6602 -0.0401  0.8944
 9112SOL    HW138798   2.167   2.638   4.531 -2.2456  1.1572 -1.5847
 9112SOL    HW238799   2.216   2.742   4.633 -5.7336  2.4206  0.3339
 9113SOL     OW38800   1.375   1.227   8.132  0.4635 -0.0658  0.0661
 9113SOL    HW138801   1.354   1.180   8.052  1.6803  2.5814 -1.8088
 9113SOL    HW238802   1.308   1.295   8.141 -2.2186 -2.8435  0.6528
 9114SOL     OW38803   1.477   4.635  10.015 -0.5642  0.1972  0.2664
 9114SOL    HW138804   1.540   4.606  10.081 -1.0548  0.4423  0.8453
 9114SOL    HW238805   1.508   0.001   9.999 -1.0444  0.0435 -1.4971
 9115SOL     OW38806   0.330   1.624   4.538 -0.3527  0.4292  0.1083
 9115SOL    HW138807   0.328   1.531   4.517 -0.9618  1.2691 -3.5466
 9115SOL    HW238808   0.241   1.655   4.521  0.4705  2.6921 -0.1922
 9116SOL     OW38809   3.433   3.104  14.661  0.2147 -0.3253 -0.2778
 9116SOL    HW138810   3.479   3.022  14.682 -1.2420 -1.1761 -0.4326
 9116SOL    HW238811   3.350   3.097  14.708  0.2779 -1.9804 -0.4217
 9117SOL     OW38812   4.102   4.021   8.491  0.0032  0.2902 -0.2840
 9117SOL    HW138813   4.156   4.027   8.412 -0.5867  1.2003 -0.6128
 9117SOL    HW238814   4.024   4.067   8.461 -1.8678 -1.2286  2.2870
 9118SOL     OW38815   0.215   1.887   3.853  0.1443  0.7510 -0.0201
 9118SOL    HW138816   0.147   1.822   3.833 -0.3745  1.4569 -0.5125
 9118SOL    HW238817   0.291   1.834   3.879 -0.1467  0.0754 -0.5317
 9119SOL     OW38818   1.132   3.200  16.509  0.3733  0.4692  0.0210
 9119SOL    HW138819   1.127   3.236  16.421  1.3941  2.1408  0.6576
 9119SOL    HW238820   1.156   3.275  16.563 -1.0147  0.9710 -0.0568
 9120SOL     OW38821   4.413   2.007   6.514  0.3973  0.2895  0.0998
 9120SOL    HW138822   4.422   2.098   6.485 -0.0570  1.2380  2.9062
 9120SOL    HW238823   4.421   2.020   6.609  1.0230 -2.0452  0.3763
 9121SOL     OW38824   1.335   4.233   3.310 -0.1933 -0.0699  0.3316
 9121SOL    HW138825   1.372   4.318   3.334 -1.4874  0.9249 -1.2565
 9121SOL    HW238826   1.323   4.255   3.218  1.7363 -0.0068  0.0875
 9122SOL     OW38827   0.526   4.431   3.832 -0.0981 -0.6162  0.5771
 9122SOL    HW138828   0.603   4.487   3.840 -0.4499  0.0453 -0.6547
 9122SOL    HW238829   0.563   4.345   3.817 -1.6885 -0.9071 -1.6697
 9123SOL     OW38830   4.508   3.120   3.283  0.7525 -0.1088  0.1346
 9123SOL    HW138831   4.553   3.119   3.198 -0.6574 -1.6380 -0.5954
 9123SOL    HW238832   4.438   3.185   3.275  1.1278 -0.1290 -3.2665
 9124SOL     OW38833   2.947   3.952  14.481 -0.1732 -0.2211 -0.1803
 9124SOL    HW138834   2.898   4.031  14.456 -1.5238 -1.3107 -0.9545
 9124SOL    HW238835   3.024   3.988  14.525  0.5585 -0.9718 -0.8388
 9125SOL     OW38836   2.331   4.703   1.933  0.0345 -0.2868  0.0764
 9125SOL    HW138837   2.273   0.046   1.972  1.8937  1.3289  0.1283
 9125SOL    HW238838   2.371   0.032   1.863  1.0002 -2.7107 -1.1332
 9126SOL     OW38839   0.061   4.247  10.401 -0.0884 -0.3422 -0.7828
 9126SOL    HW138840   0.031   4.166  10.359  0.6841 -2.0737  1.9952
 9126SOL    HW238841   0.102   4.291  10.326 -1.5416 -0.6402 -1.7522
 9127SOL     OW38842   0.202   2.344  11.117  0.1282 -0.6051  0.8961
 9127SOL    HW138843   0.273   2.311  11.062 -2.4262 -2.1643 -1.3853
 9127SOL    HW238844   0.163   2.270  11.163 -0.4568 -0.9406 -0.1512
 9128SOL     OW38845   0.003   1.706   3.796  0.8025 -0.2369 -0.0826
 9128SOL    HW138846   0.010   1.642   3.866 -0.5324 -0.6254 -0.2944
 9128SOL    HW238847   4.688   1.653   3.725  0.3765 -1.2126  0.8793
 9129SOL     OW38848   2.766   1.492  15.573  0.2208 -0.4699 -0.0521
 9129SOL    HW138849   2.819   1.461  15.500  1.4999 -1.3955  1.2603
 9129SOL    HW238850   2.827   1.487  15.646 -0.2477  2.6663  0.5650
 9130SOL     OW38851   3.321   1.395   5.516 -0.5635 -0.2176 -0.8769
 9130SOL    HW138852   3.303   1.430   5.604  0.1692 -1.9639 -0.0415
 9130SOL    HW238853   3.234   1.372   5.483 -2.0801  2.8372  0.9294
 9131SOL     OW38854   1.219   1.050   3.263  0.3890 -0.6752 -0.1096
 9131SOL    HW138855   1.251   0.980   3.206  1.9801  0.7785 -0.9868
 9131SOL    HW238856   1.258   1.018   3.345  0.7111  1.1594  0.4403
 9132SOL     OW38857   4.422   4.557   3.035 -0.1795  0.0281 -0.3481
 9132SOL    HW138858   4.328   4.547   3.018 -0.4903  0.3506  1.2254
 9132SOL    HW238859   4.468   4.611   2.971 -0.1482 -0.1869 -0.5078
 9133SOL     OW38860   2.019   0.167   4.259 -0.2043  0.2825  0.8522
 9133SOL    HW138861   2.036   0.075   4.275  1.1001  0.6773  1.6864
 9133SOL    HW238862   1.965   0.183   4.336 -0.6218  0.9216  0.4302
 9134SOL     OW38863   3.832   1.489   6.469  0.0696  0.0751  0.1207
 9134SOL    HW138864   3.763   1.477   6.534  0.1809  0.9361  0.4034
 9134SOL    HW238865   3.836   1.399   6.437 -0.5494  0.1169 -0.0835
 9135SOL     OW38866   3.742   0.902   6.872 -0.1695  0.4391  0.4057
 9135SOL    HW138867   3.710   0.958   6.801 -0.5863  2.5955  2.3153
 9135SOL    HW238868   3.805   0.850   6.821 -0.7758  0.9577 -0.8595
 9136SOL     OW38869   3.335   0.754   3.238  0.2006  0.2745  0.0482
 9136SOL    HW138870   3.360   0.783   3.326  0.5387 -2.3779  0.8284
 9136SOL    HW238871   3.256   0.803   3.214 -0.6718 -1.4088 -0.5169
 9137SOL     OW38872   1.935   3.371   4.604  0.1287 -0.4836 -0.2439
 9137SOL    HW138873   1.910   3.462   4.585  0.4955 -0.5755 -1.1376
 9137SOL    HW238874   1.870   3.344   4.669  0.7077  0.7111  0.8417
 9138SOL     OW38875   2.975   3.248   4.707 -0.1423 -0.0329  0.1219
 9138SOL    HW138876   2.883   3.268   4.721 -0.3747 -0.3245 -0.9809
 9138SOL    HW238877   2.973   3.244   4.611  0.9306  2.7802  0.0078
 9139SOL     OW38878   3.601   4.682  11.719 -0.1114 -0.2190  0.5563
 9139SOL    HW138879   3.639   4.595  11.731 -0.1284 -0.2647  0.2656
 9139SOL    HW238880   3.668   0.017  11.758  0.2462 -1.1380  1.2909
 9140SOL     OW38881   2.892   3.912   7.107 -0.2583 -0.3604 -0.8552
 9140SOL    HW138882   2.931   3.931   7.193 -1.6000  1.0914 -0.5629
 9140SOL    HW238883   2.828   3.983   7.106 -1.3340 -1.2807  1.2944
 9141SOL     OW38884   0.661   1.969  13.223 -0.4504 -0.0130 -0.0359
 9141SOL    HW138885   0.715   1.944  13.298  1.4432 -1.7176 -1.9646
 9141SOL    HW238886   0.658   1.885  13.178  0.1568  0.5681 -1.1836
 9142SOL     OW38887   3.846   4.235  16.280  0.0970 -0.6145  0.0531
 9142SOL    HW138888   3.822   4.143  16.273  0.0763 -0.4829 -1.6536
 9142SOL    HW238889   3.774   4.276  16.233 -1.8398 -2.5926  1.2968
 9143SOL     OW38890   4.346   1.322   8.801 -0.0078  0.0969  0.4876
 9143SOL    HW138891   4.315   1.242   8.843  0.0003  1.0566  2.3286
 9143SOL    HW238892   4.377   1.285   8.718 -1.2464  0.1361  0.0138
 9144SOL     OW38893   2.611   3.710   4.887 -0.1127 -0.1400  0.8934
 9144SOL    HW138894   2.533   3.686   4.836  1.8270 -1.5729 -1.3882
 9144SOL    HW238895   2.616   3.804   4.867  1.5360 -0.2841  0.6277
 9145SOL     OW38896   4.645   3.094   3.031 -0.2269 -0.2392 -0.0383
 9145SOL    HW138897   4.588   3.025   2.996  1.1586 -1.4124 -0.0157
 9145SOL    HW238898   0.002   3.070   2.982  0.4469 -0.7656  1.3082
 9146SOL     OW38899   1.759   0.945   5.124  0.1774  0.2143  0.5333
 9146SOL    HW138900   1.835   0.887   5.126  0.9027  1.0861 -1.6001
 9146SOL    HW238901   1.767   0.991   5.207  1.3520  0.0247  0.5279
 9147SOL     OW38902   4.270   4.267   2.864  0.0687  0.1146  0.1688
 9147SOL    HW138903   4.204   4.298   2.926  0.5551  0.0391  0.7275
 9147SOL    HW238904   4.234   4.183   2.834 -0.6862  0.7345 -0.6517
 9148SOL     OW38905   1.391   3.764  11.852  0.6864 -0.3070 -0.1606
 9148SOL    HW138906   1.382   3.673  11.880  0.5781  0.4114  2.1428
 9148SOL    HW238907   1.325   3.798  11.913  0.6101  4.6037 -2.9948
 9149SOL     OW38908   1.986   3.175   3.514  0.2585  0.2532 -0.2737
 9149SOL    HW138909   1.941   3.153   3.433 -1.6480 -0.7966  1.0744
 9149SOL    HW238910   2.073   3.191   3.478 -0.8743  1.3369 -2.4666
 9150SOL     OW38911   4.690   0.895   2.484  0.0660  0.2214  0.3569
 9150SOL    HW138912   0.027   0.889   2.409  0.4015 -1.4600  0.7684
 9150SOL    HW238913   0.018   0.876   2.563 -1.3636  2.2316  1.7477
 9151SOL     OW38914   0.514   0.290   7.798 -0.1265  0.1216  0.0471
 9151SOL    HW138915   0.481   0.201   7.805 -3.6664  1.2741 -2.4155
 9151SOL    HW238916   0.540   0.302   7.890  1.0732  0.4035 -0.3236
 9152SOL     OW38917   1.302   0.328   4.142 -0.1889 -0.6199 -0.3807
 9152SOL    HW138918   1.361   0.278   4.086  1.5721  0.6170  0.3553
 9152SOL    HW238919   1.318   0.292   4.229  0.6946 -0.6639 -0.5615
 9153SOL     OW38920   3.705   1.739   8.950 -0.1463 -1.0340  0.0415
 9153SOL    HW138921   3.689   1.834   8.951  0.4483 -0.9422  0.7881
 9153SOL    HW238922   3.625   1.700   8.987  0.8550 -1.5144  1.7142
 9154SOL     OW38923   1.534   3.160   4.561 -0.2039 -0.4576  0.1624
 9154SOL    HW138924   1.471   3.219   4.518 -0.3453 -0.3120  0.5724
 9154SOL    HW238925   1.615   3.187   4.518 -0.3662  1.2585  0.9207
 9155SOL     OW38926   0.705   1.024  15.110 -0.2490 -0.0308  0.3538
 9155SOL    HW138927   0.693   0.931  15.132 -1.2636  0.4113  1.6930
 9155SOL    HW238928   0.650   1.027  15.032 -0.2421 -1.0254  0.3018
 9156SOL     OW38929   1.890   3.655   2.591 -0.2155  0.5538 -0.5553
 9156SOL    HW138930   1.918   3.745   2.606 -0.1089  0.3912  0.2374
 9156SOL    HW238931   1.818   3.656   2.655  1.5257  2.8392  1.3852
 9157SOL     OW38932   1.003   1.469  10.203 -0.3716 -0.1663  0.1868
 9157SOL    HW138933   0.996   1.380  10.168 -3.2908 -0.1027  0.6328
 9157SOL    HW238934   1.064   1.459  10.277  1.4951  0.9209 -1.1929
 9158SOL     OW38935   2.933   4.032   6.347 -0.3166  0.2574  0.7071
 9158SOL    HW138936   2.911   4.086   6.271  2.0185  1.8781  1.1675
 9158SOL    HW238937   2.975   3.963   6.296 -2.3374  1.0030 -1.9678
 9159SOL     OW38938   4.155   2.119   8.412  0.7375 -0.1689  0.1659
 9159SOL    HW138939   4.168   2.171   8.333 -0.3686 -1.9038 -1.1550
 9159SOL    HW238940   4.135   2.187   8.476 -1.0151  0.1157 -0.6759
 9160SOL     OW38941   0.866   0.006   3.312 -0.0935 -0.0105 -0.4593
 9160SOL    HW138942   0.876   4.665   3.241 -1.3012  0.9288 -1.4809
 9160SOL    HW238943   0.776   4.715   3.340 -0.4907 -0.1377 -1.7594
 9161SOL     OW38944   4.410   1.005   4.844  0.1004  0.0444  0.3976
 9161SOL    HW138945   4.341   0.941   4.822  1.0881 -0.2446 -1.8098
 9161SOL    HW238946   4.380   1.068   4.778 -3.0382 -1.4467  0.3617
 9162SOL     OW38947   2.889   3.859   4.685  0.6663 -0.1580  0.2788
 9162SOL    HW138948   2.922   3.925   4.746  0.9612 -1.0311  1.0594
 9162SOL    HW238949   2.815   3.903   4.644  1.3194  0.2878 -0.4273
 9163SOL     OW38950   2.072   1.934   8.271 -0.1216  0.0908 -0.1147
 9163SOL    HW138951   2.069   1.996   8.344  1.1040 -0.0369  0.0480
 9163SOL    HW238952   2.165   1.944   8.250 -0.3619  0.5358 -0.9738
 9164SOL     OW38953   0.452   3.405   8.991  0.3906 -0.0653 -0.1594
 9164SOL    HW138954   0.508   3.328   8.978 -0.1397 -0.8657  2.5270
 9164SOL    HW238955   0.380   3.366   9.039  0.0791  2.5186  1.4498
 9165SOL     OW38956   2.808   3.401  15.178  0.6364  0.2198 -0.1289
 9165SOL    HW138957   2.811   3.313  15.142 -2.5368  0.2438 -0.4460
 9165SOL    HW238958   2.715   3.422  15.191  0.1891 -2.2283  0.5886
 9166SOL     OW38959   2.521   2.564   0.887  0.0670  0.0708  0.1899
 9166SOL    HW138960   2.609   2.576   0.921  1.1785  0.7409 -2.9076
 9166SOL    HW238961   2.517   2.627   0.815  1.2837 -0.0703  0.0043
 9167SOL     OW38962   0.694   4.647   4.132 -0.7397 -0.1759  0.1278
 9167SOL    HW138963   0.767   4.708   4.138 -1.5019  1.2991 -5.2049
 9167SOL    HW238964   0.689   4.632   4.037 -1.7167 -1.5639  0.3976
 9168SOL     OW38965   0.494   3.130   8.934 -0.4530 -0.7031  0.2800
 9168SOL    HW138966   0.512   3.047   8.890  1.6758 -0.0852 -0.0445
 9168SOL    HW238967   0.522   3.114   9.024 -1.1874  0.1657  0.6648
 9169SOL     OW38968   4.214   0.603   3.896  0.4710 -0.1851  0.4284
 9169SOL    HW138969   4.294   0.599   3.947  0.6932  1.3246  0.2016
 9169SOL    HW238970   4.228   0.661   3.820 -0.3882 -0.0510  0.3718
 9170SOL     OW38971   1.972   2.204   6.518 -0.1203 -0.4706 -0.3501
 9170SOL    HW138972   1.970   2.297   6.538 -0.2374 -0.7403  0.9062
 9170SOL    HW238973   2.045   2.179   6.575 -1.7660 -1.2882  1.3862
 9171SOL     OW38974   2.143   0.554   8.088 -0.0921 -0.2234 -0.0402
 9171SOL    HW138975   2.204   0.607   8.036 -0.1624  0.3560  0.4671
 9171SOL    HW238976   2.083   0.515   8.025  1.4241  1.1513 -2.3304
 9172SOL     OW38977   2.458   1.432   5.760  0.2429  0.0236 -0.4022
 9172SOL    HW138978   2.436   1.448   5.668  2.1633 -1.4589 -1.1278
 9172SOL    HW238979   2.379   1.413   5.810  1.2883  1.5971  1.8752
 9173SOL     OW38980   1.197   4.616   4.613 -0.2787  0.4805 -0.0139
 9173SOL    HW138981   1.148   4.534   4.608  0.6233 -0.1065  0.7842
 9173SOL    HW238982   1.149   4.655   4.540 -1.8075 -2.6189 -0.6447
 9174SOL     OW38983   1.087   2.887  10.762 -0.5611  0.2366  0.3192
 9174SOL    HW138984   1.066   2.842  10.680 -3.4686 -0.2400  1.3259
 9174SOL    HW238985   1.046   2.972  10.743  0.7613  0.8359  0.1272
 9175SOL     OW38986   0.950   1.559   7.762 -0.5112 -0.1620  0.4443
 9175SOL    HW138987   1.039   1.526   7.759 -0.0301  1.2848 -0.8817
 9175SOL    HW238988   0.926   1.552   7.854 -0.3675  0.8643  0.5622
 9176SOL     OW38989   2.597   0.871   8.870  0.3492 -0.8301  0.1577
 9176SOL    HW138990   2.581   0.848   8.779  1.2658 -0.7078 -0.0394
 9176SOL    HW238991   2.520   0.924   8.890  0.1206 -0.7886 -0.8723
 9177SOL     OW38992   3.069   1.115   5.577  0.4000  0.0031  0.1697
 9177SOL    HW138993   3.066   1.023   5.551 -0.1779 -0.1148  0.6386
 9177SOL    HW238994   3.140   1.104   5.640  0.5341 -1.4367 -0.2276
 9178SOL     OW38995   2.724   2.340  15.931 -0.3121 -0.0764  0.3999
 9178SOL    HW138996   2.806   2.386  15.951  0.2502 -1.4406  1.2004
 9178SOL    HW238997   2.663   2.414  15.939  0.3726  0.4342  0.9398
 9179SOL     OW38998   3.646   3.116   5.176  0.3498 -0.9088  0.4305
 9179SOL    HW138999   3.577   3.067   5.132  1.5889 -1.0291 -1.3999
 9179SOL    HW239000   3.720   3.088   5.122 -0.4336 -2.1790  0.0261
 9180SOL     OW39001   1.938   3.608   0.917  0.0134 -0.0960  0.1208
 9180SOL    HW139002   1.888   3.527   0.907 -2.5872  1.4033  0.8041
 9180SOL    HW239003   1.880   3.659   0.975  0.7849  1.4352 -0.4522
 9181SOL     OW39004   3.528   1.542   9.729  0.5406  0.0496  0.0855
 9181SOL    HW139005   3.523   1.447   9.732 -0.3148  0.1433  1.6690
 9181SOL    HW239006   3.579   1.563   9.807  0.4004 -1.6235  0.6266
 9182SOL     OW39007   1.633   4.151  12.710 -0.7499  0.1638  0.2201
 9182SOL    HW139008   1.633   4.198  12.627 -0.2048 -3.3400 -1.7479
 9182SOL    HW239009   1.706   4.192  12.757  2.1568 -1.0782 -3.2680
 9183SOL     OW39010   3.225   3.594   5.663  0.4086  0.6098  0.3016
 9183SOL    HW139011   3.289   3.523   5.676 -0.7353  0.1409  3.4609
 9183SOL    HW239012   3.153   3.541   5.627  2.3208 -2.8594  1.5073
 9184SOL     OW39013   2.768   1.280  12.860 -0.0969  0.0977 -0.1163
 9184SOL    HW139014   2.844   1.326  12.825 -0.4923  0.4178 -0.5534
 9184SOL    HW239015   2.804   1.220  12.926 -0.4315  0.2477  0.2058
 9185SOL     OW39016   0.625   1.932   6.338  0.0827  0.0411  0.0239
 9185SOL    HW139017   0.675   2.011   6.320 -0.4365  0.6157  1.0975
 9185SOL    HW239018   0.677   1.861   6.302  1.2969  0.6585  0.5788
 9186SOL     OW39019   3.741   3.165   7.243  0.1109 -0.2552 -0.3749
 9186SOL    HW139020   3.789   3.245   7.266  1.3086 -0.3985 -2.3413
 9186SOL    HW239021   3.774   3.097   7.303 -1.3006 -1.1349 -0.6058
 9187SOL     OW39022   3.154   3.807   5.147  0.5602  0.2699 -0.1621
 9187SOL    HW139023   3.180   3.758   5.224  1.9591  3.5319  1.4327
 9187SOL    HW239024   3.229   3.862   5.124  0.8428 -0.0157  0.0895
 9188SOL     OW39025   0.516   2.315  15.937 -0.2856  0.5445  0.0756
 9188SOL    HW139026   0.466   2.264  16.001 -0.3994  3.1600  2.0419
 9188SOL    HW239027   0.591   2.256  15.948 -0.5250  0.1427 -0.4259
 9189SOL     OW39028   0.380   1.353   7.110  0.3661 -0.7095 -0.8649
 9189SOL    HW139029   0.379   1.325   7.202  1.1532  1.1060 -0.3136
 9189SOL    HW239030   0.315   1.292   7.075  1.8158 -1.8110 -1.6322
 9190SOL     OW39031   2.215   1.663   8.386  0.4672 -0.2156  0.5154
 9190SOL    HW139032   2.302   1.623   8.381  1.1239  1.4596 -1.3794
 9190SOL    HW239033   2.230   1.733   8.448  0.1587  0.1909  0.1363
 9191SOL     OW39034   3.925   3.850   3.917 -0.4661  0.2062  0.1095
 9191SOL    HW139035   4.002   3.794   3.932  0.0384  1.2255  1.3156
 9191SOL    HW239036   3.893   3.862   4.006  1.5552 -1.3935  1.0602
 9192SOL     OW39037   1.378   4.452   0.087  0.0849 -0.2179  0.2231
 9192SOL    HW139038   1.381   4.539   0.128 -0.2805 -0.3102  0.4396
 9192SOL    HW239039   1.369   4.399   0.166 -2.0802 -0.8905 -0.4848
 9193SOL     OW39040   4.630   1.247   1.540 -0.5014  0.3658 -0.3167
 9193SOL    HW139041   4.607   1.277   1.452 -0.4722 -2.6086 -1.3678
 9193SOL    HW239042   4.601   1.322   1.592  0.4368  0.3654  0.1987
 9194SOL     OW39043   4.169   4.659  13.765  0.7629  0.0538 -0.4188
 9194SOL    HW139044   4.103   4.695  13.707  1.5603 -1.2578 -2.1261
 9194SOL    HW239045   4.116   4.607  13.826  1.1956  0.6339  0.4602
 9195SOL     OW39046   1.828   3.929   0.677  0.5878 -0.4117  0.3272
 9195SOL    HW139047   1.849   3.962   0.764  0.3944 -0.2206  0.3010
 9195SOL    HW239048   1.888   3.976   0.618 -0.9618 -0.7303 -1.5235
 9196SOL     OW39049   1.161   0.804   5.058 -0.1744  0.3476  0.0133
 9196SOL    HW139050   1.246   0.819   5.016  0.2917 -1.5732  0.2976
 9196SOL    HW239051   1.190   0.773   5.143  0.0627 -1.6510 -0.7933
 9197SOL     OW39052   2.613   4.504   2.638  0.5667  0.5481 -0.0185
 9197SOL    HW139053   2.564   4.437   2.591  1.1835 -1.3671  2.0495
 9197SOL    HW239054   2.691   4.504   2.583  0.8033 -2.8897  0.2908
 9198SOL     OW39055   2.649   2.215   5.674 -0.3245  0.1587  1.2516
 9198SOL    HW139056   2.588   2.244   5.607  0.9661 -0.7912 -0.3251
 9198SOL    HW239057   2.726   2.272   5.669 -0.4364  0.1274 -0.7547
 9199SOL     OW39058   4.089   1.922   0.117 -0.3832  0.0731  0.3211
 9199SOL    HW139059   4.025   1.992   0.113 -0.9900 -0.5396 -0.6728
 9199SOL    HW239060   4.037   1.868   0.176 -2.0802 -0.4820 -1.6928
 9200SOL     OW39061   3.230   4.092   3.452  0.4406  0.1315 -0.2395
 9200SOL    HW139062   3.147   4.132   3.423  2.0250  1.4525 -2.9899
 9200SOL    HW239063   3.272   4.101   3.366 -1.2729  1.0448 -0.9808
 9201SOL     OW39064   3.216   1.657   4.092 -0.5022  0.1406 -0.4685
 9201SOL    HW139065   3.305   1.692   4.080 -0.7217  0.5215 -0.9716
 9201SOL    HW239066   3.167   1.722   4.041  0.4000  1.1698 -0.0301
 9202SOL     OW39067   0.210   4.430   6.607 -0.1855 -0.0796  0.2937
 9202SOL    HW139068   0.227   4.522   6.625  2.5053 -0.2697 -1.3614
 9202SOL    HW239069   0.298   4.397   6.624 -0.1837  0.5517  1.5082
 9203SOL     OW39070   0.094   0.323   9.723 -0.6210  0.3664 -0.2825
 9203SOL    HW139071   0.177   0.334   9.770 -1.2645  2.7031  0.3337
 9203SOL    HW239072   0.049   0.396   9.766  1.1861  0.3402  1.6593
 9204SOL     OW39073   3.311   1.562   4.326 -0.0997 -0.1722  0.0001
 9204SOL    HW139074   3.259   1.488   4.356  0.0528  0.0368  0.7718
 9204SOL    HW239075   3.248   1.605   4.268  0.1449  1.7536  1.1490
 9205SOL     OW39076   1.623   3.683   8.760  0.5120  0.0147 -0.5994
 9205SOL    HW139077   1.629   3.764   8.811  0.5449 -0.2376 -0.2036
 9205SOL    HW239078   1.714   3.652   8.762  0.4614 -0.2133 -1.7331
 9206SOL     OW39079   0.610   2.348   5.202  0.0981 -0.4009 -0.6308
 9206SOL    HW139080   0.561   2.266   5.198  0.0403 -0.5284  2.6380
 9206SOL    HW239081   0.625   2.355   5.296  0.0478 -4.8286 -0.2782
 9207SOL     OW39082   3.989   2.253  13.875  0.0877  0.0160  0.0683
 9207SOL    HW139083   4.073   2.208  13.887 -0.5816 -0.8344  1.6131
 9207SOL    HW239084   3.939   2.182  13.833 -1.6349  0.8174  0.7872
 9208SOL     OW39085   4.426   0.840  10.618 -0.2288 -0.1196 -0.1948
 9208SOL    HW139086   4.418   0.793  10.702  1.0367 -2.5043 -1.4116
 9208SOL    HW239087   4.413   0.931  10.643 -0.0639 -0.0928 -0.2064
 9209SOL     OW39088   1.879   2.801   9.979  0.3333 -0.3526 -0.2805
 9209SOL    HW139089   1.882   2.795   9.884  2.7913  0.2916 -0.2238
 9209SOL    HW239090   1.892   2.895   9.987 -0.8487 -0.2320  0.3327
 9210SOL     OW39091   1.833   3.360  14.643  0.0980  0.0463  0.5729
 9210SOL    HW139092   1.901   3.426  14.657  1.1065 -1.1682  1.3068
 9210SOL    HW239093   1.863   3.325  14.559 -1.9320 -1.5366  0.5387
 9211SOL     OW39094   1.563   1.628   2.963  0.7954  0.1606 -0.1071
 9211SOL    HW139095   1.520   1.621   3.049 -2.1136 -0.2357 -1.6027
 9211SOL    HW239096   1.504   1.577   2.908 -0.7970  2.3181 -0.4056
 9212SOL     OW39097   1.578   1.557   3.807 -0.3141  0.4864  0.7394
 9212SOL    HW139098   1.496   1.538   3.851 -2.3889 -0.7540 -3.6188
 9212SOL    HW239099   1.629   1.488   3.850  3.3017  2.4057 -0.4426
 9213SOL     OW39100   0.371   1.931  14.134 -0.2546 -0.2892 -0.2204
 9213SOL    HW139101   0.458   1.942  14.094 -0.7417 -1.8634 -1.7204
 9213SOL    HW239102   0.385   1.933  14.228  0.4048 -0.0114 -0.3186
 9214SOL     OW39103   1.333   0.447   6.198  0.2230  0.1211 -0.7987
 9214SOL    HW139104   1.255   0.474   6.151 -0.5921  1.0925  1.1224
 9214SOL    HW239105   1.324   0.352   6.193  1.9705 -0.0605 -0.5314
 9215SOL     OW39106   0.955   4.710  10.212 -0.5789  0.5448 -0.0785
 9215SOL    HW139107   0.870   4.680  10.245  0.0775 -1.6840 -0.4267
 9215SOL    HW239108   0.964   0.066  10.267  0.7502 -0.1646  0.7268
 9216SOL     OW39109   2.385   1.586  13.706  0.1640 -0.5476 -0.1960
 9216SOL    HW139110   2.357   1.597  13.797  1.0803 -0.3788  0.0705
 9216SOL    HW239111   2.385   1.677  13.676 -0.9779 -0.4530  0.0695
 9217SOL     OW39112   3.220   3.855   8.303  0.0760 -0.4186 -0.3119
 9217SOL    HW139113   3.310   3.862   8.335 -1.0365  1.5630  2.3953
 9217SOL    HW239114   3.171   3.861   8.385 -0.7117 -2.1214 -0.6620
 9218SOL     OW39115   2.202   0.080   4.868 -0.2051  0.4800 -0.1751
 9218SOL    HW139116   2.159   0.088   4.783 -0.2698  0.2785 -0.1617
 9218SOL    HW239117   2.170   4.721   4.907  1.2135 -0.9467 -1.9115
 9219SOL     OW39118   3.012   0.471   4.692 -0.4785 -0.0326  0.1366
 9219SOL    HW139119   3.087   0.523   4.664 -1.4240 -0.5109 -3.2814
 9219SOL    HW239120   2.947   0.495   4.626 -1.1527 -0.3865  0.6718
 9220SOL     OW39121   2.020   2.387  13.973 -0.0715  0.0597 -0.1129
 9220SOL    HW139122   2.030   2.293  13.964  0.3890  0.2350 -1.4900
 9220SOL    HW239123   2.009   2.411  13.881 -0.9748 -0.4272 -0.1308
 9221SOL     OW39124   3.759   0.476   8.418 -0.0560 -0.0249 -0.7065
 9221SOL    HW139125   3.713   0.482   8.334  0.3322  0.9470 -0.8603
 9221SOL    HW239126   3.842   0.443   8.383  0.3403  1.3794 -1.0904
 9222SOL     OW39127   0.186   0.530   3.371  0.7610 -0.2500 -0.4457
 9222SOL    HW139128   0.222   0.494   3.452 -1.9106 -1.7260  0.0917
 9222SOL    HW239129   0.158   0.452   3.323 -0.3352  1.3155 -2.4099
 9223SOL     OW39130   2.203   3.455   7.195 -0.2117  0.1740 -0.0829
 9223SOL    HW139131   2.228   3.363   7.187 -2.4886 -0.2794 -1.9167
 9223SOL    HW239132   2.288   3.486   7.226 -0.2934  0.3164  0.0043
 9224SOL     OW39133   4.025   3.690   1.487  0.4819  0.4659  0.4245
 9224SOL    HW139134   4.093   3.669   1.549  0.7094 -1.1043 -0.3515
 9224SOL    HW239135   4.040   3.615   1.428  0.2524  1.6005 -1.0850
 9225SOL     OW39136   3.501   1.486   4.119  0.4891  0.3994  0.2450
 9225SOL    HW139137   3.476   1.533   4.199  1.0580  0.0671  0.6146
 9225SOL    HW239138   3.474   1.400   4.151  0.7655  0.0741 -0.3955
 9226SOL     OW39139   1.472   4.063   1.889  0.1577 -0.2674  0.0461
 9226SOL    HW139140   1.428   4.112   1.819  2.6961  0.5599 -1.0023
 9226SOL    HW239141   1.400   4.004   1.910  2.1475 -1.6353  2.9934
 9227SOL     OW39142   4.160   3.937   3.721  0.0268 -0.2703  0.1609
 9227SOL    HW139143   4.123   4.015   3.762 -1.0569  0.1329 -1.5879
 9227SOL    HW239144   4.157   3.882   3.800 -1.1752  3.5835  2.8167
 9228SOL     OW39145   4.711   0.200   6.438 -0.0517  0.5715 -0.1545
 9228SOL    HW139146   0.062   0.154   6.396 -0.3509 -0.3897  0.3885
 9228SOL    HW239147   4.645   0.196   6.368 -0.8270 -1.4156  0.7170
 9229SOL     OW39148   0.916   3.366   2.747  0.0217  0.1321  0.4560
 9229SOL    HW139149   0.821   3.354   2.751 -0.2456  1.4057 -1.6109
 9229SOL    HW239150   0.915   3.455   2.784  1.0168  0.5511 -0.5169
 9230SOL     OW39151   3.761   1.990   0.606 -1.0095 -0.6862  0.1108
 9230SOL    HW139152   3.811   1.917   0.644  1.6295  1.2626  0.3579
 9230SOL    HW239153   3.671   1.958   0.609 -0.8579 -1.2209 -0.9401
 9231SOL     OW39154   0.701   3.693   1.037 -0.0710 -0.0679  0.3925
 9231SOL    HW139155   0.715   3.609   1.080 -1.0223 -0.4106  0.0522
 9231SOL    HW239156   0.753   3.756   1.087 -1.0944  1.4929 -0.4915
 9232SOL     OW39157   3.402   2.997  17.334  0.7288  0.3451 -0.7194
 9232SOL    HW139158   3.371   2.947  17.259  1.4457  2.1531 -2.1936
 9232SOL    HW239159   3.457   3.064  17.295 -0.4545  1.6247 -0.1796
 9233SOL     OW39160   0.487   0.092   4.766  0.2833  0.2783  0.3657
 9233SOL    HW139161   0.560   0.110   4.706  1.6616 -0.4552  1.8447
 9233SOL    HW239162   0.436   0.173   4.763  0.7034  0.5303 -0.0455
 9234SOL     OW39163   0.794   3.199  13.878  0.0027  0.1725 -0.4336
 9234SOL    HW139164   0.728   3.244  13.826 -0.8998  0.1541  0.6944
 9234SOL    HW239165   0.855   3.271  13.886  1.5250 -1.1070 -0.5310
 9235SOL     OW39166   2.150   4.047   5.644  0.0125 -0.5694  0.5971
 9235SOL    HW139167   2.107   4.088   5.568  0.1794 -1.8066 -0.1739
 9235SOL    HW239168   2.150   4.121   5.704  1.8722 -1.3409  1.5456
 9236SOL     OW39169   3.528   1.428  16.442 -0.0600 -0.6497 -0.3800
 9236SOL    HW139170   3.589   1.363  16.407 -0.1989 -1.6748  1.2671
 9236SOL    HW239171   3.489   1.482  16.374 -1.4351 -2.2154 -0.8145
 9237SOL     OW39172   2.172   0.274   7.424 -0.2191  0.2554 -0.1969
 9237SOL    HW139173   2.099   0.217   7.448  0.0694 -0.2181 -0.4445
 9237SOL    HW239174   2.241   0.229   7.473 -0.0580  0.9882  0.2622
 9238SOL     OW39175   1.674   0.896   2.339 -0.1335 -0.2449 -0.2591
 9238SOL    HW139176   1.731   0.829   2.378  0.4003  0.4714  0.1992
 9238SOL    HW239177   1.593   0.877   2.387 -1.3468 -0.1060 -2.2811
 9239SOL     OW39178   3.312   2.845   4.677 -0.0176  0.0801  0.2409
 9239SOL    HW139179   3.238   2.861   4.736 -0.4068  1.6897 -0.6902
 9239SOL    HW239180   3.271   2.800   4.603  1.5725  0.7131 -1.0296
 9240SOL     OW39181   3.589   3.346  13.550 -0.2570  0.0016  0.1570
 9240SOL    HW139182   3.665   3.337  13.607 -0.0304 -4.5124 -0.8070
 9240SOL    HW239183   3.628   3.383  13.470 -0.7268  0.7077  0.2539
 9241SOL     OW39184   3.877   4.443   3.002  0.6748 -0.6085 -0.6758
 9241SOL    HW139185   3.802   4.458   3.059  1.0428  1.7492 -0.8120
 9241SOL    HW239186   3.877   4.527   2.957 -0.8976  0.0010  0.4651
 9242SOL     OW39187   3.747   0.498  13.598  0.2466  0.0074  0.2642
 9242SOL    HW139188   3.825   0.551  13.617 -2.4428  2.4007  4.5684
 9242SOL    HW239189   3.703   0.567  13.548  0.0559  0.1662  0.6505
 9243SOL     OW39190   1.948   3.318  10.056  0.1072  0.1377 -1.2158
 9243SOL    HW139191   1.869   3.350  10.099  0.3686 -0.4748 -0.3003
 9243SOL    HW239192   1.944   3.228  10.088  0.8538  0.6480  0.2685
 9244SOL     OW39193   2.462   4.156  12.923 -0.2366  0.6801 -0.4610
 9244SOL    HW139194   2.495   4.108  12.998  0.4331 -0.1245 -1.2623
 9244SOL    HW239195   2.459   4.245  12.957  1.0281  1.1036 -1.4483
 9245SOL     OW39196   3.364   0.561   2.943 -0.1023  0.8668 -0.1263
 9245SOL    HW139197   3.421   0.637   2.954 -1.0085  1.4440  0.5978
 9245SOL    HW239198   3.274   0.591   2.961 -0.8055 -0.8116 -0.8063
 9246SOL     OW39199   1.950   1.048   4.063  0.0264 -0.3968 -0.0276
 9246SOL    HW139200   2.005   1.115   4.103  0.9883 -0.2239 -1.6119
 9246SOL    HW239201   1.866   1.093   4.049 -0.0172 -0.3166  0.4967
 9247SOL     OW39202   0.704   3.858   9.200 -0.2185 -0.0570  0.4359
 9247SOL    HW139203   0.661   3.935   9.238  1.5188  0.2107  1.8669
 9247SOL    HW239204   0.664   3.788   9.252 -1.4978  1.6008  1.6774
 9248SOL     OW39205   1.431   2.938   2.524  0.4158 -0.0962  0.0952
 9248SOL    HW139206   1.510   2.990   2.513 -0.2897  1.4927  2.4666
 9248SOL    HW239207   1.410   2.958   2.615 -1.1544  1.4264 -0.6040
 9249SOL     OW39208   2.816   4.539   5.465  0.1199 -0.4812  0.2916
 9249SOL    HW139209   2.799   4.444   5.464  2.3032 -0.8923  0.7563
 9249SOL    HW239210   2.763   4.575   5.535  0.1280 -1.4418  0.8028
 9250SOL     OW39211   3.181   0.518  15.589 -0.3009 -0.6669 -0.0812
 9250SOL    HW139212   3.149   0.583  15.527  1.6339  1.3276  1.0138
 9250SOL    HW239213   3.230   0.462  15.528  2.5512  0.0320  1.5382
 9251SOL     OW39214   3.467   3.305   2.884 -0.3219 -0.1356  0.5338
 9251SOL    HW139215   3.512   3.387   2.901  0.2213 -0.8186  2.4309
 9251SOL    HW239216   3.379   3.331   2.859  0.4558  0.9473 -1.0625
 9252SOL     OW39217   0.699   3.431   6.794 -0.0691  0.1820 -0.0922
 9252SOL    HW139218   0.762   3.479   6.848 -0.3632  1.0797 -0.5326
 9252SOL    HW239219   0.657   3.505   6.749  0.6373  0.6855  0.0789
 9253SOL     OW39220   0.161   2.521   1.992 -0.3220 -0.6072  0.3560
 9253SOL    HW139221   0.114   2.576   1.929  1.6758 -0.4795 -0.9989
 9253SOL    HW239222   0.185   2.449   1.934  0.1314 -0.7080  0.6742
 9254SOL     OW39223   4.194   3.778   4.542 -0.0643  0.1944 -0.2557
 9254SOL    HW139224   4.161   3.825   4.466  1.7913  1.5166 -0.2511
 9254SOL    HW239225   4.287   3.779   4.519  0.8014 -1.3567  3.1313
 9255SOL     OW39226   2.547   4.373   6.522 -0.4935  0.2403 -0.3554
 9255SOL    HW139227   2.548   4.468   6.520  0.7438  0.3161  2.4934
 9255SOL    HW239228   2.637   4.342   6.536 -0.0972  0.9657 -1.3549
 9256SOL     OW39229   1.589   3.707   1.404 -1.0575 -0.0107  0.2864
 9256SOL    HW139230   1.662   3.740   1.351 -0.8768  0.5234  0.8654
 9256SOL    HW239231   1.527   3.673   1.340 -1.0884 -0.7779  0.7257
 9257SOL     OW39232   0.975   0.338   9.648  0.3071 -0.2818 -0.4391
 9257SOL    HW139233   0.969   0.347   9.743  1.3712 -2.0882 -0.1920
 9257SOL    HW239234   0.934   0.252   9.640 -0.5922  0.1283 -0.2310
 9258SOL     OW39235   1.849   3.973  11.113 -0.0255  0.1815 -0.2498
 9258SOL    HW139236   1.894   3.926  11.043  1.7986  2.3861 -0.5425
 9258SOL    HW239237   1.809   3.898  11.158 -0.2521  0.5650  0.1851
 9259SOL     OW39238   2.773   2.848   1.851  0.5848 -0.4437 -0.0633
 9259SOL    HW139239   2.749   2.929   1.807  1.5610  0.3991  0.9567
 9259SOL    HW239240   2.793   2.785   1.782  0.2253  0.7988 -1.2928
 9260SOL     OW39241   0.550   0.833   7.103 -0.7504  0.1384  0.0165
 9260SOL    HW139242   0.534   0.909   7.046 -0.5401  0.2670  0.1258
 9260SOL    HW239243   0.476   0.836   7.163 -1.4666 -1.2051 -0.8003
 9261SOL     OW39244   4.081   3.444   1.123 -0.3145  0.2628  0.4819
 9261SOL    HW139245   4.090   3.486   1.038  1.6852  0.8448  0.9808
 9261SOL    HW239246   4.057   3.357   1.091 -0.3889 -0.1293  1.5974
 9262SOL     OW39247   4.466   1.199   6.852  0.2068  0.3329  0.2880
 9262SOL    HW139248   4.495   1.151   6.774 -0.1784  0.2890  0.1724
 9262SOL    HW239249   4.437   1.288   6.830  2.3406  1.1001  0.6031
 9263SOL     OW39250   1.682   4.635  10.240 -0.0432 -0.2184 -0.1922
 9263SOL    HW139251   1.625   4.692  10.292 -0.8568 -1.7890  0.6494
 9263SOL    HW239252   1.767   4.678  10.244 -0.1344  0.2106 -2.4712
 9264SOL     OW39253   2.363   4.465  14.410 -0.0221  0.6523 -0.3008
 9264SOL    HW139254   2.384   4.530  14.478 -3.9499  1.4231  0.2134
 9264SOL    HW239255   2.323   4.402  14.471  1.6562  0.5546  0.6878
 9265SOL     OW39256   3.188   2.499  11.125 -0.5629  0.5636  0.2789
 9265SOL    HW139257   3.235   2.579  11.103  0.8527 -0.3417  0.0006
 9265SOL    HW239258   3.150   2.491  11.038 -1.5851  0.2377  0.7623
 9266SOL     OW39259   1.496   0.963   7.078 -0.8613 -0.0287  0.4594
 9266SOL    HW139260   1.401   0.952   7.078 -0.7472 -1.0586 -0.7303
 9266SOL    HW239261   1.522   0.873   7.101 -2.5726 -1.2621 -2.3459
 9267SOL     OW39262   1.401   3.584   7.472 -0.1273  0.2812  0.1397
 9267SOL    HW139263   1.491   3.571   7.500 -0.4574  0.6298  1.3548
 9267SOL    HW239264   1.418   3.634   7.392  1.5345 -0.5273 -0.0033
 9268SOL     OW39265   0.692   4.059   4.034 -0.6834  0.4678  0.2671
 9268SOL    HW139266   0.685   4.100   4.120 -0.9125  0.8815  0.0492
 9268SOL    HW239267   0.762   3.995   4.054 -1.5507  0.2988  2.7742
 9269SOL     OW39268   0.224   2.181  17.283  0.0301 -0.2070 -0.2240
 9269SOL    HW139269   0.314   2.204  17.259 -0.2175  1.0704  0.0860
 9269SOL    HW239270   0.241   2.155  17.374 -0.7593 -0.9387 -0.2937
 9270SOL     OW39271   0.253   0.887   5.973 -0.7248 -0.0329  0.1103
 9270SOL    HW139272   0.193   0.946   5.928  0.8998  0.1591 -1.8102
 9270SOL    HW239273   0.341   0.920   5.954 -0.8190  0.7477  1.0342
 9271SOL     OW39274   3.162   0.662  12.785  0.0073 -0.6029 -0.3922
 9271SOL    HW139275   3.187   0.728  12.721  0.8611  1.6744  2.2968
 9271SOL    HW239276   3.245   0.656  12.831 -0.0670 -2.8836 -0.5233
 9272SOL     OW39277   4.057   0.384   9.891 -0.0235 -0.3762  0.1710
 9272SOL    HW139278   4.137   0.426   9.859 -1.6330  1.2345 -1.6702
 9272SOL    HW239279   4.064   0.308   9.832 -1.0772 -1.8100  1.8914
 9273SOL     OW39280   2.011   2.414   8.169 -0.5359 -0.2149  0.3352
 9273SOL    HW139281   2.093   2.397   8.216  0.2408 -0.9197 -1.2714
 9273SOL    HW239282   2.008   2.354   8.095 -1.4531  0.6006 -0.2913
 9274SOL     OW39283   2.210   4.257   3.719 -0.1306 -0.0197  0.3705
 9274SOL    HW139284   2.124   4.216   3.710  0.8550 -1.4316 -2.4901
 9274SOL    HW239285   2.209   4.314   3.643 -1.6543 -0.8105 -0.2098
 9275SOL     OW39286   2.940   3.267   3.644  0.0694  0.1674 -0.2847
 9275SOL    HW139287   3.022   3.309   3.618 -0.2126  1.5595  1.0687
 9275SOL    HW239288   2.968   3.177   3.625  1.7240  0.5817  0.1122
 9276SOL     OW39289   3.737   0.060   3.220  0.2037 -0.2343 -0.1227
 9276SOL    HW139290   3.804   0.090   3.159 -0.4809  1.5025 -0.0070
 9276SOL    HW239291   3.718   0.144   3.260 -1.8852 -0.2674 -1.0466
 9277SOL     OW39292   1.491   4.072   0.905 -0.5934 -0.5863  0.1849
 9277SOL    HW139293   1.475   3.989   0.859  1.8788 -1.4114  0.8113
 9277SOL    HW239294   1.485   4.138   0.837  1.3279  0.5007  1.0931
 9278SOL     OW39295   0.127   2.017   1.651  0.1584 -0.1178 -0.0200
 9278SOL    HW139296   0.205   1.967   1.630  0.1703 -0.7612  1.5708
 9278SOL    HW239297   0.099   2.055   1.568 -1.9601 -2.8578 -0.5527
 9279SOL     OW39298   2.956   4.503  13.828  0.5118 -0.7684  0.1014
 9279SOL    HW139299   2.959   4.454  13.745  0.7281  0.5355 -0.6566
 9279SOL    HW239300   2.872   4.548  13.821  1.1224 -0.0315 -2.7247
 9280SOL     OW39301   0.418   0.616   7.547 -0.2103 -0.0941 -0.1418
 9280SOL    HW139302   0.504   0.646   7.520  0.4034 -0.3215  1.5654
 9280SOL    HW239303   0.380   0.687   7.600 -0.0243  0.2277 -0.4422
 9281SOL     OW39304   3.433   2.717  12.097 -0.7616 -0.0801 -0.0080
 9281SOL    HW139305   3.470   2.746  12.180  1.2525  0.7573 -1.1988
 9281SOL    HW239306   3.339   2.725  12.111 -0.6078 -1.3304  1.6638
 9282SOL     OW39307   2.275   2.314   6.375 -0.7805  0.1126 -0.5804
 9282SOL    HW139308   2.273   2.220   6.356  2.2141  0.2626 -1.7013
 9282SOL    HW239309   2.255   2.317   6.469 -2.3923  0.9870 -0.9551
 9283SOL     OW39310   4.581   0.644   2.353  0.3662 -0.0157 -0.8481
 9283SOL    HW139311   4.641   0.570   2.341  1.6692  0.8763  0.2344
 9283SOL    HW239312   4.570   0.655   2.447  0.0860 -0.1252 -0.8674
 9284SOL     OW39313   1.351   0.487   7.252 -0.6533  0.5179 -0.1374
 9284SOL    HW139314   1.303   0.567   7.234  0.0888  0.8452 -0.6806
 9284SOL    HW239315   1.283   0.421   7.262 -1.0679  0.8432 -0.8348
 9285SOL     OW39316   1.051   0.397   9.386  0.3299 -0.0382  0.4078
 9285SOL    HW139317   1.028   0.484   9.418 -0.6712 -0.0613 -0.2499
 9285SOL    HW239318   1.031   0.352   9.468 -2.3957 -2.4051 -1.5562
 9286SOL     OW39319   0.889   4.408   5.872 -0.1480 -0.1954  0.0010
 9286SOL    HW139320   0.982   4.384   5.876 -0.0629  0.1188 -0.1007
 9286SOL    HW239321   0.891   4.453   5.788  1.4536  1.3460  0.8823
 9287SOL     OW39322   3.744   3.800  10.550 -0.3597  0.1105  0.1977
 9287SOL    HW139323   3.762   3.879  10.601  0.8477 -0.1031  0.0945
 9287SOL    HW239324   3.774   3.817  10.461 -2.6284  0.3222 -0.5360
 9288SOL     OW39325   2.744   2.039   2.937 -0.3417  0.2154  0.0362
 9288SOL    HW139326   2.743   2.133   2.920  2.6376  0.4952  1.3523
 9288SOL    HW239327   2.670   2.013   2.882  0.0996 -1.2281  0.1169
 9289SOL     OW39328   1.955   0.587   7.334 -0.0579  0.0137  0.0664
 9289SOL    HW139329   1.922   0.676   7.347  0.4511  0.2197 -0.0475
 9289SOL    HW239330   2.016   0.599   7.262  1.2551  4.6145  1.9589
 9290SOL     OW39331   0.065   1.118   6.664  0.0560  0.4854  0.6688
 9290SOL    HW139332   0.068   1.048   6.599 -1.2351  0.0450  1.0827
 9290SOL    HW239333   0.034   1.187   6.606 -1.8809 -0.0731  1.0407
 9291SOL     OW39334   2.331   3.370   0.685 -0.1113 -0.2414  0.6094
 9291SOL    HW139335   2.376   3.399   0.605  0.3337  2.4378  1.8308
 9291SOL    HW239336   2.306   3.279   0.671  0.3871 -0.4395  0.9875
 9292SOL     OW39337   0.862   2.909   1.835 -0.2144 -0.5985 -0.4753
 9292SOL    HW139338   0.813   2.836   1.796 -1.8007  0.5882 -0.7151
 9292SOL    HW239339   0.947   2.871   1.858  1.1550  0.7632 -3.3713
 9293SOL     OW39340   1.661   1.807   3.792  0.4142 -0.5599 -0.2000
 9293SOL    HW139341   1.635   1.716   3.808  1.4746 -0.4947  1.8353
 9293SOL    HW239342   1.670   1.831   3.884  1.5331 -0.9769 -0.2100
 9294SOL     OW39343   2.279   4.581  10.243  0.0063 -0.0820  0.6395
 9294SOL    HW139344   2.262   4.654  10.303  1.4495 -0.5244  1.5805
 9294SOL    HW239345   2.279   4.637  10.165 -1.7652 -0.8024  0.1080
 9295SOL     OW39346   1.130   0.760   7.670  0.5829  0.4168  0.2217
 9295SOL    HW139347   1.152   0.671   7.697  2.0184  1.0824  1.2236
 9295SOL    HW239348   1.087   0.791   7.751 -1.0422  0.1313 -0.5226
 9296SOL     OW39349   3.304   4.299   3.620  0.4739  0.0525 -0.1341
 9296SOL    HW139350   3.333   4.356   3.550  1.7197  0.3489  0.6311
 9296SOL    HW239351   3.262   4.223   3.578 -1.4149  0.6049  0.7546
 9297SOL     OW39352   0.340   3.045   7.133 -0.4436  0.5616  0.6682
 9297SOL    HW139353   0.349   3.103   7.057  1.6369  1.3234  1.5067
 9297SOL    HW239354   0.276   2.979   7.107 -0.5985  0.6684  0.7775
 9298SOL     OW39355   2.058   2.181   5.874  0.0401 -0.2493 -0.2232
 9298SOL    HW139356   2.018   2.191   5.961  0.5969 -0.1341  0.0172
 9298SOL    HW239357   2.129   2.244   5.885 -1.7155  1.3815  1.8070
 9299SOL     OW39358   3.552   3.937   3.254  0.8280  0.6032  0.1607
 9299SOL    HW139359   3.482   3.986   3.211 -0.6679 -0.8099  0.9856
 9299SOL    HW239360   3.517   3.897   3.333 -1.5029  2.3093 -0.0170
 9300SOL     OW39361   1.284   0.075   1.423 -0.0721 -0.8387 -0.1080
 9300SOL    HW139362   1.214   0.028   1.378  0.2202 -0.0839 -1.3329
 9300SOL    HW239363   1.362   0.023   1.406  0.5417 -0.4150  1.3517
 9301SOL     OW39364   2.121   2.018  12.413 -0.0055  0.3134 -0.2386
 9301SOL    HW139365   2.076   2.026  12.329  2.2882  0.7012 -1.4355
 9301SOL    HW239366   2.128   1.924  12.433  2.0880  0.3944 -0.6114
 9302SOL     OW39367   1.362   4.713   0.571  0.1504  0.1573  0.1213
 9302SOL    HW139368   1.430   4.708   0.505 -0.9600  1.4225 -1.1146
 9302SOL    HW239369   1.348   4.620   0.587  1.1162 -0.0001  0.0319
 9303SOL     OW39370   0.437   0.482   2.720 -0.1588  0.4520  0.8321
 9303SOL    HW139371   0.398   0.448   2.640  0.5461 -2.5381  1.7576
 9303SOL    HW239372   0.384   0.430   2.781 -0.5646 -2.1476 -1.7337
 9304SOL     OW39373   0.405   4.216  15.314  0.8081 -0.2501 -0.2521
 9304SOL    HW139374   0.485   4.185  15.270  0.4578 -3.3416  1.3351
 9304SOL    HW239375   0.342   4.174  15.256  1.3781 -0.6028 -0.6177
 9305SOL     OW39376   3.899   4.392  16.995 -0.1381  0.1599  0.0960
 9305SOL    HW139377   3.835   4.447  16.951 -2.1717 -1.2862  1.2736
 9305SOL    HW239378   3.971   4.455  16.999  0.2889 -0.2024 -2.1556
 9306SOL     OW39379   1.925   2.020   6.870  0.1228 -0.6058  0.2241
 9306SOL    HW139380   1.834   1.997   6.850  0.4063 -0.2485 -1.5355
 9306SOL    HW239381   1.913   2.110   6.839 -1.1415 -0.3217  1.5763
 9307SOL     OW39382   3.712   4.713   5.464  0.3483  0.0384 -0.0253
 9307SOL    HW139383   3.644   4.672   5.518  0.2768 -0.1666 -0.2706
 9307SOL    HW239384   3.786   4.707   5.525 -0.6731 -0.2940  1.1885
 9308SOL     OW39385   1.782   1.416   3.217 -0.0472  0.1773 -0.0228
 9308SOL    HW139386   1.824   1.473   3.281 -0.1945 -1.3330  1.4023
 9308SOL    HW239387   1.853   1.353   3.208  1.0947  1.3601  0.8588
 9309SOL     OW39388   4.039   4.046   6.856 -0.3286 -0.3810  0.1420
 9309SOL    HW139389   4.052   3.991   6.779 -2.0148  0.1734 -0.5336
 9309SOL    HW239390   4.097   4.119   6.833  0.2386 -0.6380  0.7680
 9310SOL     OW39391   0.378   0.371   5.253  0.3097  0.1201  0.1028
 9310SOL    HW139392   0.319   0.406   5.186  0.3909  2.4948  1.2579
 9310SOL    HW239393   0.383   0.442   5.317 -0.2513  0.2404  0.0068
 9311SOL     OW39394   1.167   0.633   9.009 -0.2627  0.0383  1.1495
 9311SOL    HW139395   1.102   0.683   9.059 -0.0807 -1.0452  2.4565
 9311SOL    HW239396   1.230   0.611   9.077 -0.9238 -0.0981  1.7269
 9312SOL     OW39397   2.095   3.227   4.424  0.4974 -0.3307  0.1390
 9312SOL    HW139398   2.157   3.265   4.486 -0.1785  1.5558 -0.3366
 9312SOL    HW239399   2.016   3.277   4.443 -0.2318 -1.0064 -1.1353
 9313SOL     OW39400   0.299   3.014  16.985 -0.3376 -0.3034 -0.4721
 9313SOL    HW139401   0.316   2.948  17.052 -1.9845 -0.5884 -0.3222
 9313SOL    HW239402   0.255   3.088  17.028  1.7903  0.8656 -0.2779
 9314SOL     OW39403   3.465   0.629  13.199  0.4598  0.6139 -0.1681
 9314SOL    HW139404   3.476   0.601  13.108  0.1681  2.8963 -0.9007
 9314SOL    HW239405   3.524   0.704  13.192  0.4353  0.7316  0.8156
 9315SOL     OW39406   3.051   0.189  17.254 -0.2110  0.3584 -0.1882
 9315SOL    HW139407   3.106   0.251  17.303 -2.2640  1.5430  0.6325
 9315SOL    HW239408   3.124   0.159  17.201  0.5740  1.3689  0.3085
 9316SOL     OW39409   0.924   3.989  15.100 -0.0329 -0.0940  0.0041
 9316SOL    HW139410   0.915   3.968  15.007 -0.3397 -1.8203  0.4269
 9316SOL    HW239411   0.991   3.924  15.120  1.0743  1.3647  1.1134
 9317SOL     OW39412   1.460   3.914   4.578 -0.2297 -0.2645  0.1991
 9317SOL    HW139413   1.467   3.830   4.532 -0.4376 -0.4298  0.4716
 9317SOL    HW239414   1.547   3.953   4.585 -1.6712  2.2279  4.1254
 9318SOL     OW39415   1.444   0.448   8.216  0.4749 -0.0076  0.2652
 9318SOL    HW139416   1.486   0.369   8.181  1.7159  0.7515  0.0631
 9318SOL    HW239417   1.493   0.511   8.163  0.5885 -0.6212 -0.3574
 9319SOL     OW39418   0.096   4.667   2.889 -0.3129 -1.0432  0.0285
 9319SOL    HW139419   0.117   4.648   2.798 -1.1308 -0.0086 -0.3680
 9319SOL    HW239420   0.001   4.679   2.887 -0.0325  1.1266 -0.5187
 9320SOL     OW39421   3.672   3.522  13.040 -0.3765 -0.1089  0.7335
 9320SOL    HW139422   3.764   3.506  13.061  0.0100  0.5847 -0.4597
 9320SOL    HW239423   3.657   3.594  13.102 -0.5033 -0.3864  1.0242
 9321SOL     OW39424   3.935   0.259  17.225 -0.4776  0.1775  0.2532
 9321SOL    HW139425   4.030   0.248  17.222 -0.6397 -1.2842  0.3570
 9321SOL    HW239426   3.910   0.166  17.226 -0.4360  0.1797  1.8549
 9322SOL     OW39427   2.035   3.846   4.416 -0.0402  0.4267 -0.1248
 9322SOL    HW139428   1.993   3.931   4.430  3.2986  2.3661 -2.0279
 9322SOL    HW239429   2.067   3.855   4.326 -2.2399  0.3925 -0.9094
 9323SOL     OW39430   3.942   0.846   5.008 -1.1454  0.0834  0.1206
 9323SOL    HW139431   3.865   0.860   4.954 -0.2858  1.2347 -0.7938
 9323SOL    HW239432   3.920   0.901   5.083 -2.3758 -0.6907  0.3310
 9324SOL     OW39433   3.373   3.911   0.140 -0.2911 -0.6816 -0.3131
 9324SOL    HW139434   3.465   3.887   0.138 -0.3731 -1.0373  0.1440
 9324SOL    HW239435   3.331   3.829   0.166 -0.9139 -0.5641 -0.9217
 9325SOL     OW39436   0.854   2.616   7.636 -0.0981  0.0480 -0.1795
 9325SOL    HW139437   0.915   2.689   7.642  1.2436 -1.0295 -0.4651
 9325SOL    HW239438   0.845   2.594   7.728 -0.8330  0.4397 -0.1614
 9326SOL     OW39439   3.970   1.301   5.798  0.4132 -0.1070 -0.4178
 9326SOL    HW139440   4.025   1.225   5.812 -0.6021 -0.9351 -0.9401
 9326SOL    HW239441   3.934   1.314   5.886 -3.2505 -0.3921 -1.8699
 9327SOL     OW39442   1.670   1.331   6.752  0.4699  0.0639  0.4951
 9327SOL    HW139443   1.649   1.256   6.809 -0.3650 -0.7222 -0.8473
 9327SOL    HW239444   1.655   1.400   6.817  0.6634 -0.1584  0.7812
 9328SOL     OW39445   2.705   3.072   1.689 -0.0233 -0.1753 -0.0999
 9328SOL    HW139446   2.773   3.134   1.663 -0.3056  0.2649  0.2059
 9328SOL    HW239447   2.693   3.110   1.776  0.4074 -0.1172 -0.0639
 9329SOL     OW39448   3.591   4.380   6.806 -0.4981 -0.6999  0.3896
 9329SOL    HW139449   3.614   4.404   6.896 -0.0424 -0.8405  0.3120
 9329SOL    HW239450   3.623   4.290   6.810 -0.2286 -0.6225 -0.0944
 9330SOL     OW39451   3.528   2.999   1.888  0.4809  0.0162 -0.2919
 9330SOL    HW139452   3.504   2.926   1.831  0.1648 -0.1838  0.0908
 9330SOL    HW239453   3.496   2.959   1.969 -0.2467  0.1512 -0.5126
 9331SOL     OW39454   1.204   4.000   3.865  0.4696  0.8546 -0.1119
 9331SOL    HW139455   1.198   4.033   3.776  0.0194 -1.0486 -0.7794
 9331SOL    HW239456   1.139   3.930   3.870  2.4424 -1.1329 -2.6908
 9332SOL     OW39457   4.011   3.754   7.745 -0.0675 -0.0101 -0.0445
 9332SOL    HW139458   4.043   3.763   7.655  2.8551 -0.3495  0.9452
 9332SOL    HW239459   4.051   3.671   7.771  1.0812  0.1243 -1.3965
 9333SOL     OW39460   1.551   0.694   3.443 -0.4266 -0.0502  0.0148
 9333SOL    HW139461   1.635   0.730   3.470 -0.3527  0.2266 -0.5970
 9333SOL    HW239462   1.553   0.725   3.353 -0.7409 -0.2958 -0.0773
 9334SOL     OW39463   1.466   3.628   1.740 -0.0827 -0.0092  0.0649
 9334SOL    HW139464   1.452   3.711   1.695 -1.8338  1.2019  2.8332
 9334SOL    HW239465   1.509   3.662   1.819  1.9488 -1.7567 -0.2789
 9335SOL     OW39466   2.843   1.237   4.851  0.2447  0.5574  0.0985
 9335SOL    HW139467   2.819   1.318   4.807  0.4201  0.9526  0.7338
 9335SOL    HW239468   2.769   1.237   4.912 -0.6333 -0.1973 -0.9518
 9336SOL     OW39469   1.257   3.701   7.811 -0.1899 -0.3002 -0.0893
 9336SOL    HW139470   1.281   3.626   7.757  2.9171  1.7221 -1.5338
 9336SOL    HW239471   1.307   3.685   7.891  0.6828 -2.4908 -1.0499
 9337SOL     OW39472   3.830   0.455   8.714 -0.6764 -0.0616 -0.0612
 9337SOL    HW139473   3.812   0.547   8.693 -0.6522 -0.1658 -0.5357
 9337SOL    HW239474   3.852   0.458   8.807 -1.5415  1.1602  0.1121
 9338SOL     OW39475   0.299   2.920   3.371  0.0675  0.2489 -0.2255
 9338SOL    HW139476   0.336   2.986   3.312 -0.5382 -0.6012 -1.5536
 9338SOL    HW239477   0.253   2.868   3.305  1.5316  1.1167 -1.9407
 9339SOL     OW39478   1.227   2.598   0.838 -0.0922 -0.2430  0.1520
 9339SOL    HW139479   1.166   2.551   0.894 -0.8428  1.5182  0.8291
 9339SOL    HW239480   1.266   2.527   0.787 -0.3039 -1.4568  1.7007
 9340SOL     OW39481   1.718   2.427   7.655  0.0492  0.7235 -0.1495
 9340SOL    HW139482   1.627   2.404   7.674  0.3482  0.3595  0.8678
 9340SOL    HW239483   1.756   2.434   7.743  1.1521 -0.1766 -0.5574
 9341SOL     OW39484   3.774   0.253   9.250 -0.3829 -0.2785  0.4812
 9341SOL    HW139485   3.775   0.181   9.313 -0.8537 -0.2949  0.4713
 9341SOL    HW239486   3.703   0.311   9.279 -1.1540 -1.1073  0.2421
 9342SOL     OW39487   2.882   3.176   4.416  0.0874  0.2955  0.3252
 9342SOL    HW139488   2.855   3.147   4.329 -0.5679 -0.0035  0.6298
 9342SOL    HW239489   2.960   3.121   4.422 -0.7559 -1.2993 -3.5018
 9343SOL     OW39490   2.914   0.032  14.776  0.7376  0.4908 -0.6222
 9343SOL    HW139491   2.824   0.002  14.785  1.3693 -0.5805  2.2438
 9343SOL    HW239492   2.906   0.118  14.736  1.7362  1.7229  1.7907
 9344SOL     OW39493   0.411   2.447  14.921 -0.6722  0.0670  0.6720
 9344SOL    HW139494   0.443   2.537  14.934  1.3421 -0.4713 -0.6718
 9344SOL    HW239495   0.467   2.421  14.848 -1.2466  0.1367  0.2025
 9345SOL     OW39496   2.419   1.983   0.244 -0.1323  0.0494 -0.3424
 9345SOL    HW139497   2.429   1.888   0.250  0.4263  0.2597  1.9145
 9345SOL    HW239498   2.436   2.027   0.327  1.3110  0.8652 -1.0666
 9346SOL     OW39499   1.786   0.972   0.720 -0.0550  0.6846  0.4440
 9346SOL    HW139500   1.855   0.921   0.763  0.4606  0.8201 -0.2259
 9346SOL    HW239501   1.837   1.009   0.648  0.2215 -0.8025 -0.1133
 9347SOL     OW39502   0.330   1.273   6.677  0.5327 -0.5679 -0.1786
 9347SOL    HW139503   0.258   1.211   6.690 -0.3234  0.8251  1.7396
 9347SOL    HW239504   0.315   1.315   6.761 -0.2577 -0.6263 -0.2938
 9348SOL     OW39505   3.107   0.639   2.948 -0.7032  0.2484  0.0736
 9348SOL    HW139506   3.096   0.720   2.998  0.5509 -1.8571  3.7514
 9348SOL    HW239507   3.018   0.605   2.945 -0.3684 -0.6961  1.2539
 9349SOL     OW39508   3.097   0.741   0.712 -0.1666 -0.3592 -0.7293
 9349SOL    HW139509   3.141   0.690   0.645 -0.4690 -0.6429 -0.7126
 9349SOL    HW239510   3.076   0.675   0.779  0.1829 -0.7964 -1.0533
 9350SOL     OW39511   0.805   3.206   6.416  0.2779  0.8045 -0.0222
 9350SOL    HW139512   0.771   3.294   6.399  1.8977  1.1936 -1.2050
 9350SOL    HW239513   0.796   3.211   6.511  0.9517 -2.3344  0.2129
 9351SOL     OW39514   1.304   4.479   7.818  0.3833  0.3551 -0.4134
 9351SOL    HW139515   1.389   4.480   7.772 -0.0694  0.6356 -1.2427
 9351SOL    HW239516   1.277   4.570   7.811  0.8920  0.5233 -0.1547
 9352SOL     OW39517   2.112   0.913   9.916 -0.0010  0.6653 -0.3641
 9352SOL    HW139518   2.069   0.995   9.894 -1.3307  0.2349  0.6485
 9352SOL    HW239519   2.055   0.846   9.878  2.4637 -1.9233  0.4932
 9353SOL     OW39520   3.760   4.045   6.493  0.4982  0.3750  0.8618
 9353SOL    HW139521   3.702   4.071   6.420  0.9258 -0.5021  0.2080
 9353SOL    HW239522   3.790   3.960   6.461 -0.8145  1.2384 -2.7261
 9354SOL     OW39523   0.549   2.309   6.264  0.1395 -0.4083 -0.1861
 9354SOL    HW139524   0.576   2.309   6.356 -0.4632 -2.4357 -0.0213
 9354SOL    HW239525   0.621   2.362   6.230 -0.0891  1.3574  2.0148
 9355SOL     OW39526   3.220   0.780   5.423 -0.1742 -0.1591 -0.3217
 9355SOL    HW139527   3.310   0.755   5.448 -0.1620  0.0492 -0.1589
 9355SOL    HW239528   3.212   0.762   5.329  0.9614  0.6938 -0.5903
 9356SOL     OW39529   2.981   0.800   2.277  0.4459  0.3873  0.1821
 9356SOL    HW139530   3.059   0.851   2.257 -0.9641  2.4156 -0.1423
 9356SOL    HW239531   3.017   0.758   2.355  1.5368 -1.7984 -1.4900
 9357SOL     OW39532   2.401   1.891  13.908 -0.0269  0.3548  0.1870
 9357SOL    HW139533   2.381   1.875  13.816  2.2187 -0.8678 -0.0679
 9357SOL    HW239534   2.411   1.799  13.929  1.0626  0.7750  1.5003
 9358SOL     OW39535   2.108   1.755   5.242 -0.1253 -0.4056  0.4300
 9358SOL    HW139536   2.089   1.844   5.271 -3.4351 -2.0473  3.3703
 9358SOL    HW239537   2.069   1.708   5.316  0.6733 -0.9291  0.5318
 9359SOL     OW39538   1.741   0.067   6.537  0.0685 -0.1525 -0.1912
 9359SOL    HW139539   1.806   0.062   6.606 -0.5884 -2.9470  0.2247
 9359SOL    HW239540   1.699   4.703   6.540 -0.3725 -0.0087 -2.0231
 9360SOL     OW39541   0.486   4.427   3.219  0.2937 -0.3529  0.0704
 9360SOL    HW139542   0.431   4.380   3.282 -1.0942  0.1797 -0.7463
 9360SOL    HW239543   0.418   4.489   3.191  0.0415 -0.2744  0.8668
 9361SOL     OW39544   3.724   1.419  10.055 -0.1139 -0.1789  0.2760
 9361SOL    HW139545   3.716   1.385  10.144 -0.7430 -0.2092  0.2059
 9361SOL    HW239546   3.687   1.345  10.006  0.6656  0.0022 -0.5935
 9362SOL     OW39547   1.364   3.087  16.702 -0.0227  0.1812  0.3337
 9362SOL    HW139548   1.400   3.164  16.658  0.5166 -0.5905 -0.5644
 9362SOL    HW239549   1.272   3.110  16.691  0.3078  0.1551 -2.5189
 9363SOL     OW39550   4.192   2.025   0.490  0.2478 -0.4149 -0.4167
 9363SOL    HW139551   4.127   1.957   0.470  1.4226 -1.3376 -1.0669
 9363SOL    HW239552   4.225   2.038   0.401  1.1419  1.0222  0.1205
 9364SOL     OW39553   2.277   3.623   2.695 -0.0410 -0.2481  0.2610
 9364SOL    HW139554   2.372   3.613   2.697 -0.0850 -0.5779  0.8375
 9364SOL    HW239555   2.254   3.608   2.787  0.5482  0.4325  0.5205
 9365SOL     OW39556   3.561   2.084  16.510  0.0558  0.3907  0.2665
 9365SOL    HW139557   3.544   2.075  16.603  0.5348  0.2379  0.3401
 9365SOL    HW239558   3.629   2.152  16.506 -0.9624  1.3028 -1.3487
 9366SOL     OW39559   1.907   0.353   9.888  0.1769 -0.1334 -0.4607
 9366SOL    HW139560   1.838   0.413   9.916 -2.1567 -3.4988  0.9728
 9366SOL    HW239561   1.973   0.412   9.849 -0.3143  1.8681  1.7301
 9367SOL     OW39562   3.393   1.399   8.297 -0.5834 -0.3743  0.7048
 9367SOL    HW139563   3.485   1.381   8.278  0.0587 -0.1028  3.5428
 9367SOL    HW239564   3.376   1.491   8.275  0.4854 -0.0455  1.2587
 9368SOL     OW39565   3.370   2.830  11.839  0.1380 -0.0913 -0.0519
 9368SOL    HW139566   3.335   2.913  11.872  1.2740  0.5490 -0.4580
 9368SOL    HW239567   3.426   2.799  11.910 -0.5811  0.3166  0.6776
 9369SOL     OW39568   0.815   4.563   8.264 -0.4185 -0.4936  0.2039
 9369SOL    HW139569   0.842   4.477   8.296  1.2206  0.1030  0.4410
 9369SOL    HW239570   0.760   4.590   8.337  1.6126 -2.4799  2.5017
 9370SOL     OW39571   3.445   2.856   2.135 -0.0590  0.3760 -0.3304
 9370SOL    HW139572   3.403   2.933   2.173  0.0509  0.3636 -0.1820
 9370SOL    HW239573   3.523   2.849   2.191 -0.5286 -1.1644  0.1320
 9371SOL     OW39574   4.017   0.905   8.834 -0.0560  0.0623  0.3091
 9371SOL    HW139575   3.930   0.944   8.840  0.8456  2.0724  0.1819
 9371SOL    HW239576   4.020   0.843   8.908 -2.1842 -1.1816 -0.6282
 9372SOL     OW39577   0.561   3.322  13.750 -0.3485 -0.3162  0.3844
 9372SOL    HW139578   0.586   3.300  13.660  2.9071 -1.5018  1.5804
 9372SOL    HW239579   0.531   3.409  13.725  0.6495 -0.0973 -0.0694
 9373SOL     OW39580   3.912   1.045  16.992  0.3698 -0.0523 -0.0827
 9373SOL    HW139581   3.837   0.992  16.965 -0.8347  1.6766 -0.1526
 9373SOL    HW239582   3.885   1.130  16.956  0.4470  0.6003  1.3993
 9374SOL     OW39583   0.932   1.894   4.784 -0.1724  0.6242 -0.1681
 9374SOL    HW139584   0.895   1.806   4.777 -1.7724  1.4133 -1.3995
 9374SOL    HW239585   0.999   1.888   4.716  0.6107 -4.5924  1.0110
 9375SOL     OW39586   1.764   1.977  10.657 -0.1370 -0.0671  0.2294
 9375SOL    HW139587   1.853   1.953  10.632  0.4774  0.0587  2.2697
 9375SOL    HW239588   1.715   1.923  10.595 -0.1366  0.5696 -0.3320
 9376SOL     OW39589   4.268   0.166   9.054 -0.0520  0.0129 -0.1004
 9376SOL    HW139590   4.188   0.113   9.054  0.3187 -0.5543  1.2701
 9376SOL    HW239591   4.229   0.246   9.018 -1.8336 -0.6877  0.2318
 9377SOL     OW39592   2.348   2.987   5.231  0.0956 -0.5968  0.1616
 9377SOL    HW139593   2.273   3.014   5.283  0.6315  0.4957  0.3902
 9377SOL    HW239594   2.408   2.946   5.293  0.8309  2.4849  1.5264
 9378SOL     OW39595   2.120   1.860   0.392 -0.7875  0.1088  0.5208
 9378SOL    HW139596   2.147   1.948   0.367 -0.3345 -0.0322  0.5125
 9378SOL    HW239597   2.052   1.857   0.325  0.9596 -0.9930 -1.2028
 9379SOL     OW39598   0.841   1.445   3.099  0.5721  0.2622 -0.0678
 9379SOL    HW139599   0.923   1.495   3.109  0.3285  0.8526 -1.0821
 9379SOL    HW239600   0.782   1.513   3.067  0.1376  0.0742  0.3443
 9380SOL     OW39601   0.359   2.505   5.096  0.1832 -0.1172  0.0406
 9380SOL    HW139602   0.434   2.447   5.105 -0.3467 -0.7193  0.6067
 9380SOL    HW239603   0.301   2.467   5.030 -1.6031  0.3595  1.3165
 9381SOL     OW39604   2.422   1.272   4.334  0.3767 -0.1823 -0.5677
 9381SOL    HW139605   2.432   1.279   4.429 -2.0027  1.2750 -0.4267
 9381SOL    HW239606   2.455   1.356   4.303 -0.2370 -0.5610 -2.2058
 9382SOL     OW39607   3.545   1.340   5.755  0.8039 -0.0407 -0.3128
 9382SOL    HW139608   3.501   1.354   5.671  0.9409  0.4025 -0.3096
 9382SOL    HW239609   3.462   1.342   5.802  1.2943  0.0406  0.5495
 9383SOL     OW39610   1.354   3.498   4.965  0.0742 -0.6366 -0.1290
 9383SOL    HW139611   1.312   3.479   5.049  0.0289  0.4940  0.1114
 9383SOL    HW239612   1.353   3.413   4.921 -1.2786 -2.2763  3.0904
 9384SOL     OW39613   4.540   1.322   1.830  0.4358 -0.1034 -0.4782
 9384SOL    HW139614   4.509   1.256   1.892  1.1074 -2.1084 -2.2990
 9384SOL    HW239615   4.477   1.394   1.835  0.9538  0.4158 -1.3902
 9385SOL     OW39616   2.232   1.065   6.495  0.4262 -0.3613  0.1043
 9385SOL    HW139617   2.183   1.003   6.441 -0.0741  1.4620 -1.5449
 9385SOL    HW239618   2.326   1.044   6.493  0.6899  0.8552 -0.3470
 9386SOL     OW39619   4.047   1.429   5.161 -0.3604  0.1338  0.2800
 9386SOL    HW139620   4.080   1.344   5.132 -1.9528 -0.2297 -0.5028
 9386SOL    HW239621   4.019   1.404   5.249 -0.8793 -1.6769 -0.3839
 9387SOL     OW39622   0.218   2.786   7.427 -0.5008  0.0085 -0.1193
 9387SOL    HW139623   0.252   2.734   7.499  1.3979  2.5514  0.7814
 9387SOL    HW239624   0.263   2.869   7.440  1.0402 -1.3362  3.0659
 9388SOL     OW39625   2.668   2.585  17.355  0.1374 -0.2668 -0.4881
 9388SOL    HW139626   2.758   2.619  17.351  0.9023 -2.1904  0.2398
 9388SOL    HW239627   2.626   2.593  17.270 -0.8850 -0.0183  0.0404
 9389SOL     OW39628   1.092   3.747  15.080 -0.2312  0.3031  0.0331
 9389SOL    HW139629   1.129   3.714  15.162  1.3045  0.5904 -0.5470
 9389SOL    HW239630   1.162   3.804  15.050  0.2001  0.2838  0.9920
 9390SOL     OW39631   1.624   0.239   8.137  0.0316 -0.6864  0.1731
 9390SOL    HW139632   1.614   0.144   8.143 -2.1124 -0.5099 -0.4280
 9390SOL    HW239633   1.708   0.261   8.176 -0.1915 -0.1539  0.3536
 9391SOL     OW39634   1.117   1.043   4.279 -0.0210 -0.6619  0.2088
 9391SOL    HW139635   1.149   1.078   4.363  0.4975 -1.0685  0.1794
 9391SOL    HW239636   1.194   0.988   4.268  1.5712  1.0269  2.6681
 9392SOL     OW39637   0.453   3.900  13.296  0.0692  0.1399 -0.3436
 9392SOL    HW139638   0.368   3.884  13.338 -0.3560  2.3131 -0.3695
 9392SOL    HW239639   0.432   3.910  13.203 -1.6758 -0.5330 -0.0235
 9393SOL     OW39640   1.084   1.027   9.447 -0.3633  0.4911  0.1574
 9393SOL    HW139641   1.024   0.999   9.517 -0.7338 -0.6241 -0.6093
 9393SOL    HW239642   1.077   1.123   9.451 -0.1414  0.4602  1.5243
 9394SOL     OW39643   4.430   2.882   3.852 -0.3942 -0.0521 -0.2206
 9394SOL    HW139644   4.519   2.908   3.829 -0.6303 -0.6647 -1.8252
 9394SOL    HW239645   4.430   2.788   3.868 -0.2949 -0.1185 -0.6099
 9395SOL     OW39646   4.686   0.742  13.970  0.1191 -0.6659  0.3859
 9395SOL    HW139647   4.643   0.657  13.978 -1.0171 -0.1547 -0.2430
 9395SOL    HW239648   4.622   0.795  14.016  0.6553 -0.4546  0.8837
 9396SOL     OW39649   1.317   1.761   6.723  0.5016  0.0883 -0.1730
 9396SOL    HW139650   1.311   1.671   6.690  0.0372 -0.4456  1.3778
 9396SOL    HW239651   1.412   1.767   6.730  0.1272  3.1918  1.8585
 9397SOL     OW39652   2.165   3.032   9.823 -0.1634 -0.0578  0.4181
 9397SOL    HW139653   2.182   3.050   9.916 -0.8098 -0.2196  0.5692
 9397SOL    HW239654   2.222   3.092   9.774 -0.2323  0.6439  1.1941
 9398SOL     OW39655   4.693   2.812   7.663  0.4335 -0.2758  0.0150
 9398SOL    HW139656   0.041   2.875   7.675  0.6731 -0.3262 -1.1058
 9398SOL    HW239657   4.656   2.839   7.579 -0.8817  0.2855  0.7739
 9399SOL     OW39658   3.610   4.467  14.083 -0.0739 -0.7736 -0.4642
 9399SOL    HW139659   3.697   4.459  14.122 -0.1818 -1.9823 -0.4522
 9399SOL    HW239660   3.560   4.459  14.164  0.0340 -0.7022 -0.3906
 9400SOL     OW39661   0.471   0.755   9.233 -0.1913 -0.5587 -0.0466
 9400SOL    HW139662   0.433   0.811   9.300  0.0852 -0.6488  0.1832
 9400SOL    HW239663   0.388   0.720   9.200 -0.4545  0.8796 -0.9147
 9401SOL     OW39664   3.928   1.291   7.171  0.2461  0.4534 -0.2534
 9401SOL    HW139665   3.847   1.239   7.172  0.4802  0.0614 -1.2071
 9401SOL    HW239666   3.976   1.236   7.233  2.1013  1.4334 -0.8438
 9402SOL     OW39667   0.458   2.968  14.044 -0.3072 -0.4960  0.0065
 9402SOL    HW139668   0.372   2.940  14.076  1.1460 -0.3691  3.9356
 9402SOL    HW239669   0.428   2.971  13.953  0.2729 -0.1018 -0.1659
 9403SOL     OW39670   3.735   1.587   7.109 -0.7601 -0.4170  0.2008
 9403SOL    HW139671   3.685   1.542   7.041  0.7497  0.3170 -1.3992
 9403SOL    HW239672   3.701   1.676   7.105 -1.7669 -0.8140 -0.0109
 9404SOL     OW39673   2.504   4.016  14.996  0.1590 -0.0578  0.0353
 9404SOL    HW139674   2.517   4.001  15.089 -0.4756  0.1193  0.1573
 9404SOL    HW239675   2.415   4.053  14.996 -0.1136 -0.7018 -0.8238
 9405SOL     OW39676   3.589   3.917   5.102  0.2005 -0.4663 -0.2209
 9405SOL    HW139677   3.578   3.828   5.134 -1.7930 -0.1702 -0.1130
 9405SOL    HW239678   3.664   3.903   5.044  1.2443  1.4740  0.6293
 9406SOL     OW39679   0.713   2.780   3.266 -0.2515 -0.2553  0.3702
 9406SOL    HW139680   0.756   2.842   3.325 -0.4948  1.4353 -1.2196
 9406SOL    HW239681   0.788   2.755   3.211  0.2162  0.0129  0.8861
 9407SOL     OW39682   0.850   1.183   0.133 -0.3338  0.0815  0.2522
 9407SOL    HW139683   0.929   1.165   0.185 -1.7878 -0.1157  2.4011
 9407SOL    HW239684   0.817   1.236   0.206 -0.0195 -2.7207  2.4085
 9408SOL     OW39685   3.880   4.471   5.051 -0.2446 -0.0350  0.1551
 9408SOL    HW139686   3.871   4.556   5.094 -3.6250 -1.7056  2.6768
 9408SOL    HW239687   3.975   4.457   5.060 -0.1556  0.9581  0.7662
 9409SOL     OW39688   3.005   3.074   2.807  0.2301  0.0933  0.5286
 9409SOL    HW139689   2.996   3.126   2.727  0.3742  0.9463  1.0622
 9409SOL    HW239690   3.000   3.132   2.883  0.3701 -2.0575  2.1944
 9410SOL     OW39691   1.868   4.179   3.088 -0.0654 -0.3630 -0.3056
 9410SOL    HW139692   1.774   4.193   3.098  0.0519 -0.8186  1.4136
 9410SOL    HW239693   1.892   4.271   3.074  1.4093 -0.6473  0.3647
 9411SOL     OW39694   0.593   0.615  10.058  0.1607  0.2693  0.1838
 9411SOL    HW139695   0.576   0.570  10.141 -2.4599 -1.1546 -1.1056
 9411SOL    HW239696   0.624   0.698  10.092 -2.1939  0.6756  1.3395
 9412SOL     OW39697   0.296   2.566  12.729 -0.2415 -0.2443 -0.3320
 9412SOL    HW139698   0.387   2.549  12.754  0.3152  2.9561 -0.1520
 9412SOL    HW239699   0.317   2.629  12.660 -0.8262 -0.9913 -1.1755
 9413SOL     OW39700   1.744   4.218  14.327 -0.1801 -0.1371  0.3942
 9413SOL    HW139701   1.781   4.185  14.409 -0.0540 -3.0595 -0.8521
 9413SOL    HW239702   1.806   4.287  14.305 -0.0715 -0.2699  0.2818
 9414SOL     OW39703   2.990   2.056   6.144  0.2405 -0.0249  0.3779
 9414SOL    HW139704   2.926   2.033   6.212 -1.2526 -0.5290 -1.2090
 9414SOL    HW239705   3.051   1.984   6.131 -1.0475 -1.2837  1.3613
 9415SOL     OW39706   3.983   1.463   6.973  0.1304  0.2004  0.1821
 9415SOL    HW139707   3.975   1.409   7.051 -1.0385  0.7228  0.4290
 9415SOL    HW239708   3.968   1.546   7.017  0.5293  0.3660  0.0007
 9416SOL     OW39709   3.765   4.351   8.607 -0.0315 -0.5924 -0.3211
 9416SOL    HW139710   3.717   4.344   8.690  0.4273 -1.1298 -0.1053
 9416SOL    HW239711   3.846   4.393   8.635  1.0139 -1.4928 -2.0107
 9417SOL     OW39712   4.436   1.394   3.197 -0.0550 -0.3810 -0.2638
 9417SOL    HW139713   4.476   1.459   3.140  2.5772 -2.2289 -0.5054
 9417SOL    HW239714   4.407   1.339   3.124  0.8502  0.3508 -1.1730
 9418SOL     OW39715   0.580   3.908   0.628  0.0181 -0.4970 -0.2927
 9418SOL    HW139716   0.559   3.978   0.690 -0.0149  0.7389 -1.6971
 9418SOL    HW239717   0.658   3.876   0.672  1.1800  3.2589  0.4200
 9419SOL     OW39718   2.399   2.874   5.691  0.2647  0.4260  0.0245
 9419SOL    HW139719   2.462   2.832   5.750  0.3057  2.5034  1.4471
 9419SOL    HW239720   2.344   2.928   5.748  0.3734  1.1571 -0.5645
 9420SOL     OW39721   3.269   3.610  11.257  0.1866  0.4128  0.8790
 9420SOL    HW139722   3.231   3.684  11.210  0.6320  2.5258  3.8331
 9420SOL    HW239723   3.191   3.572  11.296 -1.5471  0.5513 -2.4307
 9421SOL     OW39724   2.801   0.699  16.614  0.3350 -0.4621  0.0785
 9421SOL    HW139725   2.781   0.671  16.703  1.8383  0.9356  0.8697
 9421SOL    HW239726   2.743   0.645  16.561 -1.8190 -0.2866  2.3076
 9422SOL     OW39727   3.367   1.338  10.229 -0.3353 -0.0968  0.0001
 9422SOL    HW139728   3.418   1.412  10.197 -2.3485  1.4048  0.3118
 9422SOL    HW239729   3.295   1.385  10.271  0.3292  0.4036  0.5773
 9423SOL     OW39730   1.728   0.361   5.611 -0.3379 -0.3549  0.2408
 9423SOL    HW139731   1.751   0.332   5.699 -1.5997 -1.7448  0.1135
 9423SOL    HW239732   1.727   0.278   5.563  0.8404 -0.9931  1.3324
 9424SOL     OW39733   3.166   3.467  10.949 -0.5542  0.2555 -0.4023
 9424SOL    HW139734   3.091   3.516  10.981  1.4969  1.9526  1.8273
 9424SOL    HW239735   3.226   3.541  10.937 -1.9473  1.5044  0.4477
 9425SOL     OW39736   3.550   1.264   7.943  0.1849  0.1735  0.4168
 9425SOL    HW139737   3.455   1.273   7.951  0.2487  0.7255  0.5551
 9425SOL    HW239738   3.562   1.255   7.849 -2.5911  1.0698 -0.0361
 9426SOL     OW39739   0.543   1.219   8.265 -0.2793 -0.1331  0.2754
 9426SOL    HW139740   0.471   1.260   8.216  0.7064  1.6819  0.3462
 9426SOL    HW239741   0.555   1.127   8.244 -1.7294 -0.8208  2.4562
 9427SOL     OW39742   3.020   0.975   0.822  0.3757 -0.1460 -0.1332
 9427SOL    HW139743   3.096   1.033   0.827 -0.1176  0.4583  0.3123
 9427SOL    HW239744   3.053   0.895   0.781  0.6312  1.3435 -2.8108
 9428SOL     OW39745   1.967   2.674  10.551 -0.3049 -0.0631 -0.2009
 9428SOL    HW139746   2.003   2.761  10.567 -1.7752  0.8582 -1.9970
 9428SOL    HW239747   1.896   2.668  10.616  0.6485 -0.5806  0.7927
 9429SOL     OW39748   4.696   4.175  14.260 -0.5221  0.7903  0.4947
 9429SOL    HW139749   4.622   4.198  14.204  0.0273  0.5026 -0.3644
 9429SOL    HW239750   4.665   4.087  14.281 -2.0672  1.0877 -0.5153
 9430SOL     OW39751   0.024   1.062   6.208 -0.0861  0.0066  0.1288
 9430SOL    HW139752   4.678   1.071   6.275 -0.9486 -2.5569 -0.4203
 9430SOL    HW239753   0.064   0.978   6.230 -1.1638 -0.5873 -0.1428
 9431SOL     OW39754   3.711   2.377   4.416 -0.0514  0.8535 -0.8467
 9431SOL    HW139755   3.644   2.313   4.437  0.5453  0.0649 -1.3522
 9431SOL    HW239756   3.721   2.365   4.321 -1.3377  1.4638 -1.0570
 9432SOL     OW39757   3.223   2.714   8.632  0.3631 -0.6105  0.2437
 9432SOL    HW139758   3.226   2.787   8.695  0.6642 -2.8033  2.7423
 9432SOL    HW239759   3.306   2.667   8.637  0.4386 -0.6204 -0.9782
 9433SOL     OW39760   2.596   0.394   3.253 -0.0872 -0.3916  0.0192
 9433SOL    HW139761   2.577   0.318   3.198  1.5549 -0.4165 -0.5025
 9433SOL    HW239762   2.509   0.427   3.274  0.1642  1.1154 -1.2793
 9434SOL     OW39763   4.375   1.090   5.137  0.1145 -0.1912  0.1047
 9434SOL    HW139764   4.418   1.101   5.052  2.7487  0.0857  1.4722
 9434SOL    HW239765   4.396   1.170   5.186  0.1433  0.2320 -0.6009
 9435SOL     OW39766   3.135   2.065  15.519 -0.2383  0.4344  0.3409
 9435SOL    HW139767   3.118   1.975  15.545 -0.1108  0.1123 -0.6906
 9435SOL    HW239768   3.222   2.078  15.556  0.6823 -1.7868 -1.0768
 9436SOL     OW39769   0.085   2.430   2.982 -0.2215  0.2251 -0.0401
 9436SOL    HW139770   0.069   2.522   2.962  1.0974  0.3294 -0.6430
 9436SOL    HW239771   0.038   2.407   3.062 -0.7428  0.2341 -0.3442
 9437SOL     OW39772   4.097   0.514   4.438 -0.5252  0.4302  0.4743
 9437SOL    HW139773   4.139   0.586   4.392 -1.3705  0.2530 -0.5571
 9437SOL    HW239774   4.096   0.541   4.530  1.2034  3.0124 -0.2643
 9438SOL     OW39775   0.319   2.824  17.183 -0.5099 -0.0382  0.4562
 9438SOL    HW139776   0.312   2.831  17.278 -0.7209  0.1250  0.4300
 9438SOL    HW239777   0.325   2.729  17.183  1.2368  0.0755  0.0591
 9439SOL     OW39778   3.428   0.819   3.497  0.4380  0.0616  0.2309
 9439SOL    HW139779   3.514   0.857   3.477  0.1003  1.6925  1.9406
 9439SOL    HW239780   3.382   0.881   3.553 -1.9217 -0.8593 -0.6684
 9440SOL     OW39781   3.570   1.772   5.972 -0.5620 -0.1631 -0.1363
 9440SOL    HW139782   3.622   1.800   6.047  0.5391 -2.5237 -0.0395
 9440SOL    HW239783   3.614   1.696   5.935 -0.6415 -1.1624  1.8574
 9441SOL     OW39784   0.011   3.457  13.015 -0.4783  0.5888 -0.9588
 9441SOL    HW139785   4.709   3.478  12.925 -1.6754  2.5188 -0.1789
 9441SOL    HW239786   0.061   3.376  13.005 -1.2489 -0.1446  1.0964
 9442SOL     OW39787   1.712   0.128   3.723  0.4826 -0.1863  0.0725
 9442SOL    HW139788   1.753   0.214   3.736  1.0778 -0.6842  1.5343
 9442SOL    HW239789   1.625   0.165   3.708  1.3979  3.1391  2.6711
 9443SOL     OW39790   0.397   3.802   2.032 -0.3086  0.5128 -0.2403
 9443SOL    HW139791   0.457   3.740   1.990 -1.1884 -0.3756 -0.1704
 9443SOL    HW239792   0.445   3.848   2.101  1.0826 -0.6843 -0.3974
 9444SOL     OW39793   2.174   2.967  10.140  0.0484  0.4278 -0.2521
 9444SOL    HW139794   2.210   2.948  10.227  0.6228 -0.3023 -0.6503
 9444SOL    HW239795   2.082   2.985  10.159 -0.0895 -1.3305  0.7812
 9445SOL     OW39796   2.714   3.323   0.029 -0.1416  0.1257  0.4070
 9445SOL    HW139797   2.808   3.308   0.034 -0.1923 -0.5131 -0.5142
 9445SOL    HW239798   2.691   3.276  17.640 -0.2245 -0.4930  0.7958
 9446SOL     OW39799   1.322   3.169  14.571  0.4216  0.0995 -0.1803
 9446SOL    HW139800   1.341   3.257  14.603  0.5693 -0.5806  1.5638
 9446SOL    HW239801   1.408   3.150  14.534  1.3054  1.9861  0.9260
 9447SOL     OW39802   4.508   0.975   3.093  0.2541 -0.1618 -0.0622
 9447SOL    HW139803   4.587   0.975   3.039  0.0559 -1.6672 -0.3658
 9447SOL    HW239804   4.542   1.019   3.171  0.0955  0.3189 -0.2682
 9448SOL     OW39805   1.523   4.000  11.220  0.1079  0.4101  0.0459
 9448SOL    HW139806   1.477   4.080  11.194 -2.3181 -1.0471 -0.0937
 9448SOL    HW239807   1.524   3.957  11.135  0.5860  0.1641  0.1731
 9449SOL     OW39808   3.453   3.439   4.871 -0.2599 -0.0515 -0.6893
 9449SOL    HW139809   3.429   3.425   4.963  2.0919  2.0657  0.2614
 9449SOL    HW239810   3.371   3.431   4.823  0.0253  0.4615 -1.2517
 9450SOL     OW39811   0.809   3.032   5.090  0.2436  0.2273  0.5564
 9450SOL    HW139812   0.765   2.948   5.102  0.1691  0.1250 -0.4487
 9450SOL    HW239813   0.902   3.013   5.077 -0.0663 -1.9605  1.4259
 9451SOL     OW39814   0.945   2.613   7.312  0.7229  0.2575  0.4003
 9451SOL    HW139815   1.018   2.626   7.372  0.9070 -0.3505  0.3098
 9451SOL    HW239816   0.981   2.635   7.226  0.3286 -0.5990  0.0127
 9452SOL     OW39817   4.213   2.372   3.999  0.2030 -0.1617 -0.0132
 9452SOL    HW139818   4.234   2.308   4.068 -0.0965 -3.9277 -3.4060
 9452SOL    HW239819   4.258   2.451   4.029  1.7532 -0.1185 -2.4207
 9453SOL     OW39820   0.776   0.317   6.538  0.4155  0.2627 -0.3806
 9453SOL    HW139821   0.813   0.285   6.620 -0.0118 -1.9442 -1.0344
 9453SOL    HW239822   0.739   0.237   6.501  1.9749  0.4754 -2.4746
 9454SOL     OW39823   2.827   3.660   6.994  0.2610 -0.5187  0.0152
 9454SOL    HW139824   2.825   3.727   7.062  0.0926  1.0979 -1.5555
 9454SOL    HW239825   2.818   3.585   7.051  0.5363 -0.9149 -0.4589
 9455SOL     OW39826   1.227   3.476   5.664  0.4333  0.1327 -0.0571
 9455SOL    HW139827   1.153   3.446   5.611 -1.1412  2.3555  0.8845
 9455SOL    HW239828   1.263   3.392   5.692 -3.3234 -1.6171 -0.4966
 9456SOL     OW39829   0.275   4.220   5.556  0.6922  0.3458  0.0474
 9456SOL    HW139830   0.218   4.144   5.561  0.8670  0.2344  0.3009
 9456SOL    HW239831   0.360   4.194   5.593  0.2113  0.3147  1.1004
 9457SOL     OW39832   2.033   1.887   7.842 -0.2653  0.4876 -0.2808
 9457SOL    HW139833   2.083   1.960   7.880  2.4360 -1.7476  0.4560
 9457SOL    HW239834   2.022   1.831   7.919  1.2405 -1.2658 -1.3492
 9458SOL     OW39835   2.710   3.651   3.012 -0.3293  0.2743  0.4296
 9458SOL    HW139836   2.780   3.706   3.045 -0.1965  0.7716 -0.6609
 9458SOL    HW239837   2.636   3.712   3.004 -0.3602  0.4018  1.7905
 9459SOL     OW39838   0.286   0.531  13.471  0.6458  0.1593  0.5255
 9459SOL    HW139839   0.315   0.446  13.437  1.6910  0.6629  0.1590
 9459SOL    HW239840   0.322   0.583  13.400  0.9840 -0.0303  0.5603
 9460SOL     OW39841   0.088   3.185   8.576 -0.1182  0.4600  0.1150
 9460SOL    HW139842   0.178   3.211   8.593 -0.4848  2.0016 -0.3109
 9460SOL    HW239843   0.045   3.201   8.661 -3.0823 -1.3037 -1.0395
 9461SOL     OW39844   0.412   4.317   4.071 -0.1121  0.7925  0.5949
 9461SOL    HW139845   0.437   4.373   3.997  1.0254 -1.2199 -0.5464
 9461SOL    HW239846   0.347   4.267   4.021  2.6464 -3.9447  1.7881
 9462SOL     OW39847   1.803   3.102  14.301  0.5107 -0.4057 -0.4807
 9462SOL    HW139848   1.742   3.176  14.290 -0.1663 -0.8093  0.4951
 9462SOL    HW239849   1.870   3.145  14.353 -1.1463 -1.1137  2.2544
 9463SOL     OW39850   3.095   4.390   3.050 -0.7670 -0.5772 -0.3820
 9463SOL    HW139851   3.025   4.325   3.054  0.0153 -1.4793 -1.4050
 9463SOL    HW239852   3.105   4.408   3.144  0.4455  1.5158 -0.9284
 9464SOL     OW39853   0.571   3.156   3.411  0.1600  0.0568 -0.9397
 9464SOL    HW139854   0.483   3.168   3.377 -0.1031 -1.0735 -0.6660
 9464SOL    HW239855   0.618   3.233   3.380 -0.4005  0.6430 -0.3284
 9465SOL     OW39856   0.055   2.661   1.461 -0.6418 -0.7173 -0.1570
 9465SOL    HW139857   0.029   2.594   1.525  1.4351 -1.1397  0.2659
 9465SOL    HW239858   0.129   2.615   1.422 -0.1114 -1.1669  1.3409
 9466SOL     OW39859   0.802   2.249   3.680 -0.2144 -0.1532  0.5782
 9466SOL    HW139860   0.761   2.191   3.744 -1.9915  0.5088  0.0451
 9466SOL    HW239861   0.732   2.308   3.650 -0.0933 -1.2210 -1.8418
 9467SOL     OW39862   2.966   1.624  13.995 -0.4026 -0.2165 -0.5329
 9467SOL    HW139863   3.010   1.595  14.075  0.2807  0.2996 -0.7263
 9467SOL    HW239864   3.029   1.601  13.927  1.7543  2.2756  0.6317
 9468SOL     OW39865   3.078   2.047  14.952  0.0698  0.0630  0.8094
 9468SOL    HW139866   3.087   1.961  14.992 -0.4647 -0.6688 -0.6437
 9468SOL    HW239867   3.084   2.023  14.859  0.1220  1.1350  0.5335
 9469SOL     OW39868   4.462   0.305  15.803 -0.0322  0.1143  0.1387
 9469SOL    HW139869   4.445   0.216  15.772  0.6854 -0.6328  1.9239
 9469SOL    HW239870   4.449   0.288  15.896  1.0051  2.0764  0.6351
 9470SOL     OW39871   3.899   3.261   8.747  0.2052 -0.3153  0.3759
 9470SOL    HW139872   3.919   3.321   8.676  1.0530 -0.1240  0.7767
 9470SOL    HW239873   3.853   3.323   8.803  2.2389  1.8611 -0.3842
 9471SOL     OW39874   3.076   3.025   7.988 -0.6249  0.7661 -0.6883
 9471SOL    HW139875   3.126   3.100   7.957  3.7843 -1.0736  2.1034
 9471SOL    HW239876   3.032   3.061   8.066 -0.2092 -0.6881  0.2139
 9472SOL     OW39877   1.568   2.050   9.934  0.3093 -0.4745 -0.1827
 9472SOL    HW139878   1.594   1.972   9.984  0.3398  1.1905  2.3986
 9472SOL    HW239879   1.487   2.028   9.887 -1.5992 -0.3814  3.0747
 9473SOL     OW39880   4.298   0.090   8.405  0.6459  0.2292  0.1545
 9473SOL    HW139881   4.257   0.048   8.329 -1.4583  1.5683  0.5413
 9473SOL    HW239882   4.387   0.057   8.398  1.0000  0.9389  1.2975
 9474SOL     OW39883   4.625   1.220   7.624 -0.4899  0.1811  0.1345
 9474SOL    HW139884   4.542   1.173   7.617 -0.1836 -0.3413  0.0509
 9474SOL    HW239885   4.588   1.281   7.688  0.2815  0.3459  0.4234
 9475SOL     OW39886   2.418   3.784   5.385 -0.3273 -0.1189 -0.0068
 9475SOL    HW139887   2.481   3.826   5.444  1.4807 -2.7208 -0.0693
 9475SOL    HW239888   2.376   3.863   5.353  0.6529  0.9293  1.3115
 9476SOL     OW39889   2.024   3.769  11.464  0.3160  0.7232  0.0027
 9476SOL    HW139890   2.105   3.811  11.436 -0.5714  1.9996 -0.6637
 9476SOL    HW239891   2.039   3.734  11.552  1.0106 -2.7337 -1.4886
 9477SOL     OW39892   1.169   1.350   5.976 -0.5641 -0.2387 -0.3782
 9477SOL    HW139893   1.186   1.437   6.012 -2.3466  0.2968 -0.8233
 9477SOL    HW239894   1.171   1.306   6.061  0.9163 -1.8255 -1.2463
 9478SOL     OW39895   1.053   2.518   8.177 -0.0695  0.0762  0.6030
 9478SOL    HW139896   1.129   2.571   8.154  1.6392 -3.9318 -2.9569
 9478SOL    HW239897   1.100   2.437   8.198  2.4876  1.9248  2.0025
 9479SOL     OW39898   4.434   3.611   2.912 -0.0138 -0.2537 -0.2846
 9479SOL    HW139899   4.396   3.677   2.854  1.8168 -0.7870 -2.0640
 9479SOL    HW239900   4.497   3.574   2.851 -1.3391 -0.1147 -1.7548
 9480SOL     OW39901   4.055   3.475   2.326  0.4984  0.5016 -0.5133
 9480SOL    HW139902   4.106   3.552   2.349  1.6113  0.6202 -3.2791
 9480SOL    HW239903   3.966   3.497   2.354  0.5188 -1.5279  1.1273
 9481SOL     OW39904   4.293   3.765   0.539 -0.1067 -0.0953  0.2751
 9481SOL    HW139905   4.247   3.689   0.574 -0.1341 -0.6183 -0.9053
 9481SOL    HW239906   4.358   3.728   0.479 -1.0293 -0.8495 -0.2544
 9482SOL     OW39907   1.204   4.715   6.264  0.5888 -0.8195  0.0600
 9482SOL    HW139908   1.273   4.655   6.292  0.4650 -1.6537 -1.3906
 9482SOL    HW239909   1.209   0.066   6.325  1.6732  0.2823 -1.3495
 9483SOL     OW39910   0.262   3.437  12.077 -0.0534  0.0719 -0.1580
 9483SOL    HW139911   0.356   3.449  12.064 -0.3231  1.0026 -1.3126
 9483SOL    HW239912   0.231   3.386  12.002  0.2979 -0.2739 -0.0681
 9484SOL     OW39913   0.915   2.500   4.725 -0.1953 -0.0986  0.0261
 9484SOL    HW139914   0.836   2.447   4.723 -0.4822  0.3726 -1.0719
 9484SOL    HW239915   0.976   2.427   4.712 -2.3413 -1.9751  0.5231
 9485SOL     OW39916   3.182   1.345   6.886 -0.4324 -0.3581  0.7538
 9485SOL    HW139917   3.229   1.426   6.907  0.2935 -0.1262 -1.7627
 9485SOL    HW239918   3.095   1.381   6.865 -0.8037 -0.9467  1.3200
 9486SOL     OW39919   0.356   0.111   3.888  0.2865 -0.2753  0.2137
 9486SOL    HW139920   0.350   0.194   3.841  0.4622  0.5495  1.6396
 9486SOL    HW239921   0.404   0.138   3.966 -3.1131  0.1454  2.1866
 9487SOL     OW39922   0.819   1.108   7.687  0.0847 -0.7847  0.4096
 9487SOL    HW139923   0.891   1.170   7.679  0.7070 -1.4729  0.6691
 9487SOL    HW239924   0.809   1.059   7.605 -0.0138 -0.5335  0.2706
 9488SOL     OW39925   1.505   3.529   6.966 -0.0307 -0.2445  0.2267
 9488SOL    HW139926   1.569   3.547   6.897  1.1917  2.1635  1.9796
 9488SOL    HW239927   1.432   3.490   6.917 -1.5719 -0.5284  2.7457
 9489SOL     OW39928   1.978   3.409   3.678 -0.5015 -0.0368  0.8942
 9489SOL    HW139929   1.966   3.326   3.632 -2.2726  1.1643 -0.8360
 9489SOL    HW239930   1.909   3.414   3.743  0.8271  1.5554  2.1928
 9490SOL     OW39931   3.145   4.251   6.110  0.4179 -0.1929  0.0610
 9490SOL    HW139932   3.119   4.160   6.093 -2.1011  0.6261 -0.4493
 9490SOL    HW239933   3.197   4.271   6.033  0.5932  2.6239  0.9226
 9491SOL     OW39934   4.056   4.701   1.120 -0.0472 -0.1562  0.1649
 9491SOL    HW139935   4.108   4.621   1.123  0.5319  0.1986 -0.3705
 9491SOL    HW239936   4.102   0.026   1.189  0.0833  0.0816 -0.0879
 9492SOL     OW39937   4.309   0.211   1.113  0.2970  0.1032 -0.7050
 9492SOL    HW139938   4.357   0.259   1.181  0.5235  0.1088 -0.8676
 9492SOL    HW239939   4.235   0.189   1.170 -1.4928  3.0828 -1.8947
 9493SOL     OW39940   0.020   3.594   4.306 -0.2248 -0.3783 -0.4973
 9493SOL    HW139941   0.102   3.630   4.272 -0.5421  0.0489 -0.8084
 9493SOL    HW239942   0.012   3.510   4.261 -0.7770 -0.3741 -0.4089
 9494SOL     OW39943   1.940   0.757  10.685  0.0813 -0.2728 -0.5787
 9494SOL    HW139944   2.030   0.759  10.719 -1.0430 -0.4927  2.3505
 9494SOL    HW239945   1.905   0.700  10.753 -0.4089  0.2722 -0.3718
 9495SOL     OW39946   2.902   1.444   4.595  0.4560  0.2919  0.1596
 9495SOL    HW139947   2.997   1.435   4.598  0.5549  1.4172  0.8130
 9495SOL    HW239948   2.884   1.528   4.638  0.8448  0.9730 -1.0278
 9496SOL     OW39949   1.073   0.396   2.351  0.6360 -0.2786 -0.8214
 9496SOL    HW139950   0.998   0.339   2.332 -1.2310  1.1062  2.3298
 9496SOL    HW239951   1.124   0.332   2.401 -0.3866  1.3895  2.4034
 9497SOL     OW39952   3.350   2.392   2.606  0.3576  0.1716 -0.3863
 9497SOL    HW139953   3.315   2.479   2.589 -1.0839 -0.2630  0.2938
 9497SOL    HW239954   3.312   2.389   2.694  1.1124  0.6401 -0.0476
 9498SOL     OW39955   1.419   1.243  15.436 -0.2580  0.8980  0.5840
 9498SOL    HW139956   1.422   1.334  15.468  1.0278  0.9294  0.3706
 9498SOL    HW239957   1.510   1.216  15.439  0.8111  4.4505  0.6588
 9499SOL     OW39958   0.035   0.609   8.434  0.0259  0.2451 -0.6507
 9499SOL    HW139959   0.022   0.525   8.392 -1.1817 -0.1347  0.4820
 9499SOL    HW239960   0.123   0.640   8.412  0.3928 -1.0996 -1.0394
 9500SOL     OW39961   3.492   1.957   0.613  0.1753  0.0819  0.0085
 9500SOL    HW139962   3.442   2.038   0.619 -0.0473  0.0214 -1.1641
 9500SOL    HW239963   3.431   1.891   0.580  0.5025 -0.1066 -0.2227
 9501SOL     OW39964   2.538   1.761   5.879 -0.1168  0.6527  0.3046
 9501SOL    HW139965   2.512   1.801   5.797 -1.2647 -1.2284 -0.2361
 9501SOL    HW239966   2.618   1.713   5.856 -1.4724 -1.3172 -0.3167
 9502SOL     OW39967   3.405   1.834  10.851 -0.1529  0.0950  0.0298
 9502SOL    HW139968   3.455   1.911  10.877  1.3048 -1.0770  0.7165
 9502SOL    HW239969   3.476   1.772  10.869 -2.5950 -3.3385 -2.1309
 9503SOL     OW39970   3.853   0.664  15.962 -0.8681  0.6071  0.5144
 9503SOL    HW139971   3.770   0.650  16.007  0.8345  2.1613  4.1382
 9503SOL    HW239972   3.823   0.714  15.886  2.2518  0.6124 -0.7529
 9504SOL     OW39973   2.092   3.119   1.907 -0.4176  0.3218 -0.2374
 9504SOL    HW139974   2.022   3.142   1.847  1.1953 -0.5681 -2.4632
 9504SOL    HW239975   2.057   3.033   1.929 -1.6187  1.0357  0.6312
 9505SOL     OW39976   2.830   0.870   6.148 -0.0228  0.2966 -0.3585
 9505SOL    HW139977   2.884   0.938   6.107  0.1101  0.5976  0.3146
 9505SOL    HW239978   2.803   0.933   6.215  0.4938  1.3638 -1.1365
 9506SOL     OW39979   1.217   4.097   8.256  0.1886 -0.6699  0.8957
 9506SOL    HW139980   1.124   4.100   8.275 -0.2021  0.6001 -1.2250
 9506SOL    HW239981   1.245   4.188   8.253  0.2245 -0.7036  0.2538
 9507SOL     OW39982   1.584   3.331   3.351  0.4262 -0.5334 -0.3371
 9507SOL    HW139983   1.514   3.266   3.341  0.1212 -0.5015  1.6525
 9507SOL    HW239984   1.550   3.362   3.434  2.1122  1.0109 -0.2267
 9508SOL     OW39985   4.058   2.216  11.326  0.2303 -0.1226  0.9341
 9508SOL    HW139986   4.119   2.154  11.366  2.1813  0.1591 -1.6384
 9508SOL    HW239987   4.098   2.298  11.355  0.2641 -0.6611  2.4135
 9509SOL     OW39988   2.020   0.421   7.889  0.0694 -0.0397 -0.2363
 9509SOL    HW139989   2.002   0.438   7.796  0.5355  1.4235 -0.0663
 9509SOL    HW239990   2.020   0.327   7.905 -3.6620 -0.2307 -1.1981
 9510SOL     OW39991   0.327   0.717  12.133 -0.3050 -0.0826  0.3049
 9510SOL    HW139992   0.271   0.715  12.211 -1.4891 -3.2145 -0.5988
 9510SOL    HW239993   0.281   0.774  12.071 -0.0694  1.1887  1.3118
 9511SOL     OW39994   1.464   2.928   5.058  0.1217 -0.1921 -0.1320
 9511SOL    HW139995   1.440   2.879   5.136  0.7518 -0.3296 -0.0216
 9511SOL    HW239996   1.390   2.906   5.002 -0.0387  1.1938 -0.4757
 9512SOL     OW39997   2.571   1.773   6.415 -0.3827 -0.8329  0.0973
 9512SOL    HW139998   2.532   1.701   6.364 -3.0463  1.6237 -1.3137
 9512SOL    HW239999   2.576   1.737   6.504  2.0097 -0.0452  0.2592
 9513SOL     OW40000   4.383   3.936   3.592  1.0826 -0.8380  0.3438
 9513SOL    HW140001   4.402   3.850   3.554  1.8997 -0.5124  0.0153
 9513SOL    HW240002   4.300   3.927   3.639  0.4870  0.9516 -0.3662
 9514SOL     OW40003   2.633   3.247  10.005  0.2789  0.4560  0.2070
 9514SOL    HW140004   2.563   3.260   9.941 -0.4766  0.1032  0.9644
 9514SOL    HW240005   2.659   3.333  10.038 -1.1048  0.7022  0.6494
 9515SOL     OW40006   4.329   4.711  13.178  0.3272 -0.1705 -0.2399
 9515SOL    HW140007   4.387   0.001  13.103  0.2240  0.5719 -0.2032
 9515SOL    HW240008   4.363   0.064  13.228 -1.7394  1.3021 -1.0734
 9516SOL     OW40009   1.286   4.461  10.185 -0.7017 -0.0798 -0.2852
 9516SOL    HW140010   1.358   4.482  10.125 -0.6872 -0.1067 -0.2771
 9516SOL    HW240011   1.294   4.515  10.263 -2.6631  0.3493 -0.3708
 9517SOL     OW40012   0.856   0.740   5.321 -0.6381  0.2347  0.4895
 9517SOL    HW140013   0.937   0.766   5.366  0.2820 -0.0917 -0.9835
 9517SOL    HW240014   0.780   0.759   5.376 -0.8223 -1.4069  0.8246
 9518SOL     OW40015   0.127   1.266  12.109 -0.2316  0.8040  0.3574
 9518SOL    HW140016   0.057   1.207  12.083  1.7488 -0.6905 -1.6609
 9518SOL    HW240017   0.143   1.318  12.030  1.8725  0.4388  0.5402
 9519SOL     OW40018   0.940   2.600   9.371  0.5514  0.5390 -0.1630
 9519SOL    HW140019   0.872   2.591   9.305 -0.5746 -1.7117  1.3024
 9519SOL    HW240020   1.009   2.545   9.334  0.3837 -0.1408  0.5403
 9520SOL     OW40021   1.608   0.742   7.560  0.2329  0.4994 -0.0870
 9520SOL    HW140022   1.568   0.665   7.520  0.6362  1.4247 -2.2337
 9520SOL    HW240023   1.537   0.806   7.550 -0.4861  0.1120  2.6082
 9521SOL     OW40024   2.577   3.623  14.846 -0.2341 -0.6811  0.2716
 9521SOL    HW140025   2.511   3.554  14.856 -0.1701 -0.0680  4.8016
 9521SOL    HW240026   2.655   3.579  14.880 -0.4586  1.1250  3.1432
 9522SOL     OW40027   2.199   2.904   9.505  0.0625  0.1805  0.2771
 9522SOL    HW140028   2.166   2.822   9.467  5.0174 -2.2007  1.1642
 9522SOL    HW240029   2.258   2.866   9.569  0.3827  2.0373  1.0794
 9523SOL     OW40030   1.400   2.393  10.588 -0.1609  0.2625  0.0641
 9523SOL    HW140031   1.438   2.306  10.576 -1.1652 -0.0793 -0.6441
 9523SOL    HW240032   1.307   2.374  10.596 -0.5435  1.1477 -2.2638
 9524SOL     OW40033   3.878   0.474   7.178 -0.6226 -0.3028  0.3394
 9524SOL    HW140034   3.964   0.503   7.210  0.1623  0.2420 -2.2525
 9524SOL    HW240035   3.818   0.549   7.188 -0.0991  0.3665 -1.4858
 9525SOL     OW40036   3.245   1.079   3.074  0.2862 -0.0844  0.2372
 9525SOL    HW140037   3.273   1.143   3.009  0.7777 -2.5755 -1.9806
 9525SOL    HW240038   3.325   1.055   3.122  0.0138  1.4008  1.4691
 9526SOL     OW40039   3.434   3.547   1.774  0.1367  0.2594  0.3330
 9526SOL    HW140040   3.516   3.595   1.788  0.7881 -0.0667 -2.2437
 9526SOL    HW240041   3.391   3.621   1.731 -0.0984 -0.2533 -0.3140
 9527SOL     OW40042   1.613   3.527  10.466 -0.2777 -0.5417  1.0553
 9527SOL    HW140043   1.565   3.595  10.419 -0.0091 -1.2441 -0.2451
 9527SOL    HW240044   1.574   3.541  10.552 -3.2660  1.2185 -0.5736
 9528SOL     OW40045   2.991   0.282   8.450 -0.0015  0.4024  0.0305
 9528SOL    HW140046   3.046   0.360   8.461  0.0070  0.2807  0.8640
 9528SOL    HW240047   3.022   0.228   8.522  0.5709 -0.9381 -1.2366
 9529SOL     OW40048   1.677   4.521   5.397 -0.1818 -0.4773 -0.4361
 9529SOL    HW140049   1.617   4.447   5.400 -0.7936  0.0135 -0.6617
 9529SOL    HW240050   1.661   4.567   5.315  0.2654  1.6622  0.6829
 9530SOL     OW40051   1.227   2.880   5.917 -0.2424 -0.9963  0.0147
 9530SOL    HW140052   1.135   2.901   5.904  0.1054 -0.9282 -2.2868
 9530SOL    HW240053   1.269   2.955   5.959 -2.4940  0.2589  0.0466
 9531SOL     OW40054   1.784   3.575   3.394  0.1088  0.3703  0.2344
 9531SOL    HW140055   1.722   3.502   3.396  1.6288 -0.8977  2.1170
 9531SOL    HW240056   1.727   3.645   3.363 -1.0144 -1.0483 -0.8893
 9532SOL     OW40057   0.746   4.009  15.452  0.1424  0.3610  0.1607
 9532SOL    HW140058   0.747   4.045  15.363 -1.5729  1.6532  0.6697
 9532SOL    HW240059   0.748   3.919  15.419  0.9455  0.7405 -0.8253
 9533SOL     OW40060   0.303   3.909   9.241 -0.0039 -0.4568  1.2083
 9533SOL    HW140061   0.263   3.952   9.317  2.4359  2.8851  0.6350
 9533SOL    HW240062   0.396   3.921   9.259  0.5754  0.2549 -2.1175
 9534SOL     OW40063   3.463   3.474   4.562 -0.1341  0.1404 -0.2423
 9534SOL    HW140064   3.417   3.460   4.645 -1.1901  0.6492 -0.7375
 9534SOL    HW240065   3.393   3.485   4.497 -0.1858 -0.8604 -0.3568
 9535SOL     OW40066   1.415   1.339   4.525 -0.0984  0.1771  0.0117
 9535SOL    HW140067   1.478   1.277   4.561 -0.4036 -0.5787 -0.7490
 9535SOL    HW240068   1.432   1.332   4.431  1.0926  0.7186  0.1861
 9536SOL     OW40069   0.387   0.539   7.808 -0.1788  0.0751 -0.2168
 9536SOL    HW140070   0.409   0.446   7.819  0.1381  0.6843  4.3185
 9536SOL    HW240071   0.415   0.545   7.717 -2.1553 -0.8671 -0.8844
 9537SOL     OW40072   2.767   4.555   3.555 -0.2254 -0.6565  0.1232
 9537SOL    HW140073   2.828   4.579   3.625  0.7839 -1.5779 -0.4328
 9537SOL    HW240074   2.720   4.637   3.560 -0.3544 -0.6486 -1.2282
 9538SOL     OW40075   4.681   3.291   4.490  0.1042  0.3437  0.0641
 9538SOL    HW140076   4.690   3.210   4.539  0.0745  1.3832  1.7694
 9538SOL    HW240077   4.666   3.352   4.563  0.4229 -0.9026  1.1561
 9539SOL     OW40078   3.067   1.869   3.993  0.2085 -0.1008 -0.4743
 9539SOL    HW140079   3.025   1.907   4.070  2.2971 -1.8922  1.5345
 9539SOL    HW240080   2.992   1.846   3.938  0.5428  1.4832 -1.5978
 9540SOL     OW40081   1.625   0.845   4.389  0.1024  0.1767  0.0807
 9540SOL    HW140082   1.694   0.828   4.325  0.6739  0.3725  0.6443
 9540SOL    HW240083   1.652   0.813   4.475 -1.3429  1.3702  0.9786
 9541SOL     OW40084   3.131   4.518  14.867 -0.0467 -0.2868 -0.0302
 9541SOL    HW140085   3.091   4.547  14.786 -1.4514 -1.6458  0.1692
 9541SOL    HW240086   3.141   4.604  14.908 -1.6014  0.3864 -1.0951
 9542SOL     OW40087   1.951   0.331   8.937 -0.3162 -0.0175  0.2569
 9542SOL    HW140088   1.957   0.420   8.901 -2.8766  0.8307  1.9871
 9542SOL    HW240089   2.043   0.303   8.942 -0.0022  0.7451 -0.9642
 9543SOL     OW40090   1.009   2.200   1.869  0.2919  0.2726 -0.3963
 9543SOL    HW140091   0.975   2.124   1.915  0.1262  1.3991  1.3332
 9543SOL    HW240092   1.083   2.226   1.923  0.2517 -0.8415  0.1867
 9544SOL     OW40093   0.967   1.298   7.266 -0.3299  0.1177  0.4448
 9544SOL    HW140094   0.895   1.342   7.222 -0.4844  0.8111  1.4066
 9544SOL    HW240095   1.041   1.348   7.231 -0.4851 -1.2005 -1.8017
 9545SOL     OW40096   1.615   1.753   7.366 -0.2843 -0.1345  0.0157
 9545SOL    HW140097   1.657   1.838   7.356  0.5519 -0.7336 -1.4511
 9545SOL    HW240098   1.585   1.720   7.281 -1.0694 -0.2292  0.3267
 9546SOL     OW40099   1.365   3.749  17.661 -0.2141 -0.4314 -0.3263
 9546SOL    HW140100   1.412   3.666  17.648  0.1895 -0.6918  2.9485
 9546SOL    HW240101   1.375   3.777  17.570 -3.8484 -0.3476 -0.7023
 9547SOL     OW40102   1.607   0.766   2.012 -0.1006 -0.3495  0.0984
 9547SOL    HW140103   1.592   0.718   1.931  0.4177 -1.3819  0.6252
 9547SOL    HW240104   1.516   0.778   2.038 -0.2074 -0.7321 -0.1062
 9548SOL     OW40105   0.053   0.165  17.629  0.3155  0.3608  0.1246
 9548SOL    HW140106   0.010   0.098  17.682 -2.7190  0.1157 -2.6928
 9548SOL    HW240107   4.699   0.220  17.613 -0.5983 -1.6440 -2.3209
 9549SOL     OW40108   4.238   2.102  16.819 -0.4717  0.2457  0.0145
 9549SOL    HW140109   4.167   2.146  16.866  0.1374 -0.7643  1.8469
 9549SOL    HW240110   4.193   2.021  16.798  1.3728 -0.7993  0.0981
 9550SOL     OW40111   1.311   1.797  16.767 -0.1850 -0.2867 -0.3769
 9550SOL    HW140112   1.309   1.734  16.694  1.5100 -1.2624  0.3981
 9550SOL    HW240113   1.370   1.858  16.723  2.8277 -2.9362 -0.0137
 9551SOL     OW40114   1.308   0.257   5.920 -0.0541 -0.0861 -0.8961
 9551SOL    HW140115   1.224   0.232   5.957  0.0305 -1.5365 -1.6717
 9551SOL    HW240116   1.365   0.246   5.996 -1.1631  0.5546  0.0106
 9552SOL     OW40117   3.644   1.006  15.418  0.1110 -0.3442  0.2234
 9552SOL    HW140118   3.578   1.065  15.383  0.0033 -0.1585  0.7483
 9552SOL    HW240119   3.680   1.061  15.487 -1.6285 -1.5580  2.0902
 9553SOL     OW40120   1.992   1.600   0.166  0.5297 -0.5365 -0.1174
 9553SOL    HW140121   1.931   1.662   0.207  2.6550  2.6844 -1.8775
 9553SOL    HW240122   2.060   1.592   0.233 -0.5101 -0.7062  0.9315
 9554SOL     OW40123   1.055   2.761  14.831  0.1278  0.1910 -0.7498
 9554SOL    HW140124   1.114   2.824  14.788  1.4701 -1.5413 -1.4397
 9554SOL    HW240125   1.046   2.695  14.762 -1.5941 -1.3432  0.9651
 9555SOL     OW40126   0.851   0.193   0.942  0.7084  0.0335  0.1453
 9555SOL    HW140127   0.858   0.179   0.848  0.9056 -3.4733  0.6933
 9555SOL    HW240128   0.856   0.288   0.942 -0.5385  0.0906 -1.8235
 9556SOL     OW40129   3.732   2.605  16.802  0.0147 -0.6240 -0.0736
 9556SOL    HW140130   3.766   2.656  16.729  1.6859 -1.3818  0.1847
 9556SOL    HW240131   3.673   2.671  16.840  0.2818  1.0603 -2.5767
 9557SOL     OW40132   4.454   2.543   9.031 -0.2179  0.3837  0.1053
 9557SOL    HW140133   4.425   2.489   9.105  0.0302  1.9148  1.3027
 9557SOL    HW240134   4.464   2.475   8.965  2.6309  0.8601  0.0818
 9558SOL     OW40135   1.223   0.951   8.402  0.6666  0.2617 -0.1631
 9558SOL    HW140136   1.159   1.018   8.376 -0.8839 -1.4889 -0.8299
 9558SOL    HW240137   1.180   0.894   8.465  2.0749  0.5115  1.0071
 9559SOL     OW40138   2.412   4.346   9.670  0.1904  0.0981  0.3651
 9559SOL    HW140139   2.422   4.354   9.765  1.3904 -0.4466  0.2873
 9559SOL    HW240140   2.394   4.253   9.662  0.6249  0.2141 -1.9222
 9560SOL     OW40141   2.344   3.255   9.977 -0.7191 -0.5808 -0.5303
 9560SOL    HW140142   2.289   3.323   9.937 -0.9675 -0.1128  0.6042
 9560SOL    HW240143   2.294   3.250  10.058  0.7018 -1.2425  0.2890
 9561SOL     OW40144   0.820   0.309   2.702  0.1139  0.0331  0.4894
 9561SOL    HW140145   0.740   0.265   2.674 -0.0615 -0.8376  2.3423
 9561SOL    HW240146   0.810   0.379   2.637  0.5933 -0.7280 -0.4013
 9562SOL     OW40147   2.212   0.742   7.601  0.1424  0.3226  0.3698
 9562SOL    HW140148   2.172   0.820   7.564  1.6659  0.8751 -0.0920
 9562SOL    HW240149   2.232   0.696   7.520 -0.5847 -0.8682  0.8663
 9563SOL     OW40150   4.051   4.461   4.373 -0.3286  0.3216  0.4758
 9563SOL    HW140151   3.975   4.404   4.384  1.6063 -2.8259 -2.4266
 9563SOL    HW240152   4.024   4.534   4.429  0.4643  0.6046  0.4975
 9564SOL     OW40153   1.782   3.642   9.243 -0.2991  0.6210  0.3779
 9564SOL    HW140154   1.692   3.622   9.217 -0.7410  3.3817 -0.1914
 9564SOL    HW240155   1.776   3.638   9.338  0.2283 -1.1155  0.3291
 9565SOL     OW40156   1.278   3.513  11.484 -0.1730  0.5389  0.4414
 9565SOL    HW140157   1.310   3.459  11.556 -2.5814  1.0560  1.8837
 9565SOL    HW240158   1.241   3.446  11.427  1.0876 -0.8877  1.3035
 9566SOL     OW40159   3.723   1.771   5.634 -0.4439  0.7550 -0.5789
 9566SOL    HW140160   3.777   1.748   5.559  0.0986 -1.1094  0.3702
 9566SOL    HW240161   3.759   1.713   5.702 -0.7727 -0.4555 -1.4467
 9567SOL     OW40162   0.195   1.337   4.738  0.4346 -0.2249 -0.2856
 9567SOL    HW140163   0.194   1.333   4.642  1.6129 -1.3247 -0.2529
 9567SOL    HW240164   0.287   1.356   4.753  0.1396  0.1673  1.0359
 9568SOL     OW40165   2.330   1.011  15.844 -0.5209 -0.2457 -0.3905
 9568SOL    HW140166   2.243   1.042  15.869  0.5870  0.8446  2.1008
 9568SOL    HW240167   2.308   0.918  15.834 -0.2690 -0.3328 -0.1172
   4.72227   4.72227  17.69116
