Membrane in water
40167
    1TCq1    O1    1   3.391   3.922  11.410  0.6334 -0.1464  0.3333
    1TCq1    C1    2   3.426   3.854  11.524 -0.1837 -0.1301 -0.4876
    1TCq1    O2    3   3.404   3.887  11.638  0.3676 -0.4763  0.0161
    1TCq1    C2    4   3.470   3.728  11.487  0.4496  0.4948 -0.3559
    1TCq1    C3    5   3.565   3.722  11.385 -0.3507  0.1169  0.2396
    1TCq1    C4    6   3.604   3.604  11.336 -0.6314  0.1235  0.2376
    1TCq1    C5    7   3.561   3.483  11.399  0.6858 -0.0208  0.0830
    1TCq1    C6    8   3.478   3.494  11.505  0.1520 -0.2526  0.4466
    1TCq1    C7    9   3.434   3.617  11.551  0.6432 -0.1666 -0.5777
    1TCq1    C8   10   3.405   3.378  11.554 -0.8820  0.2926 -0.4408
    1TCq1    O4   11   3.292   3.406  11.602  0.3882  0.0903 -0.1693
    1TCq1    C9   12   3.704   3.596  11.235  0.3947 -0.6070 -0.3027
    1TCq1    O5   13   3.736   3.702  11.171  0.1319  0.1419 -0.1871
    1TCq1    O6   14   3.748   3.481  11.213 -0.8805 -0.2199  0.2027
    1TCq1    H1   15   3.378   3.866  11.330 -2.7675 -0.2857  0.9889
    1TCq1    H2   16   3.600   3.810  11.332  0.3273 -1.2682 -1.6044
    1TCq1    H3   17   3.590   3.383  11.371  0.1832  0.3180 -1.6748
    1TCq1    H4   18   3.357   3.628  11.626  0.8440  0.2618 -0.4341
    2MPD2     C   19   3.355   2.881  11.644  0.0212 -0.6458 -0.3108
    2MPD2    C1   20   3.318   2.991  11.717  0.1688 -0.3711  0.3010
    2MPD2    C2   21   3.344   3.118  11.675 -0.3569  0.4371 -0.0709
    2MPD2    C3   22   3.411   3.127  11.555 -0.5271 -0.7675 -0.5217
    2MPD2    C4   23   3.452   3.017  11.479 -0.4148  0.4276 -0.2440
    2MPD2    C5   24   3.415   2.894  11.523 -0.1688 -0.9145  0.5497
    2MPD2     H   25   3.323   3.199  11.744 -0.4290  0.9715 -0.7222
    2MPD2    H1   26   3.501   3.026  11.383 -0.2059  1.5128 -0.0395
    2MPD2    H2   27   3.323   2.782  11.674 -2.5300 -0.1924 -1.5655
    2MPD2    H3   28   3.436   2.807  11.462  1.9802  0.5667 -0.8055
    2MPD2     N   29   3.448   3.255  11.504  0.1595  0.3418 -0.0399
    2MPD2    H5   30   3.512   3.253  11.426 -1.3899  0.8509 -1.3389
    2MPD2    N1   31   3.245   2.977  11.843  0.1727 -0.2147 -0.0747
    2MPD2    H7   32   3.178   3.048  11.871 -0.2810 -0.0420 -1.5768
    3TCq1    O1   33   1.923   0.900  10.621  0.4508  0.3932  0.2301
    3TCq1    C1   34   1.917   0.810  10.522 -0.5101  0.5298  0.1284
    3TCq1    O2   35   1.838   0.815  10.431 -0.2304  0.0106  0.0245
    3TCq1    C2   36   1.970   0.678  10.573 -0.5000  0.2121  0.3110
    3TCq1    C3   37   1.915   0.567  10.518 -0.3288 -0.0953  0.8927
    3TCq1    C4   38   1.964   0.441  10.546  0.6478  1.1908 -0.1667
    3TCq1    C5   39   2.059   0.428  10.642  0.2021 -0.0921 -0.1345
    3TCq1    C6   40   2.117   0.546  10.692 -0.1570 -0.3135 -0.5059
    3TCq1    C7   41   2.081   0.669  10.654  0.4256 -0.2490  0.0845
    3TCq1    C8   42   2.230   0.537  10.781  0.4114 -0.0591  0.6058
    3TCq1    O4   43   2.305   0.630  10.769 -0.3523 -0.3576 -0.2059
    3TCq1    C9   44   1.916   0.333  10.470 -0.5852  0.3429  0.2635
    3TCq1    O5   45   1.807   0.346  10.402 -0.4186 -0.1920 -0.2230
    3TCq1    O6   46   1.971   0.220  10.486  0.1457  0.4359  0.2426
    3TCq1    H1   47   1.968   0.866  10.701 -0.9318 -0.4700  0.6414
    3TCq1    H2   48   1.857   0.572  10.427 -0.5619  0.4150  1.0669
    3TCq1    H3   49   2.090   0.328  10.668 -1.4755 -0.5324  0.1385
    3TCq1    H4   50   2.141   0.756  10.677  1.2177 -0.9316  0.5942
    4MPD2     C   51   2.492   0.302  11.149 -0.2245 -0.4256 -0.7084
    4MPD2    C1   52   2.360   0.265  11.160 -0.2028 -0.2510  1.2684
    4MPD2    C2   53   2.272   0.319  11.066  0.5862 -0.0218  0.1995
    4MPD2    C3   54   2.310   0.407  10.975 -0.0875 -0.0731 -0.5185
    4MPD2    C4   55   2.437   0.452  10.973 -0.0968  0.5160  0.3459
    4MPD2    C5   56   2.526   0.397  11.062 -0.4293 -0.5075  0.4037
    4MPD2     H   57   2.171   0.279  11.075  0.1615  0.8254 -0.7939
    4MPD2    H1   58   2.479   0.522  10.902 -0.3666 -0.2817 -0.5920
    4MPD2    H2   59   2.573   0.266  11.212  0.5460 -4.9940 -4.3246
    4MPD2    H3   60   2.631   0.424  11.055 -0.6782  0.4994  0.4956
    4MPD2     N   61   2.220   0.443  10.876 -0.0386 -0.1450 -0.3998
    4MPD2    H5   62   2.134   0.390  10.877  1.0863 -2.0186 -2.2279
    4MPD2    N1   63   2.301   0.183  11.257  0.0598  0.4009 -0.3640
    4MPD2    H7   64   2.203   0.156  11.250 -0.4595  2.6754 -1.9422
    5TCq1    O1   65   1.753   1.293  11.163  0.2146 -0.0577  0.2140
    5TCq1    C1   66   1.856   1.297  11.246 -0.5272 -0.2912 -0.2076
    5TCq1    O2   67   1.884   1.382  11.330  0.4797  0.2473  0.3683
    5TCq1    C2   68   1.960   1.222  11.180  0.2387 -0.3244 -0.5552
    5TCq1    C3   69   1.920   1.106  11.110  0.2005  0.0297  0.9806
    5TCq1    C4   70   1.995   1.056  11.008 -0.3001 -0.4324  0.1365
    5TCq1    C5   71   2.118   1.112  10.981 -0.6928 -0.3177 -0.2470
    5TCq1    C6   72   2.159   1.223  11.050  0.5826 -0.0822  0.0737
    5TCq1    C7   73   2.084   1.274  11.156 -0.4037 -0.4996  0.4047
    5TCq1    C8   74   2.301   1.258  11.052 -0.3435 -0.0776 -0.7343
    5TCq1    O4   75   2.335   1.364  11.103  0.1817  0.2240  0.1058
    5TCq1    C9   76   1.951   0.949  10.929 -0.9683 -0.1773 -0.7579
    5TCq1    O5   77   2.041   0.896  10.853  0.6603 -0.4120  0.6690
    5TCq1    O6   78   1.827   0.921  10.947 -0.3022  0.4216  0.5780
    5TCq1    H1   79   1.783   1.266  11.074  3.0635  2.8955  0.2933
    5TCq1    H2   80   1.822   1.068  11.134  0.6679 -1.0221  1.2304
    5TCq1    H3   81   2.165   1.067  10.894 -0.3253 -2.7952  1.2269
    5TCq1    H4   82   2.118   1.354  11.221 -1.6081  2.2076 -2.2830
    6MPD2     C   83   2.562   1.299  10.916  0.0810 -0.9085 -0.6168
    6MPD2    C1   84   2.505   1.176  10.939 -0.0613 -0.6864  0.3192
    6MPD2    C2   85   2.578   1.060  10.906 -0.0672  0.6547  0.2086
    6MPD2    C3   86   2.701   1.062  10.847 -0.1095 -0.6259 -0.5743
    6MPD2    C4   87   2.764   1.185  10.847  0.5466 -0.3136  0.4800
    6MPD2    C5   88   2.693   1.293  10.877 -0.0900  0.2991 -0.4447
    6MPD2     H   89   2.529   0.966  10.929 -0.4223  0.3539 -1.7786
    6MPD2    H1   90   2.867   1.205  10.820  0.1934  0.2128 -0.4876
    6MPD2    H2   91   2.510   1.394  10.925  0.8894 -0.6202  0.9538
    6MPD2    H3   92   2.745   1.387  10.864  0.1931  0.0523 -1.0885
    6MPD2     N   93   2.754   0.947  10.796 -0.1362 -0.5970  0.4160
    6MPD2    H5   94   2.703   0.860  10.805 -3.3606  1.4079  1.4756
    6MPD2    N1   95   2.378   1.155  10.993  0.0210  0.8171  0.2179
    6MPD2    H7   96   2.340   1.061  10.987  0.7236  0.6534 -1.5657
    7TCq1    O1   97   0.606   0.496  13.791  0.5618  0.1582  0.3633
    7TCq1    C1   98   0.741   0.497  13.783 -0.1969  0.5551 -0.5487
    7TCq1    O2   99   0.811   0.460  13.874  0.7862 -0.1990  0.0378
    7TCq1    C2  100   0.782   0.492  13.645 -0.2470  0.0785 -0.3337
    7TCq1    C3  101   0.747   0.593  13.564  0.1805 -0.2974 -0.0900
    7TCq1    C4  102   0.738   0.561  13.430  0.3942  0.5773  0.3049
    7TCq1    C5  103   0.749   0.430  13.388  0.9211 -0.2046 -0.2459
    7TCq1    C6  104   0.787   0.326  13.478 -0.1756 -0.5535  0.1282
    7TCq1    C7  105   0.816   0.367  13.607  0.6352  0.6779 -0.4839
    7TCq1    C8  106   0.725   0.194  13.476 -0.1407 -0.2718  0.1650
    7TCq1    O4  107   0.756   0.119  13.569  0.4948  0.5512  0.2898
    7TCq1    C9  108   0.706   0.656  13.331  0.2799 -0.1490  0.2693
    7TCq1    O5  109   0.687   0.612  13.211 -0.0004  0.0822  0.0044
    7TCq1    O6  110   0.684   0.773  13.371 -0.3909  0.4581 -0.4994
    7TCq1    H1  111   0.557   0.497  13.706 -1.3344  1.4628  1.4745
    7TCq1    H2  112   0.715   0.690  13.601  2.2362  0.7269 -1.0235
    7TCq1    H3  113   0.725   0.402  13.286  2.9564  0.5918 -0.9373
    7TCq1    H4  114   0.840   0.293  13.682 -2.0067  0.4946  0.2033
    8MPD2     C  115   0.359   4.589  13.350  0.1211  0.7746  0.4096
    8MPD2    C1  116   0.455   4.570  13.447 -0.2623 -0.1394 -0.3139
    8MPD2    C2  117   0.541   4.679  13.465 -0.0926  0.2221  0.7889
    8MPD2    C3  118   0.527   0.078  13.392  0.2200  0.0771  0.2117
    8MPD2    C4  119   0.419   0.091  13.313 -0.2527 -0.2499 -0.3393
    8MPD2    C5  120   0.336   4.707  13.288 -0.1285  0.0994  0.3591
    8MPD2     H  121   0.615   4.674  13.544  1.0149  0.8466 -0.2286
    8MPD2    H1  122   0.395   0.187  13.269 -0.1029 -0.8234 -1.6526
    8MPD2    H2  123   0.287   4.513  13.322  0.8281 -0.0001  0.7012
    8MPD2    H3  124   0.252   4.708  13.219 -0.0407 -0.6439  0.2395
    8MPD2     N  125   0.621   0.186  13.392  0.3112 -0.3537  0.1834
    8MPD2    H5  126   0.604   0.263  13.327  1.9426 -1.0808 -1.0872
    8MPD2    N1  127   0.457   4.441  13.509  0.5253  0.5335 -0.4905
    8MPD2    H7  128   0.384   4.377  13.481  0.8778  0.1309 -0.5035
    9TCq1    O1  129   2.528   3.519  10.057 -0.4313  0.3851  0.1498
    9TCq1    C1  130   2.638   3.557  10.123 -0.5526  0.0911 -0.6935
    9TCq1    O2  131   2.752   3.563  10.076  0.4626 -0.2092 -0.3995
    9TCq1    C2  132   2.610   3.556  10.267  0.2958 -0.5460  0.2573
    9TCq1    C3  133   2.486   3.565  10.320 -0.1705  0.2606 -0.2816
    9TCq1    C4  134   2.471   3.559  10.454  0.2418 -0.2910 -0.0395
    9TCq1    C5  135   2.573   3.552  10.543 -0.0992 -0.0384  0.6251
    9TCq1    C6  136   2.697   3.562  10.487  0.7396 -0.7435 -0.1794
    9TCq1    C7  137   2.719   3.554  10.349 -0.1222  0.5320 -0.2115
    9TCq1    C8  138   2.812   3.606  10.563 -0.3797 -0.2565  0.5225
    9TCq1    O4  139   2.917   3.632  10.508 -0.5214  0.0929 -0.6506
    9TCq1    C9  140   2.348   3.572  10.520 -0.0113  0.8547 -0.0638
    9TCq1    O5  141   2.344   3.591  10.645  0.1108 -0.2020 -0.2961
    9TCq1    O6  142   2.244   3.583  10.450  0.0129 -0.1216  0.0467
    9TCq1    H1  143   2.455   3.498  10.119 -1.1752  1.9723 -0.1820
    9TCq1    H2  144   2.397   3.585  10.262 -1.3139 -0.4941  1.2287
    9TCq1    H3  145   2.560   3.533  10.649 -0.2601  1.2021  0.8342
    9TCq1    H4  146   2.822   3.539  10.320 -0.0317 -1.3622  1.0680
   10MPD2     C  147   2.985   3.754  10.764  0.3742  0.0591 -0.3057
   10MPD2    C1  148   2.868   3.687  10.794 -0.9586  0.1202  0.1752
   10MPD2    C2  149   2.821   3.689  10.917 -0.2752  0.3581 -0.0475
   10MPD2    C3  150   2.895   3.740  11.027  0.4650 -0.2748  0.4158
   10MPD2    C4  151   3.013   3.807  10.997 -0.5043 -1.0866  0.2154
   10MPD2    C5  152   3.059   3.807  10.868  0.3009 -0.6387  0.3418
   10MPD2     H  153   2.728   3.635  10.926  0.6046 -1.8182 -4.2074
   10MPD2    H1  154   3.071   3.842  11.082 -0.9235  0.0380  0.0419
   10MPD2    H2  155   3.033   3.769  10.667  2.3723  0.2511  0.7085
   10MPD2    H3  156   3.160   3.842  10.850  0.2460 -1.3491 -1.3540
   10MPD2     N  157   2.872   3.715  11.166 -0.3658 -0.3071  0.2549
   10MPD2    H5  158   2.942   3.752  11.229 -0.0479 -1.1576  0.3948
   10MPD2    N1  159   2.786   3.623  10.696  0.2460 -0.2703 -0.2634
   10MPD2    H7  160   2.694   3.593  10.725  1.6060 -1.8525  2.3872
   11TCq1    O1  161   3.946   3.335  14.476  0.2074 -0.0377 -0.1639
   11TCq1    C1  162   3.999   3.364  14.596 -0.4379 -0.2641  0.7312
   11TCq1    O2  163   4.117   3.373  14.628 -0.2616  0.3573 -0.2240
   11TCq1    C2  164   3.894   3.402  14.691  0.4116  0.1363  0.3884
   11TCq1    C3  165   3.939   3.466  14.804  0.3301  0.5405 -0.1423
   11TCq1    C4  166   3.853   3.482  14.902 -0.2875  0.7574 -0.3008
   11TCq1    C5  167   3.722   3.433  14.897  0.0092  0.6774 -0.6746
   11TCq1    C6  168   3.683   3.368  14.782  0.0324  0.4911 -0.5814
   11TCq1    C7  169   3.767   3.348  14.675 -0.2104 -0.2453 -0.1630
   11TCq1    C8  170   3.542   3.334  14.767 -0.2224 -0.0188  0.2633
   11TCq1    O4  171   3.468   3.373  14.855 -0.6686 -0.2030  0.0302
   11TCq1    C9  172   3.895   3.557  15.022  0.0279  0.6279 -1.0512
   11TCq1    O5  173   4.009   3.608  15.031  0.4143 -0.1238 -1.0626
   11TCq1    O6  174   3.822   3.540  15.118 -0.2157 -0.7127  0.1351
   11TCq1    H1  175   3.850   3.355  14.475 -0.0232 -1.0659  0.8136
   11TCq1    H2  176   4.035   3.518  14.806 -0.1111  1.3321  0.5800
   11TCq1    H3  177   3.655   3.450  14.980  0.9747 -1.0188  0.4665
   11TCq1    H4  178   3.735   3.280  14.596 -1.8330  0.3583 -0.0164
   12MPD2     C  179   3.261   3.312  14.659 -0.1944  0.0389  0.4397
   12MPD2    C1  180   3.372   3.274  14.590 -0.6264 -0.2474 -0.2286
   12MPD2    C2  181   3.350   3.224  14.466  0.0826  0.2609 -0.1806
   12MPD2    C3  182   3.216   3.213  14.421 -0.6498  0.2981  0.1610
   12MPD2    C4  183   3.112   3.266  14.496  0.8056  0.3341 -0.2070
   12MPD2    C5  184   3.136   3.311  14.617 -0.2331 -1.1366 -0.6547
   12MPD2     H  185   3.421   3.188  14.393 -0.9685 -1.7756 -0.2029
   12MPD2    H1  186   3.011   3.258  14.457  1.2871 -1.8377 -0.9882
   12MPD2    H2  187   3.265   3.351  14.760  2.0725 -0.3952  0.5197
   12MPD2    H3  188   3.047   3.344  14.669 -2.0634 -1.2367 -3.7149
   12MPD2     N  189   3.191   3.136  14.304  0.1394 -0.0833 -0.3639
   12MPD2    H5  190   3.274   3.092  14.264  0.9295  1.0997 -0.0074
   12MPD2    N1  191   3.508   3.289  14.640 -0.2736  0.1238  0.0422
   12MPD2    H7  192   3.589   3.266  14.582  0.1266 -1.0520  1.0731
   13TCq1    O1  193   3.651   3.578  10.698  0.1038 -0.4475  0.1910
   13TCq1    C1  194   3.527   3.555  10.655 -0.4072 -0.0509 -0.0298
   13TCq1    O2  195   3.495   3.506  10.546  0.2653  0.4564  0.0664
   13TCq1    C2  196   3.436   3.594  10.763 -0.3003  1.0936  0.4780
   13TCq1    C3  197   3.470   3.689  10.854  0.3159  0.1117  0.1853
   13TCq1    C4  198   3.398   3.704  10.970 -0.6556  0.1503 -0.1675
   13TCq1    C5  199   3.300   3.616  10.996  0.1085 -0.1336  0.3860
   13TCq1    C6  200   3.261   3.522  10.903 -0.2731  0.0379 -0.5418
   13TCq1    C7  201   3.334   3.511  10.787 -0.4019  0.1581 -0.4234
   13TCq1    C8  202   3.131   3.448  10.923  0.9784  0.7864  0.0614
   13TCq1    O4  203   3.077   3.453  11.030 -0.0461 -0.3821  0.1288
   13TCq1    C9  204   3.432   3.814  11.064 -0.5225  0.5311 -0.0494
   13TCq1    O5  205   3.356   3.821  11.165  0.1558  0.7491  0.0889
   13TCq1    O6  206   3.515   3.904  11.025  0.4455  0.7093 -0.4821
   13TCq1    H1  207   3.654   3.603  10.793  1.9915  0.6914 -0.1523
   13TCq1    H2  208   3.552   3.753  10.826  0.2486  0.1774  0.1370
   13TCq1    H3  209   3.254   3.624  11.094 -0.8779  3.0106 -0.3490
   13TCq1    H4  210   3.303   3.455  10.699 -1.9410 -0.9291  0.8104
   14MPD2     C  211   2.910   3.254  10.683 -0.5444 -0.4244  0.2625
   14MPD2    C1  212   2.945   3.337  10.794  0.2594 -0.6964 -0.2920
   14MPD2    C2  213   2.832   3.375  10.874  0.1139  0.1857 -0.2269
   14MPD2    C3  214   2.708   3.334  10.869 -0.4924 -0.4287 -0.7782
   14MPD2    C4  215   2.674   3.253  10.765  0.2701 -0.3121  0.2586
   14MPD2    C5  216   2.771   3.216  10.674 -0.2303  0.6087  0.3101
   14MPD2     H  217   2.861   3.436  10.959 -0.0682  0.1306 -0.1269
   14MPD2    H1  218   2.572   3.231  10.734  0.6786 -1.2596 -0.4159
   14MPD2    H2  219   2.984   3.219  10.612  1.5117  0.0925  2.1395
   14MPD2    H3  220   2.740   3.136  10.607  0.4580  0.5045  0.1148
   14MPD2     N  221   2.614   3.381  10.965 -0.0138  0.1236  0.3072
   14MPD2    H5  222   2.650   3.444  11.036  1.1850 -1.0431  0.7382
   14MPD2    N1  223   3.081   3.382  10.813  0.2224  0.1615  0.0567
   14MPD2    H7  224   3.141   3.356  10.736 -1.0987  0.2695 -1.0074
   15TCq1    O1  225   4.337   1.490   2.073 -0.9631 -0.7157  0.1336
   15TCq1    C1  226   4.306   1.590   1.982 -1.0455 -0.0498  0.3000
   15TCq1    O2  227   4.192   1.631   1.951  0.4959  0.2356  0.4970
   15TCq1    C2  228   4.437   1.649   1.954 -0.4356 -0.3381 -0.4363
   15TCq1    C3  229   4.533   1.675   2.048  0.2366 -0.7281 -0.3808
   15TCq1    C4  230   4.627   1.770   2.013 -0.3397 -0.3629 -0.0491
   15TCq1    C5  231   4.625   1.847   1.899  0.7955  0.1081 -0.6684
   15TCq1    C6  232   4.524   1.813   1.807  0.6501 -0.6119  0.6762
   15TCq1    C7  233   4.430   1.720   1.835  0.3158 -0.0311  0.7696
   15TCq1    C8  234   4.559   1.825   1.672 -0.3557 -0.8931 -0.4183
   15TCq1    O4  235   4.677   1.808   1.643  0.0178  0.1605 -0.4724
   15TCq1    C9  236   0.001   1.806   2.115 -0.3327 -0.2621 -0.3749
   15TCq1    O5  237   4.694   1.757   2.224  0.0059 -0.0039 -0.0179
   15TCq1    O6  238   0.065   1.908   2.093  0.4151 -0.3889 -0.2002
   15TCq1    H1  239   4.434   1.473   2.081 -0.7276  0.3712 -0.3415
   15TCq1    H2  240   4.529   1.619   2.141 -1.9988 -0.5408 -0.3612
   15TCq1    H3  241   4.708   1.910   1.871 -0.1391  0.8169 -1.8136
   15TCq1    H4  242   4.356   1.695   1.760 -0.2329 -1.2105  1.7078
   16MPD2     C  243   4.343   1.898   1.388  0.2198 -0.1377 -0.0272
   16MPD2    C1  244   4.454   1.857   1.454 -0.5497 -0.9773 -0.1833
   16MPD2    C2  245   4.551   1.791   1.376 -0.1565  0.2155  0.9950
   16MPD2    C3  246   4.533   1.781   1.241  0.0162 -0.4633 -0.3822
   16MPD2    C4  247   4.427   1.836   1.176 -0.2416 -0.1981  0.0269
   16MPD2    C5  248   4.329   1.893   1.252  0.4856 -0.3383  0.2888
   16MPD2     H  249   4.636   1.745   1.425  1.7533  1.6436 -1.0001
   16MPD2    H1  250   4.412   1.825   1.069  3.7598 -1.4258 -0.4058
   16MPD2    H2  251   4.266   1.936   1.453 -0.2595 -0.6630 -0.2877
   16MPD2    H3  252   4.236   1.917   1.201 -0.4334 -0.1119  2.0776
   16MPD2     N  253   4.629   1.693   1.170  0.1518  0.8060 -0.9567
   16MPD2    H5  254   4.688   1.642   1.235 -2.4273 -0.5533  0.3549
   16MPD2    N1  255   4.454   1.863   1.593  0.2739  0.0256  0.4687
   16MPD2    H7  256   4.368   1.891   1.637  1.2394  0.8694  1.8262
   17TCq1    O1  257   1.722   2.035  10.756 -0.1131  0.1356  0.7696
   17TCq1    C1  258   1.770   1.994  10.873  0.0508  0.6403 -0.9556
   17TCq1    O2  259   1.698   1.969  10.974 -0.3076  0.1157  0.3720
   17TCq1    C2  260   1.912   2.009  10.864  0.7332 -0.4609 -0.8034
   17TCq1    C3  261   1.967   1.992  10.743 -0.3753 -1.1902  0.2478
   17TCq1    C4  262   2.099   2.036  10.725  0.0027 -0.2352  0.3126
   17TCq1    C5  263   2.167   2.096  10.828  0.2980  0.9027 -0.2114
   17TCq1    C6  264   2.107   2.113  10.948 -0.0723 -0.5040 -0.3757
   17TCq1    C7  265   1.973   2.072  10.964  0.0295 -0.4979 -0.4674
   17TCq1    C8  266   2.139   2.227  11.026  1.1114 -0.3877 -0.0942
   17TCq1    O4  267   2.096   2.231  11.139 -0.3782  0.4390 -0.0432
   17TCq1    C9  268   2.178   1.999  10.611  0.2978 -0.4641  0.2726
   17TCq1    O5  269   2.299   2.036  10.603 -0.1182 -0.0856 -0.5602
   17TCq1    O6  270   2.122   1.926  10.525 -1.0419 -0.0463 -0.4950
   17TCq1    H1  271   1.797   2.064  10.699  2.0905 -2.9485  2.1166
   17TCq1    H2  272   1.912   1.932  10.671  0.7165 -1.0877 -0.6746
   17TCq1    H3  273   2.275   2.095  10.827  0.2990 -3.2517  1.7418
   17TCq1    H4  274   1.915   2.105  11.049 -0.9686  1.4582 -1.9083
   18MPD2     C  275   2.208   2.498  11.108 -0.5084  0.0849 -0.5526
   18MPD2    C1  276   2.240   2.449  10.981 -0.5256 -1.2681 -1.1421
   18MPD2    C2  277   2.322   2.520  10.893 -0.1239 -0.0644 -0.2217
   18MPD2    C3  278   2.374   2.636  10.927  0.8542 -0.1889  0.8584
   18MPD2    C4  279   2.354   2.681  11.060 -0.1546  0.0747  0.4050
   18MPD2    C5  280   2.266   2.619  11.141 -0.0588  0.2499  0.5435
   18MPD2     H  281   2.341   2.478  10.795  1.6268  1.9461 -0.7619
   18MPD2    H1  282   2.388   2.778  11.096 -0.3650  0.5766 -0.7464
   18MPD2    H2  283   2.154   2.447  11.186  1.2881 -0.7010  0.1874
   18MPD2    H3  284   2.255   2.645  11.246 -0.2834 -0.7084  0.7521
   18MPD2     N  285   2.453   2.717  10.842  0.2434 -0.2246  0.3317
   18MPD2    H5  286   2.484   2.807  10.877  1.1914 -0.0564 -0.9505
   18MPD2    N1  287   2.199   2.319  10.945 -1.0751  0.0749 -0.2791
   18MPD2    H7  288   2.226   2.283  10.854  0.8053 -0.9982  0.7072
   19TMC2    C1  289   4.587   2.699  13.704 -0.1703 -0.7339  0.2634
   19TMC2    C2  290   4.631   2.746  13.581 -0.1981 -0.0477 -0.0557
   19TMC2    C3  291   4.578   2.688  13.472  0.3111  0.2352  0.1886
   19TMC2    C4  292   4.500   2.590  13.715 -0.7337 -0.8123 -0.0121
   19TMC2    C5  293   4.452   2.531  13.608 -0.9111 -0.2306  0.0662
   19TMC2    C6  294   4.491   2.579  13.485  0.4115 -0.2157 -0.2979
   19TMC2     C  295   4.619   2.779  13.821 -0.0785 -0.6784 -0.2043
   19TMC2     O  296   4.715   2.853  13.800  0.5347 -0.2172 -0.3586
   19TMC2     H  297   4.712   2.817  13.567  0.6430 -0.8539  0.6693
   19TMC2    H1  298   4.476   2.542  13.809  0.5452 -2.4219 -0.5104
   19TMC2    H2  299   4.439   2.549  13.395 -1.3701 -0.4165  0.7944
   19TMC2    C7  300   4.343   2.443  13.618 -0.0873 -0.6932  0.2955
   19TMC2    C8  301   4.657   2.700  13.352 -0.1716 -0.8645  0.1413
   19TMC2    O1  302   4.297   2.436  13.730  0.1538  0.5377  0.4933
   19TMC2    O2  303   4.642   2.617  13.260 -0.2020 -0.8589  0.0127
   19TMC2    O5  304   4.685   2.831  13.333 -0.2567 -0.1601 -0.1857
   19TMC2    H5  305   4.646   2.894  13.397  1.5316 -1.9818  2.6918
   20MPD2     C  306   4.411   2.905  14.090 -0.1374  0.0255  0.4769
   20MPD2    C1  307   4.523   2.862  14.025 -0.0000  0.2769  0.3959
   20MPD2    C2  308   4.643   2.872  14.097 -0.2667 -0.0961  0.1625
   20MPD2    C3  309   4.657   2.932  14.218 -0.4675  0.2844  0.2445
   20MPD2    C4  310   4.542   2.970  14.283 -1.0000 -0.1026  0.0504
   20MPD2    C5  311   4.430   2.970  14.208 -0.6150  0.1132  0.3929
   20MPD2     H  312   0.006   2.818  14.052 -1.5618 -1.1330 -0.9639
   20MPD2    H1  313   4.548   3.010  14.384 -1.9454  0.3805 -0.0854
   20MPD2    H2  314   4.314   2.907  14.040  1.0739  0.0914 -1.8648
   20MPD2    H3  315   4.345   3.014  14.259 -0.5349 -0.0331  0.6546
   20MPD2     N  316   0.058   2.920  14.293  0.9693 -0.2913  0.6823
   20MPD2    H5  317   0.043   2.932  14.392 -0.9397  0.3518  0.3211
   20MPD2    N1  318   4.512   2.801  13.900 -0.0844 -0.7001 -0.5633
   20MPD2    H7  319   4.419   2.775  13.865 -0.3500 -0.6976  0.1544
   21MPD2     C  320   2.019   3.471  14.045  0.0613  0.3059 -0.1868
   21MPD2    C1  321   2.096   3.405  14.132  0.3640 -0.3956 -0.2094
   21MPD2    C2  322   2.046   3.348  14.241  0.2591 -0.2332  0.2858
   21MPD2    C3  323   1.913   3.371  14.280 -0.7835 -0.8299  0.3432
   21MPD2    C4  324   1.831   3.443  14.196 -0.1392  0.1017 -0.4013
   21MPD2    C5  325   1.888   3.484  14.078 -0.1005  0.4286 -0.4039
   21MPD2     H  326   2.111   3.303  14.315 -1.7353  0.0612  2.2324
   21MPD2    H1  327   1.727   3.468  14.212 -0.1888 -0.7590  0.6308
   21MPD2    H2  328   2.047   3.530  13.958 -1.9870  0.8688 -0.4663
   21MPD2    H3  329   1.835   3.551  14.010 -1.9727 -1.8368 -1.1549
   21MPD2     N  330   1.871   3.343  14.409 -0.5181  0.3704  0.4153
   21MPD2    H5  331   1.785   3.390  14.436 -0.4063  0.3776  0.7676
   21MPD2    N1  332   2.232   3.374  14.104 -0.2158 -0.3079  0.6685
   21MPD2    H7  333   2.277   3.321  14.178  0.5799 -0.4033  0.1214
   22TCq2    C1  334   1.947   3.273  14.507 -0.1493  0.4782 -0.4450
   22TCq2    O2  335   2.038   3.193  14.488  0.2001  0.3383 -0.0013
   22TCq2    C2  336   1.888   3.289  14.634  0.5052 -0.8482 -0.7179
   22TCq2    C3  337   1.897   3.180  14.714  0.0715 -0.5687  0.2027
   22TCq2    C4  338   1.848   3.199  14.840  0.3837  0.1629  0.2936
   22TCq2    C5  339   1.801   3.316  14.895 -0.2903 -0.7095  0.3513
   22TCq2    C6  340   1.798   3.420  14.808  0.4274 -0.1240 -0.2614
   22TCq2    C7  341   1.846   3.412  14.676 -0.5862 -0.1999  0.5817
   22TCq2    C8  342   1.779   3.560  14.851  0.2970 -0.5104 -0.2522
   22TCq2    O4  343   1.808   3.588  14.963  0.5057  0.3193  0.7761
   22TCq2    C9  344   1.868   3.090  14.923  0.1266 -0.3598  0.4311
   22TCq2    O5  345   1.908   3.114  15.039  0.3673  0.0977  0.0431
   22TCq2    O6  346   1.861   2.974  14.882  0.4273 -0.8467  0.5024
   22TCq2    H2  347   1.937   3.087  14.675 -1.0534 -0.0030 -2.3281
   22TCq2    H3  348   1.762   3.315  14.996 -1.9765  2.0717 -0.3056
   22TCq2    H4  349   1.862   3.499  14.614 -0.1790 -1.1836 -0.7040
   23MPD2     C  350   3.245   4.528  14.898 -0.2739 -0.3834  0.2796
   23MPD2    C1  351   3.361   4.588  14.947  0.2443 -0.3384  0.8263
   23MPD2    C2  352   3.407   4.705  14.890  0.9267 -0.3358  0.6109
   23MPD2    C3  353   3.342   0.036  14.775 -0.1548  0.2549 -0.1170
   23MPD2    C4  354   3.234   4.691  14.723  0.6813 -0.2701  0.2313
   23MPD2    C5  355   3.183   4.585  14.796  0.1712 -0.1739  0.6426
   23MPD2     H  356   3.492   0.027  14.942  0.3019  0.5562  0.9343
   23MPD2    H1  357   3.189   4.707  14.626  0.7019  4.0482  0.9238
   23MPD2    H2  358   3.207   4.436  14.940  1.4514 -0.7208  1.1077
   23MPD2    H3  359   3.090   4.545  14.758 -1.3373  1.7689  2.3848
   23MPD2     N  360   3.384   0.157  14.709  0.7479 -0.0594 -0.0167
   23MPD2    H5  361   3.338   0.189  14.623 -0.0243 -0.5687  0.2124
   23MPD2    N1  362   3.428   4.533  15.062 -0.7876  0.8530  0.4642
   23MPD2    H7  363   3.502   4.590  15.104 -0.1990 -0.6597  1.4846
   24TCq2    C1  364   3.495   0.228  14.749  0.7995  0.2839 -0.1209
   24TCq2    O2  365   3.556   0.217  14.856  0.0649 -0.2000  0.4745
   24TCq2    C2  366   3.532   0.345  14.666  0.1064  0.1778 -0.4553
   24TCq2    C3  367   3.597   0.448  14.729 -0.1673 -0.1076  0.5478
   24TCq2    C4  368   3.620   0.562  14.651 -0.1563  0.8702 -0.2167
   24TCq2    C5  369   3.583   0.570  14.525  0.0411  0.0270  0.4367
   24TCq2    C6  370   3.524   0.465  14.468 -0.2699  0.0523  1.0267
   24TCq2    C7  371   3.500   0.350  14.532  0.1542 -0.8986 -0.6611
   24TCq2    C8  372   3.457   0.496  14.340  0.5327  0.1287 -0.1391
   24TCq2    O4  373   3.501   0.584  14.269  0.2611  0.1633  0.9006
   24TCq2    C9  374   3.702   0.663  14.711  0.0156  0.1945 -0.1425
   24TCq2    O5  375   3.752   0.749  14.637  0.0598  0.0698 -0.2059
   24TCq2    O6  376   3.710   0.659  14.835  0.4055 -0.2940  0.3924
   24TCq2    H2  377   3.629   0.449  14.832  0.1384 -1.1758  0.4645
   24TCq2    H3  378   3.616   0.653  14.463  3.7713  0.5897  3.1400
   24TCq2    H4  379   3.455   0.268  14.479  0.5000 -2.3573  1.2995
   25TMC2    C1  380   2.482   2.168  11.098 -0.2124 -0.6488  0.0372
   25TMC2    C2  381   2.580   2.268  11.069  0.7635  0.4711  0.4847
   25TMC2    C3  382   2.586   2.372  11.162  0.3982 -0.4793 -0.3056
   25TMC2    C4  383   2.399   2.174  11.206 -0.0692  0.6461  0.3632
   25TMC2    C5  384   2.424   2.273  11.289 -0.7279 -0.5101 -0.2933
   25TMC2    C6  385   2.512   2.375  11.272  0.2008  0.0656 -0.2570
   25TMC2     C  386   2.494   2.043  11.025  0.3557  0.3238 -0.3940
   25TMC2     O  387   2.550   2.049  10.918 -0.8458  0.1289  0.0816
   25TMC2     H  388   2.651   2.250  10.990 -0.9000  2.6519 -1.5151
   25TMC2    H1  389   2.319   2.104  11.225 -0.6292  0.8561 -1.2664
   25TMC2    H2  390   2.510   2.455  11.345 -0.4988  1.1639 -1.4798
   25TMC2    C7  391   2.336   2.277  11.410 -0.0932  0.0656  0.3587
   25TMC2    C8  392   2.641   2.502  11.123  0.5008  0.2323 -0.1770
   25TMC2    O1  393   2.382   2.323  11.510  0.6888 -0.2385 -0.3897
   25TMC2    O2  394   2.669   2.586  11.207  0.0064 -0.3684 -0.0690
   25TMC2    O5  395   2.666   2.506  10.991 -0.0384  0.3685 -0.3032
   25TMC2    H5  396   2.641   2.436  10.927 -0.4655 -0.1048  0.3819
   26MPD2     C  397   2.269   1.627  10.823 -0.1316  0.2631 -0.1380
   26MPD2    C1  398   2.185   1.677  10.917  0.1766 -0.7169  0.5321
   26MPD2    C2  399   2.241   1.783  10.997  1.2044  0.5653  0.5957
   26MPD2    C3  400   2.359   1.842  10.972 -0.5519  0.0267  0.0169
   26MPD2    C4  401   2.440   1.785  10.872  0.5672 -0.4037  0.5025
   26MPD2    C5  402   2.392   1.679  10.804  0.8974 -0.3008 -0.2592
   26MPD2     H  403   2.182   1.837  11.071  0.5119 -2.7781  2.4738
   26MPD2    H1  404   2.541   1.822  10.857  0.0882  1.5113  2.1592
   26MPD2    H2  405   2.248   1.533  10.772 -0.1533 -0.2109  0.7508
   26MPD2    H3  406   2.456   1.638  10.727 -0.6111 -1.0325 -1.1277
   26MPD2     N  407   2.404   1.950  11.057  0.0493  0.2008  0.2350
   26MPD2    H5  408   2.339   1.968  11.133  0.9725 -1.7246  1.4758
   26MPD2    N1  409   2.056   1.623  10.935 -0.0964  0.2103  0.1046
   26MPD2    H7  410   2.024   1.548  10.875 -0.8328  1.2936 -0.8345
   27TMC2    C1  411   1.452   4.045  12.154  0.3052  0.3777  1.1881
   27TMC2    C2  412   1.389   4.127  12.067 -0.2832  0.3770 -0.0661
   27TMC2    C3  413   1.441   4.252  12.059  0.1706  0.3956  0.5269
   27TMC2    C4  414   1.549   4.085  12.235 -0.4161  0.2578  0.8789
   27TMC2    C5  415   1.581   4.213  12.230  0.8754 -0.5415  0.2856
   27TMC2    C6  416   1.529   4.298  12.150  0.5005 -0.2527 -0.1405
   27TMC2     C  417   1.375   3.940  12.205 -0.6672  0.1872  0.1111
   27TMC2     O  418   1.430   3.831  12.223 -0.3439 -0.5406  0.1786
   27TMC2     H  419   1.321   4.084  11.994  1.2505 -1.3915 -0.4428
   27TMC2    H1  420   1.591   4.012  12.303  0.6588  0.3890  0.3448
   27TMC2    H2  421   1.571   4.397  12.133  1.7535 -0.6137  0.9467
   27TMC2    C7  422   1.601   4.264  12.361 -0.7351 -0.2671  0.0582
   27TMC2    C8  423   1.393   4.351  11.963 -0.1714 -0.6406 -0.5811
   27TMC2    O1  424   1.589   4.176  12.446  0.2584  0.4971 -0.1867
   27TMC2    O2  425   1.392   4.472  11.986 -0.2346 -0.2532 -0.4689
   27TMC2    O5  426   1.343   4.289  11.861  0.0438 -0.0542  0.9561
   27TMC2    H5  427   1.344   4.191  11.867  0.2069 -0.0257  1.4096
   28MPD2     C  428   0.982   3.744  12.450 -0.5810  0.0627 -0.7168
   28MPD2    C1  429   0.965   3.877  12.442  0.6678 -0.2261  0.7569
   28MPD2    C2  430   1.051   3.953  12.364  0.3533 -0.4950 -0.6145
   28MPD2    C3  431   1.155   3.896  12.303 -0.2371  0.5743 -0.0958
   28MPD2    C4  432   1.165   3.756  12.298  0.0425  0.2818  0.0517
   28MPD2    C5  433   1.082   3.685  12.377  0.2578 -0.6557 -0.2362
   28MPD2     H  434   1.044   4.061  12.363  2.1717 -0.3847 -1.1504
   28MPD2    H1  435   1.241   3.704  12.240 -0.9944 -0.2936 -0.7887
   28MPD2    H2  436   0.912   3.685  12.507 -0.8779  0.7169 -0.4015
   28MPD2    H3  437   1.088   3.577  12.364 -1.2366 -1.1880  3.3788
   28MPD2     N  438   1.246   3.984  12.242 -0.2693 -0.6589 -0.2431
   28MPD2    H5  439   1.222   4.083  12.242  1.7084 -0.1663 -0.0324
   28MPD2    N1  440   0.850   3.933  12.502  0.6226 -0.2657  0.7158
   28MPD2    H7  441   0.788   3.868  12.550  2.6290 -1.1355  2.1377
   29MPD2     C  442   0.180   1.547  14.143 -1.0015  0.0167  0.4837
   29MPD2    C1  443   0.291   1.532  14.229  0.5087  1.1621  0.2182
   29MPD2    C2  444   0.345   1.634  14.298 -0.0740 -0.5218 -0.4120
   29MPD2    C3  445   0.295   1.761  14.273 -0.1877  0.1101 -0.6231
   29MPD2    C4  446   0.195   1.774  14.188  0.4055 -0.0563 -0.2377
   29MPD2    C5  447   0.133   1.668  14.126  0.1844 -0.3931  0.0315
   29MPD2     H  448   0.426   1.619  14.369  1.1275 -2.9998 -2.3157
   29MPD2    H1  449   0.167   1.874  14.158  0.4661 -0.1972 -0.7553
   29MPD2    H2  450   0.128   1.459  14.107  0.0559 -1.0784  1.6215
   29MPD2    H3  451   0.042   1.687  14.070 -1.6234 -0.6130  2.8980
   29MPD2     N  452   0.347   1.880  14.327  0.5727 -0.1961 -0.4031
   29MPD2    H5  453   0.320   1.965  14.281  1.3932  1.4071  2.0702
   29MPD2    N1  454   0.349   1.406  14.263 -0.3417  0.5432  0.2692
   29MPD2    H7  455   0.427   1.406  14.328 -1.9584  2.8368  2.2586
   30TCq2    C1  456   0.451   1.882  14.412  0.3509  0.3242  0.0094
   30TCq2    O2  457   0.487   1.805  14.501 -0.6259  0.5510  0.6304
   30TCq2    C2  458   0.518   2.013  14.418 -0.8439  0.0777  0.7779
   30TCq2    C3  459   0.622   2.024  14.506  0.5221 -0.0382 -0.3072
   30TCq2    C4  460   0.689   2.141  14.519 -0.6585  0.3931 -0.5648
   30TCq2    C5  461   0.654   2.248  14.439  0.4906 -0.3718 -0.1489
   30TCq2    C6  462   0.543   2.234  14.360 -0.1541 -0.7424  0.1142
   30TCq2    C7  463   0.478   2.118  14.336 -0.7832 -0.3439  0.2619
   30TCq2    C8  464   0.515   2.334  14.254 -0.7505 -0.3605  0.1315
   30TCq2    O4  465   0.406   2.337  14.198  0.0625  0.0276  0.5108
   30TCq2    C9  466   0.784   2.160  14.625 -0.1046  0.6309  0.1251
   30TCq2    O5  467   0.858   2.259  14.599  0.0795  0.1026 -0.3532
   30TCq2    O6  468   0.778   2.091  14.728 -0.2664  0.1187  0.1199
   30TCq2    H2  469   0.658   1.940  14.564 -0.4795  0.5551  1.1836
   30TCq2    H3  470   0.691   2.347  14.463  1.5853 -0.6711 -0.5783
   30TCq2    H4  471   0.386   2.123  14.278 -0.0084 -1.8912 -1.0997
   31MPD2     C  472   3.378   0.603  14.883 -0.0603  0.3749 -0.1814
   31MPD2    C1  473   3.256   0.597  14.818 -0.6559  0.6564  0.8986
   31MPD2    C2  474   3.145   0.564  14.894  0.8577  0.3175  0.0764
   31MPD2    C3  475   3.151   0.515  15.032  0.0917 -0.0277  0.8103
   31MPD2    C4  476   3.276   0.519  15.091  0.0111 -0.0199  0.4395
   31MPD2    C5  477   3.386   0.560  15.012  0.6658  0.1509 -0.0267
   31MPD2     H  478   3.044   0.576  14.854  1.2292 -2.4902 -1.7479
   31MPD2    H1  479   3.289   0.488  15.194 -2.7963 -3.2745 -0.1806
   31MPD2    H2  480   3.465   0.645  14.833  0.6846 -2.5771 -1.4121
   31MPD2    H3  481   3.485   0.550  15.056  0.1891 -2.1688  0.5124
   31MPD2     N  482   3.037   0.471  15.116 -0.0851 -0.1015 -0.1031
   31MPD2    H5  483   3.069   0.443  15.209  0.8317 -1.2270 -0.7566
   31MPD2    N1  484   3.255   0.639  14.682  0.5605 -0.5431 -0.2015
   31MPD2    H7  485   3.344   0.663  14.640  1.6079 -0.7331  1.8772
   32TCq2    C1  486   2.896   0.479  15.075 -0.1389  1.6735 -0.3784
   32TCq2    O2  487   2.848   0.520  14.967 -0.1644  0.0816  0.2123
   32TCq2    C2  488   2.797   0.440  15.179 -0.0429 -0.2806  0.3111
   32TCq2    C3  489   2.662   0.461  15.154  0.0633 -0.0493 -0.8512
   32TCq2    C4  490   2.574   0.426  15.249 -0.4124 -0.4213 -0.0811
   32TCq2    C5  491   2.613   0.370  15.365 -0.4500  0.8043 -0.2103
   32TCq2    C6  492   2.749   0.342  15.386 -0.0012 -0.2752 -0.3640
   32TCq2    C7  493   2.840   0.390  15.301 -0.1047  0.2947 -0.4536
   32TCq2    C8  494   2.800   0.310  15.516 -0.4474  0.0062 -0.7520
   32TCq2    O4  495   2.921   0.293  15.531 -0.4620  0.1003 -0.1537
   32TCq2    C9  496   2.432   0.433  15.213  0.5022  0.0017  0.4118
   32TCq2    O5  497   2.394   0.435  15.091 -0.3577 -0.0912  0.1870
   32TCq2    O6  498   2.353   0.437  15.310 -0.2500  0.4375 -0.2957
   32TCq2    H2  499   2.629   0.494  15.056  0.2624  0.6288 -0.6939
   32TCq2    H3  500   2.528   0.321  15.413 -0.5392  2.1382  0.9872
   32TCq2    H4  501   2.944   0.366  15.319  0.0694  0.9366 -0.5994
   33MPD2     C  502   2.551   2.583  10.085 -0.2211  0.6344 -0.2810
   33MPD2    C1  503   2.641   2.682  10.127  0.0618 -0.5848 -0.7287
   33MPD2    C2  504   2.701   2.760  10.028  0.3594 -0.5357  0.6382
   33MPD2    C3  505   2.701   2.722   9.892 -0.2657 -0.2061 -0.3307
   33MPD2    C4  506   2.617   2.620   9.855 -0.2371 -0.7586 -0.2516
   33MPD2    C5  507   2.549   2.551   9.946  0.1738 -0.1786  0.4512
   33MPD2     H  508   2.763   2.846  10.052 -0.6193  0.9201 -2.0396
   33MPD2    H1  509   2.605   2.587   9.753 -0.4342 -0.5847 -0.2860
   33MPD2    H2  510   2.504   2.515  10.155 -0.8489 -0.0320 -1.3537
   33MPD2    H3  511   2.487   2.469   9.911 -1.9732  0.7515  2.0446
   33MPD2     N  512   2.770   2.793   9.789 -0.4185  1.2190  0.7061
   33MPD2    H5  513   2.753   2.752   9.698 -1.8407 -0.1928  1.5937
   33MPD2    N1  514   2.649   2.712  10.266 -0.7112  0.6497  0.1299
   33MPD2    H7  515   2.596   2.650  10.326 -0.7554  1.6800  1.1486
   34TCq2    C1  516   2.856   2.897   9.803 -0.0749  0.2599  0.5523
   34TCq2    O2  517   2.901   2.940   9.909  0.7510  0.3554 -0.3503
   34TCq2    C2  518   2.891   2.951   9.669  0.4977  0.3672  0.0586
   34TCq2    C3  519   2.808   2.930   9.562 -0.0678 -0.1767 -0.8903
   34TCq2    C4  520   2.835   2.995   9.446 -0.3201  0.0224  0.0465
   34TCq2    C5  521   2.954   3.065   9.425 -0.0636 -0.2588  0.2918
   34TCq2    C6  522   3.030   3.096   9.536 -0.7724 -0.3397  0.2260
   34TCq2    C7  523   2.995   3.043   9.661  0.0749  0.2594  0.3700
   34TCq2    C8  524   3.152   3.181   9.533 -0.0481  0.7736 -0.2418
   34TCq2    O4  525   3.214   3.195   9.637 -0.2731  0.4291 -0.4064
   34TCq2    C9  526   2.747   2.984   9.338 -0.1011 -0.4807 -0.0105
   34TCq2    O5  527   2.778   3.044   9.231 -0.1241  0.0949  0.5270
   34TCq2    O6  528   2.628   2.970   9.372 -0.4151 -0.1718  0.1188
   34TCq2    H2  529   2.716   2.874   9.567  0.1269 -0.1753  2.6003
   34TCq2    H3  530   2.980   3.097   9.325 -3.1469 -1.7299 -0.9861
   34TCq2    H4  531   3.059   3.066   9.746  3.1432  0.4431 -1.9748
   35MPD2     C  532   0.434   0.223  11.971  0.2934 -0.4702 -0.5237
   35MPD2    C1  533   0.411   0.087  11.954  0.0954 -0.3852  0.1048
   35MPD2    C2  534   0.343   0.044  11.842 -0.4397 -0.4329  0.4604
   35MPD2    C3  535   0.304   0.131  11.745 -0.1214 -0.1454  0.2140
   35MPD2    C4  536   0.320   0.269  11.763  0.2037  0.3454  0.6322
   35MPD2    C5  537   0.382   0.312  11.877  0.2561  0.4275  0.7569
   35MPD2     H  538   0.316   4.659  11.833  0.6901 -0.6859 -0.0036
   35MPD2    H1  539   0.281   0.337  11.688 -0.3587  0.8607  1.3800
   35MPD2    H2  540   0.478   0.256  12.065 -0.2329  0.7146 -0.7024
   35MPD2    H3  541   0.390   0.419  11.892 -0.9248  0.6595 -0.2546
   35MPD2     N  542   0.223   0.079  11.632 -0.0008  0.1638  0.2753
   35MPD2    H5  543   0.180   4.708  11.650  0.5570 -0.2137 -0.2615
   35MPD2    N1  544   0.459   0.001  12.059 -0.8980  0.4785  0.2410
   35MPD2    H7  545   0.484   0.036  12.151  0.3198 -2.0559  0.8778
   36TCq2    C1  546   0.188   0.151  11.519  0.1647 -0.1919  0.0136
   36TCq2    O2  547   0.245   0.247  11.475  0.8600 -0.4262  0.1696
   36TCq2    C2  548   0.076   0.100  11.440 -0.3136 -0.1920 -0.4951
   36TCq2    C3  549   0.037   0.190  11.346  0.1661 -0.4794  0.5588
   36TCq2    C4  550   4.641   0.148  11.276 -0.1042  0.1771  0.1026
   36TCq2    C5  551   4.578   0.029  11.298 -0.1297  0.5200  0.2151
   36TCq2    C6  552   4.630   4.666  11.388 -0.1838 -0.0616  0.1634
   36TCq2    C7  553   0.017   4.700  11.467  0.5446 -0.0407  0.5832
   36TCq2    C8  554   4.564   4.537  11.413 -0.3386 -0.7408  0.3178
   36TCq2    O4  555   4.453   4.511  11.365 -0.6857 -0.0804 -0.1207
   36TCq2    C9  556   4.572   0.245  11.193  0.0919  0.4875  0.5068
   36TCq2    O5  557   4.452   0.211  11.163 -0.1881  0.7603 -0.2807
   36TCq2    O6  558   4.629   0.359  11.178 -0.1895  0.1104  0.1081
   36TCq2    H2  559   0.079   0.289  11.335 -0.7174 -0.2950 -1.0553
   36TCq2    H3  560   4.494   4.710  11.242 -0.5580  0.4031  0.9383
   36TCq2    H4  561   0.040   4.654  11.562  0.6483  0.7695  0.9511
   37TMC2    C1  562   2.003   4.384  11.328 -0.1040  0.0948  0.6005
   37TMC2    C2  563   1.962   4.335  11.206  0.7314  0.4104 -0.2475
   37TMC2    C3  564   2.052   4.336  11.100 -0.6662  0.7688  0.2961
   37TMC2    C4  565   2.135   4.423  11.353  0.6272  0.1010 -0.5856
   37TMC2    C5  566   2.218   4.424  11.242  0.4574  0.0852  0.7298
   37TMC2    C6  567   2.180   4.382  11.116  0.1419  0.6087 -0.1683
   37TMC2     C  568   1.897   4.433  11.416  0.7747  0.6466 -0.2181
   37TMC2     O  569   1.780   4.430  11.378 -0.5330 -0.1377  0.0444
   37TMC2     H  570   1.858   4.309  11.189  1.4810 -1.9409 -1.1874
   37TMC2    H1  571   2.164   4.469  11.446 -2.1871  0.3686  0.1776
   37TMC2    H2  572   2.251   4.404  11.037  0.9365  1.5606  0.8115
   37TMC2    C7  573   2.352   4.470  11.271  0.5426  0.2691 -0.3484
   37TMC2    C8  574   2.010   4.313  10.964  0.3030 -0.1520 -0.3267
   37TMC2    O1  575   2.408   4.433  11.372  0.8812 -0.2705 -0.2886
   37TMC2    O2  576   2.072   4.353  10.867  0.4342  0.1540 -0.2059
   37TMC2    O5  577   1.919   4.220  10.964 -0.5248 -0.0601  0.0545
   37TMC2    H5  578   1.912   4.184  11.055  0.7396 -1.5140 -0.4250
   38MPD2     C  579   1.752   4.527  11.896  0.1286  0.4661  0.6019
   38MPD2    C1  580   1.877   4.487  11.900  0.1818 -0.3962 -0.2161
   38MPD2    C2  581   1.938   4.445  11.783 -0.1882  0.4956 -0.0359
   38MPD2    C3  582   1.870   4.457  11.665  0.4159  0.0229 -0.2614
   38MPD2    C4  583   1.733   4.497  11.663  0.4327  0.0042  0.1111
   38MPD2    C5  584   1.676   4.528  11.781 -0.6422  0.3392  0.1335
   38MPD2     H  585   2.040   4.414  11.800 -0.2665  0.0462 -0.4100
   38MPD2    H1  586   1.686   4.498  11.566 -0.8533 -3.0098  0.7076
   38MPD2    H2  587   1.698   4.573  11.978  1.4429  2.5317  0.3103
   38MPD2    H3  588   1.569   4.544  11.783 -0.8800 -1.2498  0.0773
   38MPD2     N  589   1.943   4.434  11.550 -0.1595  0.1180  0.2034
   38MPD2    H5  590   2.037   4.401  11.569 -0.1351 -0.1639 -0.4083
   38MPD2    N1  591   1.954   4.488  12.021 -0.7898  0.3062 -0.0377
   38MPD2    H7  592   2.048   4.452  12.030 -0.8491  0.9005  3.0128
   39MPD2     C  593   4.640   1.306   1.318 -0.4501  0.8996 -0.2718
   39MPD2    C1  594   4.604   1.397   1.422 -0.2322 -0.1990  0.6859
   39MPD2    C2  595   4.478   1.463   1.410  0.5462  0.6765 -0.1972
   39MPD2    C3  596   4.407   1.452   1.291  0.7790  0.1139 -0.5110
   39MPD2    C4  597   4.452   1.374   1.188  0.4753 -0.1735 -0.3825
   39MPD2    C5  598   4.561   1.294   1.211 -0.6426  0.7817 -1.1532
   39MPD2     H  599   4.449   1.528   1.492  1.8245 -0.7457  1.3839
   39MPD2    H1  600   4.401   1.350   1.096  0.1608 -3.2822  0.6142
   39MPD2    H2  601   4.716   1.230   1.334 -0.9962  0.2542 -0.7468
   39MPD2    H3  602   4.578   1.205   1.152  0.7925  0.9293 -0.9555
   39MPD2     N  603   4.279   1.514   1.276 -0.3131 -0.1502 -0.2878
   39MPD2    H5  604   4.238   1.529   1.184 -1.6455  0.8849  0.4773
   39MPD2    N1  605   4.679   1.388   1.546 -0.5930  0.5617 -0.2390
   39MPD2    H7  606   0.055   1.354   1.537 -0.2589  1.1876  1.0167
   40TCq2    C1  607   4.628   1.418   1.669 -0.1438  0.1884  0.1667
   40TCq2    O2  608   4.513   1.445   1.697  0.2384  0.2111  0.4237
   40TCq2    C2  609   0.003   1.406   1.776 -0.5502 -0.1705 -0.0930
   40TCq2    C3  610   4.664   1.385   1.898 -1.0818  0.1656 -0.3455
   40TCq2    C4  611   0.021   1.356   2.004  0.2965  0.4556  0.0516
   40TCq2    C5  612   0.147   1.320   1.991  0.0401  0.3962  0.2665
   40TCq2    C6  613   0.200   1.321   1.868  0.0757 -0.1219  0.0409
   40TCq2    C7  614   0.138   1.368   1.759  0.2009  0.3845 -0.2789
   40TCq2    C8  615   0.317   1.231   1.859  0.0920  0.3746 -0.0999
   40TCq2    O4  616   0.331   1.146   1.945  0.1000 -0.2143  0.0121
   40TCq2    C9  617   4.684   1.365   2.140 -0.1809 -0.4559  0.7700
   40TCq2    O5  618   4.558   1.382   2.140  0.2398  0.0475 -0.1124
   40TCq2    O6  619   0.041   1.375   2.239 -0.6837 -0.1018  0.4325
   40TCq2    H2  620   4.561   1.411   1.921 -1.6167 -3.3801  1.2926
   40TCq2    H3  621   0.200   1.298   2.083 -2.3102  0.5778  1.6597
   40TCq2    H4  622   0.185   1.363   1.661 -1.0362 -1.0280 -0.8224
   41TMC2    C1  623   4.365   4.704  13.790  0.9750  0.0687 -0.2070
   41TMC2    C2  624   4.230   0.005  13.781 -0.1034  0.1514 -0.3811
   41TMC2    C3  625   4.182   0.075  13.681  0.8530 -0.1271 -0.6970
   41TMC2    C4  626   4.443   0.003  13.674 -0.0955  1.0041  0.1074
   41TMC2    C5  627   4.377   0.047  13.560 -0.1972  0.0417 -0.2342
   41TMC2    C6  628   4.253   0.094  13.567  0.4712 -0.1250 -0.1803
   41TMC2     C  629   4.424   4.638  13.908  0.0456 -0.5460 -0.0430
   41TMC2     O  630   4.511   4.555  13.884  0.7406  0.2126  0.0197
   41TMC2     H  631   4.160   4.694  13.858  1.7648 -0.1485  1.2076
   41TMC2    H1  632   4.536   4.666  13.669  0.9581  2.7179  0.5368
   41TMC2    H2  633   4.210   0.135  13.477 -0.8629  0.7562  0.8467
   41TMC2    C7  634   4.448   0.077  13.435  0.2551 -0.2761  0.5690
   41TMC2    C8  635   4.044   0.122  13.688  0.2848  0.6311 -0.3453
   41TMC2    O1  636   4.389   0.074  13.324 -0.4037 -0.2158 -0.0180
   41TMC2    O2  637   3.983   0.109  13.793 -0.5000  0.2790 -0.4622
   41TMC2    O5  638   3.996   0.105  13.561  0.3334  0.3746  0.0802
   41TMC2    H5  639   3.899   0.109  13.546  0.4321  0.1308 -0.6191
   42MPD2     C  640   4.441   4.472  14.156 -0.4363 -0.4294 -0.1388
   42MPD2    C1  641   4.361   4.586  14.141 -0.5254  0.1159 -0.4023
   42MPD2    C2  642   4.288   4.627  14.252 -0.2124  0.7174  0.5694
   42MPD2    C3  643   4.280   4.547  14.367 -0.5660  0.2981  0.2121
   42MPD2    C4  644   4.356   4.436  14.380 -0.0693 -0.2012  0.2054
   42MPD2    C5  645   4.438   4.396  14.274 -0.2822 -0.7882  0.4662
   42MPD2     H  646   4.216   4.706  14.238  1.8711  1.9473 -3.2037
   42MPD2    H1  647   4.346   4.371  14.466  3.3852 -0.0686  0.7177
   42MPD2    H2  648   4.491   4.426  14.071  0.2205 -1.9037  1.0437
   42MPD2    H3  649   4.506   4.315  14.298  0.8693  0.6453  2.0436
   42MPD2     N  650   4.188   4.570  14.468 -0.0395 -0.1712 -0.4302
   42MPD2    H5  651   4.178   4.494  14.535  1.5891  1.1866  1.3723
   42MPD2    N1  652   4.353   4.665  14.025  0.0277  0.2032  0.0216
   42MPD2    H7  653   4.295   0.029  14.025  0.2511  0.3595 -0.3239
   43MPD2     C  654   0.384   2.115   0.766  0.6272  0.8656  1.6868
   43MPD2    C1  655   0.508   2.175   0.775  0.2835  0.7733 -1.2622
   43MPD2    C2  656   0.518   2.307   0.785 -0.1490  0.2077  0.5510
   43MPD2    C3  657   0.407   2.383   0.802  0.9784 -0.0993 -0.0450
   43MPD2    C4  658   0.288   2.321   0.808 -0.2686 -0.1639 -0.2371
   43MPD2    C5  659   0.272   2.189   0.790 -0.3094  0.2659  0.4392
   43MPD2     H  660   0.614   2.356   0.775 -0.5992  1.2123  1.1805
   43MPD2    H1  661   0.199   2.379   0.833  0.7396  0.6548  1.4505
   43MPD2    H2  662   0.366   2.009   0.754 -1.8256  1.4848 -0.0413
   43MPD2    H3  663   0.177   2.137   0.796  0.9438 -2.0457  0.2025
   43MPD2     N  664   0.415   2.526   0.808  0.0362 -0.0375 -0.7257
   43MPD2    H5  665   0.328   2.576   0.821  0.4922  0.0801  2.0900
   43MPD2    N1  666   0.627   2.111   0.730 -0.5345  0.2234 -0.5898
   43MPD2    H7  667   0.711   2.163   0.706 -1.4189  2.4229  1.0313
   44TCq2    C1  668   0.715   3.044   0.721 -0.2322  0.5458 -0.6625
   44TCq2    O2  669   0.687   3.156   0.675  0.2325 -0.3613  0.0003
   44TCq2    C2  670   0.600   2.955   0.746 -0.5767 -0.2188  0.1888
   44TCq2    C3  671   0.483   3.007   0.703 -0.6949  0.1733  0.4585
   44TCq2    C4  672   0.371   2.928   0.707  0.4303  0.5008  0.3086
   44TCq2    C5  673   0.382   2.800   0.752  0.5846 -0.2997  0.2071
   44TCq2    C6  674   0.503   2.748   0.782 -0.2129  0.4644  0.4369
   44TCq2    C7  675   0.613   2.828   0.790  0.2644  0.8359  0.1433
   44TCq2    C8  676   0.533   2.603   0.806 -0.1216 -0.3951  0.4421
   44TCq2    O4  677   0.654   2.568   0.803  0.1280  0.2584  0.1248
   44TCq2    C9  678   0.246   2.983   0.677 -0.1644  0.3224 -0.8618
   44TCq2    O5  679   0.147   2.908   0.692 -0.2014  0.6581 -0.3264
   44TCq2    O6  680   0.227   3.104   0.652 -0.5245  0.3125  0.0366
   44TCq2    H2  681   0.479   3.110   0.668 -0.9765 -0.3622 -1.0671
   44TCq2    H3  682   0.290   2.745   0.764 -0.6745  1.3951 -1.6434
   44TCq2    H4  683   0.703   2.783   0.832 -0.1443  0.4291  0.5904
   45TMC2    C1  684   0.666   0.781   9.569 -0.3319 -0.4353  0.1816
   45TMC2    C2  685   0.581   0.809   9.463 -0.3176 -0.3150 -0.5334
   45TMC2    C3  686   0.595   0.929   9.391 -0.7108 -1.0003 -0.1768
   45TMC2    C4  687   0.761   0.865   9.617 -0.9122  0.1094 -0.1569
   45TMC2    C5  688   0.765   0.989   9.552 -0.4669 -0.2980  0.0998
   45TMC2    C6  689   0.686   1.015   9.439  0.2667 -0.2020  0.0449
   45TMC2     C  690   0.639   0.662   9.648 -0.5612 -0.6911  0.2917
   45TMC2     O  691   0.679   0.668   9.763  0.4539 -0.1908  0.0756
   45TMC2     H  692   0.512   0.735   9.424  0.4439 -0.0417 -2.4344
   45TMC2    H1  693   0.820   0.837   9.704  0.8383  1.4240 -0.9149
   45TMC2    H2  694   0.710   1.104   9.382 -0.6059 -0.9691 -1.5016
   45TMC2    C7  695   0.874   1.076   9.584 -0.6398 -0.2623  0.1971
   45TMC2    C8  696   0.515   0.953   9.273  0.2430  0.2639  0.2800
   45TMC2    O1  697   0.975   1.019   9.628  0.0983  0.1423  1.0232
   45TMC2    O2  698   0.558   1.019   9.182 -0.0696 -0.1916 -0.4478
   45TMC2    O5  699   0.415   0.866   9.265 -0.2027 -0.0577  0.4344
   45TMC2    H5  700   0.385   0.837   9.354 -1.7739 -1.1952 -0.4730
   46MPD2     C  701   0.565   0.412   9.780  0.7820  0.2892 -0.0435
   46MPD2    C1  702   0.570   0.433   9.643  0.7140  0.3502 -0.3373
   46MPD2    C2  703   0.536   0.327   9.568  0.1060  0.3695 -0.2971
   46MPD2    C3  704   0.508   0.202   9.616 -0.0725  0.4801  0.3915
   46MPD2    C4  705   0.532   0.178   9.750 -0.0988  0.3378  0.0097
   46MPD2    C5  706   0.561   0.290   9.831 -0.2850  0.3244  0.2068
   46MPD2     H  707   0.519   0.347   9.463  1.7088  2.1742 -0.2124
   46MPD2    H1  708   0.524   0.080   9.794  0.8178 -0.6079 -1.9392
   46MPD2    H2  709   0.581   0.488   9.855 -0.9933  1.4231 -0.8181
   46MPD2    H3  710   0.565   0.281   9.939 -0.4589  0.9222  0.2656
   46MPD2     N  711   0.474   0.105   9.521 -0.2297  0.3153 -0.7053
   46MPD2    H5  712   0.467   0.135   9.424 -0.4163 -3.5113 -1.8560
   46MPD2    N1  713   0.605   0.546   9.583  0.2222 -0.3770 -0.5727
   46MPD2    H7  714   0.606   0.548   9.482  3.4134  1.7547 -0.5126
   47TMC2    C1  715   4.588   0.767   9.510  0.4939 -1.0047  0.3764
   47TMC2    C2  716   4.521   0.886   9.492 -0.2659 -0.0422  0.8220
   47TMC2    C3  717   4.445   0.909   9.383 -0.0203 -0.6214  0.5013
   47TMC2    C4  718   4.575   0.669   9.412 -0.0047  0.1159 -0.3190
   47TMC2    C5  719   4.485   0.690   9.310 -0.3177  0.4964 -0.2838
   47TMC2    C6  720   4.426   0.815   9.292  0.4226 -0.3778  0.0623
   47TMC2     C  721   4.607   0.725   9.651 -0.3440 -0.1700 -0.2253
   47TMC2     O  722   4.661   0.806   9.729  0.1750  0.2534  0.3395
   47TMC2     H  723   4.522   0.962   9.569  1.1490  0.2960  0.4533
   47TMC2    H1  724   4.627   0.574   9.413 -1.9826 -0.9651 -0.3352
   47TMC2    H2  725   4.376   0.840   9.199  0.0288  1.4586  0.7760
   47TMC2    C7  726   4.463   0.579   9.219 -0.1060  0.1101 -0.1320
   47TMC2    C8  727   4.411   1.050   9.343 -0.2018  0.4922 -0.1729
   47TMC2    O1  728   4.541   0.488   9.224  0.2464 -0.5567  0.2239
   47TMC2    O2  729   4.395   1.078   9.224 -0.4679  0.4977  0.6098
   47TMC2    O5  730   4.369   1.124   9.446  0.0774 -0.0334 -0.5813
   47TMC2    H5  731   4.364   1.083   9.535 -0.3011  0.2381 -0.4776
   48MPD2     C  732   4.649   0.562   9.887 -0.1937 -0.3963  0.0221
   48MPD2    C1  733   4.603   0.509   9.770 -0.4265  0.2319  0.8066
   48MPD2    C2  734   4.560   0.376   9.764  0.1662 -0.8807 -0.4231
   48MPD2    C3  735   4.562   0.295   9.876 -0.1402  0.0391 -0.2390
   48MPD2    C4  736   4.586   0.355   9.996 -0.5316  0.3298 -0.0240
   48MPD2    C5  737   4.629   0.487  10.002 -0.9692 -0.7172  0.7878
   48MPD2     H  738   4.524   0.334   9.671 -0.0391 -1.0833 -0.2533
   48MPD2    H1  739   4.577   0.292  10.084  0.9871 -0.3076 -0.3221
   48MPD2    H2  740   4.674   0.666   9.900 -0.1396 -0.4898  0.6422
   48MPD2    H3  741   4.656   0.534  10.096  0.8462 -1.2576  0.5457
   48MPD2     N  742   4.536   0.159   9.858 -0.2654 -0.1639 -0.4549
   48MPD2    H5  743   4.511   0.141   9.761 -0.3153  0.3911 -0.5465
   48MPD2    N1  744   4.580   0.587   9.661 -0.0856  0.3151 -0.1949
   48MPD2    H7  745   4.552   0.541   9.574  1.6140  0.6228 -0.9037
   49MPD2     C  746   2.418   3.188  10.457  0.6730 -0.2129  0.1374
   49MPD2    C1  747   2.409   3.076  10.376  0.8235 -0.1778 -0.2293
   49MPD2    C2  748   2.321   2.978  10.406  0.3442 -0.1962 -0.1666
   49MPD2    C3  749   2.252   2.974  10.527  0.0698  0.1388 -0.5550
   49MPD2    C4  750   2.280   3.071  10.618 -0.3407 -0.5307 -0.3403
   49MPD2    C5  751   2.351   3.183  10.581 -1.1099 -0.1094 -0.3518
   49MPD2     H  752   2.305   2.897  10.336 -0.0226 -0.3039  0.0424
   49MPD2    H1  753   2.237   3.079  10.717  0.2542  0.9601 -0.2000
   49MPD2    H2  754   2.480   3.274  10.436  0.5352 -0.0216  0.5063
   49MPD2    H3  755   2.366   3.266  10.650 -1.7394 -1.7961  1.7913
   49MPD2     N  756   2.164   2.870  10.554 -0.2724 -0.5457 -0.0005
   49MPD2    H5  757   2.134   2.857  10.650 -0.2335  1.4957  0.2709
   49MPD2    N1  758   2.472   3.063  10.253  0.5364 -0.0695 -0.1738
   49MPD2    H7  759   2.426   3.006  10.183 -0.6740  2.6412 -1.5872
   50TCq2    C1  760   2.558   3.155  10.198 -0.1317  0.2531 -0.2083
   50TCq2    O2  761   2.627   3.238  10.256 -0.2011  0.1281  0.8804
   50TCq2    C2  762   2.568   3.125  10.054  0.1581  0.9511 -0.0140
   50TCq2    C3  763   2.490   3.037   9.986 -0.0609 -0.4641 -0.3966
   50TCq2    C4  764   2.494   3.044   9.845  0.8869  0.3112  0.5504
   50TCq2    C5  765   2.586   3.128   9.778 -0.3235 -0.1767  0.3548
   50TCq2    C6  766   2.662   3.204   9.854 -0.1929 -0.6544  0.2071
   50TCq2    C7  767   2.657   3.208   9.989 -0.0883  0.1874 -0.1997
   50TCq2    C8  768   2.751   3.302   9.794 -0.1934  0.0134  0.4218
   50TCq2    O4  769   2.820   3.374   9.867  0.6890  0.3032  0.0518
   50TCq2    C9  770   2.424   2.950   9.763 -0.0579  0.9709  0.3953
   50TCq2    O5  771   2.443   2.955   9.638  0.0259  0.6745 -0.4982
   50TCq2    O6  772   2.332   2.887   9.823  0.5578 -0.2638 -0.2900
   50TCq2    H2  773   2.418   2.970  10.031 -0.1418 -0.9937 -1.3210
   50TCq2    H3  774   2.590   3.128   9.670  2.3183 -2.0385  0.4562
   50TCq2    H4  775   2.718   3.273  10.050 -0.9908  0.8933 -0.0490
   51MPD2     C  776   2.770   1.526   1.600  0.6150 -0.3879  0.3653
   51MPD2    C1  777   2.795   1.450   1.486 -0.5977  0.6307 -0.1945
   51MPD2    C2  778   2.707   1.472   1.380  0.1576  0.2752  0.4759
   51MPD2    C3  779   2.603   1.567   1.384  0.0280 -0.0808  0.6414
   51MPD2    C4  780   2.593   1.651   1.487  0.2660  0.3407  0.2739
   51MPD2    C5  781   2.685   1.635   1.587  0.0157  1.3541  0.6070
   51MPD2     H  782   2.724   1.412   1.292  1.9833  1.6089 -0.0901
   51MPD2    H1  783   2.519   1.730   1.486  0.7924  0.8237 -2.1078
   51MPD2    H2  784   2.838   1.532   1.684 -0.0762 -1.6521  1.0123
   51MPD2    H3  785   2.691   1.715   1.660 -0.4785  1.6767  0.2935
   51MPD2     N  786   2.518   1.586   1.275 -0.2609  0.0292 -0.1027
   51MPD2    H5  787   2.457   1.667   1.284  0.0465  0.3934 -1.3145
   51MPD2    N1  788   2.889   1.347   1.485 -0.2625 -0.2312  0.4399
   51MPD2    H7  789   2.903   1.293   1.400  0.8561  0.8010 -0.0267
   52TCq2    C1  790   2.494   1.500   1.171 -0.1136  0.2928 -0.3722
   52TCq2    O2  791   2.515   1.380   1.175 -0.2129  0.0323  0.5254
   52TCq2    C2  792   2.420   1.559   1.064 -0.0472  0.1540  0.0880
   52TCq2    C3  793   2.319   1.492   1.011  0.2959  0.0860  0.5414
   52TCq2    C4  794   2.226   1.559   0.929  0.1153 -0.0813 -0.0279
   52TCq2    C5  795   2.242   1.695   0.916 -0.6418 -0.0064  0.8013
   52TCq2    C6  796   2.356   1.753   0.958  0.1762 -0.0844 -0.2362
   52TCq2    C7  797   2.442   1.684   1.037  0.2622  0.7549 -0.0949
   52TCq2    C8  798   2.362   1.895   0.952 -0.3101  0.1596 -0.2430
   52TCq2    O4  799   2.410   1.956   1.045 -0.5973  0.1043 -0.4800
   52TCq2    C9  800   2.105   1.495   0.897 -0.5666 -0.0215  0.2083
   52TCq2    O5  801   2.106   1.370   0.905  0.6790 -0.7270  0.2310
   52TCq2    O6  802   2.011   1.569   0.860  0.5097 -0.0127  0.0768
   52TCq2    H2  803   2.289   1.397   1.054 -1.2311 -0.7169 -2.2410
   52TCq2    H3  804   2.155   1.745   0.876 -0.3050  0.0900  0.1887
   52TCq2    H4  805   2.520   1.745   1.082 -1.7334  4.0317 -1.1189
   53TMC2    C1  806   3.040   4.541  11.463 -0.3510 -0.5228  0.2322
   53TMC2    C2  807   3.175   4.551  11.459  0.3537  0.5210  0.1906
   53TMC2    C3  808   3.245   4.548  11.579 -0.5852 -0.2587 -0.2367
   53TMC2    C4  809   2.966   4.525  11.580  0.0732  0.2381  0.1805
   53TMC2    C5  810   3.040   4.519  11.694  0.2761 -1.1031  0.1768
   53TMC2    C6  811   3.180   4.531  11.695  1.1678 -0.3826 -1.5486
   53TMC2     C  812   2.979   4.587  11.342  0.4872 -0.2081 -0.5901
   53TMC2     O  813   3.052   4.629  11.250  0.2826 -0.3750 -0.4610
   53TMC2     H  814   3.239   4.551  11.371 -0.4682 -0.9478 -0.4033
   53TMC2    H1  815   2.861   4.497  11.579  0.3191 -0.6616 -0.2906
   53TMC2    H2  816   3.237   4.531  11.787 -1.9801 -1.2687  0.4186
   53TMC2    C7  817   2.967   4.513  11.821  0.2539 -0.0925 -0.0454
   53TMC2    C8  818   3.384   4.536  11.572 -0.3768  0.0019 -0.5722
   53TMC2    O1  819   2.844   4.530  11.815  0.0136 -0.6938  0.1443
   53TMC2    O2  820   3.452   4.598  11.490  0.0535 -0.1255  0.4960
   53TMC2    O5  821   3.425   4.432  11.650  0.0328 -0.4916 -0.2403
   53TMC2    H5  822   3.358   4.371  11.688 -1.3484 -0.1419 -2.1092
   54MPD2     C  823   2.792   0.006  11.154  0.0442  0.2252 -0.7351
   54MPD2    C1  824   2.755   4.631  11.250 -0.7521  0.5924  0.8218
   54MPD2    C2  825   2.634   4.575  11.249 -0.0182 -0.2863 -0.1710
   54MPD2    C3  826   2.533   4.611  11.167 -0.3696 -0.6187  0.8285
   54MPD2    C4  827   2.575   4.696  11.065 -0.0647  0.3762 -0.1558
   54MPD2    C5  828   2.698   0.037  11.064  0.3842  0.2589 -0.6625
   54MPD2     H  829   2.613   4.501  11.325  2.3391 -1.0883 -0.2856
   54MPD2    H1  830   2.501   0.007  10.992 -1.1087  0.7313  1.0527
   54MPD2    H2  831   2.884   0.064  11.158  1.6897 -2.5119  1.4521
   54MPD2    H3  832   2.728   0.109  10.989  0.2120  0.7897 -0.2216
   54MPD2     N  833   2.404   4.547  11.165  0.3518 -0.4075  0.0506
   54MPD2    H5  834   2.342   4.577  11.090 -1.2002 -1.1822  1.0175
   54MPD2    N1  835   2.841   4.573  11.348 -0.0397  0.3011 -1.2161
   54MPD2    H7  836   2.793   4.521  11.420  2.1180  0.6734  0.4459
   55MPD2     C  837   3.694   2.534  17.471  0.0894  0.2881  0.4651
   55MPD2    C1  838   3.587   2.472  17.538  0.3283 -0.8445  0.3978
   55MPD2    C2  839   3.517   2.552  17.628 -0.6531 -0.3908  0.2450
   55MPD2    C3  840   3.548   2.691  17.634  0.4003 -0.5496 -0.4669
   55MPD2    C4  841   3.643   2.745  17.557  0.6604  0.7715 -0.5273
   55MPD2    C5  842   3.727   2.668  17.476  0.3652 -0.3556  0.1638
   55MPD2     H  843   3.448   2.511   0.020  0.0502 -1.1549  0.4861
   55MPD2    H1  844   3.660   2.852  17.559  2.3436  0.5097 -1.0015
   55MPD2    H2  845   3.757   2.477  17.403 -0.8529  0.2957 -0.4246
   55MPD2    H3  846   3.806   2.726  17.429  0.0004 -1.4630 -1.8071
   55MPD2     N  847   3.472   2.768   0.046 -0.8432  0.4302  0.1620
   55MPD2    H5  848   3.387   2.734   0.090 -0.8681 -0.5175 -0.6161
   55MPD2    N1  849   3.577   2.325  17.537 -0.2448 -0.5544 -0.0852
   55MPD2    H7  850   3.647   2.267  17.493 -0.7710 -0.9552 -0.4023
   56TCq2    C1  851   3.472   2.258  17.605 -0.6173  0.2428  0.5412
   56TCq2    O2  852   3.371   2.300  17.662  0.2171  0.3919 -0.8240
   56TCq2    C2  853   3.517   2.117  17.629  1.4655 -0.6728  0.0616
   56TCq2    C3  854   3.612   2.056  17.551  0.3133  0.5774  0.2228
   56TCq2    C4  855   3.665   1.938  17.596 -0.9154 -0.2575  0.1809
   56TCq2    C5  856   3.623   1.878   0.032  0.7783  0.2488 -0.3563
   56TCq2    C6  857   3.527   1.944   0.101  0.3622 -0.3295 -0.1010
   56TCq2    C7  858   3.470   2.064   0.064  0.0179  0.0397  0.2366
   56TCq2    C8  859   3.500   1.889   0.234 -0.0278 -0.2843 -1.2953
   56TCq2    O4  860   3.542   1.776   0.262 -0.2379  0.2447 -0.4764
   56TCq2    C9  861   3.780   1.878  17.536 -0.3254 -0.2461 -0.2786
   56TCq2    O5  862   3.857   1.943  17.463 -0.4153  0.5925 -0.1213
   56TCq2    O6  863   3.808   1.759  17.575  0.1834 -0.0414  0.2192
   56TCq2    H2  864   3.648   2.101  17.459  1.5543  1.0135  0.9233
   56TCq2    H3  865   3.661   1.780   0.058 -0.4030 -0.0498  0.2362
   56TCq2    H4  866   3.405   2.130   0.121  1.3521  0.4655  1.2882
   57TMC2    C1  867   3.108   3.754  14.268  0.2999 -1.3241  0.1681
   57TMC2    C2  868   3.158   3.812  14.381 -0.3763  0.0645 -0.0640
   57TMC2    C3  869   3.260   3.749  14.443 -0.3239  0.4617 -0.1473
   57TMC2    C4  870   3.156   3.639  14.215  0.3208 -0.2098  0.5624
   57TMC2    C5  871   3.265   3.581  14.283 -0.3466  0.2826  0.0074
   57TMC2    C6  872   3.299   3.623  14.407 -0.1502  0.4478  0.0744
   57TMC2     C  873   2.986   3.811  14.222  0.3995  0.0083 -0.2159
   57TMC2     O  874   2.939   3.901  14.285 -0.2310  0.0999  0.8525
   57TMC2     H  875   3.126   3.913  14.403 -0.2330 -0.0129  0.5039
   57TMC2    H1  876   3.111   3.601  14.124  0.7963  1.2342 -0.2674
   57TMC2    H2  877   3.370   3.570  14.468 -3.1575 -0.7752  2.4932
   57TMC2    C7  878   3.338   3.470  14.221  0.4922 -0.5136 -0.2457
   57TMC2    C8  879   3.273   3.771  14.580 -0.2622  0.5031 -0.0010
   57TMC2    O1  880   3.440   3.431  14.278 -0.1621  0.2295 -0.0724
   57TMC2    O2  881   3.287   3.683  14.661 -0.2786  0.1777 -0.2479
   57TMC2    O5  882   3.226   3.894  14.610 -0.0704 -0.1215  0.3205
   57TMC2    H5  883   3.246   3.957  14.538 -1.4658  0.2611  0.2698
   58MPD2     C  884   2.569   3.771  13.934  0.5418  0.4483  0.0461
   58MPD2    C1  885   2.583   3.809  14.069  0.6743  0.1909 -0.1052
   58MPD2    C2  886   2.713   3.821  14.122 -0.1666 -0.0672  0.6248
   58MPD2    C3  887   2.816   3.772  14.051 -0.0170  0.7448 -0.0440
   58MPD2    C4  888   2.798   3.719  13.929 -0.3491 -0.0696 -0.6917
   58MPD2    C5  889   2.677   3.720  13.862  0.0883  0.3513  0.4810
   58MPD2     H  890   2.716   3.842  14.228 -0.9121  2.1807  0.1872
   58MPD2    H1  891   2.878   3.667  13.877 -0.6461 -1.4832  0.2476
   58MPD2    H2  892   2.475   3.779  13.881 -0.9495  1.6035  2.8798
   58MPD2    H3  893   2.673   3.689  13.759 -0.9775 -0.1788  0.6937
   58MPD2     N  894   2.941   3.753  14.105  0.0583  0.2326 -0.0608
   58MPD2    H5  895   3.003   3.689  14.056  0.5638  0.5302  0.1831
   58MPD2    N1  896   2.469   3.855  14.142 -0.0720  0.0455  1.3730
   58MPD2    H7  897   2.483   3.912  14.226  0.6648  0.7595  0.7729
   59MPD2     C  898   0.475   3.405  13.110  0.5149 -0.0287 -0.5779
   59MPD2    C1  899   0.539   3.500  13.032 -0.8122  0.0177  0.5021
   59MPD2    C2  900   0.642   3.564  13.091 -1.0066  0.5606 -0.0055
   59MPD2    C3  901   0.657   3.564  13.229 -0.0130  0.5488 -0.1902
   59MPD2    C4  902   0.585   3.477  13.311 -0.9173  0.8500 -0.5495
   59MPD2    C5  903   0.491   3.405  13.245  0.3677  0.7041  0.1654
   59MPD2     H  904   0.712   3.619  13.029  1.4667 -1.3496  1.0770
   59MPD2    H1  905   0.604   3.472  13.418 -1.4997  0.6504 -0.4544
   59MPD2    H2  906   0.404   3.330  13.076  0.8316  0.8892 -3.2494
   59MPD2    H3  907   0.427   3.342  13.304 -0.4337 -0.3855 -1.8620
   59MPD2     N  908   0.748   3.650  13.297 -0.0591 -0.1671 -0.2274
   59MPD2    H5  909   0.779   3.628  13.391 -0.6580  0.8928  0.2186
   59MPD2    N1  910   0.529   3.489  12.890 -0.5348 -0.1392 -0.7316
   59MPD2    H7  911   0.601   3.522  12.827  0.2719 -1.1977 -0.3569
   60TCq2    C1  912   0.409   3.453  12.835  0.6618 -0.3090 -0.3115
   60TCq2    O2  913   0.302   3.445  12.894 -0.2902 -0.3299  0.2791
   60TCq2    C2  914   0.407   3.439  12.687  0.0485 -0.3564 -0.6064
   60TCq2    C3  915   0.284   3.430  12.623 -0.6682  0.0528 -0.3758
   60TCq2    C4  916   0.277   3.441  12.488 -0.0895 -0.6803 -0.5144
   60TCq2    C5  917   0.383   3.476  12.409  0.3206 -0.1281  0.4277
   60TCq2    C6  918   0.503   3.498  12.475  0.1595  0.4385  0.2910
   60TCq2    C7  919   0.519   3.478  12.608 -0.3441 -0.6372  1.2368
   60TCq2    C8  920   0.604   3.579  12.417 -0.7758 -0.0976 -0.5236
   60TCq2    O4  921   0.718   3.529  12.411 -0.1773 -0.2707 -0.3392
   60TCq2    C9  922   0.149   3.416  12.422  1.1052  0.4023 -0.5758
   60TCq2    O5  923   0.125   3.460  12.307  0.2926 -0.2696 -0.0048
   60TCq2    O6  924   0.069   3.347  12.487 -0.3442  0.1252  0.1849
   60TCq2    H2  925   0.198   3.389  12.674 -0.8350  0.7166 -0.1330
   60TCq2    H3  926   0.365   3.501  12.305  1.6906 -1.1985 -0.0697
   60TCq2    H4  927   0.612   3.508  12.656 -0.0766  1.3363 -0.5217
   61MPD2     C  928   4.247   0.401  14.594 -0.3256  0.4743 -0.2448
   61MPD2    C1  929   4.313   0.499  14.671 -0.0231 -1.0624  0.0216
   61MPD2    C2  930   4.294   0.633  14.643 -0.7269 -0.0663  0.3131
   61MPD2    C3  931   4.203   0.670  14.545 -0.4286  0.0311 -0.0674
   61MPD2    C4  932   4.125   0.575  14.485  0.0436 -0.0150 -0.2389
   61MPD2    C5  933   4.147   0.446  14.511 -0.5326  0.1544 -0.6915
   61MPD2     H  934   4.351   0.706  14.700  1.1039 -1.3769  0.1613
   61MPD2    H1  935   4.047   0.602  14.414 -0.6686  1.3601  1.0644
   61MPD2    H2  936   4.257   0.293  14.597 -0.8408  0.4053 -0.9216
   61MPD2    H3  937   4.091   0.383  14.443 -0.7277 -0.5109  0.0930
   61MPD2     N  938   4.174   0.804  14.528  0.4833  0.7674 -0.3277
   61MPD2    H5  939   4.081   0.828  14.494 -1.1850 -1.1275  2.9195
   61MPD2    N1  940   4.396   0.467  14.779 -0.1290 -0.5677  0.1453
   61MPD2    H7  941   4.434   0.547  14.828 -1.0388 -0.0971  0.0851
   62TCq2    C1  942   4.421   0.339  14.826 -0.0385  0.6370 -0.0613
   62TCq2    O2  943   4.396   0.228  14.783 -0.4835 -0.1697 -0.0014
   62TCq2    C2  944   4.465   0.339  14.960  0.8864 -0.3070  0.3357
   62TCq2    C3  945   4.547   0.240  15.005  0.4933 -0.7004  0.1781
   62TCq2    C4  946   4.570   0.227  15.141  0.3781 -0.4988  0.0584
   62TCq2    C5  947   4.520   0.330  15.220 -0.0217 -0.0284  0.3703
   62TCq2    C6  948   4.447   0.434  15.173 -0.7891 -0.4575  0.4867
   62TCq2    C7  949   4.426   0.439  15.040  0.4828 -0.5052  0.3782
   62TCq2    C8  950   4.403   0.546  15.256 -0.1484 -0.8274  0.4669
   62TCq2    O4  951   4.341   0.642  15.210 -0.0201 -0.6762  0.0476
   62TCq2    C9  952   4.645   0.121  15.197 -0.5410  0.5543 -0.1919
   62TCq2    O5  953   4.692   0.034  15.120  0.3049 -0.3005  0.4844
   62TCq2    O6  954   4.680   0.133  15.319  0.3977 -0.1381  0.5922
   62TCq2    H2  955   4.573   0.161  14.936  0.1173 -2.1006  1.6369
   62TCq2    H3  956   4.538   0.313  15.326  0.3279 -1.1974  0.1233
   62TCq2    H4  957   4.368   0.524  15.007  1.6889  0.4187  0.6204
   63TMC2    C1  958   3.780   0.395   9.613 -0.5963  0.1171 -0.0746
   63TMC2    C2  959   3.665   0.360   9.547 -0.4426 -0.0416  0.2759
   63TMC2    C3  960   3.629   0.439   9.443  0.4592 -0.4792 -0.3990
   63TMC2    C4  961   3.862   0.497   9.567  1.0230  0.4321  0.1371
   63TMC2    C5  962   3.808   0.586   9.484  0.7958  0.3096  0.9065
   63TMC2    C6  963   3.695   0.552   9.412  0.0368  0.0056  0.0443
   63TMC2     C  964   3.774   0.372   9.756 -0.7187 -0.0242  0.1441
   63TMC2     O  965   3.723   0.269   9.798  0.3922 -0.1335  0.0968
   63TMC2     H  966   3.605   0.274   9.576  0.3020 -0.2833  1.0891
   63TMC2    H1  967   3.960   0.528   9.602  1.6506  0.5830 -1.7614
   63TMC2    H2  968   3.660   0.624   9.339 -1.1891 -1.7252 -1.0485
   63TMC2    C7  969   3.793   0.715   9.547  0.3373  0.3518  0.8599
   63TMC2    C8  970   3.541   0.386   9.341 -0.0057  0.5075 -0.7549
   63TMC2    O1  971   3.831   0.726   9.664 -0.1592 -0.3207 -0.3353
   63TMC2    O2  972   3.435   0.328   9.369 -0.0817  0.0592 -0.2689
   63TMC2    O5  973   3.592   0.408   9.215 -0.5312 -0.1618  0.3852
   63TMC2    H5  974   3.669   0.468   9.221  0.4941 -1.4402  0.0685
   64MPD2     C  975   3.937   0.523  10.227 -0.6851 -0.2340  0.6206
   64MPD2    C1  976   3.895   0.400  10.184 -0.4626 -0.4254  0.2966
   64MPD2    C2  977   3.853   0.383  10.053  0.2154 -0.1293  0.1646
   64MPD2    C3  978   3.855   0.490   9.964  0.1039  0.4491 -0.2068
   64MPD2    C4  979   3.906   0.615  10.009  0.0444 -0.4573  0.8776
   64MPD2    C5  980   3.944   0.628  10.137  0.6802 -0.6050  0.3585
   64MPD2     H  981   3.826   0.290  10.006 -0.2086  0.7923 -1.4146
   64MPD2    H1  982   3.906   0.701   9.943 -0.0575 -1.6172 -0.6416
   64MPD2    H2  983   3.959   0.549  10.329  1.8346  2.0411 -0.5190
   64MPD2    H3  984   3.990   0.715  10.182  1.0068 -1.1634  1.1238
   64MPD2     N  985   3.815   0.482   9.825 -0.1259  0.3873  0.1742
   64MPD2    H5  986   3.841   0.566   9.773  0.8393 -0.2940 -0.4467
   64MPD2    N1  987   3.897   0.289  10.270  0.3439 -0.7382 -0.0840
   64MPD2    H7  988   3.960   0.301  10.348  0.9010  0.8301 -0.7612
   65MPD2     C  989   0.431   4.473  15.938  0.0164 -0.8202  0.9412
   65MPD2    C1  990   0.481   4.434  15.816  0.9180  0.8249 -0.1763
   65MPD2    C2  991   0.461   4.310  15.763 -1.4403  0.6235 -1.3013
   65MPD2    C3  992   0.379   4.223  15.835 -0.1644 -0.2668  0.0553
   65MPD2    C4  993   0.323   4.257  15.952 -0.2535  0.2497 -0.1306
   65MPD2    C5  994   0.352   4.381  16.005  0.5567  0.6839  0.2306
   65MPD2     H  995   0.504   4.287  15.666  0.0298 -1.5674 -0.1116
   65MPD2    H1  996   0.248   4.198  16.003 -0.1521 -1.0061 -1.4265
   65MPD2    H2  997   0.440   4.573  15.980  0.8070 -0.3128 -0.4431
   65MPD2    H3  998   0.329   4.396  16.110 -0.9955  0.8627 -0.1299
   65MPD2     N  999   0.324   4.104  15.784  0.5663 -0.7465 -0.8282
   65MPD2    H5 1000   0.251   4.062  15.840  0.9998 -1.1871 -0.5834
   65MPD2    N1 1001   0.560   4.519  15.732  0.5494  1.1249 -0.2781
   65MPD2    H7 1002   0.606   4.479  15.651 -0.1268 -0.8713  0.3179
   66TCq2    C1 1003   0.570   4.652  15.747  0.5222  0.1907 -0.1987
   66TCq2    O2 1004   0.506   4.719  15.825  0.0636 -0.2846  0.1786
   66TCq2    C2 1005   0.650   0.001  15.641 -0.1830  0.0095  1.0135
   66TCq2    C3 1006   0.647   4.661  15.519  0.8579 -0.5846 -0.0775
   66TCq2    C4 1007   0.657   0.024  15.411  0.3563 -0.2885  0.0075
   66TCq2    C5 1008   0.644   0.160  15.420  0.4243  0.4155 -0.2509
   66TCq2    C6 1009   0.626   0.211  15.545  0.6039 -0.9263 -0.0786
   66TCq2    C7 1010   0.629   0.132  15.653  0.0654 -0.1906 -0.1152
   66TCq2    C8 1011   0.530   0.315  15.559  0.2757 -0.3548 -0.4930
   66TCq2    O4 1012   0.480   0.351  15.452  0.1576 -0.1576  0.7664
   66TCq2    C9 1013   0.650   4.690  15.276  0.5545 -0.3999  0.6671
   66TCq2    O5 1014   0.637   4.566  15.266  0.0526  0.2274  0.4620
   66TCq2    O6 1015   0.625   0.054  15.182 -0.0738 -0.0055  0.3388
   66TCq2    H2 1016   0.659   4.555  15.503  0.7153 -0.3861 -1.5013
   66TCq2    H3 1017   0.648   0.215  15.327  1.7236  0.4667 -0.1592
   66TCq2    H4 1018   0.636   0.167  15.755 -2.2619  1.9872 -0.6776
   67MPD2     C 1019   0.114   3.342  14.475  0.1292  0.1820 -0.0780
   67MPD2    C1 1020   0.044   3.448  14.528 -0.0153  0.1318  0.0494
   67MPD2    C2 1021   4.643   3.489  14.470  1.0218  0.1196 -0.1726
   67MPD2    C3 1022   4.611   3.436  14.346  0.0172  0.5864 -0.2888
   67MPD2    C4 1023   4.693   3.342  14.284 -0.5825  0.1775  0.6934
   67MPD2    C5 1024   0.084   3.294  14.347  0.1622  0.3165 -0.2798
   67MPD2     H 1025   4.583   3.563  14.521  0.0965  0.0337 -1.1198
   67MPD2    H1 1026   4.665   3.302  14.188 -0.9876 -0.2660  0.9945
   67MPD2    H2 1027   0.190   3.291  14.534 -0.4348 -1.9140 -1.1762
   67MPD2    H3 1028   0.139   3.215  14.297  1.0889  0.2167  0.8970
   67MPD2     N 1029   4.495   3.471  14.270  0.1510 -0.2770  0.0298
   67MPD2    H5 1030   4.477   3.428  14.180 -1.8939 -1.2246  0.8945
   67MPD2    N1 1031   0.080   3.528  14.641  0.2487  0.4181  1.0127
   67MPD2    H7 1032   0.019   3.605  14.665 -1.2538  0.0132 -1.5635
   68TCq2    C1 1033   0.198   3.519  14.705  0.4559 -0.5908  0.0834
   68TCq2    O2 1034   0.289   3.444  14.678  0.5290 -0.6665  0.5607
   68TCq2    C2 1035   0.220   3.631  14.799 -0.0057  0.1945  0.2324
   68TCq2    C3 1036   0.111   3.703  14.839 -0.0975 -0.5309  0.0080
   68TCq2    C4 1037   0.131   3.797  14.938  0.5486 -0.3486  0.5297
   68TCq2    C5 1038   0.256   3.822  14.987  0.0662 -0.1078 -0.5427
   68TCq2    C6 1039   0.357   3.739  14.944  0.4377  0.4883  0.2885
   68TCq2    C7 1040   0.346   3.645  14.848 -0.6123  0.6043  1.1153
   68TCq2    C8 1041   0.492   3.794  14.976 -0.4285  0.3949 -0.0082
   68TCq2    O4 1042   0.572   3.817  14.883  0.0541 -0.2099  0.3099
   68TCq2    C9 1043   0.022   3.873  14.984  0.9175  0.6986 -0.2511
   68TCq2    O5 1044   0.049   3.972  15.058 -0.0188 -0.1629 -0.4251
   68TCq2    O6 1045   4.631   3.862  14.927  0.1949 -0.6167 -0.0018
   68TCq2    H2 1046   0.008   3.701  14.804 -0.2933 -2.9393  0.7634
   68TCq2    H3 1047   0.264   3.897  15.065  0.8159 -0.0960 -0.6228
   68TCq2    H4 1048   0.428   3.591  14.803 -2.6221 -0.7200 -0.9417
   69TMC2    C1 1049   2.991   0.782  12.487  0.4364 -0.5483 -0.0781
   69TMC2    C2 1050   2.864   0.812  12.517 -0.4955 -0.5492 -0.0518
   69TMC2    C3 1051   2.809   0.910  12.436  0.5710 -0.1172  0.2384
   69TMC2    C4 1052   3.074   0.845  12.396 -0.6781  0.1409 -0.7445
   69TMC2    C5 1053   3.012   0.932  12.312 -0.5146 -0.3450 -0.7231
   69TMC2    C6 1054   2.879   0.972  12.335  0.1275 -0.4035  0.6808
   69TMC2     C 1055   3.038   0.665  12.559  0.0253 -0.0210  0.3495
   69TMC2     O 1056   2.958   0.588  12.607 -0.1392 -0.3407 -0.5660
   69TMC2     H 1057   2.818   0.760  12.600 -0.6688  0.5706  0.5558
   69TMC2    H1 1058   3.172   0.804  12.377 -1.2276 -1.8359  0.7009
   69TMC2    H2 1059   2.831   1.055  12.283 -0.0369 -1.4131 -0.7834
   69TMC2    C7 1060   3.069   0.952  12.181 -0.2189  0.0942  0.3477
   69TMC2    C8 1061   2.672   0.953  12.449  0.2316 -0.3149  0.3927
   69TMC2    O1 1062   3.177   0.892  12.178  0.3519 -0.1055 -0.5061
   69TMC2    O2 1063   2.618   1.035  12.373 -0.0929 -0.1530 -0.2847
   69TMC2    O5 1064   2.626   0.829  12.467  0.1405  0.0225  0.0966
   69TMC2    H5 1065   2.632   0.811  12.563 -0.3051 -0.6795 -0.0059
   70MPD2     C 1066   3.359   0.588  12.725  0.3040  0.7565  0.0242
   70MPD2    C1 1067   3.243   0.563  12.656  0.1088 -0.1221  0.1869
   70MPD2    C2 1068   3.197   0.430  12.655  0.5039  0.0814  0.6771
   70MPD2    C3 1069   3.266   0.320  12.712 -0.3169  0.2202 -0.0105
   70MPD2    C4 1070   3.377   0.355  12.779  0.2731 -0.3327  0.4623
   70MPD2    C5 1071   3.424   0.483  12.786  0.0755  0.2019 -0.5335
   70MPD2     H 1072   3.106   0.407  12.601  0.0621 -1.0718  1.8972
   70MPD2    H1 1073   3.433   0.278  12.832  0.5465  0.9516  2.0222
   70MPD2    H2 1074   3.414   0.681  12.717  1.3093  0.1637  0.0639
   70MPD2    H3 1075   3.511   0.497  12.849 -0.3091 -0.4286  0.1343
   70MPD2     N 1076   3.220   0.185  12.714 -0.5352  0.2771  0.4173
   70MPD2    H5 1077   3.279   0.125  12.771  3.1326  2.8649 -0.5729
   70MPD2    N1 1078   3.175   0.663  12.582 -0.6044 -0.0633 -0.9921
   70MPD2    H7 1079   3.229   0.748  12.566  1.1208 -1.2653 -1.5919
   71TMC2    C1 1080   4.232   4.466   0.233 -0.0567  0.2931  0.8172
   71TMC2    C2 1081   4.209   4.386   0.124  0.7313  0.9532  0.6227
   71TMC2    C3 1082   4.143   4.270   0.150  0.1375  0.5686 -0.4258
   71TMC2    C4 1083   4.204   4.424   0.361  0.2973 -0.2087 -0.1378
   71TMC2    C5 1084   4.133   4.306   0.376  0.6021 -0.3629 -0.4703
   71TMC2    C6 1085   4.111   4.226   0.272 -0.4623 -0.3616  0.7099
   71TMC2     C 1086   4.296   4.591   0.219 -0.2216  0.2925  1.1285
   71TMC2     O 1087   4.356   4.629   0.321  0.0322  0.0139  0.6063
   71TMC2     H 1088   4.229   4.421   0.024  0.6560 -3.1591 -0.8522
   71TMC2    H1 1089   4.229   4.491   0.443 -0.7869  0.1538 -0.1136
   71TMC2    H2 1090   4.058   4.134   0.292 -1.6605  0.2211  0.1682
   71TMC2    C7 1091   4.085   4.269   0.506  0.3505 -0.7018 -0.8042
   71TMC2    C8 1092   4.092   4.191   0.038  0.1974  0.4820  0.4354
   71TMC2    O1 1093   4.057   4.154   0.529  0.3566 -0.1874  0.1558
   71TMC2    O2 1094   4.151   4.171  17.616 -0.3165  0.3122  0.0618
   71TMC2    O5 1095   3.962   4.203   0.054 -0.5581 -0.3367  0.0082
   71TMC2    H5 1096   3.924   4.222   0.142  0.7172  0.2490  0.4297
   72MPD2     C 1097   4.517   0.267  17.658  0.3922 -0.4679  0.1885
   72MPD2    C1 1098   4.500   0.235   0.109 -0.1114  0.8657  0.7663
   72MPD2    C2 1099   4.428   0.129   0.147 -0.1511 -0.1618 -1.0030
   72MPD2    C3 1100   4.367   0.043   0.053 -0.5980 -0.3970 -0.5105
   72MPD2    C4 1101   4.378   0.080  17.603 -0.1445  0.5416  0.2463
   72MPD2    C5 1102   4.457   0.187  17.567 -0.2256  0.1101  1.2490
   72MPD2     H 1103   4.436   0.104   0.253 -0.3725  1.1446 -0.6776
   72MPD2    H1 1104   4.325   0.015  17.534 -0.0273  0.7328 -0.0251
   72MPD2    H2 1105   4.565   0.358  17.625 -0.5606 -0.0121  0.0537
   72MPD2    H3 1106   4.464   0.202  17.460  0.1150  0.0812  1.2686
   72MPD2     N 1107   4.291   4.646   0.092  0.6117 -0.6948 -0.6386
   72MPD2    H5 1108   4.225   4.603   0.028 -2.6027  1.0231  1.5090
   72MPD2    N1 1109   4.566   0.312   0.208 -0.2004  0.2445  0.0311
   72MPD2    H7 1110   4.567   0.275   0.302 -1.9815 -0.0762 -0.0884
   73TMC2    C1 1111   4.330   2.250  14.105  0.3062  0.2200 -0.3520
   73TMC2    C2 1112   4.215   2.319  14.110  0.1758  0.2169  0.1486
   73TMC2    C3 1113   4.228   2.440  14.170  0.2131 -0.7221  0.0432
   73TMC2    C4 1114   4.444   2.288  14.160  0.1728 -0.0747 -0.0717
   73TMC2    C5 1115   4.452   2.406  14.232 -0.3033  0.2706  0.1692
   73TMC2    C6 1116   4.338   2.485  14.235  0.4792  0.3340 -0.0820
   73TMC2     C 1117   4.366   2.201  13.975 -0.2882 -0.4493  0.9343
   73TMC2     O 1118   4.479   2.235  13.946 -0.1857  0.1039 -0.0980
   73TMC2     H 1119   4.137   2.283  14.043  0.6230  1.0921 -0.8395
   73TMC2    H1 1120   4.529   2.220  14.152  1.6659  1.7871 -0.1061
   73TMC2    H2 1121   4.344   2.585  14.275  0.1625  0.3034  0.0393
   73TMC2    C7 1122   4.571   2.484  14.196 -0.0819  0.2158  0.1303
   73TMC2    C8 1123   4.127   2.539  14.147  0.3990 -0.0921  0.1460
   73TMC2    O1 1124   4.602   2.582  14.265 -0.0702  0.1844 -0.4258
   73TMC2    O2 1125   4.149   2.662  14.137 -0.0222  0.5076  0.1993
   73TMC2    O5 1126   4.005   2.476  14.181 -0.3958  0.3430  0.1673
   73TMC2    H5 1127   4.020   2.383  14.206 -1.6303  0.3075  0.7685
   74MPD2     C 1128   4.304   1.956  13.526  0.1275 -0.4975  0.3845
   74MPD2    C1 1129   4.404   2.036  13.578 -0.5153 -0.5468 -0.4891
   74MPD2    C2 1130   4.392   2.088  13.705  0.4097  0.7218  0.2615
   74MPD2    C3 1131   4.286   2.064  13.782  0.0486 -0.5699  0.0149
   74MPD2    C4 1132   4.187   1.986  13.730 -0.4976  0.7538 -0.4325
   74MPD2    C5 1133   4.197   1.925  13.608 -0.3614 -0.0009 -0.3045
   74MPD2     H 1134   4.472   2.151  13.742 -0.6568  1.2917  1.6105
   74MPD2    H1 1135   4.097   1.974  13.789  0.2741 -0.7278  0.4653
   74MPD2    H2 1136   4.312   1.929  13.421 -2.9742 -1.4125  0.3812
   74MPD2    H3 1137   4.112   1.872  13.567 -1.9327  0.4501  2.3661
   74MPD2     N 1138   4.277   2.125  13.909 -0.2348 -0.2993 -0.3010
   74MPD2    H5 1139   4.188   2.110  13.955 -0.2597  1.1199  0.0981
   74MPD2    N1 1140   4.518   2.060  13.500 -0.3642 -0.4536  0.1679
   74MPD2    H7 1141   4.531   2.015  13.409 -1.2119 -1.5455  0.5846
   75TCq2    C1 1142   4.391   3.545  14.319  0.0998  0.0038 -0.2527
   75TCq2    O2 1143   4.379   3.593  14.431  0.0914 -0.5798 -0.1677
   75TCq2    C2 1144   4.289   3.568  14.216  0.1124  0.1413 -0.1502
   75TCq2    C3 1145   4.162   3.602  14.261  0.1339  0.5193 -0.4132
   75TCq2    C4 1146   4.057   3.599  14.181  0.8321 -0.1300 -0.2365
   75TCq2    C5 1147   4.076   3.580  14.047 -0.4749 -0.1252 -0.0280
   75TCq2    C6 1148   4.204   3.559  13.997 -0.0286 -0.1297 -1.1261
   75TCq2    C7 1149   4.309   3.548  14.080 -0.5712  0.1893 -0.0669
   75TCq2    C8 1150   4.221   3.586  13.849  0.5065  0.7298 -0.7856
   75TCq2    O4 1151   4.125   3.615  13.779 -0.3669  0.5812  0.7045
   75TCq2    C9 1152   3.930   3.639  14.233  0.7132  0.4419 -0.0587
   75TCq2    O5 1153   3.933   3.729  14.321  0.2779  0.0073 -0.0798
   75TCq2    O6 1154   3.832   3.574  14.185  0.2761 -0.0232 -0.0890
   75TCq2    H2 1155   4.143   3.610  14.368 -1.7094 -0.4096 -0.6647
   75TCq2    H3 1156   3.984   3.577  13.989 -1.6789 -1.5629  1.9474
   75TCq2    H4 1157   4.402   3.500  14.052  0.7643  2.0420  1.1839
   76MPD2     C 1158   4.088   0.758  11.757  0.8949 -0.2244  0.0498
   76MPD2    C1 1159   4.013   0.677  11.678 -0.4804  0.4500  1.0240
   76MPD2    C2 1160   4.042   0.540  11.672  0.1900  0.6423 -0.1591
   76MPD2    C3 1161   4.133   0.486  11.755  0.2445 -0.4288 -0.4386
   76MPD2    C4 1162   4.215   0.572  11.821  0.3298  0.9897  0.7508
   76MPD2    C5 1163   4.201   0.712  11.814  0.1645  0.7280  0.0525
   76MPD2     H 1164   3.981   0.469  11.617 -0.8904  2.0105 -0.7418
   76MPD2    H1 1165   4.299   0.534  11.878  0.3385 -0.1621 -0.0104
   76MPD2    H2 1166   4.062   0.863  11.770 -1.9107 -0.9396  0.2926
   76MPD2    H3 1167   4.265   0.768  11.882  0.8797  0.6422 -0.5473
   76MPD2     N 1168   4.159   0.345  11.759  0.4822  0.2383  0.6019
   76MPD2    H5 1169   4.227   0.303  11.823 -0.1025  1.3786  1.9623
   76MPD2    N1 1170   3.901   0.721  11.602 -0.1124  0.4251 -0.3438
   76MPD2    H7 1171   3.845   0.651  11.555 -0.2910 -0.9677  1.9496
   77TCq2    C1 1172   4.107   0.246  11.673  0.1152 -0.7574 -0.3792
   77TCq2    O2 1173   4.042   0.257  11.570 -0.0531  0.5143  0.2707
   77TCq2    C2 1174   4.152   0.112  11.711  0.4294 -0.5014 -0.0323
   77TCq2    C3 1175   4.139   0.014  11.615 -0.4133  0.1879  0.3374
   77TCq2    C4 1176   4.133   4.604  11.665 -0.8983  1.3264  0.2059
   77TCq2    C5 1177   4.147   4.570  11.797 -0.2972 -0.0706 -0.2061
   77TCq2    C6 1178   4.152   4.671  11.892  0.4796  0.6352 -0.3678
   77TCq2    C7 1179   4.151   0.086  11.848  0.2550  0.5791 -0.1886
   77TCq2    C8 1180   4.217   4.629  12.015 -0.2216 -0.3569  0.3103
   77TCq2    O4 1181   4.208   4.510  12.041 -0.4318  0.0937 -0.0789
   77TCq2    C9 1182   4.101   4.499  11.575  0.1518  0.3375 -0.0176
   77TCq2    O5 1183   4.081   4.531  11.454  0.1021  0.6389  0.4691
   77TCq2    O6 1184   4.064   4.394  11.628  0.2876 -0.6476  0.1050
   77TCq2    H2 1185   4.129   0.037  11.510  3.6933 -1.6366 -0.4451
   77TCq2    H3 1186   4.152   4.467  11.829 -2.1017  0.4294  1.6734
   77TCq2    H4 1187   4.154   0.168  11.918 -1.9466  1.5950 -1.2858
   78MPD1     C 1188   4.416   4.302   1.074  0.7196 -0.1246 -0.5863
   78MPD1    C1 1189   4.400   4.391   1.180  0.4883  0.8224  0.3638
   78MPD1    C2 1190   4.336   4.345   1.293 -0.0409  0.5855 -0.1247
   78MPD1    C3 1191   4.323   4.204   1.320 -0.5468  0.2648 -0.5943
   78MPD1    C4 1192   4.372   4.114   1.232 -0.3642  0.2303  0.8537
   78MPD1    C5 1193   4.415   4.167   1.106  0.8540  0.3175 -0.2003
   78MPD1     H 1194   4.298   4.414   1.368  0.9038  0.1581  0.7420
   78MPD1    H1 1195   4.370   4.009   1.256 -0.0274  0.6661  2.7801
   78MPD1    H2 1196   4.458   4.336   0.980  2.1161 -0.1167  0.0293
   78MPD1    H3 1197   4.433   4.099   1.024  2.1214 -0.9357  1.1119
   78MPD1     N 1198   4.266   4.149   1.446 -0.0544 -0.4581  0.1216
   78MPD1    H5 1199   4.273   4.048   1.453  1.1053 -0.3628  0.3672
   78MPD1    N1 1200   4.413   4.532   1.158 -0.2200  0.0215 -0.0747
   78MPD1    H6 1201   4.434   4.588   1.241 -2.5331 -1.1799  1.3077
   78MPD1    H7 1202   4.479   4.551   1.083  0.8563  0.6190  1.0145
   79TCq2    C1 1203   4.188   4.217   1.533 -0.1358 -0.3359 -0.3096
   79TCq2    O2 1204   4.139   4.330   1.541  0.3708  0.6924  0.3869
   79TCq2    C2 1205   4.143   4.134   1.644 -0.3043  0.3409 -0.3697
   79TCq2    C3 1206   4.191   4.006   1.654  0.5231  0.5091  0.0632
   79TCq2    C4 1207   4.116   3.906   1.712  0.0727  0.2305  0.0459
   79TCq2    C5 1208   3.992   3.933   1.763  0.5499 -0.2580 -0.0573
   79TCq2    C6 1209   3.931   4.054   1.739  0.0995 -0.0018  0.3292
   79TCq2    C7 1210   4.012   4.157   1.680 -0.0697  0.2640  0.4701
   79TCq2    C8 1211   3.786   4.076   1.751 -0.1904 -0.2307  0.1152
   79TCq2    O4 1212   3.757   4.195   1.745 -0.0132  0.3900  0.0109
   79TCq2    C9 1213   4.175   3.773   1.739  0.4001  0.3069  0.2865
   79TCq2    O5 1214   4.299   3.766   1.732 -0.3832  0.2021 -0.1726
   79TCq2    O6 1215   4.103   3.679   1.778  0.1160  0.1253 -0.5697
   79TCq2    H2 1216   4.291   3.972   1.630  0.2937  1.2164 -1.8725
   79TCq2    H3 1217   3.943   3.846   1.806  0.6926 -0.9247 -1.2470
   79TCq2    H4 1218   3.961   4.247   1.647 -1.5515 -0.4804  0.7067
   80MPD2     C 1219   2.846   4.269  12.359  0.4958  0.5642  0.0880
   80MPD2    C1 1220   2.775   4.291  12.242  0.9390  0.1444 -0.1551
   80MPD2    C2 1221   2.644   4.341  12.248  0.5214  0.4557 -0.1021
   80MPD2    C3 1222   2.579   4.349  12.368  0.2251 -0.0364  0.3393
   80MPD2    C4 1223   2.653   4.336  12.487  0.2163  0.0600 -0.3120
   80MPD2    C5 1224   2.782   4.287  12.479 -0.0749 -0.2628 -0.0136
   80MPD2     H 1225   2.593   4.363  12.155  0.5236  1.0380  0.0327
   80MPD2    H1 1226   2.613   4.346  12.587  1.2654 -1.6224  0.2628
   80MPD2    H2 1227   2.943   4.221  12.350 -0.1769 -0.4166 -1.8865
   80MPD2    H3 1228   2.828   4.253  12.572 -1.6922  0.5185  1.0782
   80MPD2     N 1229   2.445   4.377  12.387 -0.0709 -0.5856  0.1713
   80MPD2    H5 1230   2.406   4.397  12.478 -1.7880  1.3274 -1.0136
   80MPD2    N1 1231   2.822   4.253  12.111 -0.0322 -0.6283 -0.0946
   80MPD2    H7 1232   2.763   4.282  12.034  0.2594  1.8954  0.6556
   81TCq2    C1 1233   2.940   4.192  12.089  0.1614 -0.2801  0.0881
   81TCq2    O2 1234   3.048   4.186  12.148 -0.4622  0.0236 -0.1867
   81TCq2    C2 1235   2.937   4.160  11.947  0.2033  0.4946 -0.7492
   81TCq2    C3 1236   3.053   4.184  11.874  0.2486 -0.2127  0.5252
   81TCq2    C4 1237   3.056   4.154  11.743 -0.3248 -0.1199 -0.2425
   81TCq2    C5 1238   2.949   4.106  11.684  0.7002 -0.2013 -0.6438
   81TCq2    C6 1239   2.835   4.081  11.759  0.1313  0.0077  0.2132
   81TCq2    C7 1240   2.822   4.109  11.893 -0.1623  0.4843 -0.3578
   81TCq2    C8 1241   2.737   3.997  11.695 -0.0603  0.0916 -0.6854
   81TCq2    O4 1242   2.710   4.014  11.578 -0.8616  0.2244  0.2195
   81TCq2    C9 1243   3.182   4.174  11.669 -0.4673  0.1073 -0.3790
   81TCq2    O5 1244   3.254   4.267  11.722  0.4756 -0.3119 -0.1764
   81TCq2    O6 1245   3.200   4.122  11.558  0.3203  0.0251  0.7555
   81TCq2    H2 1246   3.137   4.228  11.926  0.2567 -1.2618  1.3820
   81TCq2    H3 1247   2.949   4.073  11.581 -1.4237 -0.0474 -0.7026
   81TCq2    H4 1248   2.730   4.099  11.949  0.2755 -0.5957  0.1696
   82MPD2     C 1249   1.045   3.750  10.536 -0.3321  0.1407 -0.4212
   82MPD2    C1 1250   0.943   3.685  10.596  0.2925 -0.7715 -0.8059
   82MPD2    C2 1251   0.962   3.631  10.725  0.0324 -0.1719  0.7374
   82MPD2    C3 1252   1.071   3.672  10.800 -0.1090  0.9677 -1.0918
   82MPD2    C4 1253   1.160   3.758  10.742 -0.2588 -0.7738 -0.3582
   82MPD2    C5 1254   1.145   3.796  10.616  0.7230 -0.2250  0.3440
   82MPD2     H 1255   0.884   3.565  10.762  0.4894 -1.4873 -0.6738
   82MPD2    H1 1256   1.230   3.806  10.809 -0.6100 -0.2054 -0.4016
   82MPD2    H2 1257   1.045   3.790  10.435 -2.2887 -0.6219 -0.7194
   82MPD2    H3 1258   1.214   3.869  10.575 -1.6160  1.2041 -0.9954
   82MPD2     N 1259   1.093   3.639  10.940  0.1303 -0.1570 -0.1966
   82MPD2    H5 1260   1.182   3.671  10.978  0.2592 -0.0042 -0.6283
   82MPD2    N1 1261   0.818   3.683  10.528  0.3353 -0.2876 -0.3136
   82MPD2    H7 1262   0.817   3.735  10.441 -0.1704  0.1967 -0.0129
   83TCq2    C1 1263   1.006   3.563  11.016  0.0072  0.3189 -0.2455
   83TCq2    O2 1264   0.883   3.547  10.997  0.4911 -0.2014 -0.3884
   83TCq2    C2 1265   1.064   3.508  11.140  0.2485 -0.1472  0.2004
   83TCq2    C3 1266   1.186   3.548  11.176 -0.0683  0.1689 -1.2520
   83TCq2    C4 1267   1.235   3.519  11.303  0.6884  0.1997 -0.1098
   83TCq2    C5 1268   1.164   3.449  11.390 -0.1800  0.3841 -0.0607
   83TCq2    C6 1269   1.038   3.405  11.347 -0.1809  0.7586 -0.1026
   83TCq2    C7 1270   0.988   3.433  11.226 -0.6597  0.8243  0.3909
   83TCq2    C8 1271   0.950   3.327  11.438  0.0283  0.2718  0.1907
   83TCq2    O4 1272   0.981   3.317  11.559  0.0820  0.5094 -0.3019
   83TCq2    C9 1273   1.367   3.572  11.329  0.6453  0.3387  0.3167
   83TCq2    O5 1274   1.422   3.664  11.255 -0.3579  0.3496  0.3599
   83TCq2    O6 1275   1.412   3.536  11.441  0.0518 -0.4640 -0.5898
   83TCq2    H2 1276   1.252   3.599  11.107  1.5428  2.5019  2.0024
   83TCq2    H3 1277   1.211   3.425  11.485 -0.2585  0.2326 -0.0597
   83TCq2    H4 1278   0.889   3.405  11.193  0.2785 -1.9542 -0.0490
   84TCq2    C1 1279   2.129   2.761  10.478 -0.3232 -0.4890  0.1890
   84TCq2    O2 1280   2.143   2.745  10.359  0.0030  0.5767 -0.9120
   84TCq2    C2 1281   2.048   2.664  10.553  0.6009  0.2245  0.0490
   84TCq2    C3 1282   2.054   2.533  10.512 -0.9295 -0.4823 -0.0494
   84TCq2    C4 1283   2.014   2.440  10.604  0.0214  0.2286 -0.0125
   84TCq2    C5 1284   1.976   2.468  10.730  0.5962  0.6420 -0.0383
   84TCq2    C6 1285   1.980   2.595  10.772 -0.1144  0.3470 -0.0722
   84TCq2    C7 1286   2.016   2.694  10.683 -0.2596 -0.1412 -0.2572
   84TCq2    C8 1287   1.924   2.644  10.898  0.1365  0.4413  0.5699
   84TCq2    O4 1288   1.950   2.763  10.927  0.2827  0.1719  0.6560
   84TCq2    C9 1289   1.991   2.305  10.552  0.0278 -0.0664 -0.0289
   84TCq2    O5 1290   1.896   2.234  10.605  0.5223 -0.1002 -0.6574
   84TCq2    O6 1291   2.056   2.273  10.451  0.5505 -0.0272 -0.0269
   84TCq2    H2 1292   2.094   2.508  10.414 -0.9471 -0.9179  0.0563
   84TCq2    H3 1293   1.946   2.385  10.794 -0.9619  1.0886 -0.1882
   84TCq2    H4 1294   1.992   2.797  10.708  0.0993  0.3136 -1.7486
   85MPD2     C 1295   2.124   0.941  16.199 -0.0989 -0.4157  0.2414
   85MPD2    C1 1296   2.222   0.854  16.165 -0.3563  0.0302  0.1006
   85MPD2    C2 1297   2.340   0.901  16.108  0.8914  0.1128 -0.0770
   85MPD2    C3 1298   2.346   1.030  16.064 -0.5750  0.5348  0.1941
   85MPD2    C4 1299   2.257   1.126  16.116  0.2937  0.0046 -0.1510
   85MPD2    C5 1300   2.140   1.076  16.171  0.3581 -0.4191  0.0597
   85MPD2     H 1301   2.420   0.829  16.099 -0.4553 -1.2997 -0.8218
   85MPD2    H1 1302   2.275   1.231  16.100  0.4318 -0.1861 -1.2360
   85MPD2    H2 1303   2.030   0.913  16.245  0.2529  0.6796  1.6187
   85MPD2    H3 1304   2.061   1.148  16.191  0.8340 -0.5005  2.2896
   85MPD2     N 1305   2.463   1.070  15.994  0.1130 -0.0729 -0.2290
   85MPD2    H5 1306   2.535   1.002  15.970 -1.6702 -1.5511 -1.5180
   85MPD2    N1 1307   2.194   0.714  16.177 -0.3621  0.1509 -0.0255
   85MPD2    H7 1308   2.266   0.655  16.136  0.1484 -0.9150  2.3759
   86TCq2    C1 1309   2.488   1.199  15.946 -0.7091 -0.4664 -0.5349
   86TCq2    O2 1310   2.415   1.298  15.947 -0.7571  0.1439  0.0443
   86TCq2    C2 1311   2.610   1.203  15.870  0.6368  0.6990 -0.6900
   86TCq2    C3 1312   2.623   1.312  15.789  0.6680  0.1360  0.0750
   86TCq2    C4 1313   2.730   1.318  15.700  0.0883  0.0819  0.6216
   86TCq2    C5 1314   2.829   1.223  15.695 -0.4000 -0.6090 -0.2205
   86TCq2    C6 1315   2.810   1.117  15.783  0.3209  0.3788 -0.6114
   86TCq2    C7 1316   2.703   1.100  15.871 -0.6844  0.8087  0.4331
   86TCq2    C8 1317   2.907   1.012  15.795  0.2951  0.5976  0.5727
   86TCq2    O4 1318   2.907   0.940  15.897 -0.2770  0.3389 -0.4300
   86TCq2    C9 1319   2.723   1.418  15.598  0.7886  0.3360 -0.4636
   86TCq2    O5 1320   2.618   1.486  15.594  0.0752  0.1449 -0.7400
   86TCq2    O6 1321   2.827   1.434  15.528  0.8154 -0.3069  0.0812
   86TCq2    H2 1322   2.543   1.385  15.784  1.4300  0.9664  0.0394
   86TCq2    H3 1323   2.906   1.218  15.619 -3.1175 -2.7075 -2.8236
   86TCq2    H4 1324   2.701   1.015  15.938  1.4307  0.4649  0.0749
   87MPD2     C 1325   0.926   3.404   1.711 -0.1474  0.7486  0.0594
   87MPD2    C1 1326   0.979   3.493   1.618  0.4078  0.4587 -0.4019
   87MPD2    C2 1327   0.912   3.613   1.589 -0.8006  0.0655  0.1272
   87MPD2    C3 1328   0.787   3.645   1.653 -0.8300 -0.3305 -0.7590
   87MPD2    C4 1329   0.732   3.550   1.730 -0.3145 -0.2457  0.5941
   87MPD2    C5 1330   0.797   3.429   1.757  0.5507 -0.3791  0.4067
   87MPD2     H 1331   0.973   3.675   1.524  1.3443  0.0717  2.1699
   87MPD2    H1 1332   0.632   3.550   1.773 -1.6182  2.8559 -2.4805
   87MPD2    H2 1333   0.972   3.309   1.734 -2.6205  0.0065  1.9157
   87MPD2    H3 1334   0.737   3.352   1.805  1.3109 -0.8889  0.5349
   87MPD2     N 1335   0.725   3.772   1.644  0.2549 -0.1821 -0.0843
   87MPD2    H5 1336   0.648   3.790   1.707  0.2309  0.2656 -0.2423
   87MPD2    N1 1337   1.090   3.457   1.536  0.2345 -0.3574  0.5138
   87MPD2    H7 1338   1.124   3.538   1.485  1.6535 -0.1284  1.8288
   88TCq2    C1 1339   1.160   3.336   1.533  0.6567  0.3545  0.1248
   88TCq2    O2 1340   1.141   3.226   1.583 -0.5165  0.0004  0.0222
   88TCq2    C2 1341   1.287   3.354   1.464 -0.1016 -0.3936 -0.1767
   88TCq2    C3 1342   1.390   3.269   1.504 -0.4226  0.0828  0.5314
   88TCq2    C4 1343   1.516   3.313   1.476 -0.5672 -0.1108 -0.7447
   88TCq2    C5 1344   1.541   3.428   1.408  0.3476 -0.0490 -0.4325
   88TCq2    C6 1345   1.433   3.488   1.347 -0.7270 -0.1207  0.4789
   88TCq2    C7 1346   1.307   3.457   1.388  0.0905  0.4128  0.0224
   88TCq2    C8 1347   1.454   3.608   1.263 -0.3440 -0.1820 -0.3546
   88TCq2    O4 1348   1.362   3.634   1.185 -0.2657 -0.0207  0.7680
   88TCq2    C9 1349   1.627   3.232   1.524 -0.5917  0.1813  0.3002
   88TCq2    O5 1350   1.744   3.261   1.489 -0.5395 -0.5372 -0.2960
   88TCq2    O6 1351   1.607   3.145   1.612 -0.2916  0.0823 -0.1270
   88TCq2    H2 1352   1.374   3.192   1.579 -2.4643  1.9046  1.9330
   88TCq2    H3 1353   1.644   3.459   1.401  0.6428 -0.9389 -0.1177
   88TCq2    H4 1354   1.230   3.509   1.333 -0.1969  1.0837  1.0639
   89MPD2     C 1355   0.575   1.099   1.795  0.6377  0.3426  0.6321
   89MPD2    C1 1356   0.539   1.223   1.737  0.2631 -0.2798 -0.2278
   89MPD2    C2 1357   0.632   1.300   1.675 -0.7004  0.1927  0.3151
   89MPD2    C3 1358   0.760   1.260   1.669  0.2609  0.2604 -0.3143
   89MPD2    C4 1359   0.796   1.145   1.733  0.0239  0.4189  0.0560
   89MPD2    C5 1360   0.707   1.062   1.798 -0.5555 -0.6618  0.0129
   89MPD2     H 1361   0.584   1.385   1.628 -0.6354 -1.0514 -1.9555
   89MPD2    H1 1362   0.899   1.112   1.733  0.2079  0.9973  1.5084
   89MPD2    H2 1363   0.502   1.033   1.839 -0.2245  0.4292 -0.6582
   89MPD2    H3 1364   0.741   0.970   1.843 -0.7360 -1.0984 -0.7504
   89MPD2     N 1365   0.847   1.352   1.605 -0.3121 -0.2861 -0.4242
   89MPD2    H5 1366   0.810   1.438   1.565  0.7947  0.0452 -0.7346
   89MPD2    N1 1367   0.407   1.273   1.762  0.7246 -0.3836 -0.3333
   89MPD2    H7 1368   0.375   1.354   1.710 -0.6468  0.3783  1.7084
   90TCq2    C1 1369   0.982   1.328   1.583 -0.3909  0.3321  0.3041
   90TCq2    O2 1370   1.051   1.229   1.613  0.0490  0.2336 -0.1018
   90TCq2    C2 1371   1.046   1.421   1.489  0.6682 -0.3684 -0.0513
   90TCq2    C3 1372   1.186   1.426   1.480  0.0988 -0.1478 -0.2288
   90TCq2    C4 1373   1.239   1.522   1.388  0.1693 -0.5063  0.2123
   90TCq2    C5 1374   1.151   1.596   1.316 -0.2961 -0.1980  0.2141
   90TCq2    C6 1375   1.016   1.569   1.320 -0.3092  0.4304 -0.6849
   90TCq2    C7 1376   0.957   1.492   1.413 -1.2278  0.1773 -0.5458
   90TCq2    C8 1377   0.911   1.664   1.271 -0.5524  0.1975 -0.0378
   90TCq2    O4 1378   0.796   1.619   1.266  0.0119 -0.6748 -0.2020
   90TCq2    C9 1379   1.381   1.535   1.377  0.1062  0.4694 -0.1586
   90TCq2    O5 1380   1.453   1.456   1.447 -0.1683  0.3152  0.0391
   90TCq2    O6 1381   1.418   1.646   1.327 -0.5868  0.1207  0.0072
   90TCq2    H2 1382   1.242   1.358   1.543 -0.0908 -0.7806 -0.7404
   90TCq2    H3 1383   1.194   1.648   1.230 -2.0284  0.4625 -0.2446
   90TCq2    H4 1384   0.851   1.466   1.409 -1.5332  1.2325  0.6510
   91TMC2    C1 1385   2.342   2.096  16.546  0.2684  0.6962  0.4021
   91TMC2    C2 1386   2.404   2.118  16.426 -0.7276 -0.2887 -0.1031
   91TMC2    C3 1387   2.353   2.062  16.315  0.5400  1.0076  0.5669
   91TMC2    C4 1388   2.225   2.028  16.538 -0.3643 -0.0188 -0.6110
   91TMC2    C5 1389   2.164   1.981  16.427 -0.3493 -0.7548 -0.0961
   91TMC2    C6 1390   2.228   1.997  16.305  0.5022  0.0256 -0.0921
   91TMC2     C 1391   2.424   2.085  16.668 -0.0260 -0.2698  0.0938
   91TMC2     O 1392   2.364   2.068  16.773 -0.9187 -0.2467 -0.3272
   91TMC2     H 1393   2.499   2.171  16.419 -2.5267  3.0149  0.5290
   91TMC2    H1 1394   2.168   2.013  16.629  1.1867 -1.4269  0.1353
   91TMC2    H2 1395   2.191   1.958  16.211  0.8334  0.4773 -0.4088
   91TMC2    C7 1396   2.078   1.864  16.440  0.2881  0.1644  0.1113
   91TMC2    C8 1397   2.443   2.045  16.197  0.7904 -0.1088 -0.5600
   91TMC2    O1 1398   2.101   1.783  16.529 -0.1951 -0.3197 -0.6028
   91TMC2    O2 1399   2.451   1.935  16.136 -0.1390  0.3746 -0.2061
   91TMC2    O5 1400   2.531   2.139  16.190 -0.1981 -0.9386 -0.1177
   91TMC2    H5 1401   2.495   2.220  16.232  1.2248 -1.0071  1.2053
   92MPD2     C 1402   2.645   2.012  16.852  0.4595 -0.2751 -0.4946
   92MPD2    C1 1403   2.662   2.053  16.725 -0.8482 -1.2555  0.1252
   92MPD2    C2 1404   2.782   2.035  16.663  0.5666 -0.2629  0.2165
   92MPD2    C3 1405   2.884   1.984  16.734 -0.6608  0.3297 -0.1073
   92MPD2    C4 1406   2.874   1.963  16.869  0.1567 -0.4217  1.0409
   92MPD2    C5 1407   2.755   1.986  16.934 -0.2685  0.2585  0.1671
   92MPD2     H 1408   2.790   2.067  16.559 -1.1700  2.8511  1.0300
   92MPD2    H1 1409   2.962   1.945  16.930  1.5961  0.6367 -0.6985
   92MPD2    H2 1410   2.550   2.015  16.904  0.7954 -1.0277  0.1527
   92MPD2    H3 1411   2.751   1.988  17.042 -1.5367  0.2442  0.1193
   92MPD2     N 1412   3.007   1.970  16.665  0.0543  0.4449 -0.1734
   92MPD2    H5 1413   3.012   2.014  16.573 -0.5439 -2.8496 -1.8137
   92MPD2    N1 1414   2.559   2.087  16.639  0.0532  0.0462 -0.3779
   92MPD2    H7 1415   2.578   2.084  16.539 -1.4863  1.4984 -0.7124
   93MPD2     C 1416   3.967   1.449  13.766  0.4888 -0.0707  0.3012
   93MPD2    C1 1417   3.970   1.542  13.659 -0.0862 -0.0955 -0.2981
   93MPD2    C2 1418   3.849   1.573  13.596 -0.4641  0.0317  0.1784
   93MPD2    C3 1419   3.732   1.515  13.638  0.4775 -0.1468  0.3900
   93MPD2    C4 1420   3.728   1.416  13.734  0.0240 -0.4582 -0.2800
   93MPD2    C5 1421   3.844   1.394  13.808  0.1767 -0.4513  0.3947
   93MPD2     H 1422   3.855   1.645  13.515  1.9333 -1.5831 -1.0785
   93MPD2    H1 1423   3.638   1.373  13.778  0.3950 -0.3523  0.5882
   93MPD2    H2 1424   4.044   1.407  13.828  0.9195 -1.2761 -1.0452
   93MPD2    H3 1425   3.839   1.319  13.886 -1.8448 -0.5447  0.1547
   93MPD2     N 1426   3.605   1.550  13.585  0.0838 -0.3096 -0.0552
   93MPD2    H5 1427   3.527   1.491  13.614  0.3424 -0.4569  0.3419
   93MPD2    N1 1428   4.091   1.597  13.614  0.2489 -0.2429  0.1277
   93MPD2    H7 1429   4.084   1.656  13.532  2.4122 -0.5969 -0.3109
   94TCq2    C1 1430   4.212   1.587  13.688 -0.6174  0.6732 -0.1251
   94TCq2    O2 1431   4.246   1.555  13.801  0.7751  0.1409 -0.0619
   94TCq2    C2 1432   4.322   1.620  13.603 -0.3846  0.0067  0.2691
   94TCq2    C3 1433   4.317   1.608  13.464 -0.3987 -0.1691  0.2403
   94TCq2    C4 1434   4.420   1.648  13.381 -0.9902  0.1596 -0.0249
   94TCq2    C5 1435   4.534   1.696  13.448 -0.1365  0.2681 -0.2759
   94TCq2    C6 1436   4.534   1.706  13.582 -0.2723  0.6455  0.7324
   94TCq2    C7 1437   4.434   1.675  13.663  0.7961 -0.2351  0.2187
   94TCq2    C8 1438   4.654   1.737  13.653  0.1339  0.0057 -0.3988
   94TCq2    O4 1439   0.049   1.707  13.610 -0.3819  0.0353  0.1886
   94TCq2    C9 1440   4.428   1.622  13.242  0.0832 -0.1110  0.5228
   94TCq2    O5 1441   4.363   1.526  13.192 -0.0698 -0.7681  0.2722
   94TCq2    O6 1442   4.531   1.678  13.187 -0.4900 -0.5320 -0.1910
   94TCq2    H2 1443   4.229   1.562  13.421 -0.4004 -0.8681  0.9997
   94TCq2    H3 1444   4.625   1.721  13.394  0.2365 -3.0980 -1.2161
   94TCq2    H4 1445   4.440   1.667  13.771  2.1183  1.3658  0.2617
   95TMC2    C1 1446   4.313   3.302  16.253  0.4328 -0.2490  0.2012
   95TMC2    C2 1447   4.361   3.215  16.347 -0.0542  0.6480  0.3494
   95TMC2    C3 1448   4.369   3.081  16.314 -0.2068  0.2869 -0.1664
   95TMC2    C4 1449   4.269   3.257  16.132 -0.0313 -0.9379  0.5906
   95TMC2    C5 1450   4.279   3.127  16.101 -0.0039  0.5936 -0.1212
   95TMC2    C6 1451   4.317   3.029  16.196 -0.0019 -0.4795  0.3795
   95TMC2     C 1452   4.351   3.436  16.266 -0.3580  0.0601 -0.4588
   95TMC2     O 1453   4.334   3.489  16.374  0.0400  0.3009 -0.3799
   95TMC2     H 1454   4.386   3.255  16.445 -1.3738 -1.3680  1.5040
   95TMC2    H1 1455   4.229   3.322  16.055  0.6748  0.5389  1.4712
   95TMC2    H2 1456   4.314   2.923  16.176  0.9528 -0.4248 -0.0509
   95TMC2    C7 1457   4.230   3.091  15.969  0.7046  0.2397  0.1944
   95TMC2    C8 1458   4.448   2.990  16.399  0.7109  0.0907 -0.7673
   95TMC2    O1 1459   4.260   3.173  15.882  0.1721  0.0812  0.1583
   95TMC2    O2 1460   4.456   2.869  16.379 -0.8461  0.2232 -0.5547
   95TMC2    O5 1461   4.552   3.068  16.453  0.6652 -0.3685 -0.2081
   95TMC2    H5 1462   4.510   3.155  16.465  0.4321 -0.5393  0.2268
   96MPD2     C 1463   4.586   3.856  16.093  0.4173 -0.4546 -0.2348
   96MPD2    C1 1464   4.608   3.758  15.997  0.5579  0.0722  0.3918
   96MPD2    C2 1465   4.563   3.629  16.028 -0.1341 -0.3739 -0.5132
   96MPD2    C3 1466   4.488   3.604  16.146  0.8316 -0.7498 -0.0479
   96MPD2    C4 1467   4.453   3.706  16.223 -0.2386 -0.0016 -0.3676
   96MPD2    C5 1468   4.501   3.833  16.195 -0.6725 -0.5266  0.1644
   96MPD2     H 1469   4.597   3.548  15.965 -0.3905 -0.0203 -1.1081
   96MPD2    H1 1470   4.391   3.698  16.311 -1.6719  1.1486 -1.2638
   96MPD2    H2 1471   4.610   3.958  16.067  2.3624 -0.7188  0.4438
   96MPD2    H3 1472   4.476   3.915  16.263  2.7455  0.1860  0.5805
   96MPD2     N 1473   4.431   3.476  16.163 -0.0797 -0.1437 -0.1528
   96MPD2    H5 1474   4.464   3.406  16.097  0.7576  0.1305 -0.0205
   96MPD2    N1 1475   4.693   3.790  15.890  0.0449 -0.7330 -0.2179
   96MPD2    H7 1476   4.717   3.888  15.884 -2.0811 -0.2335 -0.7959
   97MPD2     C 1477   2.130   0.527   0.655  0.5934 -0.2104 -0.0432
   97MPD2    C1 1478   2.121   0.630   0.748 -0.2536 -0.0498  0.2525
   97MPD2    C2 1479   2.104   0.765   0.704 -0.9138  0.0457  0.4067
   97MPD2    C3 1480   2.111   0.796   0.566 -0.3425 -0.7301  0.3872
   97MPD2    C4 1481   2.115   0.692   0.477  0.1091  0.3167 -0.1351
   97MPD2    C5 1482   2.119   0.562   0.520  0.2689  0.1916  0.7330
   97MPD2     H 1483   2.099   0.843   0.779 -0.0053 -0.8387  1.3944
   97MPD2    H1 1484   2.139   0.699   0.372  3.4797  1.1332  0.6816
   97MPD2    H2 1485   2.116   0.425   0.689  0.9264  0.2899  1.6188
   97MPD2    H3 1486   2.119   0.479   0.450  0.4076 -0.8515  1.9779
   97MPD2     N 1487   2.113   0.924   0.505  0.4390 -0.0745  0.0972
   97MPD2    H5 1488   2.101   0.932   0.405  1.1415 -0.9427 -0.0588
   97MPD2    N1 1489   2.109   0.593   0.882  0.4960  0.4976  0.7883
   97MPD2    H7 1490   2.119   0.494   0.905  0.4642  0.3028 -0.0528
   98TCq2    C1 1491   2.141   1.039   0.580 -0.5570  0.3296  0.2100
   98TCq2    O2 1492   2.149   1.052   0.701 -0.4347  0.0438 -0.0523
   98TCq2    C2 1493   2.131   1.160   0.504  0.6880 -0.5150  0.1186
   98TCq2    C3 1494   2.052   1.173   0.395 -0.0432 -0.5066 -0.3994
   98TCq2    C4 1495   2.025   1.291   0.338  0.1491  0.6709 -0.0759
   98TCq2    C5 1496   2.075   1.403   0.391  0.0501 -0.0832  0.4051
   98TCq2    C6 1497   2.157   1.393   0.505 -0.0772  0.0668 -0.3344
   98TCq2    C7 1498   2.186   1.276   0.560  0.0024  0.9073  0.2568
   98TCq2    C8 1499   2.224   1.514   0.539  0.7870 -0.2120 -0.2287
   98TCq2    O4 1500   2.199   1.616   0.473  0.0085 -0.4581  0.3444
   98TCq2    C9 1501   1.924   1.304   0.236  0.4523 -0.2087 -0.7635
   98TCq2    O5 1502   1.905   1.423   0.204 -0.0247  0.0034 -0.3810
   98TCq2    O6 1503   1.863   1.199   0.202  0.6062 -0.3018  0.1561
   98TCq2    H2 1504   2.011   1.082   0.352 -0.6473 -0.1063 -0.6630
   98TCq2    H3 1505   2.060   1.499   0.342  0.6733 -0.4611 -0.5340
   98TCq2    H4 1506   2.235   1.280   0.657  0.3636 -0.5641  0.1228
   99MPD2     C 1507   1.217   3.157   0.727  0.5031 -0.7227 -0.0123
   99MPD2    C1 1508   1.192   3.030   0.763  0.0703  0.1610 -0.4605
   99MPD2    C2 1509   1.066   2.980   0.770  0.3092 -0.4295  0.0848
   99MPD2    C3 1510   0.956   3.054   0.744  0.1737 -0.0641 -0.2553
   99MPD2    C4 1511   0.980   3.184   0.703 -0.1514 -0.6529  0.2506
   99MPD2    C5 1512   1.102   3.232   0.695 -0.0536 -0.9566 -0.5926
   99MPD2     H 1513   1.048   2.881   0.810 -0.5481 -0.1592  0.3652
   99MPD2    H1 1514   0.905   3.260   0.686  0.3282 -0.0290  0.9489
   99MPD2    H2 1515   1.309   3.213   0.717  0.0920 -0.1255 -0.4871
   99MPD2    H3 1516   1.110   3.338   0.673 -0.7445 -1.3486 -2.7309
   99MPD2     N 1517   0.838   2.983   0.748 -0.6734 -0.1735  0.2678
   99MPD2    H5 1518   0.847   2.884   0.771 -1.2611 -0.3308 -0.1696
   99MPD2    N1 1519   1.297   2.940   0.792 -0.2414 -0.0802  0.2256
   99MPD2    H7 1520   1.268   2.848   0.823  0.8718 -0.1752  0.9904
  100TCq2    C1 1521   1.434   2.971   0.775 -0.2135 -0.4086 -0.0708
  100TCq2    O2 1522   1.482   3.073   0.724  0.5293  0.0505  0.3517
  100TCq2    C2 1523   1.521   2.869   0.839 -0.1437 -0.4541  0.0586
  100TCq2    C3 1524   1.659   2.899   0.817  0.3349  0.1575  0.1271
  100TCq2    C4 1525   1.754   2.829   0.888  0.2959 -0.6907 -0.1261
  100TCq2    C5 1526   1.712   2.738   0.983 -0.2123 -0.5104  0.0111
  100TCq2    C6 1527   1.578   2.726   1.010  0.4320 -0.3753  0.1509
  100TCq2    C7 1528   1.477   2.795   0.940  0.9978 -0.0502 -0.2045
  100TCq2    C8 1529   1.550   2.669   1.139  0.0459  0.6392 -0.3195
  100TCq2    O4 1530   1.625   2.579   1.172  0.1697 -0.7943 -0.0653
  100TCq2    C9 1531   1.901   2.855   0.868 -0.4035  0.0133 -0.1562
  100TCq2    O5 1532   1.938   2.942   0.787  0.0400 -0.0094 -0.0428
  100TCq2    O6 1533   1.985   2.800   0.951 -0.5361  0.1252 -0.0064
  100TCq2    H2 1534   1.681   2.985   0.753 -0.6064 -1.0076 -1.7655
  100TCq2    H3 1535   1.787   2.688   1.042  2.3521  1.2063 -1.7937
  100TCq2    H4 1536   1.373   2.777   0.963  0.9177 -1.5240 -1.6846
  101MPD2     C 1537   1.527   4.126  12.859 -0.6918  1.0587  0.1571
  101MPD2    C1 1538   1.468   4.220  12.943  0.3884 -0.6872  0.1461
  101MPD2    C2 1539   1.370   4.178  13.035  0.1095  0.2401 -1.1257
  101MPD2    C3 1540   1.325   4.046  13.035 -0.7990  0.9499 -0.8200
  101MPD2    C4 1541   1.380   3.958  12.950 -0.4664 -0.3521  0.1249
  101MPD2    C5 1542   1.477   3.999  12.862  0.3516  0.4089  0.2322
  101MPD2     H 1543   1.333   4.252  13.105  0.2752  0.3262 -1.1303
  101MPD2    H1 1544   1.349   3.854  12.951 -1.5035 -0.0541 -0.3062
  101MPD2    H2 1545   1.610   4.155  12.796 -1.5530  0.9143 -1.0392
  101MPD2    H3 1546   1.522   3.929  12.793 -0.4647 -0.1138  0.2372
  101MPD2     N 1547   1.221   3.997  13.123  0.8497 -0.1756 -0.5063
  101MPD2    H5 1548   1.200   3.898  13.110 -2.7259  0.7351 -1.5574
  101MPD2    N1 1549   1.509   4.356  12.923 -0.1126  0.4384  0.3676
  101MPD2    H7 1550   1.593   4.367  12.867 -0.2991  0.4687  0.0907
  102TCq2    C1 1551   1.746   4.674  12.676  0.0099  0.7274 -0.5064
  102TCq2    O2 1552   1.838   4.597  12.693  0.1638 -0.0991  0.0986
  102TCq2    C2 1553   1.643   4.699  12.778  0.2535 -0.9494  0.2735
  102TCq2    C3 1554   1.555   0.084  12.757 -0.4041 -0.4975 -0.0594
  102TCq2    C4 1555   1.431   0.078  12.816  0.0121  0.2692 -0.4049
  102TCq2    C5 1556   1.394   4.686  12.891 -0.2263 -0.9269 -1.0659
  102TCq2    C6 1557   1.489   4.588  12.916  0.0218 -0.0779  0.4719
  102TCq2    C7 1558   1.613   4.594  12.860  0.4708  0.5153 -0.0024
  102TCq2    C8 1559   1.438   4.458  12.974  0.0215 -0.6916 -0.1343
  102TCq2    O4 1560   1.326   4.469  13.025  0.2303 -0.3046 -0.1110
  102TCq2    C9 1561   1.336   0.181  12.785  0.4074  0.3274 -0.3597
  102TCq2    O5 1562   1.386   0.294  12.778 -0.1578  0.3205  0.4040
  102TCq2    O6 1563   1.225   0.145  12.739 -0.0389  0.1095  0.5381
  102TCq2    H2 1564   1.574   0.180  12.710 -1.2976  0.0861  0.7625
  102TCq2    H3 1565   1.293   4.667  12.928  0.9972 -1.2204  2.1599
  102TCq2    H4 1566   1.682   4.511  12.870  0.5131  0.5537  0.0249
  103TMC2    C1 1567   4.557   0.375  12.592  0.0744  0.4095 -0.0242
  103TMC2    C2 1568   4.645   0.471  12.549 -0.1252  0.8175  0.1643
  103TMC2    C3 1569   0.018   0.514  12.645  0.1471  0.3393 -0.3348
  103TMC2    C4 1570   4.544   0.322  12.717  0.5648 -0.6451 -0.4690
  103TMC2    C5 1571   4.636   0.367  12.806  0.5619  0.1359  0.5275
  103TMC2    C6 1572   0.007   0.466  12.776  0.2373  0.3185  0.3252
  103TMC2     C 1573   4.503   0.299  12.485 -0.2083 -0.4188  0.4003
  103TMC2     O 1574   4.496   0.355  12.375  0.2614  0.0013 -0.6670
  103TMC2     H 1575   4.649   0.498  12.444  0.2712  0.1318  0.0025
  103TMC2    H1 1576   4.477   0.241  12.741  1.5006 -1.2996 -0.0946
  103TMC2    H2 1577   0.067   0.522  12.848 -0.6043 -0.8315  1.9138
  103TMC2    C7 1578   4.625   0.314  12.943  0.2254 -0.6996 -0.0285
  103TMC2    C8 1579   0.116   0.618  12.610  0.4075  0.6016  0.9342
  103TMC2    O1 1580   4.543   0.231  12.962  0.0041  0.0347 -0.0192
  103TMC2    O2 1581   0.120   0.663  12.499 -0.0872 -0.1587 -0.2673
  103TMC2    O5 1582   0.208   0.633  12.705  0.5081  0.7663 -0.1921
  103TMC2    H5 1583   0.205   0.579  12.787 -2.3207  1.9849  0.5128
  104MPD2     C 1584   4.463   4.655  12.454 -0.5186  0.5557 -0.7557
  104MPD2    C1 1585   4.446   0.067  12.418  1.0039  0.8679 -0.0998
  104MPD2    C2 1586   4.380   0.094  12.298 -0.9830  0.4517 -0.2997
  104MPD2    C3 1587   4.343   4.707  12.210  0.4234 -0.5489  0.7337
  104MPD2    C4 1588   4.392   4.576  12.240 -0.3408  0.2260  0.2145
  104MPD2    C5 1589   4.445   4.556  12.364  0.5914 -0.5425 -0.1430
  104MPD2     H 1590   4.364   0.197  12.270  1.9917  1.1930  0.6979
  104MPD2    H1 1591   4.381   4.495  12.170 -0.7479 -0.3939  0.9920
  104MPD2    H2 1592   4.519   4.640  12.545 -0.6495 -0.0126 -0.7686
  104MPD2    H3 1593   4.468   4.454  12.394  1.3482 -0.5667 -0.8143
  104MPD2     N 1594   4.279   0.014  12.085 -0.1316  0.2482 -0.2086
  104MPD2    H5 1595   4.274   0.108  12.049 -0.8733 -0.3751 -1.7304
  104MPD2    N1 1596   4.487   0.167  12.513 -0.4951  0.1547  0.6620
  104MPD2    H7 1597   4.528   0.123  12.594 -4.0437 -2.6273  0.9853
  105MPD2     C 1598   1.239   3.676   0.036  0.5708  0.3796  0.2296
  105MPD2    C1 1599   1.287   3.793   0.000  0.0747 -0.3927 -0.0216
  105MPD2    C2 1600   1.308   3.877   0.106  0.4178 -0.1125 -0.2950
  105MPD2    C3 1601   1.268   3.846   0.236 -0.1519  0.1012 -0.0430
  105MPD2    C4 1602   1.203   3.731   0.268 -0.4238 -0.0139 -0.9093
  105MPD2    C5 1603   1.188   3.644   0.160 -0.7047  0.1167  0.0449
  105MPD2     H 1604   1.368   3.966   0.091  0.4292  0.1334  1.2011
  105MPD2    H1 1605   1.163   3.701   0.364 -0.3367  2.4054 -0.1283
  105MPD2    H2 1606   1.222   3.603  17.638  2.4734 -0.3881  0.5350
  105MPD2    H3 1607   1.127   3.554   0.161  0.4222 -0.6367  1.9037
  105MPD2     N 1608   1.315   3.932   0.331  0.1965 -0.2028 -0.1002
  105MPD2    H5 1609   1.356   4.016   0.291 -1.0367  0.2896 -0.3063
  105MPD2    N1 1610   1.323   3.837  17.545  0.4441 -0.5066 -0.6085
  105MPD2    H7 1611   1.341   3.937  17.541 -0.6572 -0.2710  0.1775
  106TCq2    C1 1612   1.323   3.908   0.469  0.5009 -0.1908 -0.4858
  106TCq2    O2 1613   1.316   3.800   0.529  0.1187  0.0956 -0.2887
  106TCq2    C2 1614   1.371   4.020   0.545  0.1214  0.2922 -0.8381
  106TCq2    C3 1615   1.315   4.141   0.512  0.1387 -0.4836 -0.3243
  106TCq2    C4 1616   1.363   4.250   0.582  0.2056  0.1035  0.4433
  106TCq2    C5 1617   1.463   4.233   0.675 -0.1470 -0.5674 -0.3378
  106TCq2    C6 1618   1.495   4.103   0.724  0.2671 -0.8241 -1.2168
  106TCq2    C7 1619   1.448   3.991   0.658  0.3093 -0.3057 -0.8276
  106TCq2    C8 1620   1.568   4.095   0.844  0.0771  0.3906 -0.0906
  106TCq2    O4 1621   1.617   4.202   0.871  0.2726  0.4834  0.4044
  106TCq2    C9 1622   1.317   4.382   0.558  0.3415  0.9197  0.7840
  106TCq2    O5 1623   1.251   4.397   0.454 -0.0112 -0.2090  0.6191
  106TCq2    O6 1624   1.340   4.478   0.634 -0.4149  0.3009 -0.6845
  106TCq2    H2 1625   1.263   4.148   0.417 -0.7715  0.1055  0.2160
  106TCq2    H3 1626   1.502   4.320   0.727  2.2215 -0.7820 -1.7541
  106TCq2    H4 1627   1.481   3.892   0.686 -1.7639 -1.2640 -1.8269
  107TMC2    C1 1628   1.787   3.110  11.736 -0.2921 -0.4309 -0.1149
  107TMC2    C2 1629   1.775   3.208  11.650  0.4113  0.2944 -0.1088
  107TMC2    C3 1630   1.802   3.169  11.520 -0.1133  0.0078 -0.3319
  107TMC2    C4 1631   1.819   2.982  11.702 -0.2204  0.3897  0.2010
  107TMC2    C5 1632   1.838   2.949  11.571  0.3589  0.2327  0.0504
  107TMC2    C6 1633   1.835   3.044  11.476 -0.9440 -0.2425 -0.0159
  107TMC2     C 1634   1.724   3.123  11.869 -0.7993 -0.4974 -0.2306
  107TMC2     O 1635   1.745   3.038  11.955  0.2271 -0.2111 -0.3738
  107TMC2     H 1636   1.748   3.309  11.679  1.2162  1.2454 -2.6305
  107TMC2    H1 1637   1.813   2.904  11.777 -1.1978  0.1740 -0.0997
  107TMC2    H2 1638   1.875   3.028  11.377  0.3785 -1.9103  0.7806
  107TMC2    C7 1639   1.845   2.809  11.536  0.1763  0.8502  0.5107
  107TMC2    C8 1640   1.807   3.264  11.403  0.1495 -0.3385  0.2033
  107TMC2    O1 1641   1.844   2.729  11.628  0.0489 -0.1934 -0.4269
  107TMC2    O2 1642   1.888   3.250  11.311  0.2054  0.7898 -0.0805
  107TMC2    O5 1643   1.708   3.352  11.410  0.0596 -0.4181  0.6062
  107TMC2    H5 1644   1.640   3.351  11.481 -0.3395  0.1922  0.2299
  108MPD2     C 1645   1.429   3.314  11.924  0.6268  0.2393  0.2748
  108MPD2    C1 1646   1.531   3.244  11.964  0.2200 -0.4648  0.3735
  108MPD2    C2 1647   1.539   3.207  12.101  0.5329 -0.0546  0.5668
  108MPD2    C3 1648   1.430   3.219  12.179  0.4253 -0.1128 -0.0133
  108MPD2    C4 1649   1.322   3.289  12.135 -0.0803 -0.4937 -0.5761
  108MPD2    C5 1650   1.323   3.341  12.013  0.1899  0.5207  0.3074
  108MPD2     H 1651   1.627   3.151  12.132  1.1784 -0.3974 -1.8399
  108MPD2    H1 1652   1.235   3.305  12.197  0.0614 -1.7808 -0.0368
  108MPD2    H2 1653   1.427   3.351  11.822  1.6754 -1.1064 -0.2390
  108MPD2    H3 1654   1.234   3.395  11.983 -0.4698  0.4894  2.2074
  108MPD2     N 1655   1.420   3.167  12.303  0.1187  0.5994  0.1592
  108MPD2    H5 1656   1.324   3.157  12.334 -0.0842  0.3900 -0.5240
  108MPD2    N1 1657   1.622   3.215  11.863  0.4996  0.1822 -0.1954
  108MPD2    H7 1658   1.609   3.261  11.773  0.1464 -0.4429 -0.4625
  109MPD2     C 1659   3.163   0.175   2.226  0.3120  0.4948  0.3089
  109MPD2    C1 1660   3.132   0.181   2.094  0.3759  0.3545  0.3671
  109MPD2    C2 1661   3.085   0.301   2.038  0.2529 -0.0151  0.1094
  109MPD2    C3 1662   3.046   0.408   2.119  0.1307 -0.3885 -0.1760
  109MPD2    C4 1663   3.073   0.393   2.254 -0.3756  0.2874  0.1812
  109MPD2    C5 1664   3.134   0.282   2.306  0.2125 -0.5996 -0.5717
  109MPD2     H 1665   3.049   0.305   1.936 -2.2151  0.7815  1.0144
  109MPD2    H1 1666   3.046   0.476   2.318 -0.4235  1.8944 -1.9180
  109MPD2    H2 1667   3.202   0.085   2.272 -0.7375 -0.4208 -0.5926
  109MPD2    H3 1668   3.163   0.284   2.410 -1.0453  0.9103 -0.2431
  109MPD2     N 1669   2.976   0.515   2.067 -0.0680 -0.2639  0.4144
  109MPD2    H5 1670   2.963   0.510   1.967  0.7869 -2.1040  0.4000
  109MPD2    N1 1671   3.154   0.058   2.022  0.7019 -0.1406  0.4900
  109MPD2    H7 1672   3.181   4.693   2.069 -1.3170  0.2758  2.4039
  110TCq2    C1 1673   2.937   0.628   2.133 -0.3395  0.0860 -0.5535
  110TCq2    O2 1674   2.966   0.665   2.248 -0.2555 -0.4680  0.1205
  110TCq2    C2 1675   2.877   0.723   2.042  0.6639 -0.7469 -1.1086
  110TCq2    C3 1676   2.875   0.858   2.075  0.0379  0.2252  0.5616
  110TCq2    C4 1677   2.782   0.933   2.008  0.0879  0.5962 -0.7290
  110TCq2    C5 1678   2.696   0.878   1.914  0.7891  0.2079  0.4619
  110TCq2    C6 1679   2.698   0.747   1.891  0.3506  0.0635  0.1250
  110TCq2    C7 1680   2.788   0.662   1.954 -0.8398 -0.3899 -0.1927
  110TCq2    C8 1681   2.582   0.700   1.813 -0.2981  0.6902  0.0495
  110TCq2    O4 1682   2.534   0.775   1.728  0.1052 -0.2371 -0.1269
  110TCq2    C9 1683   2.777   1.071   2.017 -0.3866 -0.3062 -0.1808
  110TCq2    O5 1684   2.883   1.133   2.059  0.6180  0.2687 -0.6414
  110TCq2    O6 1685   2.674   1.135   1.973 -0.2785  0.0477  0.0258
  110TCq2    H2 1686   2.946   0.901   2.144  0.0256  0.0015  0.7130
  110TCq2    H3 1687   2.627   0.944   1.863  0.5470 -0.2103  0.2423
  110TCq2    H4 1688   2.808   0.562   1.920  0.5329  0.1592 -1.0243
  111TMC2    C1 1689   2.195   0.828  11.453  0.2957  0.4944  0.5125
  111TMC2    C2 1690   2.247   0.948  11.419  0.3616  0.2754 -0.0201
  111TMC2    C3 1691   2.346   0.998  11.503 -0.0988  0.3277 -0.2766
  111TMC2    C4 1692   2.224   0.759  11.563  0.2138  0.0949 -0.3179
  111TMC2    C5 1693   2.321   0.820  11.643  0.1385  0.1017  1.0638
  111TMC2    C6 1694   2.386   0.939  11.621 -0.5523 -0.1347  0.5856
  111TMC2     C 1695   2.085   0.799  11.358 -0.0229  0.2055 -0.6694
  111TMC2     O 1696   2.033   0.890  11.295  0.2184  0.5235  0.7176
  111TMC2     H 1697   2.215   1.006  11.334  0.4567 -2.4588 -1.8913
  111TMC2    H1 1698   2.187   0.660  11.587  0.3693  0.7104  2.4003
  111TMC2    H2 1699   2.462   0.991  11.679  1.9444 -0.2709 -2.5863
  111TMC2    C7 1700   2.358   0.745  11.752 -0.3430 -0.1965 -0.1190
  111TMC2    C8 1701   2.426   1.111  11.458 -0.3035  0.0357 -0.6782
  111TMC2    O1 1702   2.281   0.663  11.805 -0.0291  0.0648 -0.0027
  111TMC2    O2 1703   2.476   1.203  11.527  0.3658 -0.4805 -0.6750
  111TMC2    O5 1704   2.469   1.088  11.331 -0.3046 -0.3700  1.0109
  111TMC2    H5 1705   2.431   1.005  11.296 -0.1501 -1.4790  3.4778
  112MPD2     C 1706   1.874   0.428  11.065  0.0310 -0.3545  0.1930
  112MPD2    C1 1707   1.869   0.569  11.055 -0.1268 -0.6495  0.3987
  112MPD2    C2 1708   1.944   0.640  11.149 -0.0201  0.3001 -0.4218
  112MPD2    C3 1709   2.005   0.582  11.256  0.6035  0.5274  0.4318
  112MPD2    C4 1710   1.996   0.446  11.269  0.0688  0.0718 -0.5485
  112MPD2    C5 1711   1.934   0.371  11.175  0.4426 -0.5811 -0.1020
  112MPD2     H 1712   1.955   0.747  11.137  2.0801 -0.0086 -1.2268
  112MPD2    H1 1713   2.053   0.405  11.351  0.0739  1.6453  0.2474
  112MPD2    H2 1714   1.832   0.358  10.993 -2.5778 -0.7474  2.1223
  112MPD2    H3 1715   1.941   0.263  11.181 -2.1889 -0.7513 -0.0742
  112MPD2     N 1716   2.080   0.663  11.344 -0.5909  0.2319  0.3708
  112MPD2    H5 1717   2.138   0.607  11.406  1.0109  0.9958 -0.4307
  112MPD2    N1 1718   1.801   0.644  10.959 -0.0726 -0.5924 -0.1391
  112MPD2    H7 1719   1.798   0.746  10.963 -0.9803 -0.6334  0.3816
  113MPD2     C 1720   0.582   2.737   1.109  0.1412  0.5167  0.6155
  113MPD2    C1 1721   0.570   2.878   1.122  0.4255 -0.0242 -0.0965
  113MPD2    C2 1722   0.448   2.933   1.158  0.1134  0.4235  0.0805
  113MPD2    C3 1723   0.343   2.851   1.182 -0.8113  0.1689 -0.2015
  113MPD2    C4 1724   0.356   2.718   1.176  0.2072  0.7889  0.0605
  113MPD2    C5 1725   0.471   2.664   1.134  0.6355  0.2715 -0.4151
  113MPD2     H 1726   0.439   3.041   1.164  1.3250  0.5228  0.0364
  113MPD2    H1 1727   0.284   2.643   1.206 -1.0062  1.2799 -1.6771
  113MPD2    H2 1728   0.677   2.691   1.084 -0.2154 -0.9375  1.9118
  113MPD2    H3 1729   0.473   2.556   1.127  1.4714  0.0782  2.7733
  113MPD2     N 1730   0.214   2.889   1.225 -0.1206 -0.1052 -0.4826
  113MPD2    H5 1731   0.146   2.815   1.239 -2.8435  2.2016 -1.4054
  113MPD2    N1 1732   0.677   2.974   1.116 -0.4001  0.1345  0.0613
  113MPD2    H7 1733   0.651   3.072   1.115  0.1932  0.2943  0.4256
  114TCq2    C1 1734   0.148   3.009   1.202 -0.0258 -0.5964  0.2784
  114TCq2    O2 1735   0.184   3.110   1.141  0.1751  0.1419  0.1871
  114TCq2    C2 1736   0.009   3.018   1.251 -0.2708  0.0099 -0.7327
  114TCq2    C3 1737   4.651   3.100   1.173 -0.3486 -0.0872  0.1913
  114TCq2    C4 1738   4.522   3.106   1.211 -0.2335 -0.7076 -0.2907
  114TCq2    C5 1739   4.468   3.039   1.318 -0.4072  0.2667 -0.3134
  114TCq2    C6 1740   4.555   2.968   1.396 -0.0802 -0.5924 -0.3686
  114TCq2    C7 1741   4.682   2.949   1.357  0.1935 -0.6361  0.1198
  114TCq2    C8 1742   4.506   2.880   1.510  0.3776 -0.4999  0.6304
  114TCq2    O4 1743   4.575   2.855   1.608 -0.0858 -0.1801  0.3112
  114TCq2    C9 1744   4.431   3.184   1.125 -0.0091 -1.0549 -0.8482
  114TCq2    O5 1745   4.482   3.206   1.009 -0.5610  0.2378 -0.0093
  114TCq2    O6 1746   4.312   3.177   1.161  0.6403 -0.1708  0.4387
  114TCq2    H2 1747   4.692   3.159   1.093 -1.8486  0.2384 -0.3252
  114TCq2    H3 1748   4.362   3.044   1.340 -0.1437  0.6755  0.8473
  114TCq2    H4 1749   0.019   2.882   1.421 -1.1639 -0.2954  1.6763
  115TMC2    C1 1750   0.354   1.063   0.484  0.4109  0.1881 -0.0136
  115TMC2    C2 1751   0.386   1.073   0.616  0.1816  0.2406 -0.0231
  115TMC2    C3 1752   0.359   1.187   0.685 -0.6140 -1.0313  0.0128
  115TMC2    C4 1753   0.297   1.171   0.417  0.2006 -0.1558 -0.3124
  115TMC2    C5 1754   0.281   1.288   0.485 -0.2590 -0.9250  0.4417
  115TMC2    C6 1755   0.321   1.297   0.614  0.1140  0.2633  0.3808
  115TMC2     C 1756   0.380   0.942   0.414 -0.9400  0.7337  0.3681
  115TMC2     O 1757   0.333   0.929   0.299 -0.1198  0.3949  0.3111
  115TMC2     H 1758   0.433   0.992   0.670  0.0719 -0.2797 -0.7163
  115TMC2    H1 1759   0.275   1.157   0.312  0.4290 -2.6243 -0.0325
  115TMC2    H2 1760   0.320   1.389   0.672 -2.2549  0.8442 -0.5769
  115TMC2    C7 1761   0.241   1.421   0.424  0.6719  0.2499  0.0135
  115TMC2    C8 1762   0.410   1.206   0.818 -0.4775 -0.2702  0.0260
  115TMC2    O1 1763   0.203   1.502   0.509  0.3125  0.1830 -0.0583
  115TMC2    O2 1764   0.429   1.314   0.874  0.6013  0.1659  0.5848
  115TMC2    O5 1765   0.391   1.088   0.882 -0.2575  0.3503 -0.3167
  115TMC2    H5 1766   0.327   1.032   0.834  1.0023 -1.9404  0.6555
  116MPD2     C 1767   0.461   0.431   0.443 -0.8979  0.3786  0.4614
  116MPD2    C1 1768   0.396   0.512   0.347  0.5578 -0.2301  0.4211
  116MPD2    C2 1769   0.387   0.649   0.361 -0.8007  0.4286 -0.3418
  116MPD2    C3 1770   0.459   0.709   0.460  0.1482  0.3055 -0.1168
  116MPD2    C4 1771   0.531   0.632   0.548 -0.0683 -0.4093  0.3373
  116MPD2    C5 1772   0.530   0.491   0.543  0.2631 -0.0696  0.4397
  116MPD2     H 1773   0.335   0.710   0.288  0.8336  0.7778 -1.2061
  116MPD2    H1 1774   0.584   0.679   0.630 -0.3819  0.5967 -0.0301
  116MPD2    H2 1775   0.465   0.323   0.435  0.3540  0.4932 -0.3837
  116MPD2    H3 1776   0.582   0.424   0.610  0.4269 -0.3053  0.0762
  116MPD2     N 1777   0.449   0.850   0.486 -0.2714 -0.3718 -0.1337
  116MPD2    H5 1778   0.492   0.877   0.574  0.1543  0.6799 -0.6694
  116MPD2    N1 1779   0.343   0.441   0.236  0.3821 -0.1400 -0.3308
  116MPD2    H7 1780   0.359   0.342   0.227 -0.6043 -0.3610  0.3940
  117TMC2    C1 1781   3.584   2.198  13.951 -0.2721 -0.2582 -0.3925
  117TMC2    C2 1782   3.565   2.063  13.943  0.0340  0.3061  0.3404
  117TMC2    C3 1783   3.671   1.984  13.910  0.2685 -0.0098  0.3466
  117TMC2    C4 1784   3.703   2.253  13.916 -0.7663  0.1399  0.6390
  117TMC2    C5 1785   3.793   2.173  13.854 -0.2972 -0.7423  0.3284
  117TMC2    C6 1786   3.785   2.035  13.858 -0.0573 -0.1645 -0.6369
  117TMC2     C 1787   3.476   2.284  13.972 -0.6479 -0.3250  0.1227
  117TMC2     O 1788   3.510   2.403  13.976  0.0074 -0.2516  0.0889
  117TMC2     H 1789   3.477   2.017  13.986 -1.7229  1.9243 -1.5569
  117TMC2    H1 1790   3.716   2.361  13.912 -1.9853  0.0914 -4.3262
  117TMC2    H2 1791   3.853   1.962  13.815  0.3681  0.3479 -0.8316
  117TMC2    C7 1792   3.902   2.223  13.772 -0.5037  0.1454 -0.1964
  117TMC2    C8 1793   3.638   1.853  13.885 -0.1426  0.3927  0.1608
  117TMC2    O1 1794   3.960   2.313  13.828  0.2176 -0.5172 -0.3762
  117TMC2    O2 1795   3.572   1.789  13.964  0.5722 -0.3133  0.2458
  117TMC2    O5 1796   3.665   1.826  13.754 -0.0334 -0.5418  0.4987
  117TMC2    H5 1797   3.708   1.895  13.700 -1.9776 -0.1460 -0.5602
  118MPD2     C 1798   3.986   2.144  13.426  1.0646 -0.5083 -0.1194
  118MPD2    C1 1799   3.996   2.203  13.547 -0.4775  0.0027 -0.7637
  118MPD2    C2 1800   4.099   2.291  13.565 -0.0684  0.2600  0.3524
  118MPD2    C3 1801   4.197   2.305  13.468 -0.0053  0.3881 -0.0721
  118MPD2    C4 1802   4.180   2.258  13.343 -0.0145  0.3722  0.9394
  118MPD2    C5 1803   4.071   2.174  13.324 -0.0139  0.0409 -0.7221
  118MPD2     H 1804   4.096   2.345  13.659 -2.2098  0.2265  0.3143
  118MPD2    H1 1805   4.243   2.277  13.257 -0.0525 -0.6134  0.6865
  118MPD2    H2 1806   3.906   2.076  13.402  1.5676 -0.6771 -1.2998
  118MPD2    H3 1807   4.061   2.126  13.227  3.7677  0.3040 -1.2509
  118MPD2     N 1808   4.310   2.387  13.496 -0.4186 -0.2426  0.0861
  118MPD2    H5 1809   4.385   2.398  13.428  0.1224 -1.3188  0.5103
  118MPD2    N1 1810   3.906   2.163  13.647 -0.4217  0.4190 -0.8156
  118MPD2    H7 1811   3.845   2.085  13.626  2.5255 -1.5569 -1.9749
  119MPD2     C 1812   2.589   4.312  14.229 -0.2189  0.0001  0.4295
  119MPD2    C1 1813   2.456   4.281  14.196  0.6007  0.2564  0.5831
  119MPD2    C2 1814   2.425   4.227  14.069  0.3746 -0.2875 -0.5712
  119MPD2    C3 1815   2.528   4.186  13.991  0.1920 -0.2265 -0.4730
  119MPD2    C4 1816   2.661   4.206  14.028 -0.4057  0.3830 -0.2808
  119MPD2    C5 1817   2.685   4.265  14.148  0.1029 -0.0703  0.2021
  119MPD2     H 1818   2.323   4.228  14.034  0.3138 -0.2968 -0.3909
  119MPD2    H1 1819   2.754   4.182  13.978  0.8076 -0.1812  2.2483
  119MPD2    H2 1820   2.616   4.358  14.323  1.0553  0.4752 -0.1759
  119MPD2    H3 1821   2.788   4.281  14.175  0.6448  0.0096 -1.8948
  119MPD2     N 1822   2.497   4.111  13.873 -0.2507 -0.3606  0.4592
  119MPD2    H5 1823   2.569   4.091  13.805 -0.6372 -1.5703  0.4053
  119MPD2    N1 1824   2.347   4.304  14.290  0.1350  0.2903  0.2543
  119MPD2    H7 1825   2.382   4.356  14.370 -1.0287  0.4397  0.6569
  120TCq2    C1 1826   2.375   4.067  13.839  0.4494  0.3810  0.1894
  120TCq2    O2 1827   2.272   4.074  13.895 -0.5919  0.7570  0.0395
  120TCq2    C2 1828   2.373   3.987  13.720 -0.4335 -0.5485 -0.4663
  120TCq2    C3 1829   2.493   3.942  13.667 -0.0091 -0.2233  0.5219
  120TCq2    C4 1830   2.488   3.888  13.543 -0.2592  0.3601 -0.2571
  120TCq2    C5 1831   2.381   3.891  13.456 -0.9862 -0.2117  0.1958
  120TCq2    C6 1832   2.263   3.922  13.521  0.2615  0.0513  0.0891
  120TCq2    C7 1833   2.259   3.962  13.651 -0.2563  0.4162  0.1825
  120TCq2    C8 1834   2.145   3.867  13.462  0.1657 -0.6478  0.5068
  120TCq2    O4 1835   2.145   3.864  13.339 -0.1400 -0.4064  0.2293
  120TCq2    C9 1836   2.617   3.851  13.487 -0.0256  0.7244  0.1075
  120TCq2    O5 1837   2.715   3.892  13.550  0.1203 -0.2198 -0.2288
  120TCq2    O6 1838   2.625   3.831  13.365  0.2683  0.1384 -0.2839
  120TCq2    H2 1839   2.583   3.947  13.727  1.7031 -1.0167 -2.0426
  120TCq2    H3 1840   2.391   3.852  13.355 -3.0138  0.8528 -0.4262
  120TCq2    H4 1841   2.162   3.978  13.698 -0.7629  2.3096 -1.5205
  121TMC2    C1 1842   3.495   0.437  13.623  0.3430 -0.3566  0.5520
  121TMC2    C2 1843   3.589   0.343  13.584 -0.5239  0.6643 -0.1307
  121TMC2    C3 1844   3.543   0.219  13.554  0.5568  0.0092  0.4392
  121TMC2    C4 1845   3.362   0.403  13.640  0.5370 -0.3668 -0.2501
  121TMC2    C5 1846   3.322   0.268  13.609 -0.1854 -1.0115  0.7850
  121TMC2    C6 1847   3.415   0.174  13.568  0.4761  0.5501  0.5220
  121TMC2     C 1848   3.537   0.566  13.671 -0.5097 -0.2905 -0.5029
  121TMC2     O 1849   3.464   0.627  13.746  0.7183 -0.3099  0.3315
  121TMC2     H 1850   3.696   0.360  13.590 -0.3193 -0.8007  0.4112
  121TMC2    H1 1851   3.281   0.468  13.671  2.1879  0.8947  1.4364
  121TMC2    H2 1852   3.395   0.075  13.529 -2.1053  1.0428  0.5996
  121TMC2    C7 1853   3.190   0.247  13.565 -0.5519 -0.8377  0.1533
  121TMC2    C8 1854   3.641   0.117  13.524 -0.1039 -0.2509  0.0328
  121TMC2    O1 1855   3.179   0.133  13.519 -0.3462 -0.0802 -0.4345
  121TMC2    O2 1856   3.754   0.149  13.486 -0.0274  0.3627 -0.4878
  121TMC2    O5 1857   3.615   0.019  13.613  0.7636  0.0840 -0.3612
  121TMC2    H5 1858   3.539   0.038  13.671  3.4746 -0.9706  3.5422
  122MPD2     C 1859   3.692   0.815  13.697 -0.3970  0.0165  0.7047
  122MPD2    C1 1860   3.692   0.735  13.585 -0.7185  0.0034  0.0997
  122MPD2    C2 1861   3.774   0.778  13.486 -0.5894  0.0603 -0.1841
  122MPD2    C3 1862   3.834   0.902  13.482  0.1068 -0.9710  0.3372
  122MPD2    C4 1863   3.825   0.982  13.600 -0.6152  0.2908 -0.6859
  122MPD2    C5 1864   3.757   0.938  13.712 -0.2693  0.3510 -0.3340
  122MPD2     H 1865   3.788   0.708  13.405 -0.0175  1.7899 -1.5703
  122MPD2    H1 1866   3.891   1.066  13.616  0.3268 -1.5595  5.0850
  122MPD2    H2 1867   3.644   0.783  13.788  1.0944 -1.5292  0.9357
  122MPD2    H3 1868   3.768   0.984  13.810 -0.9763 -0.6690  0.2316
  122MPD2     N 1869   3.915   0.952  13.376 -0.5054 -0.1711  0.5036
  122MPD2    H5 1870   3.947   1.047  13.390 -0.4487 -0.2730  1.0790
  122MPD2    N1 1871   3.629   0.612  13.586 -0.0577 -0.1976  0.4949
  122MPD2    H7 1872   3.638   0.555  13.503 -2.2346 -0.1345  0.2123
  123MPD2     C 1873   0.910   4.246   9.195  0.2632 -0.1229 -0.2445
  123MPD2    C1 1874   1.006   4.214   9.285  0.0639  0.8025 -0.5059
  123MPD2    C2 1875   1.098   4.309   9.323  0.2785 -0.8609  0.2896
  123MPD2    C3 1876   1.095   4.436   9.270 -0.4353  0.1689  0.6014
  123MPD2    C4 1877   1.006   4.459   9.163  0.3227  0.3480  0.0964
  123MPD2    C5 1878   0.910   4.367   9.131  0.7040 -0.3487 -0.8800
  123MPD2     H 1879   1.167   4.287   9.404 -0.0703 -2.3561  0.1836
  123MPD2    H1 1880   1.012   4.550   9.104  2.1685 -1.3141 -2.2944
  123MPD2    H2 1881   0.840   4.170   9.163  1.4722 -0.5105 -1.9809
  123MPD2    H3 1882   0.836   4.389   9.055  1.2915 -0.9883 -1.6441
  123MPD2     N 1883   1.208   4.517   9.302  0.6296  0.1578 -0.2020
  123MPD2    H5 1884   1.273   4.478   9.369  1.7026  1.5896 -0.4098
  123MPD2    N1 1885   1.008   4.078   9.320  0.1977 -0.0320  0.3244
  123MPD2    H7 1886   0.937   4.016   9.284  0.2054  0.2847 -0.2296
  124TCq2    C1 1887   1.228   4.648   9.264 -0.6100  0.2784  0.6475
  124TCq2    O2 1888   1.157   0.005   9.204 -0.1631  0.1278  0.5071
  124TCq2    C2 1889   1.341   4.710   9.340 -0.8635  0.9624  0.6117
  124TCq2    C3 1890   1.345   0.126   9.353 -0.0276  0.3102  0.4717
  124TCq2    C4 1891   1.454   0.182   9.415  0.4179 -1.4140 -0.0368
  124TCq2    C5 1892   1.567   0.110   9.458 -0.0929 -0.5925 -0.4506
  124TCq2    C6 1893   1.558   4.690   9.439 -0.2338 -0.2624  0.3938
  124TCq2    C7 1894   1.442   4.628   9.383  0.6888 -0.2635  0.0941
  124TCq2    C8 1895   1.672   4.607   9.466  0.0230  0.9128  0.4978
  124TCq2    O4 1896   1.651   4.494   9.501  0.3979  0.0706  0.6760
  124TCq2    C9 1897   1.455   0.322   9.424 -0.0484 -0.2178  0.4498
  124TCq2    O5 1898   1.354   0.378   9.374 -0.2094  0.6185  0.2073
  124TCq2    O6 1899   1.549   0.380   9.493  0.1659 -0.3268  0.1025
  124TCq2    H2 1900   1.260   0.188   9.326 -0.7009  0.7312  3.4407
  124TCq2    H3 1901   1.643   0.160   9.517 -0.2876 -0.0275 -0.6736
  124TCq2    H4 1902   1.456   4.521   9.370 -0.4671 -0.1329 -2.1832
  125TMC2    C1 1903   4.334   4.503   9.315 -0.7013 -0.8663  0.2657
  125TMC2    C2 1904   4.273   4.380   9.290  0.0964 -0.4776  1.0511
  125TMC2    C3 1905   4.187   4.380   9.184 -0.1940 -0.8511 -0.4910
  125TMC2    C4 1906   4.311   4.619   9.242  1.1304 -1.3267 -0.0955
  125TMC2    C5 1907   4.229   4.608   9.131  0.3630 -0.3342 -0.4328
  125TMC2    C6 1908   4.158   4.492   9.113  0.2427 -0.0743  0.3459
  125TMC2     C 1909   4.448   4.524   9.414 -0.4206 -0.4678  0.2870
  125TMC2     O 1910   4.491   4.633   9.453  0.2099 -0.2966  0.2272
  125TMC2     H 1911   4.262   4.301   9.364 -3.1930 -1.4410 -0.4503
  125TMC2    H1 1912   4.368   4.704   9.277  0.3001 -1.0995  0.6942
  125TMC2    H2 1913   4.107   4.472   9.020 -0.4836  0.9004  0.5327
  125TMC2    C7 1914   4.176   0.012   9.070 -0.2114  0.2960  0.6601
  125TMC2    C8 1915   4.120   4.257   9.145 -0.5100 -0.3755  0.8691
  125TMC2    O1 1916   4.075   0.003   9.001  0.6224  0.3393  0.4712
  125TMC2    O2 1917   4.026   4.250   9.068  0.6430  0.5613  0.2395
  125TMC2    O5 1918   4.224   4.171   9.143  0.3233  0.0272  0.4316
  125TMC2    H5 1919   4.291   4.199   9.209  0.4274 -0.1501  0.4006
  126MPD1     C 1920   0.017   4.293   9.765 -0.1196 -0.8774 -0.3363
  126MPD1    C1 1921   4.645   4.199   9.723 -0.1108 -0.2018 -0.4257
  126MPD1    C2 1922   4.561   4.248   9.620 -0.2072 -0.2981  0.0689
  126MPD1    C3 1923   4.564   4.375   9.572 -0.3348 -0.0534  0.7488
  126MPD1    C4 1924   4.643   4.470   9.633 -0.3251  0.3549 -0.3138
  126MPD1    C5 1925   0.009   4.423   9.728 -0.9193 -0.1769  0.9841
  126MPD1     H 1926   4.512   4.178   9.553 -0.0092  0.0268 -0.4186
  126MPD1    H1 1927   4.659   4.572   9.602  0.7764 -0.1714 -1.4881
  126MPD1    H2 1928   0.100   4.262   9.827  0.1413  0.5850  0.0517
  126MPD1    H3 1929   0.085   4.490   9.768 -2.7832  2.6121 -0.1892
  126MPD1     N 1930   4.488   4.398   9.460 -0.3536  0.7487  0.2326
  126MPD1    H5 1931   4.453   4.315   9.414 -2.3245  1.8063 -0.1990
  126MPD1    N1 1932   4.647   4.063   9.750 -0.4102  0.2465 -0.0114
  126MPD1    H6 1933   4.706   4.051   9.832 -1.2730 -1.2727  0.3825
  126MPD1    H7 1934   4.552   4.028   9.762 -0.1711 -0.5736 -0.4829
  127MPD2     C 1935   3.884   4.269   9.425 -0.3540  0.3535  0.2756
  127MPD2    C1 1936   3.930   4.189   9.525  0.0349 -0.4371 -0.0211
  127MPD2    C2 1937   4.014   4.255   9.619 -0.8997  0.4617  0.2749
  127MPD2    C3 1938   4.065   4.382   9.599  0.4836 -0.0484  0.1510
  127MPD2    C4 1939   4.025   4.452   9.487 -0.0546 -0.5657 -0.4418
  127MPD2    C5 1940   3.928   4.398   9.410  0.0315 -0.2783 -0.4275
  127MPD2     H 1941   4.045   4.199   9.707 -0.5741 -1.4068 -1.0119
  127MPD2    H1 1942   4.064   4.547   9.453  0.1696 -0.9748 -1.3077
  127MPD2    H2 1943   3.808   4.237   9.355 -1.4892 -0.6061  1.9585
  127MPD2    H3 1944   3.874   4.458   9.337 -0.1785 -1.3834 -1.1719
  127MPD2     N 1945   4.165   4.425   9.687 -0.3782 -0.1732  0.6772
  127MPD2    H5 1946   4.171   4.382   9.779 -1.6205  0.4207  1.0346
  127MPD2    N1 1947   3.902   4.053   9.529  0.0812 -0.4600 -0.7939
  127MPD2    H7 1948   3.855   4.015   9.447 -0.0801 -0.0589 -0.8887
  128TCq2    C1 1949   3.929   3.962   9.632  0.2457 -1.2804  0.2496
  128TCq2    O2 1950   3.974   3.981   9.742 -0.0341  1.0059  0.0963
  128TCq2    C2 1951   3.883   3.821   9.613  0.2406  0.5529  0.1246
  128TCq2    C3 1952   3.924   3.730   9.711 -0.9435  0.2565 -0.3072
  128TCq2    C4 1953   3.875   3.600   9.715 -0.1816  0.1787  0.2383
  128TCq2    C5 1954   3.778   3.559   9.630 -0.2575 -0.1028  0.3059
  128TCq2    C6 1955   3.734   3.658   9.542  0.4349  0.1936  0.5204
  128TCq2    C7 1956   3.779   3.788   9.532 -0.1010 -0.2458  0.0445
  128TCq2    C8 1957   3.638   3.620   9.447  0.1131 -0.7202 -0.1866
  128TCq2    O4 1958   3.633   3.691   9.347  0.1418 -0.1693 -0.1311
  128TCq2    C9 1959   3.917   3.512   9.817 -0.3781  0.3818 -0.4908
  128TCq2    O5 1960   3.890   3.387   9.798  0.3327 -0.5174  0.7354
  128TCq2    O6 1961   4.008   3.564   9.884  0.2091  0.4279 -0.0206
  128TCq2    H2 1962   4.014   3.755   9.767 -0.1273 -1.4531 -0.8245
  128TCq2    H3 1963   3.743   3.457   9.641  1.3460 -0.9364 -2.1794
  128TCq2    H4 1964   3.727   3.857   9.467 -2.5460 -0.6859  1.5112
  129MPD2     C 1965   3.330   0.480   1.952 -0.2216  0.2732 -0.1314
  129MPD2    C1 1966   3.332   0.460   1.814  0.0090 -0.4724  0.0946
  129MPD2    C2 1967   3.304   0.565   1.723 -0.0023 -0.4171  0.8777
  129MPD2    C3 1968   3.262   0.683   1.777 -0.3077 -0.8326  0.0816
  129MPD2    C4 1969   3.263   0.705   1.912  0.4528 -0.1028 -0.2240
  129MPD2    C5 1970   3.291   0.604   2.001 -0.3475 -0.2739 -0.1090
  129MPD2     H 1971   3.334   0.550   1.620 -0.8835 -2.7865  0.9638
  129MPD2    H1 1972   3.235   0.798   1.959  0.8127  1.3344 -2.8249
  129MPD2    H2 1973   3.347   0.397   2.019 -0.4855 -0.7950 -1.3899
  129MPD2    H3 1974   3.298   0.617   2.108 -0.6052 -0.3650 -0.0799
  129MPD2     N 1975   3.237   0.794   1.693  0.0189 -0.5317 -0.2539
  129MPD2    H5 1976   3.251   0.793   1.592  1.1930 -1.0589 -0.0906
  129MPD2    N1 1977   3.363   0.321   1.787 -0.1492  0.3372 -0.4420
  129MPD2    H7 1978   3.380   0.257   1.864  0.3340  0.5170 -0.4033
  130TCq2    C1 1979   3.365   0.271   1.663 -0.3983 -0.3948  0.1591
  130TCq2    O2 1980   3.318   0.321   1.561  0.2350  0.1265  0.5248
  130TCq2    C2 1981   3.432   0.142   1.661 -0.0905 -0.7378  0.1979
  130TCq2    C3 1982   3.520   0.115   1.755  0.4698  0.1198 -0.2406
  130TCq2    C4 1983   3.576   4.708   1.747 -1.0143 -0.4024  1.1552
  130TCq2    C5 1984   3.547   4.614   1.652  0.2148  0.3325  0.7506
  130TCq2    C6 1985   3.456   4.656   1.561 -0.9782  0.4499  0.2954
  130TCq2    C7 1986   3.391   0.053   1.561 -0.3604  0.0688 -0.1403
  130TCq2    C8 1987   3.392   4.553   1.482 -0.0218 -0.1596  0.1028
  130TCq2    O4 1988   3.278   4.566   1.434 -0.7212  0.5022  0.4175
  130TCq2    C9 1989   3.664   4.665   1.851 -0.2243  0.3296 -0.6140
  130TCq2    O5 1990   3.655   0.006   1.958 -0.0499  0.0090  0.2798
  130TCq2    O6 1991   3.727   4.552   1.837 -0.0362 -0.3900  0.0965
  130TCq2    H2 1992   3.559   0.177   1.835  0.8152  1.6003 -1.5726
  130TCq2    H3 1993   3.575   4.513   1.678  1.9008  1.1732  2.1691
  130TCq2    H4 1994   3.326   0.089   1.482 -0.9497 -0.6690  0.0069
  131MPD2     C 1995   1.565   3.852   9.992  0.1573 -0.5315  0.4102
  131MPD2    C1 1996   1.565   3.948   9.895  0.4137  0.7946  0.6412
  131MPD2    C2 1997   1.504   3.916   9.775 -0.1251 -0.2165  0.0390
  131MPD2    C3 1998   1.446   3.786   9.756  0.3689  0.4959  0.0311
  131MPD2    C4 1999   1.451   3.692   9.855 -0.7528  0.0139  0.5450
  131MPD2    C5 2000   1.501   3.736   9.972  0.1170 -0.1452  0.0483
  131MPD2     H 2001   1.482   3.979   9.689  0.1773  0.2670  0.3154
  131MPD2    H1 2002   1.401   3.596   9.862  2.0192 -1.4405  0.4518
  131MPD2    H2 2003   1.619   3.872  10.084 -0.9269 -1.5948  1.2677
  131MPD2    H3 2004   1.507   3.660  10.049 -1.5415  0.4944  0.8248
  131MPD2     N 2005   1.362   3.776   9.643  0.1563  0.0328  0.1574
  131MPD2    H5 2006   1.359   3.856   9.581  1.2426 -0.3459 -0.3886
  131MPD2    N1 2007   1.644   4.064   9.920 -0.0522  0.0407 -0.4388
  131MPD2    H7 2008   1.711   4.062   9.996 -0.0735  0.8909 -0.3993
  132TCq2    C1 2009   1.733   4.644   9.871  0.0200 -0.7458  0.4106
  132TCq2    O2 2010   1.625   4.667   9.814 -0.0605  0.2523 -0.2454
  132TCq2    C2 2011   1.762   4.505   9.903 -0.5688 -0.2329 -0.0566
  132TCq2    C3 2012   1.825   4.488  10.022 -0.6132  0.1233 -0.0278
  132TCq2    C4 2013   1.847   4.363  10.069 -0.3675  0.2269 -0.2433
  132TCq2    C5 2014   1.801   4.257  10.005 -0.0426  0.7072  0.2275
  132TCq2    C6 2015   1.730   4.277   9.889 -0.0056  0.3587 -0.1203
  132TCq2    C7 2016   1.711   4.401   9.831  0.1951  0.6474 -0.0563
  132TCq2    C8 2017   1.645   4.175   9.838 -0.1417  0.3682  0.2676
  132TCq2    O4 2018   1.575   4.191   9.740 -0.8146 -0.2436 -0.0937
  132TCq2    C9 2019   1.904   4.343  10.196 -0.5329  0.1450  0.3278
  132TCq2    O5 2020   1.874   4.237  10.263 -0.4828  0.5922 -0.2304
  132TCq2    O6 2021   1.982   4.436  10.244 -0.0562  0.6241  0.0630
  132TCq2    H2 2022   1.853   4.567  10.091 -2.7254  0.6090  0.2710
  132TCq2    H3 2023   1.825   4.162  10.052  1.6428  0.8599 -0.2969
  132TCq2    H4 2024   1.647   4.424   9.746 -1.0779  0.8593  0.9554
  133MPD2     C 2025   4.440   4.441   8.929  0.2446 -0.4515  0.1323
  133MPD2    C1 2026   4.492   4.566   8.954 -0.7568  0.0941  0.2548
  133MPD2    C2 2027   4.592   4.578   9.052  0.6788  0.1556 -0.5145
  133MPD2    C3 2028   4.636   4.472   9.130  0.3895 -0.3866 -0.1756
  133MPD2    C4 2029   4.573   4.355   9.103  0.0957 -0.7131 -0.6167
  133MPD2    C5 2030   4.491   4.339   8.998  0.2328  0.8774  0.6504
  133MPD2     H 2031   4.626   4.679   9.073 -0.8861  0.5651  0.0679
  133MPD2    H1 2032   4.590   4.264   9.159 -2.2987 -0.9091 -0.1930
  133MPD2    H2 2033   4.368   4.418   8.850 -0.0519  0.5308  0.1193
  133MPD2    H3 2034   4.460   4.236   8.981  2.1366  0.0155  2.4103
  133MPD2     N 2035   0.016   4.484   9.240  0.3921 -0.2098 -0.4792
  133MPD2    H5 2036   0.047   4.398   9.284  0.3425 -0.6230 -1.2588
  133MPD2    N1 2037   4.463   4.669   8.865 -0.1685  0.0034  0.6914
  133MPD2    H7 2038   4.399   4.644   8.790 -0.2844  0.9540  0.4718
  134TCq2    C1 2039   4.503   0.084   8.866  0.1614  0.6028 -0.4001
  134TCq2    O2 2040   4.583   0.141   8.940  0.7518 -0.0014 -0.4001
  134TCq2    C2 2041   4.448   0.157   8.750 -0.4108  0.0609 -0.4684
  134TCq2    C3 2042   4.507   0.277   8.713 -0.5636  1.4792 -0.1949
  134TCq2    C4 2043   4.454   0.350   8.611 -0.6209  0.3253 -0.3142
  134TCq2    C5 2044   4.344   0.300   8.546 -0.0505  0.1099 -0.5488
  134TCq2    C6 2045   4.274   0.188   8.600 -0.0049 -0.1001 -0.2378
  134TCq2    C7 2046   4.326   0.110   8.702  0.4922  0.2489 -0.4527
  134TCq2    C8 2047   4.149   0.147   8.531 -0.8882 -0.4842  0.8467
  134TCq2    O4 2048   4.087   0.057   8.586 -0.5416  0.0376  0.3343
  134TCq2    C9 2049   4.513   0.471   8.555 -0.2173  0.5184 -0.0775
  134TCq2    O5 2050   4.636   0.479   8.578  0.1146 -0.0036  0.2769
  134TCq2    O6 2051   4.435   0.551   8.490  0.2495  0.7098  0.3081
  134TCq2    H2 2052   4.592   0.310   8.771  1.0752 -0.0575 -1.7341
  134TCq2    H3 2053   4.300   0.359   8.467 -1.0736  1.6547  1.1494
  134TCq2    H4 2054   4.276   0.019   8.732 -0.2633  0.6360 -0.5221
  135MPD2     C 2055   3.925   0.673   8.708 -0.3235  0.1215 -0.0535
  135MPD2    C1 2056   3.967   0.779   8.787 -0.0805 -0.4657  0.8025
  135MPD2    C2 2057   4.103   0.807   8.788  0.2423 -0.1013 -0.5688
  135MPD2    C3 2058   4.193   0.728   8.716 -0.7420 -0.1727  0.0128
  135MPD2    C4 2059   4.147   0.619   8.639  0.1817  0.0526  0.5791
  135MPD2    C5 2060   4.014   0.602   8.628 -0.1940 -0.1229  0.5710
  135MPD2     H 2061   4.141   0.891   8.844 -0.5315  0.2896 -0.6232
  135MPD2    H1 2062   4.212   0.548   8.589 -1.6522  1.2917 -3.5501
  135MPD2    H2 2063   3.820   0.649   8.702 -0.1597 -0.7876  0.6555
  135MPD2    H3 2064   3.973   0.518   8.573  0.7355  0.4648 -1.0017
  135MPD2     N 2065   4.337   0.737   8.746  0.3947  0.2160  0.2605
  135MPD2    H5 2066   4.391   0.681   8.681  0.3516 -2.0199  2.1152
  135MPD2    N1 2067   3.866   0.847   8.853  0.0365  0.9406 -0.0618
  135MPD2    H7 2068   3.775   0.804   8.868  0.4914  0.3834  1.1092
  136TCq2    C1 2069   3.888   0.967   8.917 -0.4311 -0.5807 -0.0238
  136TCq2    O2 2070   3.984   1.044   8.916  0.3901 -0.8892 -0.3254
  136TCq2    C2 2071   3.777   1.016   9.001  0.1643 -0.4730  0.0448
  136TCq2    C3 2072   3.753   1.155   9.019 -0.2283  0.4410 -0.1000
  136TCq2    C4 2073   3.643   1.198   9.090  0.6864  0.3270  0.1471
  136TCq2    C5 2074   3.560   1.105   9.149  0.0702  0.0191  0.2662
  136TCq2    C6 2075   3.588   0.974   9.136  0.1436  0.2414 -0.2299
  136TCq2    C7 2076   3.684   0.923   9.052 -0.3301  1.1930 -0.0619
  136TCq2    C8 2077   3.506   0.877   9.210 -0.1642 -0.3845 -0.1573
  136TCq2    O4 2078   3.512   0.763   9.164 -0.2384 -0.4311 -0.3048
  136TCq2    C9 2079   3.609   1.341   9.109  0.6215 -0.3512  0.1999
  136TCq2    O5 2080   3.682   1.417   9.179  0.3588 -0.1538 -0.3134
  136TCq2    O6 2081   3.486   1.362   9.096 -0.4735 -0.3336 -0.0566
  136TCq2    H2 2082   3.825   1.220   8.971 -0.0684  1.1737  1.1431
  136TCq2    H3 2083   3.482   1.149   9.210 -1.5435 -1.1838 -0.9337
  136TCq2    H4 2084   3.706   0.817   9.049  1.1848  1.4780  0.7128
  137MPD2     C 2085   3.048   4.246  10.059 -0.3466  0.2799  0.1083
  137MPD2    C1 2086   3.119   4.348  10.020 -0.2860  0.5805  0.1763
  137MPD2    C2 2087   3.156   4.443  10.109 -0.5348  0.9257 -0.3909
  137MPD2    C3 2088   3.113   4.438  10.242 -1.0100 -0.2738 -0.3516
  137MPD2    C4 2089   3.015   4.343  10.277  0.7935  0.0526 -0.6427
  137MPD2    C5 2090   3.008   4.238  10.191 -0.4840  0.3155  0.6377
  137MPD2     H 2091   3.224   4.518  10.070  2.1593 -1.2496  0.0862
  137MPD2    H1 2092   2.995   4.333  10.383 -0.8877  1.3411 -0.8455
  137MPD2    H2 2093   3.019   4.168   9.990 -0.8041 -1.2560  2.0115
  137MPD2    H3 2094   2.955   4.149  10.223 -0.6769  0.1307 -0.2005
  137MPD2     N 2095   3.155   4.527  10.335 -0.1743  0.6043  0.0931
  137MPD2    H5 2096   3.113   4.520  10.427 -0.3722  0.2838 -0.0220
  137MPD2    N1 2097   3.155   4.347   9.885  0.1448 -0.4331  0.4020
  137MPD2    H7 2098   3.131   4.269   9.824 -0.8309  1.9291 -2.2096
  138TCq2    C1 2099   3.234   4.436   9.820 -0.0136 -0.2430  0.3351
  138TCq2    O2 2100   3.260   4.550   9.848  0.5628 -0.3233  0.5744
  138TCq2    C2 2101   3.233   4.409   9.673  0.5204 -0.3434 -0.7271
  138TCq2    C3 2102   3.234   4.284   9.624  0.2303 -0.0903 -0.0524
  138TCq2    C4 2103   3.237   4.271   9.491  0.6185 -0.4957 -0.3049
  138TCq2    C5 2104   3.237   4.379   9.403  0.1181  0.0997 -0.5815
  138TCq2    C6 2105   3.246   4.505   9.454  0.9105 -0.1249 -0.3277
  138TCq2    C7 2106   3.238   4.512   9.587 -0.5141  0.7813 -0.0668
  138TCq2    C8 2107   3.198   4.617   9.374  0.0503  0.2738 -0.0318
  138TCq2    O4 2108   3.228   4.642   9.258  0.0363 -0.0171  0.0286
  138TCq2    C9 2109   3.214   4.141   9.429 -0.8486 -0.5991  0.0132
  138TCq2    O5 2110   3.181   4.039   9.496  0.1736  0.1796 -0.3599
  138TCq2    O6 2111   3.242   4.128   9.308 -0.0294  0.3298  0.2112
  138TCq2    H2 2112   3.226   4.195   9.684 -1.0970  0.6750  0.9058
  138TCq2    H3 2113   3.225   4.361   9.297 -1.9892  2.1971 -0.7006
  138TCq2    H4 2114   3.256   4.608   9.633  3.0413  1.3644 -2.6805
  139TMC2    C1 2115   3.725   3.260  13.772 -0.2706 -0.2905  0.4968
  139TMC2    C2 2116   3.782   3.209  13.878 -0.2418  0.1992 -0.1678
  139TMC2    C3 2117   3.757   3.269  13.994  0.1644 -0.2803  0.3128
  139TMC2    C4 2118   3.652   3.373  13.773 -0.0529 -0.6382  0.7433
  139TMC2    C5 2119   3.643   3.437  13.893  0.1638  0.3583  0.5723
  139TMC2    C6 2120   3.699   3.388  14.006 -0.5904  0.0282  0.0018
  139TMC2     C 2121   3.723   3.183  13.647  0.1832  0.6235  0.2527
  139TMC2     O 2122   3.657   3.229  13.556  0.3849  0.3850 -0.4705
  139TMC2     H 2123   3.850   3.125  13.867 -0.3916  0.2575 -1.6029
  139TMC2    H1 2124   3.630   3.422  13.679  0.5627 -1.0790  0.3729
  139TMC2    H2 2125   3.664   3.423  14.102 -0.3965 -1.5866  0.6579
  139TMC2    C7 2126   3.570   3.560  13.908 -0.3049  0.4298 -0.1968
  139TMC2    C8 2127   3.821   3.222  14.113  0.4457  0.1299  0.0761
  139TMC2    O1 2128   3.488   3.581  13.821  0.1236 -0.4793  0.4819
  139TMC2    O2 2129   3.871   3.108  14.104 -0.2513  0.0907 -0.2440
  139TMC2    O5 2130   3.881   3.328  14.173  0.2670  0.3807 -0.0642
  139TMC2    H5 2131   3.834   3.413  14.177  1.6810  1.0811  1.8944
  140MPD2     C 2132   3.973   2.927  13.551  1.1081  0.6091  0.4019
  140MPD2    C1 2133   3.853   2.998  13.543  0.1471  0.4109  0.0631
  140MPD2    C2 2134   3.762   2.967  13.447 -0.3220  0.3797 -0.0982
  140MPD2    C3 2135   3.785   2.872  13.356 -0.1956 -0.3536  0.0793
  140MPD2    C4 2136   3.906   2.797  13.369 -0.3511 -0.1085 -1.0224
  140MPD2    C5 2137   3.997   2.825  13.465 -0.1379  0.6091 -0.1236
  140MPD2     H 2138   3.662   3.009  13.440 -0.7273 -0.3390  1.4675
  140MPD2    H1 2139   3.933   2.711  13.309 -1.8712 -0.8747 -0.5874
  140MPD2    H2 2140   4.047   2.949  13.628 -1.1603  3.0979  1.8719
  140MPD2    H3 2141   4.084   2.762  13.477 -0.8172 -0.3952 -0.4343
  140MPD2     N 2142   3.691   2.851  13.255 -0.2362  0.7268 -0.2341
  140MPD2    H5 2143   3.615   2.917  13.252  1.0487  2.2155 -0.0685
  140MPD2    N1 2144   3.823   3.089  13.644  0.2799 -0.1597 -0.6891
  140MPD2    H7 2145   3.885   3.089  13.725 -0.1110  1.0943 -0.3841
  141TCq2    C1 2146   4.123   4.686  14.495 -0.7854 -0.2673 -0.1191
  141TCq2    O2 2147   4.121   0.069  14.433  0.2408  0.1971  0.0599
  141TCq2    C2 2148   4.031   4.674  14.608  0.0372 -0.0938 -0.8329
  141TCq2    C3 2149   4.003   4.545  14.659  0.3847  0.2662  0.5278
  141TCq2    C4 2150   3.908   4.534  14.757 -0.1350  0.4926  0.4589
  141TCq2    C5 2151   3.850   4.644  14.807 -0.0224  0.2386  0.3028
  141TCq2    C6 2152   3.885   0.054  14.755  0.2141 -0.1612  0.0901
  141TCq2    C7 2153   3.976   0.062  14.658  0.2454 -0.1216  1.0513
  141TCq2    C8 2154   3.887   0.156  14.852  0.6336 -0.0907  0.0354
  141TCq2    O4 2155   3.880   0.124  14.968 -0.6949  0.1609 -0.7639
  141TCq2    C9 2156   3.875   4.403  14.815 -0.6166  0.5304  0.7773
  141TCq2    O5 2157   3.933   4.302  14.765 -0.3196 -0.3784  0.2569
  141TCq2    O6 2158   3.782   4.392  14.900  0.3044  0.2779 -0.5806
  141TCq2    H2 2159   4.047   4.454  14.622  0.6719  0.6211 -0.0061
  141TCq2    H3 2160   3.791   4.638  14.898 -0.2332 -0.6540  0.1078
  141TCq2    H4 2161   4.014   0.159  14.625 -0.3769 -0.2436 -0.0416
  142MPD2     C 2162   1.750   3.455   9.726 -0.1161 -0.6602  0.6533
  142MPD2    C1 2163   1.762   3.498   9.859  0.0240 -0.4325 -0.0633
  142MPD2    C2 2164   1.819   3.612   9.892  0.3321  0.1136 -0.5320
  142MPD2    C3 2165   1.855   3.696   9.789 -0.3109 -0.3477 -0.8497
  142MPD2    C4 2166   1.834   3.667   9.657 -0.9220 -0.9091  0.5850
  142MPD2    C5 2167   1.773   3.550   9.624 -0.4091  0.8162 -0.0340
  142MPD2     H 2168   1.823   3.641   9.996  2.8482 -0.2253 -0.5242
  142MPD2    H1 2169   1.860   3.739   9.580 -0.3663 -1.4395  0.2787
  142MPD2    H2 2170   1.705   3.357   9.713  0.5036 -0.5913 -1.8793
  142MPD2    H3 2171   1.749   3.518   9.524  0.6723 -2.0649  0.6040
  142MPD2     N 2172   1.926   3.811   9.804  0.3428  0.0553 -0.1235
  142MPD2    H5 2173   1.956   3.857   9.719 -1.6637  0.7443 -0.4407
  142MPD2    N1 2174   1.697   3.406   9.944  0.1989 -0.6725  0.8335
  142MPD2    H7 2175   1.655   3.327   9.896 -1.2024  0.0220  0.9001
  143TCq2    C1 2176   1.960   3.868   9.928  0.4769 -0.4525  0.6805
  143TCq2    O2 2177   1.927   3.836  10.043 -0.6792  0.1464  0.2670
  143TCq2    C2 2178   2.041   3.980   9.906  0.9873 -0.5056 -0.3996
  143TCq2    C3 2179   2.112   4.019  10.016  0.0930 -0.1379  0.1402
  143TCq2    C4 2180   2.163   4.143  10.011 -0.1827 -0.3346  0.1876
  143TCq2    C5 2181   2.154   4.225   9.898  0.2094 -0.8081  0.2030
  143TCq2    C6 2182   2.076   4.180   9.796  0.5735  0.0692  0.2812
  143TCq2    C7 2183   2.013   4.060   9.801 -0.7841 -0.3276 -0.7267
  143TCq2    C8 2184   2.026   4.270   9.698 -0.0755 -0.3019 -0.1863
  143TCq2    O4 2185   1.924   4.236   9.639 -0.5654 -0.1691  0.0991
  143TCq2    C9 2186   2.241   4.195  10.118 -0.5926 -0.3109 -0.1635
  143TCq2    O5 2187   2.300   4.306  10.103  0.1424 -0.1985  0.0789
  143TCq2    O6 2188   2.226   4.136  10.231 -0.6621  0.3216  0.3718
  143TCq2    H2 2189   2.130   3.953  10.099 -0.1672 -0.4952 -0.0876
  143TCq2    H3 2190   2.190   4.328   9.895 -1.4300 -0.2533 -0.4232
  143TCq2    H4 2191   1.940   4.038   9.724 -0.6819 -0.7768 -0.6932
  144MPD2     C 2192   4.108   2.648   1.080  0.5509 -0.1494  0.6761
  144MPD2    C1 2193   4.088   2.511   1.097  0.7961  0.2241 -0.4645
  144MPD2    C2 2194   4.167   2.442   1.192 -0.5047  0.6631 -0.3843
  144MPD2    C3 2195   4.271   2.502   1.250 -0.1354 -0.2692 -0.0424
  144MPD2    C4 2196   4.306   2.626   1.209  0.3859 -0.0297 -0.4576
  144MPD2    C5 2197   4.223   2.705   1.126  0.0870  0.7019  0.7621
  144MPD2     H 2198   4.150   2.337   1.215 -0.8168  0.5349 -1.1746
  144MPD2    H1 2199   4.401   2.673   1.233  1.0791 -2.9621  2.5450
  144MPD2    H2 2200   4.034   2.708   1.029  2.1583  1.4564  0.2713
  144MPD2    H3 2201   4.239   2.807   1.093  0.5748  0.3470 -0.0857
  144MPD2     N 2202   4.355   2.430   1.338 -0.6751  0.0976 -0.2805
  144MPD2    H5 2203   4.440   2.476   1.368 -0.5113  0.1314 -0.7897
  144MPD2    N1 2204   3.984   2.440   1.029 -0.0410 -0.3116  0.2261
  144MPD2    H7 2205   3.978   2.341   1.049  2.2064 -0.6952 -0.9777
  145TCq2    C1 2206   4.320   2.313   1.401  0.0657 -0.8641  0.0001
  145TCq2    O2 2207   4.210   2.267   1.434  0.4004  0.7462  0.4027
  145TCq2    C2 2208   4.434   2.285   1.491 -0.0480 -0.1124 -0.5469
  145TCq2    C3 2209   4.404   2.284   1.626  0.7255 -0.4393 -0.5531
  145TCq2    C4 2210   4.511   2.286   1.706  0.0304  0.5787  0.1220
  145TCq2    C5 2211   4.640   2.265   1.656 -0.4156 -0.8408 -0.4772
  145TCq2    C6 2212   4.666   2.264   1.519 -0.0508  0.5430  0.0812
  145TCq2    C7 2213   4.563   2.278   1.435 -0.4196 -0.2973  0.2474
  145TCq2    C8 2214   0.076   2.324   1.473  0.3600 -0.3418  0.8888
  145TCq2    O4 2215   0.149   2.364   1.562 -0.3383 -0.2403 -0.1448
  145TCq2    C9 2216   4.501   2.287   1.852 -0.5848 -0.3829 -0.5494
  145TCq2    O5 2217   4.603   2.260   1.919  0.6543  0.5069 -0.1548
  145TCq2    O6 2218   4.384   2.280   1.898 -0.0784  0.2833  0.4505
  145TCq2    H2 2219   4.301   2.282   1.662  1.8275 -1.2968  2.5424
  145TCq2    H3 2220   0.001   2.285   1.726  0.6769 -0.7026 -1.7686
  145TCq2    H4 2221   4.580   2.286   1.329 -0.5494 -0.9523  0.1761
  146TMC2    C1 2222   1.220   1.000  12.484 -0.1857 -0.6356 -0.1393
  146TMC2    C2 2223   1.154   1.096  12.410 -0.6929 -0.0973 -0.4999
  146TMC2    C3 2224   1.161   1.083  12.275 -0.0380  0.0121  1.0032
  146TMC2    C4 2225   1.294   0.898  12.424 -0.7812  0.9052  0.4971
  146TMC2    C5 2226   1.300   0.892  12.287 -0.2709  0.8357 -0.4132
  146TMC2    C6 2227   1.234   0.985  12.211 -0.9031 -0.4888  0.2599
  146TMC2     C 2228   1.213   1.026  12.631 -0.5537  0.1252  0.6634
  146TMC2     O 2229   1.144   1.115  12.674 -0.0659 -0.4066 -0.4407
  146TMC2     H 2230   1.105   1.182  12.454 -3.9767 -2.0527 -0.3695
  146TMC2    H1 2231   1.339   0.822  12.487  3.1930  0.0336 -3.4184
  146TMC2    H2 2232   1.222   0.972  12.104 -1.5899 -0.6009  0.3530
  146TMC2    C7 2233   1.408   0.826  12.211  0.2251 -0.3665  0.1952
  146TMC2    C8 2234   1.062   1.157  12.198 -0.1268 -0.1221  0.0552
  146TMC2    O1 2235   1.395   0.829  12.088 -0.1364 -0.2918 -0.1221
  146TMC2    O2 2236   1.086   1.256  12.133  0.0416  0.7617 -0.4096
  146TMC2    O5 2237   0.951   1.140  12.271  0.1795  0.0747  0.1013
  146TMC2    H5 2238   0.946   1.045  12.298  0.4952 -0.6973 -2.5411
  147MPD2     C 2239   1.816   0.504  12.169 -0.0520 -0.3286 -0.2044
  147MPD2    C1 2240   1.797   0.534  12.302 -0.1025  0.2532 -0.2452
  147MPD2    C2 2241   1.689   0.617  12.330  0.0954 -0.4353 -0.4897
  147MPD2    C3 2242   1.608   0.676  12.236  0.0316 -0.0174  0.3650
  147MPD2    C4 2243   1.632   0.653  12.105  0.4693 -1.0441 -0.1743
  147MPD2    C5 2244   1.734   0.562  12.076 -0.1075  0.2686  0.3200
  147MPD2     H 2245   1.669   0.650  12.431  2.3573  0.1058 -0.2284
  147MPD2    H1 2246   1.581   0.698  12.021  0.6574  1.0164  0.8019
  147MPD2    H2 2247   1.889   0.428  12.146 -0.6693 -0.7049 -0.9365
  147MPD2    H3 2248   1.758   0.543  11.971 -1.4784  1.0890 -0.1413
  147MPD2     N 2249   1.498   0.750  12.285  0.2835  0.3331 -0.5914
  147MPD2    H5 2250   1.480   0.751  12.384  1.2065  0.0074 -0.4162
  147MPD2    N1 2251   1.873   0.471  12.401  0.0761 -0.4314 -0.3423
  147MPD2    H7 2252   1.969   0.442  12.380  0.6775  0.8068  0.7190
  148MPD2     C 2253   1.053   4.679  10.117  0.3003 -0.2010  0.7086
  148MPD2    C1 2254   1.102   4.565  10.176  0.5458  0.5772  0.7170
  148MPD2    C2 2255   1.060   4.440  10.137  0.0188  0.4295  0.0974
  148MPD2    C3 2256   0.966   4.422  10.039  0.2241 -0.1614 -0.0945
  148MPD2    C4 2257   0.920   4.535   9.971 -0.3859  0.4239 -0.0329
  148MPD2    C5 2258   0.965   4.659  10.012 -0.3531 -0.1385  0.0026
  148MPD2     H 2259   1.100   4.352  10.187 -0.3111 -1.6293 -3.2059
  148MPD2    H1 2260   0.845   4.523   9.894 -0.2587 -3.3756  0.4145
  148MPD2    H2 2261   1.075   0.054  10.165  1.1935  0.5463 -1.1929
  148MPD2    H3 2262   0.921   0.030   9.972  0.7259  0.2021 -0.4275
  148MPD2     N 2263   0.902   4.298  10.012  0.4424 -0.2179  0.2290
  148MPD2    H5 2264   0.833   4.302   9.938  1.5049  0.2325 -0.7481
  148MPD2    N1 2265   1.175   4.567  10.298  0.2517  0.3440  0.7100
  148MPD2    H7 2266   1.203   4.475  10.329 -0.8666 -0.9086 -1.9974
  149TCq2    C1 2267   1.222   4.674  10.376 -0.4302  0.7690 -0.1305
  149TCq2    O2 2268   1.204   0.076  10.361 -0.6871 -0.3100  0.3666
  149TCq2    C2 2269   1.309   4.635  10.493 -0.0400 -0.2665  0.4472
  149TCq2    C3 2270   1.406   0.009  10.522 -0.2497  0.4617  0.0102
  149TCq2    C4 2271   1.506   4.688  10.612 -0.0484 -0.2512 -0.6069
  149TCq2    C5 2272   1.519   4.558  10.643 -0.0674  0.6748  0.5472
  149TCq2    C6 2273   1.418   4.472  10.622  0.1936 -0.2910 -0.5180
  149TCq2    C7 2274   1.309   4.505  10.546  0.1531 -0.2909 -0.3004
  149TCq2    C8 2275   1.432   4.330  10.661  0.4835  0.5970  0.2684
  149TCq2    O4 2276   1.374   4.249  10.597  0.1694 -0.0365  0.2661
  149TCq2    C9 2277   1.635   0.040  10.598 -0.1792  0.6662  0.5705
  149TCq2    O5 2278   1.724   0.008  10.681 -0.6296  0.0991  0.5939
  149TCq2    O6 2279   1.634   0.123  10.502 -0.7134  0.1310 -0.3002
  149TCq2    H2 2280   1.412   0.105  10.473  1.7863  0.3636  0.0414
  149TCq2    H3 2281   1.617   4.524  10.673 -0.7237 -1.4664  0.2546
  149TCq2    H4 2282   1.226   4.437  10.533 -0.0809 -0.0823  0.1178
  150MPD2     C 2283   3.008   3.782  12.026 -0.1149 -0.1384  0.2529
  150MPD2    C1 2284   3.049   3.768  11.890 -0.1594 -0.1494  0.4459
  150MPD2    C2 2285   3.172   3.816  11.857  0.1876 -0.1584  0.3623
  150MPD2    C3 2286   3.262   3.862  11.952 -0.1929  0.2487  0.1961
  150MPD2    C4 2287   3.217   3.871  12.085  0.6265 -0.0974 -0.0091
  150MPD2    C5 2288   3.092   3.832  12.123  0.2141 -0.0984  0.2492
  150MPD2     H 2289   3.216   3.798  11.760  0.8783  3.5783 -0.0155
  150MPD2    H1 2290   3.289   3.908  12.157 -0.3360  3.7309 -1.0215
  150MPD2    H2 2291   2.908   3.763  12.063 -0.7318  2.1604 -0.2154
  150MPD2    H3 2292   3.055   3.833  12.225 -0.1565  1.0311  0.1056
  150MPD2     N 2293   3.388   3.902  11.903  0.1654 -0.3915  0.2724
  150MPD2    H5 2294   3.406   3.908  11.803 -1.3852 -0.9450 -0.0421
  150MPD2    N1 2295   2.960   3.704  11.797 -0.6999  0.3587  0.5896
  150MPD2    H7 2296   2.883   3.652  11.837 -0.2362 -0.3900  0.5193
  151TCq2    C1 2297   3.494   3.939  11.982 -0.1723 -0.0926 -0.5443
  151TCq2    O2 2298   3.514   3.901  12.098  0.2568 -0.3287 -0.1366
  151TCq2    C2 2299   3.602   4.012  11.916  0.6853  0.1576  0.4208
  151TCq2    C3 2300   3.592   4.067  11.792  0.2451  0.0659  1.0742
  151TCq2    C4 2301   3.699   4.127  11.734  0.1811  0.8014 -0.2294
  151TCq2    C5 2302   3.824   4.103  11.785 -0.1606  0.6090 -0.4711
  151TCq2    C6 2303   3.833   4.047  11.911 -0.6278  0.4843 -0.1975
  151TCq2    C7 2304   3.721   4.013  11.978 -0.3494 -0.1410  0.2204
  151TCq2    C8 2305   3.961   4.038  11.969  0.4639 -0.2948 -0.5544
  151TCq2    O4 2306   4.054   4.104  11.926  0.2344  0.0763 -0.0955
  151TCq2    C9 2307   3.684   4.185  11.601 -0.3118 -0.1558  0.4823
  151TCq2    O5 2308   3.791   4.249  11.563 -0.2334  0.5136 -0.1631
  151TCq2    O6 2309   3.580   4.150  11.535  0.9436  0.6214  0.1806
  151TCq2    H2 2310   3.493   4.081  11.748  0.1525 -0.4451  1.1194
  151TCq2    H3 2311   3.914   4.125  11.729  0.3762 -0.7548 -0.1248
  151TCq2    H4 2312   3.719   3.960  12.072  0.2987  1.4342  1.1226
  152MPD2     C 2313   2.704   3.245  12.871  0.6426  0.3011 -0.0448
  152MPD2    C1 2314   2.761   3.350  12.805  0.9103 -0.7751 -0.1346
  152MPD2    C2 2315   2.697   3.407  12.695 -0.9602 -0.1751 -0.0984
  152MPD2    C3 2316   2.576   3.368  12.656  0.9186  0.3498 -0.5213
  152MPD2    C4 2317   2.523   3.256  12.711 -0.2413 -0.7827  0.2918
  152MPD2    C5 2318   2.583   3.194  12.816 -0.2143 -0.8873  0.0430
  152MPD2     H 2319   2.730   3.498  12.645 -1.8597 -0.2298 -0.7994
  152MPD2    H1 2320   2.428   3.218  12.674 -2.2772  2.2860  2.3700
  152MPD2    H2 2321   2.742   3.202  12.963 -0.8870  0.4634  0.6623
  152MPD2    H3 2322   2.541   3.107  12.866  0.4408 -0.6572  0.9970
  152MPD2     N 2323   2.506   3.428  12.549  0.3977 -0.7745  0.1240
  152MPD2    H5 2324   2.554   3.500  12.495 -0.3173 -0.5299 -0.1883
  152MPD2    N1 2325   2.874   3.404  12.863  0.0757  0.1473 -0.5538
  152MPD2    H7 2326   2.910   3.371  12.952  2.2887 -2.9552 -2.6277
  153TCq2    C1 2327   2.954   3.492  12.806  0.0281  0.2360  0.0406
  153TCq2    O2 2328   2.972   3.521  12.689  0.4504 -0.0608 -0.4129
  153TCq2    C2 2329   3.050   3.554  12.901 -0.1744  0.5404 -0.1887
  153TCq2    C3 2330   3.005   3.592  13.020 -0.1710 -0.4776 -0.1431
  153TCq2    C4 2331   3.060   3.696  13.083  0.4609  0.0523  0.3911
  153TCq2    C5 2332   3.183   3.754  13.047 -0.2939  0.2818  0.0031
  153TCq2    C6 2333   3.227   3.708  12.921  0.0969 -0.1632  0.0737
  153TCq2    C7 2334   3.152   3.622  12.839 -0.5061  0.6595  0.5278
  153TCq2    C8 2335   3.338   3.779  12.860  0.1223  0.3596 -0.5299
  153TCq2    O4 2336   3.320   3.791  12.739  0.0051  0.0149  0.2706
  153TCq2    C9 2337   2.979   3.760  13.185  0.2842 -0.0668  0.3545
  153TCq2    O5 2338   2.864   3.715  13.218 -0.1870 -0.1477 -0.1512
  153TCq2    O6 2339   3.024   3.863  13.244 -0.2733 -0.0733  0.1411
  153TCq2    H2 2340   2.909   3.558  13.059 -0.3175 -0.3023 -0.3493
  153TCq2    H3 2341   3.234   3.835  13.098  2.2243 -0.2519 -1.6731
  153TCq2    H4 2342   3.187   3.586  12.743  0.1522  0.7027  0.7536
  154MPD2     C 2343   0.669   4.286   0.585  0.4425  0.7310  0.4623
  154MPD2    C1 2344   0.633   4.200   0.483  0.4611  0.2666 -0.2318
  154MPD2    C2 2345   0.518   4.126   0.496  0.2891  0.2363  0.2703
  154MPD2    C3 2346   0.449   4.132   0.611 -0.9003  0.3882 -0.1380
  154MPD2    C4 2347   0.482   4.217   0.708  0.0751 -0.2666 -0.5935
  154MPD2    C5 2348   0.593   4.291   0.698 -0.3278  0.0377  0.0570
  154MPD2     H 2349   0.485   4.057   0.420  0.9459 -0.3911  0.5536
  154MPD2    H1 2350   0.423   4.228   0.799  1.6568  3.1659  0.0277
  154MPD2    H2 2351   0.753   4.355   0.591  1.3254 -0.1875 -1.3328
  154MPD2    H3 2352   0.639   4.353   0.773 -0.1157  0.2600 -0.2549
  154MPD2     N 2353   0.359   4.035   0.637  0.0264 -0.0855  0.3364
  154MPD2    H5 2354   0.359   3.947   0.586 -1.9494  1.8683 -3.0498
  154MPD2    N1 2355   0.710   4.217   0.362  0.2593  0.7489 -0.9535
  154MPD2    H7 2356   0.799   4.266   0.359  0.9369 -0.2857  1.9632
  155TCq2    C1 2357   0.681   4.150   0.247 -0.0742  0.0436 -0.6488
  155TCq2    O2 2358   0.583   4.080   0.207  0.4904  0.3622 -0.1572
  155TCq2    C2 2359   0.788   4.171   0.150  0.0507 -0.1286 -0.1085
  155TCq2    C3 2360   0.874   4.278   0.175 -0.0372  0.1733  0.0462
  155TCq2    C4 2361   1.007   4.261   0.145  0.7975  0.5664 -0.2497
  155TCq2    C5 2362   1.045   4.158   0.060 -0.1487  0.1301 -0.3975
  155TCq2    C6 2363   0.955   4.064   0.028  0.0387  0.1708 -0.7358
  155TCq2    C7 2364   0.825   4.062   0.076 -0.2004  0.4211 -0.1969
  155TCq2    C8 2365   0.985   3.954  17.616  0.4089 -0.2970 -0.2084
  155TCq2    O4 2366   1.075   3.981  17.532 -0.1120 -0.7189 -0.2044
  155TCq2    C9 2367   1.097   4.364   0.167  1.6602  0.3550 -0.2327
  155TCq2    O5 2368   1.214   4.346   0.120 -0.0160  0.1178  0.4411
  155TCq2    O6 2369   1.070   4.452   0.248 -0.0891  0.2275  0.3739
  155TCq2    H2 2370   0.834   4.374   0.205 -0.4683  0.0152 -0.0234
  155TCq2    H3 2371   1.146   4.142   0.023 -1.0008  1.3356 -3.1588
  155TCq2    H4 2372   0.763   3.974   0.064  2.0675 -0.9057 -2.0913
  156MPD2     C 2373   2.635   1.157  12.758  0.2370  0.4425 -0.0896
  156MPD2    C1 2374   2.706   1.230  12.669  0.1878 -0.3345  0.3225
  156MPD2    C2 2375   2.831   1.265  12.711 -0.5747 -0.5550 -0.2236
  156MPD2    C3 2376   2.892   1.227  12.827 -0.3008  0.0866  0.5381
  156MPD2    C4 2377   2.823   1.147  12.917  0.4413 -0.0667 -0.1470
  156MPD2    C5 2378   2.691   1.115  12.878 -0.3948 -0.1279 -0.4978
  156MPD2     H 2379   2.894   1.311  12.635 -0.3715  0.6751  0.6921
  156MPD2    H1 2380   2.854   1.105  13.012 -1.2862  0.0108  0.4545
  156MPD2    H2 2381   2.532   1.128  12.738  0.1532 -0.2472  1.3337
  156MPD2    H3 2382   2.633   1.069  12.957  0.3237 -0.9486 -0.4464
  156MPD2     N 2383   3.029   1.263  12.842  0.1061  0.4524  0.0118
  156MPD2    H5 2384   3.061   1.330  12.773  2.7112 -0.5262  0.2843
  156MPD2    N1 2385   2.644   1.281  12.553  0.3483 -0.1387 -0.0005
  156MPD2    H7 2386   2.551   1.248  12.527 -0.3419  2.1443 -0.4660
  157TCq2    C1 2387   2.708   1.376  12.471  0.6168 -0.2183  0.1484
  157TCq2    O2 2388   2.789   1.465  12.502  0.4795  0.4138  0.0184
  157TCq2    C2 2389   2.654   1.385  12.335 -0.6693 -0.5909 -0.1272
  157TCq2    C3 2390   2.530   1.321  12.312 -0.2126  0.7225  0.5184
  157TCq2    C4 2391   2.483   1.314  12.178 -0.0749 -0.2832  1.1622
  157TCq2    C5 2392   2.564   1.372  12.078 -0.7317  0.2061 -0.2327
  157TCq2    C6 2393   2.688   1.427  12.106  0.0247  0.0169  0.0759
  157TCq2    C7 2394   2.728   1.437  12.235  0.1021 -0.2364 -1.0344
  157TCq2    C8 2395   2.747   1.522  12.011  0.6457 -0.6970 -0.0373
  157TCq2    O4 2396   2.810   1.619  12.048 -0.4094  0.7059  0.0193
  157TCq2    C9 2397   2.350   1.286  12.155 -0.5097 -0.1997  0.0646
  157TCq2    O5 2398   2.305   1.197  12.227  0.3579 -0.0302 -0.1318
  157TCq2    O6 2399   2.286   1.381  12.103 -0.1424  0.5696  0.2453
  157TCq2    H2 2400   2.460   1.297  12.390 -0.8578  0.0127 -0.2726
  157TCq2    H3 2401   2.534   1.383  11.975 -0.4757 -0.7386 -0.4087
  157TCq2    H4 2402   2.829   1.469  12.259 -1.3191  3.5666 -0.2893
  158TMC2    C1 2403   4.064   4.511  13.426 -0.6058 -1.0880 -0.4317
  158TMC2    C2 2404   4.135   4.583  13.326 -0.0237  0.0345 -0.0703
  158TMC2    C3 2405   4.067   4.624  13.216 -0.3599  0.6193 -0.8636
  158TMC2    C4 2406   3.926   4.487  13.408 -0.4104  0.1381 -0.1716
  158TMC2    C5 2407   3.861   4.542  13.302 -0.3304 -0.7344 -0.5139
  158TMC2    C6 2408   3.931   4.606  13.205 -0.0038  0.0718  0.6886
  158TMC2     C 2409   4.141   4.476  13.542  1.3662  0.3160  0.3285
  158TMC2     O 2410   4.262   4.471  13.526  0.5887  0.2435  0.0868
  158TMC2     H 2411   4.241   4.593  13.341 -0.1852 -0.1968  1.3072
  158TMC2    H1 2412   3.878   4.433  13.488 -1.6992  0.0276 -1.0230
  158TMC2    H2 2413   3.887   4.639  13.111  2.3509 -0.6645 -0.6782
  158TMC2    C7 2414   3.719   4.557  13.295  0.1590  0.4266 -0.4592
  158TMC2    C8 2415   4.147   4.629  13.096  0.6102 -0.2863  0.2023
  158TMC2    O1 2416   3.676   4.631  13.208  0.1437 -0.1395 -0.1895
  158TMC2    O2 2417   4.099   4.597  12.984 -0.1291 -0.2093  0.0767
  158TMC2    O5 2418   4.278   4.659  13.121 -0.5875 -0.2094 -0.2985
  158TMC2    H5 2419   4.296   4.690  13.212  0.8827  0.7891 -0.9355
  159MPD2     C 2420   4.227   4.295  14.005  0.3908  0.2223 -0.3567
  159MPD2    C1 2421   4.105   4.360  14.008  0.4651  0.3903 -0.0684
  159MPD2    C2 2422   4.058   4.420  13.892 -0.2974  0.2251 -0.1004
  159MPD2    C3 2423   4.133   4.412  13.776 -0.5914 -0.5533 -0.7530
  159MPD2    C4 2424   4.262   4.361  13.782 -0.3417  0.1768  0.1359
  159MPD2    C5 2425   4.301   4.298  13.891 -0.0787  0.6158 -0.2483
  159MPD2     H 2426   3.974   4.488  13.885  0.9712  1.8883  0.9777
  159MPD2    H1 2427   4.334   4.362  13.701 -0.8173 -1.0739 -0.2988
  159MPD2    H2 2428   4.273   4.246  14.090 -1.2450  1.5670  1.3053
  159MPD2    H3 2429   4.401   4.255  13.887 -0.0908  0.7028 -1.5082
  159MPD2     N 2430   4.072   4.461  13.657 -0.1167  0.5017  0.2508
  159MPD2    H5 2431   3.974   4.484  13.666 -0.1418  0.9095 -0.9658
  159MPD2    N1 2432   4.046   4.378  14.134 -0.0200  0.2716 -0.2247
  159MPD2    H7 2433   4.089   4.322  14.207 -1.4678  0.4071  0.7344
  160TMC2    C1 2434   3.780   2.782   1.889  0.0316  1.1550  0.5479
  160TMC2    C2 2435   3.771   2.654   1.934  1.0605  0.3951  0.1197
  160TMC2    C3 2436   3.880   2.611   2.007  0.1139 -0.9136  0.0405
  160TMC2    C4 2437   3.886   2.861   1.905  0.5722 -0.3021 -0.1414
  160TMC2    C5 2438   3.999   2.808   1.965  0.3629 -0.7548  0.0016
  160TMC2    C6 2439   3.993   2.690   2.030 -0.1086 -0.6265 -0.3495
  160TMC2     C 2440   3.661   2.827   1.823  0.6666  0.7501  0.5366
  160TMC2     O 2441   3.571   2.743   1.818 -0.3192 -0.1243 -0.2559
  160TMC2     H 2442   3.696   2.580   1.908  1.4180 -0.2019  0.7681
  160TMC2    H1 2443   3.884   2.964   1.872  1.6224 -0.5115 -0.8318
  160TMC2    H2 2444   4.076   2.664   2.095 -0.0096 -0.1678 -0.2876
  160TMC2    C7 2445   4.113   2.894   1.995 -0.7163 -0.2141  0.1741
  160TMC2    C8 2446   3.872   2.477   2.060 -0.4485 -0.0387 -0.5845
  160TMC2    O1 2447   4.184   2.861   2.091  0.1095  0.0713 -0.0639
  160TMC2    O2 2448   3.789   2.390   2.032 -0.0089 -0.0011  0.2807
  160TMC2    O5 2449   3.974   2.460   2.150 -0.6794 -0.4402 -0.4461
  160TMC2    H5 2450   4.011   2.542   2.188 -0.6354 -0.6065 -0.1329
  161MPD2     C 2451   3.433   2.956   1.685 -0.9494 -0.2084  0.2696
  161MPD2    C1 2452   3.566   2.991   1.670 -0.8166 -0.4005 -0.1177
  161MPD2    C2 2453   3.591   3.095   1.575  0.4248  0.1819 -0.3250
  161MPD2    C3 2454   3.488   3.153   1.506 -0.3761  0.4686  0.2876
  161MPD2    C4 2455   3.353   3.110   1.519  0.0681  0.1907  0.4857
  161MPD2    C5 2456   3.326   3.014   1.614 -0.2161 -0.1044 -0.4920
  161MPD2     H 2457   3.693   3.123   1.555  1.0993 -3.2997 -1.7655
  161MPD2    H1 2458   3.275   3.166   1.468  0.0913  0.2302  0.4935
  161MPD2    H2 2459   3.408   2.891   1.768  1.2501 -0.8408  0.4522
  161MPD2    H3 2460   3.227   2.997   1.653  0.6532  0.2498  1.8392
  161MPD2     N 2461   3.510   3.253   1.408 -0.0674  0.0970  0.4101
  161MPD2    H5 2462   3.426   3.287   1.363 -0.0596  0.0002  0.3218
  161MPD2    N1 2463   3.677   2.942   1.747 -0.1341  0.6011  0.0318
  161MPD2    H7 2464   3.767   2.989   1.737 -0.7852  1.8245 -0.1815
  162TMC2    C1 2465   2.542   0.289   1.379  0.2101  1.3764 -0.2410
  162TMC2    C2 2466   2.585   0.417   1.405 -0.2901  0.3835  0.3579
  162TMC2    C3 2467   2.677   0.437   1.505 -0.4131 -0.3074 -0.4671
  162TMC2    C4 2468   2.578   0.187   1.466 -0.1970  0.1679 -0.1407
  162TMC2    C5 2469   2.657   0.214   1.574  0.5315 -0.7871  0.4864
  162TMC2    C6 2470   2.705   0.343   1.593 -0.0415 -0.0547  0.4553
  162TMC2     C 2471   2.480   0.257   1.247 -0.0214 -0.2582 -0.0125
  162TMC2     O 2472   2.401   0.165   1.245  0.2235 -0.2134 -0.4890
  162TMC2     H 2473   2.545   0.498   1.345 -1.0131  0.0270  0.3743
  162TMC2    H1 2474   2.532   0.089   1.451  1.8778 -0.5811 -1.6964
  162TMC2    H2 2475   2.768   0.369   1.678  2.6709 -1.9164 -0.9648
  162TMC2    C7 2476   2.688   0.113   1.682 -0.4655  0.1746  0.7815
  162TMC2    C8 2477   2.728   0.569   1.521  0.0246 -0.7667 -0.6302
  162TMC2    O1 2478   2.770   0.148   1.764  0.1907 -0.5156 -0.1592
  162TMC2    O2 2479   2.655   0.664   1.494 -0.3300  0.0987  0.4718
  162TMC2    O5 2480   2.855   0.572   1.551 -0.1944 -0.0751 -0.0813
  162TMC2    H5 2481   2.903   0.488   1.567  1.0945  0.3980 -1.4904
  163MPD2     C 2482   2.417   0.353   0.744  0.4668  0.1543 -0.0373
  163MPD2    C1 2483   2.393   0.235   0.819  0.3751  0.0175 -0.1768
  163MPD2    C2 2484   2.427   0.236   0.956  0.4191  0.0546 -0.7686
  163MPD2    C3 2485   2.470   0.353   1.015 -0.0571 -0.5238 -0.2248
  163MPD2    C4 2486   2.498   0.467   0.934  0.8751 -0.7348 -0.3720
  163MPD2    C5 2487   2.469   0.463   0.800  0.0389 -0.1017  0.1880
  163MPD2     H 2488   2.420   0.149   1.020 -3.4213  1.7844  1.1972
  163MPD2    H1 2489   2.527   0.561   0.979 -0.2605  0.5011 -2.2448
  163MPD2    H2 2490   2.400   0.364   0.638  1.7613  0.5562 -0.2145
  163MPD2    H3 2491   2.492   0.551   0.741 -0.8117 -0.5836 -0.8455
  163MPD2     N 2492   2.507   0.356   1.154 -0.5157 -0.1409  0.5893
  163MPD2    H5 2493   2.570   0.432   1.178 -1.4284  1.4570 -2.0485
  163MPD2    N1 2494   2.345   0.128   0.742  0.4795  0.1384  0.5108
  163MPD2    H7 2495   2.325   0.145   0.644 -0.9692 -3.5892  0.1624
  164TCq2    C1 2496   2.364   0.140  11.375 -0.4767  1.5566  0.4519
  164TCq2    O2 2497   2.477   0.159  11.416  0.1900 -0.0893  0.6505
  164TCq2    C2 2498   2.269   0.078  11.465  0.7351 -0.1248 -0.4204
  164TCq2    C3 2499   2.323   0.014  11.570  0.4399  0.2518  0.5911
  164TCq2    C4 2500   2.250   4.690  11.678 -0.3617 -0.5670 -0.4217
  164TCq2    C5 2501   2.117   0.006  11.683 -0.6334  0.3230 -0.0372
  164TCq2    C6 2502   2.069   0.077  11.581  0.2443 -0.9683 -0.8149
  164TCq2    C7 2503   2.134   0.108  11.462  0.9012  0.6974 -0.3428
  164TCq2    C8 2504   1.927   0.092  11.582 -0.5350 -0.4600  0.7962
  164TCq2    O4 2505   1.871   0.100  11.473 -0.4659 -0.2896  0.3288
  164TCq2    C9 2506   2.319   4.620  11.777  0.0273 -0.2224 -0.0205
  164TCq2    O5 2507   2.437   4.579  11.753  0.7051 -0.0909 -0.2969
  164TCq2    O6 2508   2.254   4.607  11.883  0.6660  0.1723  0.7025
  164TCq2    H2 2509   2.429   4.707  11.573  0.6933  1.3246  1.2898
  164TCq2    H3 2510   2.061   4.701  11.773 -0.4046  0.3711  0.1205
  164TCq2    H4 2511   2.087   0.174  11.390 -0.0212 -0.0084 -0.3863
  165MPD2     C 2512   2.260   2.071   0.656 -0.0057  0.1600  0.2140
  165MPD2    C1 2513   2.314   2.065   0.780 -0.9977 -0.1825 -0.6701
  165MPD2    C2 2514   2.376   2.173   0.838  0.0281  0.3926 -0.0002
  165MPD2    C3 2515   2.375   2.299   0.777  0.7925 -0.2066  0.0500
  165MPD2    C4 2516   2.321   2.305   0.651  0.9575  0.7108  0.7491
  165MPD2    C5 2517   2.256   2.197   0.595  0.3000  0.1194 -0.1488
  165MPD2     H 2518   2.410   2.172   0.941 -0.6610  0.0274  0.2259
  165MPD2    H1 2519   2.342   2.396   0.596  1.1708  0.7714  0.9272
  165MPD2    H2 2520   2.203   1.996   0.603  0.3569 -0.2725  0.4363
  165MPD2    H3 2521   2.204   2.209   0.501  1.0423  0.9958 -0.4478
  165MPD2     N 2522   2.431   2.423   0.829  0.3262  0.7912  0.1121
  165MPD2    H5 2523   2.416   2.507   0.775 -1.9856 -1.0943 -2.2170
  165MPD2    N1 2524   2.318   1.935   0.832  0.9101  0.3079 -0.6081
  165MPD2    H7 2525   2.291   1.857   0.772 -0.5431  0.5003 -0.2110
  166TCq2    C1 2526   2.496   2.429   0.953 -0.5539  0.4412 -0.2124
  166TCq2    O2 2527   2.538   2.340   1.023 -0.0585 -0.0496  0.3228
  166TCq2    C2 2528   2.526   2.568   0.986 -0.0861 -0.2478  1.1701
  166TCq2    C3 2529   2.474   2.672   0.918 -0.5184 -0.3458  0.3138
  166TCq2    C4 2530   2.521   2.797   0.940 -0.3641  0.4939 -0.3917
  166TCq2    C5 2531   2.632   2.817   1.012 -0.2211  0.5021 -0.9256
  166TCq2    C6 2532   2.690   2.712   1.074  0.0625 -0.1475 -0.1826
  166TCq2    C7 2533   2.635   2.583   1.066  0.1673 -0.6511  0.4197
  166TCq2    C8 2534   2.831   2.734   1.119 -0.0534 -0.2595 -0.3490
  166TCq2    O4 2535   2.871   2.655   1.204 -0.0876  0.4419  0.3681
  166TCq2    C9 2536   2.450   2.911   0.888  0.4096 -0.6572 -0.2950
  166TCq2    O5 2537   2.337   2.884   0.845 -0.2421 -0.7794  0.0969
  166TCq2    O6 2538   2.517   3.002   0.849 -0.3615 -0.0198 -0.2126
  166TCq2    H2 2539   2.382   2.660   0.863  0.3844 -2.2225 -0.8125
  166TCq2    H3 2540   2.659   2.921   1.026 -1.6791  0.7718 -0.1839
  166TCq2    H4 2541   2.683   2.501   1.117  1.8325  1.0826  1.6196
  167TMC2    C1 2542   1.040   4.194  12.811  0.4147 -0.4319 -0.0432
  167TMC2    C2 2543   0.909   4.194  12.846 -0.4153 -0.7675  0.5580
  167TMC2    C3 2544   0.849   4.077  12.876 -0.1883 -0.4710 -0.1039
  167TMC2    C4 2545   1.112   4.080  12.789 -0.0396  0.4578  0.0768
  167TMC2    C5 2546   1.045   3.960  12.817  0.3591 -0.1690  0.1629
  167TMC2    C6 2547   0.911   3.954  12.864 -1.0022 -0.2550 -1.6136
  167TMC2     C 2548   1.096   4.322  12.753  0.2187 -0.3467  0.4348
  167TMC2     O 2549   1.031   4.424  12.776  0.4293  0.1149  0.0937
  167TMC2     H 2550   0.851   4.277  12.885  3.2503  2.7289 -1.4316
  167TMC2    H1 2551   1.218   4.069  12.771  0.0923 -0.6429  1.4877
  167TMC2    H2 2552   0.876   3.857  12.897 -0.4674 -0.6597 -2.2194
  167TMC2    C7 2553   1.115   3.834  12.814  0.3503  0.3304  0.3866
  167TMC2    C8 2554   0.708   4.094  12.914 -0.0080 -0.5324  0.8771
  167TMC2    O1 2555   1.101   3.761  12.912 -0.0413  0.0204  0.1177
  167TMC2    O2 2556   0.644   4.189  12.886 -0.4188  0.3337 -0.0101
  167TMC2    O5 2557   0.706   4.039  13.039 -0.1946 -0.4403 -0.5088
  167TMC2    H5 2558   0.733   3.945  13.047  1.2380  0.1128  0.9326
  168MPD2     C 2559   1.261   4.542  12.615 -0.5715 -0.3089 -0.4666
  168MPD2    C1 2560   1.291   4.413  12.618 -0.0699  0.0320 -0.3573
  168MPD2    C2 2561   1.394   4.377  12.543 -0.2457 -0.1763  0.3795
  168MPD2    C3 2562   1.464   4.456  12.455 -0.0573  0.6806  0.1240
  168MPD2    C4 2563   1.418   4.588  12.436  0.1888  0.0604  0.2380
  168MPD2    C5 2564   1.318   4.628  12.522  0.5627 -0.4039  0.2064
  168MPD2     H 2565   1.417   4.271  12.551 -0.9820 -0.4335 -1.0082
  168MPD2    H1 2566   1.458   4.655  12.360 -0.7636  0.0229 -0.3037
  168MPD2    H2 2567   1.181   4.574  12.681 -1.9931 -2.6644 -1.0219
  168MPD2    H3 2568   1.282   0.010  12.514  0.2725 -0.6018 -1.0005
  168MPD2     N 2569   1.559   4.394  12.365  0.1146 -0.1804 -0.3051
  168MPD2    H5 2570   1.596   4.454  12.292  1.2730  0.6480  0.9442
  168MPD2    N1 2571   1.221   4.308  12.690 -0.2596 -0.7298 -0.3911
  168MPD2    H7 2572   1.243   4.213  12.663  2.8680 -0.0607 -0.2590
  169MPD1     C 2573   3.097   2.800   9.343  0.2992 -0.6008  0.1064
  169MPD1    C1 2574   3.177   2.810   9.458 -0.0028 -0.2897  0.0232
  169MPD1    C2 2575   3.297   2.871   9.451 -0.6893 -1.4191 -1.6295
  169MPD1    C3 2576   3.345   2.934   9.335 -0.5395 -0.7116  0.3139
  169MPD1    C4 2577   3.264   2.936   9.220 -0.2285  1.0672  0.4699
  169MPD1    C5 2578   3.141   2.869   9.232  0.0425 -0.2948  0.9882
  169MPD1     H 2579   3.357   2.875   9.542  1.0099 -3.2402 -2.6658
  169MPD1    H1 2580   3.280   3.004   9.136  0.1872 -1.3759 -1.4187
  169MPD1    H2 2581   3.008   2.739   9.336 -1.8884  2.7598 -1.0855
  169MPD1    H3 2582   3.090   2.869   9.136  0.9834 -3.5664  0.5103
  169MPD1     N 2583   3.471   2.996   9.352  0.2789 -0.4368  0.1847
  169MPD1    H5 2584   3.521   2.979   9.439 -0.7922  2.1397  1.2983
  169MPD1    N1 2585   3.148   2.733   9.571  0.2722  0.3521 -0.3968
  169MPD1    H6 2586   3.184   2.772   9.658 -1.5812  1.6393 -0.2184
  169MPD1    H7 2587   3.050   2.710   9.585 -0.0855  1.4649 -1.0498
  170MPD1     C 2588   2.686   1.619  12.831  0.0955  0.7078  0.1546
  170MPD1    C1 2589   2.663   1.755  12.821 -0.2170  0.4452 -0.5917
  170MPD1    C2 2590   2.582   1.817  12.913 -0.8237 -0.0055  0.1601
  170MPD1    C3 2591   2.509   1.741  13.004 -0.0750 -0.6241  0.2142
  170MPD1    C4 2592   2.539   1.609  13.011  0.2683  0.4508 -0.1488
  170MPD1    C5 2593   2.628   1.542  12.929  0.0074 -0.4423  0.1062
  170MPD1     H 2594   2.558   1.923  12.906  0.2227  0.2466  0.4590
  170MPD1    H1 2595   2.487   1.536  13.072  1.2589  0.9020  1.2428
  170MPD1    H2 2596   2.761   1.571  12.769  0.4844  0.4449  0.8301
  170MPD1    H3 2597   2.653   1.437  12.938 -3.8909 -1.4916 -1.3426
  170MPD1     N 2598   2.421   1.806  13.092  0.2304 -0.2036  0.2287
  170MPD1    H5 2599   2.424   1.907  13.084 -1.3992 -0.0394  1.8892
  170MPD1    N1 2600   2.719   1.820  12.709  0.2622 -0.1895  0.6685
  170MPD1    H6 2601   2.721   1.920  12.729  0.8147 -0.0277 -0.1968
  170MPD1    H7 2602   2.814   1.791  12.686  0.1520  0.0799 -0.1437
  171MPD1     C 2603   1.015   3.213  15.365  0.3772  0.1745  0.4577
  171MPD1    C1 2604   0.978   3.106  15.292  0.9826  0.0293  0.6086
  171MPD1    C2 2605   0.979   2.978  15.344  0.3937 -0.8037  0.6917
  171MPD1    C3 2606   1.005   2.966  15.480  0.1742  0.3468  0.3931
  171MPD1    C4 2607   1.033   3.077  15.554 -0.3391 -0.0495  0.3125
  171MPD1    C5 2608   1.043   3.198  15.497 -0.3366  0.2871 -0.2960
  171MPD1     H 2609   0.969   2.892  15.280 -4.3111 -1.3179  2.0900
  171MPD1    H1 2610   1.068   3.079  15.657 -0.6802  0.4162  0.4203
  171MPD1    H2 2611   1.039   3.307  15.317 -0.0515 -1.0401 -2.1538
  171MPD1    H3 2612   1.073   3.288  15.549 -2.3755  0.5767  0.3545
  171MPD1     N 2613   1.008   2.843  15.548 -0.3731 -0.4103 -0.1871
  171MPD1    H5 2614   1.016   2.853  15.648  3.7797 -1.0011 -0.4334
  171MPD1    N1 2615   0.965   3.117  15.153  0.8641  0.0643 -0.0886
  171MPD1    H6 2616   0.909   3.044  15.110  0.2991  1.5720 -1.9359
  171MPD1    H7 2617   0.920   3.206  15.132  1.0940 -0.0069 -0.8786
  172MPD1     C 2618   3.648   1.867   0.837  0.3005 -0.4225  0.7950
  172MPD1    C1 2619   3.683   1.958   0.933  0.0986 -0.4410 -0.1902
  172MPD1    C2 2620   3.820   1.971   0.957  0.1279  0.1571 -0.3429
  172MPD1    C3 2621   3.916   1.902   0.877 -0.3616 -0.7244  0.1803
  172MPD1    C4 2622   3.879   1.818   0.774  0.9238 -0.0220 -0.2967
  172MPD1    C5 2623   3.747   1.799   0.764 -0.0621  0.2790 -0.8751
  172MPD1     H 2624   3.852   2.034   1.039  0.2031 -1.7154  1.0876
  172MPD1    H1 2625   3.950   1.761   0.715 -0.3398 -2.3610  0.4510
  172MPD1    H2 2626   3.544   1.838   0.825  0.1334  0.6178 -0.2371
  172MPD1    H3 2627   3.719   1.726   0.688 -1.6316  0.3813 -0.3899
  172MPD1     N 2628   4.049   1.940   0.879 -0.0435 -0.4313  0.0196
  172MPD1    H5 2629   4.108   1.897   0.808 -1.6224  0.4552 -1.8044
  172MPD1    N1 2630   3.585   2.000   1.022 -0.5212  0.1376  0.5271
  172MPD1    H6 2631   3.507   2.039   0.969  0.4285 -0.1323 -1.0531
  172MPD1    H7 2632   3.615   2.077   1.082  0.7309  0.2027 -0.1803
  173MPD1     C 2633   0.549   1.103  13.831  0.0298 -0.1391 -0.1875
  173MPD1    C1 2634   0.481   1.216  13.892  0.4408 -0.2945  0.0940
  173MPD1    C2 2635   0.562   1.292  13.978  0.0612 -0.2655 -0.2226
  173MPD1    C3 2636   0.696   1.274  13.997 -0.1066 -1.0790 -0.6171
  173MPD1    C4 2637   0.758   1.165  13.932 -0.4745 -0.4724 -1.5993
  173MPD1    C5 2638   0.682   1.090  13.848 -0.3279  0.7862 -0.8379
  173MPD1     H 2639   0.519   1.382  14.021 -1.0036 -0.7368 -0.2820
  173MPD1    H1 2640   0.866   1.156  13.922 -0.4366 -1.6680 -0.1329
  173MPD1    H2 2641   0.503   1.035  13.760  1.4126 -0.9068 -0.3510
  173MPD1    H3 2642   0.731   1.007  13.800  0.3229 -0.0984  1.3654
  173MPD1     N 2643   0.783   1.358  14.073 -0.3066 -0.1561 -0.8139
  173MPD1    H5 2644   0.882   1.338  14.068 -0.1096  1.2135 -2.4449
  173MPD1    N1 2645   0.348   1.241  13.861  0.6429 -0.3982  0.3577
  173MPD1    H6 2646   0.307   1.150  13.842  0.3378 -0.0872 -0.4476
  173MPD1    H7 2647   0.294   1.275  13.941 -0.1901 -1.0287  0.0645
  174MPD1     C 2648   1.678   1.794  14.038 -0.1360 -0.3511 -0.1595
  174MPD1    C1 2649   1.567   1.807  13.960 -0.4108  0.2364 -0.2003
  174MPD1    C2 2650   1.450   1.756  14.006 -0.3633  0.0708  0.5140
  174MPD1    C3 2651   1.432   1.714  14.139  0.9391 -0.1721 -0.2893
  174MPD1    C4 2652   1.546   1.718  14.218  0.2856  0.5874  0.3517
  174MPD1    C5 2653   1.666   1.759  14.169  0.4721  0.4800 -0.4611
  174MPD1     H 2654   1.372   1.746  13.931  0.0660  0.2564  0.0408
  174MPD1    H1 2655   1.538   1.674  14.317 -1.8139 -0.7345 -0.4269
  174MPD1    H2 2656   1.780   1.815  14.006  0.3997 -0.6170  1.3574
  174MPD1    H3 2657   1.757   1.757  14.228  1.0309 -0.0692 -1.3381
  174MPD1     N 2658   1.306   1.674  14.195  0.1921  0.3457  0.2679
  174MPD1    H5 2659   1.297   1.648  14.292  2.8208 -1.5389  0.0021
  174MPD1    N1 2660   1.581   1.839  13.824 -0.2783  0.1014  0.2099
  174MPD1    H6 2661   1.507   1.902  13.793 -0.0671  0.0586 -0.3775
  174MPD1    H7 2662   1.656   1.908  13.818  0.0299 -0.4072 -1.6888
  175MPD1     C 2663   0.080   2.784  15.890 -0.2030  0.2641 -0.0685
  175MPD1    C1 2664   4.670   2.769  15.940  0.7560 -0.2349 -0.4179
  175MPD1    C2 2665   4.658   2.706  16.064 -0.0929  0.4384 -0.3441
  175MPD1    C3 2666   0.047   2.674  16.149  0.7524  0.3006 -0.1409
  175MPD1    C4 2667   0.170   2.694  16.095  0.1433  0.6724  0.4405
  175MPD1    C5 2668   0.190   2.746  15.963 -1.1250 -0.2232 -0.6991
  175MPD1     H 2669   4.561   2.679  16.103  0.9400 -1.1807  1.1163
  175MPD1    H1 2670   0.259   2.668  16.150  0.7777 -0.7654 -1.2897
  175MPD1    H2 2671   0.086   2.835  15.795  0.2837  0.4211  0.0472
  175MPD1    H3 2672   0.289   2.764  15.923 -0.3496  1.4373  1.9670
  175MPD1     N 2673   0.045   2.608  16.279 -0.2022 -0.4152 -0.4317
  175MPD1    H5 2674   0.140   2.593  16.311 -1.0864 -1.1286  1.8260
  175MPD1    N1 2675   4.562   2.769  15.855  0.0734  0.7787  0.3066
  175MPD1    H6 2676   4.480   2.787  15.913 -1.2650  0.8788 -1.6310
  175MPD1    H7 2677   4.570   2.838  15.781 -2.7081 -0.5680 -1.2553
  176MPD1     C 2678   1.536   4.411  16.665  0.1390 -0.0991  0.0594
  176MPD1    C1 2679   1.423   4.486  16.640 -1.2936 -0.3530  0.6287
  176MPD1    C2 2680   1.399   4.603  16.716  0.1936  0.2271 -0.3706
  176MPD1    C3 2681   1.482   4.642  16.816 -0.1147 -0.7657  0.2817
  176MPD1    C4 2682   1.588   4.562  16.841 -0.5335  0.0174 -0.0506
  176MPD1    C5 2683   1.611   4.445  16.773  0.4323  0.5692 -0.3896
  176MPD1     H 2684   1.320   4.664  16.674  0.0044 -0.5801 -1.1947
  176MPD1    H1 2685   1.653   4.573  16.928 -0.6939  1.0643 -0.0713
  176MPD1    H2 2686   1.563   4.326  16.604  0.5491  0.8995 -1.1465
  176MPD1    H3 2687   1.698   4.386  16.798 -0.8183 -0.3437  1.8877
  176MPD1     N 2688   1.446   0.039  16.891  0.0854 -0.4419 -0.1503
  176MPD1    H5 2689   1.364   0.093  16.865 -0.1461 -0.2903  0.8581
  176MPD1    N1 2690   1.341   4.448  16.529 -0.6634 -0.2043 -0.0578
  176MPD1    H6 2691   1.340   4.349  16.504  3.7247 -0.4070  0.6176
  176MPD1    H7 2692   1.244   4.456  16.558 -0.4813 -3.6554  1.5128
  177MPD1     C 2693   4.688   4.059  10.427  0.2690 -0.2540 -0.4546
  177MPD1    C1 2694   4.709   4.192  10.452 -0.0252 -0.3367 -1.0952
  177MPD1    C2 2695   4.660   4.279  10.352  0.2224 -0.3570  0.2674
  177MPD1    C3 2696   4.601   4.237  10.233  0.2727  0.6001  0.4503
  177MPD1    C4 2697   4.578   4.097  10.220 -0.4113  0.7148  0.8493
  177MPD1    C5 2698   4.621   4.016  10.319  0.5799 -0.5772  0.6358
  177MPD1     H 2699   4.677   4.385  10.369  0.5253 -0.2693 -0.6147
  177MPD1    H1 2700   4.535   4.055  10.130 -0.3010 -0.2010  1.2290
  177MPD1    H2 2701   0.003   3.981  10.494 -0.0151  0.0371  0.0329
  177MPD1    H3 2702   4.606   3.910  10.305  1.2222 -0.3255 -2.0585
  177MPD1     N 2703   4.567   4.339  10.145 -0.3365 -0.2974  0.0243
  177MPD1    H5 2704   4.581   4.432  10.183  2.9044 -0.1561 -1.5258
  177MPD1    N1 2705   0.047   4.250  10.572 -0.1905  0.6577  0.5799
  177MPD1    H6 2706   0.105   4.333  10.561 -1.0891  0.8760 -2.4703
  177MPD1    H7 2707   0.103   4.173  10.609 -0.8094  0.0878  0.3316
  178MPD1     C 2708   2.515   1.087   0.611 -0.1097 -0.1385  0.7133
  178MPD1    C1 2709   2.469   0.976   0.545  0.5373 -0.4388 -0.2066
  178MPD1    C2 2710   2.464   0.983   0.404 -0.5606  0.6172  0.1413
  178MPD1    C3 2711   2.484   1.104   0.340  0.1577 -1.1574  0.5521
  178MPD1    C4 2712   2.532   1.207   0.410  0.0287 -0.4254 -0.5296
  178MPD1    C5 2713   2.553   1.200   0.547  0.7825  0.2769 -0.1881
  178MPD1     H 2714   2.449   0.890   0.351  0.9865 -1.0266  2.5840
  178MPD1    H1 2715   2.559   1.294   0.351 -1.1598 -0.8979 -1.7695
  178MPD1    H2 2716   2.539   1.076   0.716  0.4018 -0.1017  0.5961
  178MPD1    H3 2717   2.604   1.277   0.604 -0.1000 -1.3601  2.7875
  178MPD1     N 2718   2.476   1.108   0.199 -0.4666  0.1035  1.0095
  178MPD1    H5 2719   2.502   1.196   0.155 -0.1217  0.0417  1.0876
  178MPD1    N1 2720   2.448   0.857   0.614 -0.6983  0.0551 -0.3483
  178MPD1    H6 2721   2.368   0.812   0.570 -0.2747  0.1631 -1.2303
  178MPD1    H7 2722   2.440   0.877   0.714 -0.7052  1.5689 -0.6619
  179MPD1     C 2723   1.388   4.468  15.955 -0.2074  0.9807 -0.7516
  179MPD1    C1 2724   1.323   4.439  15.837  0.2928  0.0202 -0.6417
  179MPD1    C2 2725   1.317   4.309  15.793  0.5377 -0.3725 -0.5841
  179MPD1    C3 2726   1.369   4.204  15.864  0.4166  0.1022 -0.4844
  179MPD1    C4 2727   1.457   4.242  15.966  1.0077  0.1585  0.5298
  179MPD1    C5 2728   1.453   4.369  16.017 -0.1830 -0.6837 -0.5328
  179MPD1     H 2729   1.255   4.293  15.705  2.4691 -0.1674 -1.9982
  179MPD1    H1 2730   1.516   4.174  16.026  2.9922  2.1248  0.8007
  179MPD1    H2 2731   1.412   4.563  16.003  1.2298  0.0354  0.3950
  179MPD1    H3 2732   1.498   4.394  16.113 -0.4794  2.1273 -1.1396
  179MPD1     N 2733   1.376   4.066  15.828  0.4539 -0.2689  0.2635
  179MPD1    H5 2734   1.429   4.013  15.895 -0.5272 -0.3978  0.9337
  179MPD1    N1 2735   1.280   4.547  15.754 -0.6649 -0.2603 -0.2826
  179MPD1    H6 2736   1.199   4.602  15.782  0.3792  1.7098 -1.1586
  179MPD1    H7 2737   1.351   4.620  15.758 -0.3771 -0.5885  0.5642
  180MPD1     C 2738   0.859   0.462  14.419 -0.5373 -0.1391  0.1157
  180MPD1    C1 2739   0.855   0.348  14.356  0.1271  0.7551 -0.3182
  180MPD1    C2 2740   0.960   0.261  14.374 -0.5280 -0.0652  0.5118
  180MPD1    C3 2741   1.075   0.306  14.439  0.1866  0.1621  0.0569
  180MPD1    C4 2742   1.086   0.434  14.495 -0.4254  0.4018  0.6822
  180MPD1    C5 2743   0.968   0.498  14.492  0.0382 -0.5822  0.6021
  180MPD1     H 2744   0.953   0.157  14.341 -1.0218 -0.0097  0.4334
  180MPD1    H1 2745   1.175   0.481  14.535  1.6383 -1.4995 -1.6593
  180MPD1    H2 2746   0.779   0.536  14.415 -0.0777  0.2922 -1.2684
  180MPD1    H3 2747   0.971   0.598  14.535  0.1955 -0.0133 -0.7186
  180MPD1     N 2748   1.186   0.209  14.443 -0.0976 -0.1534  0.1529
  180MPD1    H5 2749   1.181   0.113  14.411 -3.2825 -0.2428  0.8686
  180MPD1    N1 2750   0.740   0.302  14.286  0.0244 -0.1202 -0.1015
  180MPD1    H6 2751   0.756   0.215  14.237  0.3398 -0.3395  0.3843
  180MPD1    H7 2752   0.697   0.371  14.225 -0.7408 -1.5647 -1.1910
  181MPD1     C 2753   4.041   0.931   9.998  0.2082 -0.1832 -1.6032
  181MPD1    C1 2754   3.999   1.001   9.892  0.2881 -0.1888  0.0156
  181MPD1    C2 2755   3.979   1.139   9.911  1.1475  0.2013  0.1462
  181MPD1    C3 2756   3.996   1.201  10.035 -0.7545 -0.0811 -0.0561
  181MPD1    C4 2757   4.040   1.122  10.140  0.3656 -0.2385  0.0778
  181MPD1    C5 2758   4.065   0.984  10.119  0.5604  0.1215 -0.1532
  181MPD1     H 2759   3.962   1.192   9.818  0.8147  0.4354  0.3407
  181MPD1    H1 2760   4.053   1.167  10.238  0.5751 -1.2680  0.5192
  181MPD1    H2 2761   4.070   0.827   9.985 -1.4526 -1.0250  1.5292
  181MPD1    H3 2762   4.101   0.923  10.201  0.5922 -0.3042 -0.4871
  181MPD1     N 2763   3.996   1.336  10.054 -0.2102 -0.4756  0.3859
  181MPD1    H5 2764   4.052   1.378  10.128 -0.6107 -0.4251  0.6605
  181MPD1    N1 2765   4.024   0.947   9.761 -0.2534 -0.1066  0.6172
  181MPD1    H6 2766   3.997   0.850   9.749 -1.7390  0.1455  1.9636
  181MPD1    H7 2767   3.964   0.998   9.696  1.8676  2.4041  0.6162
  182MPD1     C 2768   4.447   1.058   0.960  0.1302 -0.9194  0.2627
  182MPD1    C1 2769   4.365   1.084   0.853  0.2256 -0.2516 -0.2442
  182MPD1    C2 2770   4.224   1.079   0.875 -0.1911  0.6385 -0.7057
  182MPD1    C3 2771   4.164   1.061   0.999 -0.8198 -0.6655  0.0871
  182MPD1    C4 2772   4.250   1.048   1.105  0.4258  0.3158 -0.3881
  182MPD1    C5 2773   4.392   1.032   1.084 -0.6926  1.2102  0.2351
  182MPD1     H 2774   4.166   1.078   0.784  1.5901 -3.7680 -1.8177
  182MPD1    H1 2775   4.217   1.026   1.206 -0.6990 -1.5475 -1.1577
  182MPD1    H2 2776   4.555   1.059   0.955 -0.0721 -0.9177 -3.8647
  182MPD1    H3 2777   4.458   1.004   1.165 -0.2349  2.4106  0.2775
  182MPD1     N 2778   4.025   1.075   1.024  0.7446  0.7249  0.2096
  182MPD1    H5 2779   3.993   1.068   1.120  2.0664  0.2343  0.6154
  182MPD1    N1 2780   4.416   1.103   0.723  0.3885  0.0173  0.4995
  182MPD1    H6 2781   4.508   1.147   0.717 -1.0810  3.1864  1.0192
  182MPD1    H7 2782   4.359   1.161   0.661  0.2040 -1.3634 -0.6428
  183MPD1     C 2783   1.206   1.842   9.910  0.2304 -0.2241 -0.1805
  183MPD1    C1 2784   1.143   1.801  10.031 -0.0632 -0.2240 -0.7868
  183MPD1    C2 2785   1.003   1.811  10.040  0.2691  0.3309  0.2658
  183MPD1    C3 2786   0.932   1.868   9.933  0.2709 -0.2360 -0.3178
  183MPD1    C4 2787   0.996   1.895   9.814  0.3356 -0.3370 -0.4839
  183MPD1    C5 2788   1.131   1.880   9.804  0.6907  0.5858 -0.4233
  183MPD1     H 2789   0.947   1.792  10.131  0.4164 -1.1456  0.0558
  183MPD1    H1 2790   0.944   1.919   9.722  1.2817  1.0219 -0.6692
  183MPD1    H2 2791   1.312   1.822   9.898  0.4437 -0.9496  2.9353
  183MPD1    H3 2792   1.185   1.907   9.714 -0.3243  3.6797 -0.0841
  183MPD1     N 2793   0.793   1.892   9.947 -0.2177  0.3896 -0.9291
  183MPD1    H5 2794   0.740   1.855  10.025  0.0649 -3.6081 -2.6475
  183MPD1    N1 2795   1.225   1.741  10.129  0.2241 -0.0306 -0.3054
  183MPD1    H6 2796   1.323   1.757  10.107  0.0347 -0.3253 -1.3394
  183MPD1    H7 2797   1.206   1.771  10.225  1.6458 -0.5903  0.1505
  184MPD1     C 2798   4.395   4.477  10.436  0.1773  0.1278  0.8060
  184MPD1    C1 2799   4.287   4.421  10.365 -0.0854 -0.8798  0.1489
  184MPD1    C2 2800   4.207   4.494  10.278  0.9085  0.0190 -0.1529
  184MPD1    C3 2801   4.250   4.622  10.249 -0.6856 -0.8419  0.4586
  184MPD1    C4 2802   4.365   4.677  10.303 -0.1497  0.4141 -0.6222
  184MPD1    C5 2803   4.432   4.603  10.399  0.3939 -0.5229  0.3198
  184MPD1     H 2804   4.122   4.452  10.226  1.3405  0.5061 -1.2507
  184MPD1    H1 2805   4.408   0.049  10.264 -0.9148 -0.1455 -2.7893
  184MPD1    H2 2806   4.460   4.424  10.504 -0.4726  1.9552  2.8767
  184MPD1    H3 2807   4.512   4.648  10.456 -3.0583  0.3336  4.4686
  184MPD1     N 2808   4.195   4.712  10.153 -0.6211  0.3599  0.4949
  184MPD1    H5 2809   4.216   0.089  10.174  2.8589  0.1853 -2.0059
  184MPD1    N1 2810   4.255   4.285  10.392 -0.1704  0.1602 -0.3600
  184MPD1    H6 2811   4.211   4.240  10.312  0.1561 -1.0553  0.1471
  184MPD1    H7 2812   4.338   4.229  10.412 -1.4654 -1.7566 -0.4043
  185MPD1     C 2813   3.700   0.025   9.165  0.7417 -0.5067  0.5160
  185MPD1    C1 2814   3.639   4.712   9.286  0.7722 -0.3642 -0.0674
  185MPD1    C2 2815   3.722   4.704   9.398  0.8590 -0.0078  0.1945
  185MPD1    C3 2816   3.849   0.041   9.393 -0.7792  0.1902  0.3981
  185MPD1    C4 2817   3.904   0.075   9.273  0.2017  0.1305  0.3923
  185MPD1    C5 2818   3.831   0.068   9.164 -0.4442 -0.0684  0.2147
  185MPD1     H 2819   3.682   4.668   9.492  0.9528 -0.7073 -0.0348
  185MPD1    H1 2820   4.006   0.112   9.266 -0.2317  1.2426 -0.1406
  185MPD1    H2 2821   3.645   0.024   9.071 -0.3774 -1.5696  1.1935
  185MPD1    H3 2822   3.872   0.093   9.067  0.8424 -1.8839  0.2881
  185MPD1     N 2823   3.935   0.057   9.502 -0.0721  0.5209 -0.0010
  185MPD1    H5 2824   4.014   0.118   9.485  0.4397  0.4946  2.3210
  185MPD1    N1 2825   3.513   4.655   9.283  0.0615 -0.1467 -0.5919
  185MPD1    H6 2826   3.455   4.701   9.214  0.0233 -1.5295 -1.4627
  185MPD1    H7 2827   3.464   4.655   9.372  0.2643 -2.1603 -0.4879
  186MPD1     C 2828   1.821   4.259  15.544 -0.3451  1.1410  0.3889
  186MPD1    C1 2829   1.738   4.283  15.654  0.0261  0.7109 -0.0041
  186MPD1    C2 2830   1.785   4.310  15.781 -0.3749  0.5692 -0.5880
  186MPD1    C3 2831   1.919   4.298  15.803  0.2795 -0.3456  0.1578
  186MPD1    C4 2832   2.006   4.281  15.694 -0.2695 -0.6483 -0.4347
  186MPD1    C5 2833   1.956   4.258  15.569  0.5788 -0.0221  0.4629
  186MPD1     H 2834   1.711   4.333  15.857 -0.0269  0.1542 -0.1300
  186MPD1    H1 2835   2.113   4.270  15.706 -0.2342  0.2077 -0.0004
  186MPD1    H2 2836   1.788   4.227  15.446 -0.1448  0.2750  0.6033
  186MPD1    H3 2837   2.013   4.226  15.482  0.3808 -0.2466  0.4165
  186MPD1     N 2838   1.968   4.303  15.933  0.3096  0.0332 -0.3334
  186MPD1    H5 2839   2.069   4.314  15.935  0.3448 -0.1795 -1.0561
  186MPD1    N1 2840   1.605   4.294  15.628  0.3121  0.3078  0.6078
  186MPD1    H6 2841   1.585   4.392  15.608 -0.4514  0.2644  1.1774
  186MPD1    H7 2842   1.551   4.282  15.714 -2.3594  1.7790 -0.8787
  187MPD1     C 2843   1.092   1.405   0.694 -0.2395  0.5065 -0.7729
  187MPD1    C1 2844   1.211   1.347   0.665 -0.6690 -0.5110  0.2030
  187MPD1    C2 2845   1.231   1.316   0.528 -0.8104 -0.0304  0.9157
  187MPD1    C3 2846   1.125   1.335   0.432 -0.7860 -0.2506 -0.6513
  187MPD1    C4 2847   1.005   1.383   0.476  0.4299 -0.5025  0.4038
  187MPD1    C5 2848   0.993   1.423   0.601 -0.5838  0.2935 -0.0759
  187MPD1     H 2849   1.327   1.280   0.492  0.6036  2.1451  2.4486
  187MPD1    H1 2850   0.921   1.389   0.408  0.8200 -0.1418 -0.0480
  187MPD1    H2 2851   1.054   1.430   0.793 -1.0917 -0.4985 -0.8438
  187MPD1    H3 2852   0.913   1.489   0.633 -0.5328  0.4211 -0.2090
  187MPD1     N 2853   1.158   1.288   0.300 -0.1542  0.0119  0.1651
  187MPD1    H5 2854   1.248   1.251   0.274 -0.3816 -2.3713  2.7312
  187MPD1    N1 2855   1.293   1.292   0.767  0.3761  0.1335  0.0591
  187MPD1    H6 2856   1.386   1.259   0.742  0.8825 -0.9471  3.4173
  187MPD1    H7 2857   1.302   1.342   0.855  2.4874 -0.3357  0.1259
  188MPD1     C 2858   1.042   1.110   9.951 -0.2951 -0.2424  0.0612
  188MPD1    C1 2859   1.148   1.064  10.024  0.3281  1.0062  0.3434
  188MPD1    C2 2860   1.150   0.931  10.052  0.0003  0.1970  0.1804
  188MPD1    C3 2861   1.054   0.838  10.016 -0.3680 -0.3371 -0.6205
  188MPD1    C4 2862   0.937   0.885   9.961  0.3922  1.0800 -0.2290
  188MPD1    C5 2863   0.943   1.016   9.925 -0.1191  0.3411 -0.3648
  188MPD1     H 2864   1.248   0.895  10.083  0.4134  0.2679 -1.0244
  188MPD1    H1 2865   0.868   0.818   9.911  3.6718 -1.1733 -1.7451
  188MPD1    H2 2866   1.037   1.201   9.893  2.1082  0.7782  1.4153
  188MPD1    H3 2867   0.857   1.055   9.871 -0.1045  0.6358 -0.1731
  188MPD1     N 2868   1.057   0.705  10.053  0.2447  0.6411  0.3098
  188MPD1    H5 2869   0.978   0.650  10.020 -0.3648  1.4910  0.3483
  188MPD1    N1 2870   1.251   1.152  10.054  0.4597  0.3242 -0.3313
  188MPD1    H6 2871   1.310   1.134  10.136  0.2181  0.3610 -0.1488
  188MPD1    H7 2872   1.212   1.243  10.076 -1.8437 -0.6911 -0.2366
  189MPD1     C 2873   3.027   2.198   1.269 -0.4424  0.7141 -0.8092
  189MPD1    C1 2874   2.985   2.080   1.216  0.0708 -0.2380  0.1633
  189MPD1    C2 2875   2.919   2.093   1.098 -0.4646 -0.2154  0.6062
  189MPD1    C3 2876   2.889   2.211   1.036 -1.0717  0.1041  0.0267
  189MPD1    C4 2877   2.943   2.326   1.086  0.0849 -0.7549 -0.0527
  189MPD1    C5 2878   2.991   2.319   1.214  0.1251  0.3543  0.5822
  189MPD1     H 2879   2.893   2.000   1.048  1.6846  0.0492 -0.9900
  189MPD1    H1 2880   2.917   2.418   1.036 -1.3297 -0.7828  0.6452
  189MPD1    H2 2881   3.081   2.198   1.363  2.3748 -0.1331 -2.4543
  189MPD1    H3 2882   3.026   2.405   1.269 -2.3414  0.6224  1.7256
  189MPD1     N 2883   2.821   2.206   0.910  0.6053  0.6650  0.2092
  189MPD1    H5 2884   2.805   2.116   0.866  0.0004  0.1286  1.5237
  189MPD1    N1 2885   3.024   1.958   1.272  0.2506 -0.0003 -0.4550
  189MPD1    H6 2886   2.946   1.893   1.265  0.6837 -0.5917  0.2558
  189MPD1    H7 2887   3.047   1.973   1.370  0.8557 -1.3061 -0.4077
  190MPD1     C 2888   1.346   0.495  15.172  0.0489 -0.4082  0.0916
  190MPD1    C1 2889   1.383   0.562  15.289 -0.4044 -0.5369  0.0477
  190MPD1    C2 2890   1.476   0.502  15.364 -0.3094 -0.2136 -0.3441
  190MPD1    C3 2891   1.538   0.387  15.323 -0.0556 -0.2041  0.0976
  190MPD1    C4 2892   1.509   0.321  15.209 -0.0441 -0.2805 -0.0869
  190MPD1    C5 2893   1.404   0.374  15.138  0.1768  0.5236 -0.4736
  190MPD1     H 2894   1.505   0.535  15.463  1.7495 -1.0333 -0.6897
  190MPD1    H1 2895   1.548   0.227  15.172  0.8840 -0.3939  1.1648
  190MPD1    H2 2896   1.271   0.537  15.105  1.5427 -2.3041 -2.7755
  190MPD1    H3 2897   1.381   0.330  15.042 -0.0331  2.4121 -1.2881
  190MPD1     N 2898   1.645   0.343  15.404  0.0851  0.0064  0.0282
  190MPD1    H5 2899   1.663   0.383  15.496  0.8595  1.2744 -0.6686
  190MPD1    N1 2900   1.306   0.674  15.332  0.0874 -0.5041 -0.5487
  190MPD1    H6 2901   1.309   0.719  15.423 -0.3489 -0.2051 -0.6809
  190MPD1    H7 2902   1.276   0.738  15.258 -1.9610  0.1726  0.8639
  191MPD1     C 2903   1.320   1.972  12.839 -0.0313 -0.4137 -0.3663
  191MPD1    C1 2904   1.405   2.058  12.777 -0.3822 -0.4979 -0.0869
  191MPD1    C2 2905   1.353   2.186  12.749 -0.2088 -0.7728 -1.0681
  191MPD1    C3 2906   1.216   2.209  12.760 -0.2615  0.1346 -0.7958
  191MPD1    C4 2907   1.130   2.108  12.801 -0.8999  0.9218  0.0523
  191MPD1    C5 2908   1.183   1.986  12.846  0.1274  0.0470  0.1804
  191MPD1     H 2909   1.428   2.263  12.739  1.2315 -2.0783 -0.2523
  191MPD1    H1 2910   1.024   2.130  12.799 -1.2649 -0.8441 -0.1638
  191MPD1    H2 2911   1.357   1.881  12.885 -0.1479  0.7682  2.0775
  191MPD1    H3 2912   1.120   1.905  12.881 -0.8729  1.2037  1.0370
  191MPD1     N 2913   1.176   2.347  12.736 -0.4450  0.1559 -0.1362
  191MPD1    H5 2914   1.249   2.409  12.702 -0.2586 -0.4075 -0.7627
  191MPD1    N1 2915   1.543   2.031  12.784  0.0844  0.2338 -0.6981
  191MPD1    H6 2916   1.603   2.090  12.727  2.1779 -1.8343 -0.6080
  191MPD1    H7 2917   1.575   1.935  12.781  1.5093  0.6960 -0.4936
  192MPD1     C 2918   0.485   3.019  13.120  0.2553  0.2162 -0.0450
  192MPD1    C1 2919   0.470   3.024  12.981  0.1652 -0.2442  0.2363
  192MPD1    C2 2920   0.562   2.955  12.906 -0.7786  0.0290  0.8202
  192MPD1    C3 2921   0.652   2.869  12.975 -0.8038 -0.0696 -0.4930
  192MPD1    C4 2922   0.648   2.842  13.110  0.1344 -0.1862  0.1351
  192MPD1    C5 2923   0.569   2.932  13.179  0.3895  0.1935  0.2199
  192MPD1     H 2924   0.554   2.969  12.799  0.9243 -3.8823  0.1860
  192MPD1    H1 2925   0.715   2.787  13.175  0.7487 -0.9506 -1.1317
  192MPD1    H2 2926   0.428   3.073  13.194 -0.7089 -0.4219 -0.3097
  192MPD1    H3 2927   0.560   2.916  13.286  2.6210 -0.8879  0.2436
  192MPD1     N 2928   0.752   2.798  12.905 -0.2636 -0.5721  0.2885
  192MPD1    H5 2929   0.824   2.751  12.960 -2.0067 -2.1032  1.2483
  192MPD1    N1 2930   0.386   3.119  12.925 -0.3160 -0.8135  0.1880
  192MPD1    H6 2931   0.360   3.097  12.829 -0.7058 -1.7918  0.5220
  192MPD1    H7 2932   0.296   3.139  12.968 -0.2499  3.4550 -1.5858
  193MPD1     C 2933   0.953   1.814  17.198 -0.6069  0.1153 -0.4448
  193MPD1    C1 2934   0.874   1.925  17.229 -0.3028 -0.8786 -0.7124
  193MPD1    C2 2935   0.891   2.042  17.154 -0.0818  0.1443 -0.3629
  193MPD1    C3 2936   0.987   2.041  17.054 -0.4672  0.3433  0.0523
  193MPD1    C4 2937   1.060   1.931  17.024  0.2413  0.5821  0.0643
  193MPD1    C5 2938   1.034   1.818  17.093 -0.5730  0.1978  0.6608
  193MPD1     H 2939   0.833   2.129  17.181  1.8328  1.1276  0.5787
  193MPD1    H1 2940   1.141   1.930  16.952  2.9619  0.8184  3.1374
  193MPD1    H2 2941   0.959   1.724  17.259 -1.9972 -0.0955 -0.6048
  193MPD1    H3 2942   1.079   1.727  17.056  1.2999  0.0969  3.2075
  193MPD1     N 2943   1.009   2.154  16.967  0.2418 -0.4019 -0.0589
  193MPD1    H5 2944   1.082   2.136  16.898  2.6920 -0.9384  2.6505
  193MPD1    N1 2945   0.811   1.931  17.358 -0.3521  0.1706  0.2365
  193MPD1    H6 2946   0.745   2.009  17.360  1.4564  1.6881  0.8721
  193MPD1    H7 2947   0.768   1.842  17.383  1.2745 -0.9777 -1.0542
  194MPD1     C 2948   4.495   0.156  16.503  0.1402 -0.0286  0.8958
  194MPD1    C1 2949   4.402   0.200  16.593 -0.7314 -0.3362 -0.2957
  194MPD1    C2 2950   4.347   0.103  16.676  0.4747  0.3632  0.1409
  194MPD1    C3 2951   4.394   4.690  16.667  0.5888  0.0667 -0.3531
  194MPD1    C4 2952   4.489   4.645  16.567 -0.1406 -0.0719  0.0892
  194MPD1    C5 2953   4.527   0.024  16.484 -0.2234 -0.2955  0.5083
  194MPD1     H 2954   4.271   0.136  16.745  1.4470  2.2397  0.3236
  194MPD1    H1 2955   4.523   4.543  16.560  0.8547  0.2141  0.7455
  194MPD1    H2 2956   4.555   0.227  16.446 -0.5858 -2.0147 -2.3310
  194MPD1    H3 2957   4.600   0.005  16.405 -1.0476  0.5749 -0.4580
  194MPD1     N 2958   4.352   4.586  16.753  0.1573  0.5497  0.1242
  194MPD1    H5 2959   4.365   4.494  16.712  0.0256  0.1567  0.9699
  194MPD1    N1 2960   4.358   0.334  16.590 -0.3452 -0.8757  0.1963
  194MPD1    H6 2961   4.323   0.357  16.682  1.0107 -0.0647  0.5086
  194MPD1    H7 2962   4.428   0.398  16.553 -0.4272 -0.5306  0.6490
  195MPD1     C 2963   0.619   1.511   0.575 -0.0437  0.1362  0.4206
  195MPD1    C1 2964   0.580   1.515   0.442  0.4874 -0.7678  0.3441
  195MPD1    C2 2965   0.605   1.403   0.356 -0.1939 -0.1045  0.2807
  195MPD1    C3 2966   0.660   1.288   0.402 -0.3598  0.5205  0.1270
  195MPD1    C4 2967   0.689   1.283   0.532 -0.0553 -0.4748 -0.3452
  195MPD1    C5 2968   0.667   1.392   0.618 -0.5976  0.3763 -0.3638
  195MPD1     H 2969   0.591   1.417   0.249 -0.0515 -2.0690  0.0152
  195MPD1    H1 2970   0.727   1.189   0.571 -2.0201 -0.8089  0.7579
  195MPD1    H2 2971   0.617   1.596   0.642  1.1058  0.1880  0.4020
  195MPD1    H3 2972   0.692   1.385   0.723  0.9546  0.8521 -0.7081
  195MPD1     N 2973   0.696   1.178   0.322  0.2933 -0.1819 -0.0735
  195MPD1    H5 2974   0.758   1.107   0.360 -1.7942 -0.9633  1.8361
  195MPD1    N1 2975   0.547   1.644   0.390  0.0397 -0.6091  0.4840
  195MPD1    H6 2976   0.503   1.703   0.460  1.7379  2.0600 -0.7103
  195MPD1    H7 2977   0.493   1.640   0.304  1.1338  1.3155 -0.2807
  196MPD1     C 2978   0.451   0.151   0.953  0.3471  0.6132  0.0226
  196MPD1    C1 2979   0.350   0.090   0.882  0.1357  0.2959  0.2144
  196MPD1    C2 2980   0.287   0.156   0.780 -0.1219 -0.2816 -0.0540
  196MPD1    C3 2981   0.314   0.291   0.751 -0.0166 -0.0772  0.7609
  196MPD1    C4 2982   0.415   0.355   0.818 -0.0197 -0.2120  0.4320
  196MPD1    C5 2983   0.477   0.283   0.920 -0.7918  0.6095  0.1944
  196MPD1     H 2984   0.212   0.106   0.720 -0.7506  0.0328  0.4650
  196MPD1    H1 2985   0.439   0.458   0.794  0.4945 -0.9451 -2.1232
  196MPD1    H2 2986   0.504   0.104   1.035  2.7024  0.4175 -1.6076
  196MPD1    H3 2987   0.542   0.332   0.992 -1.5303  1.2695  0.4042
  196MPD1     N 2988   0.237   0.371   0.669 -0.2211 -0.1194 -0.5243
  196MPD1    H5 2989   0.249   0.471   0.677  2.1730 -0.3542 -1.1652
  196MPD1    N1 2990   0.324   4.671   0.891  0.3317 -0.0537 -0.2364
  196MPD1    H6 2991   0.352   4.628   0.978 -0.0885 -0.9719 -0.5561
  196MPD1    H7 2992   0.229   4.645   0.864  0.4202  1.4912 -2.0812
  197MPD1     C 2993   4.154   2.682   0.241 -0.1663 -0.0631 -0.3063
  197MPD1    C1 2994   4.280   2.681   0.293 -0.6947  0.5302 -0.5623
  197MPD1    C2 2995   4.383   2.743   0.222  0.2296  0.1986  0.4237
  197MPD1    C3 2996   4.370   2.800   0.098  0.3034  0.4449 -1.0692
  197MPD1    C4 2997   4.246   2.771   0.039 -0.0779 -0.6862 -1.1278
  197MPD1    C5 2998   4.140   2.728   0.115  0.1084 -0.5369 -0.0152
  197MPD1     H 2999   4.482   2.745   0.265  0.6983 -2.6807 -0.4998
  197MPD1    H1 3000   4.235   2.779  17.612  1.4794  0.2400 -1.2113
  197MPD1    H2 3001   4.067   2.637   0.287 -0.8237 -0.8713 -2.3449
  197MPD1    H3 3002   4.044   2.706   0.070  0.1868 -2.4029  0.7145
  197MPD1     N 3003   4.459   2.883   0.026  0.0573  0.1819 -0.1907
  197MPD1    H5 3004   4.433   2.906  17.612 -1.2162 -1.5137 -0.2469
  197MPD1    N1 3005   4.301   2.622   0.419  0.3474 -0.3136  0.1575
  197MPD1    H6 3006   4.393   2.579   0.433  0.8304 -0.0695 -2.3117
  197MPD1    H7 3007   4.226   2.558   0.446 -0.3991  1.3439  1.9619
  198MPD1     C 3008   0.831   1.878  15.831 -0.8295 -0.2402 -0.2180
  198MPD1    C1 3009   0.940   1.914  15.901 -0.6969  0.2366 -0.2274
  198MPD1    C2 3010   1.053   1.837  15.881 -0.3114 -0.2847 -0.3643
  198MPD1    C3 3011   1.057   1.742  15.784  0.5337  0.4225  0.7007
  198MPD1    C4 3012   0.950   1.710  15.707 -0.1840 -0.0484 -0.3677
  198MPD1    C5 3013   0.834   1.775  15.736 -0.1962  0.1417  0.6036
  198MPD1     H 3014   1.141   1.853  15.943 -0.5097 -1.3806  0.2004
  198MPD1    H1 3015   0.945   1.633  15.630  0.7491 -1.5428  1.0607
  198MPD1    H2 3016   0.734   1.921  15.848 -1.7743 -1.7924 -1.6681
  198MPD1    H3 3017   0.748   1.747  15.677 -1.6234  0.1748  2.7217
  198MPD1     N 3018   1.182   1.672  15.772  0.1851  0.0135 -0.1052
  198MPD1    H5 3019   1.252   1.713  15.832 -0.6468 -1.7433  2.0696
  198MPD1    N1 3020   0.930   2.002  16.010  0.3972 -0.5706 -0.5187
  198MPD1    H6 3021   0.857   2.072  15.997 -0.6763 -1.7801 -1.0018
  198MPD1    H7 3022   1.018   2.044  16.039 -0.2560  0.6103 -0.2389
  199MPD1     C 3023   4.188   1.438   9.615  1.1116  0.3959  0.4166
  199MPD1    C1 3024   4.199   1.544   9.701 -0.0241  0.2712 -0.2818
  199MPD1    C2 3025   4.125   1.661   9.681  0.2522  0.3960 -0.4574
  199MPD1    C3 3026   4.026   1.664   9.580  0.1004  0.7813 -0.0667
  199MPD1    C4 3027   4.010   1.551   9.505 -0.1554 -0.0786  0.0000
  199MPD1    C5 3028   4.094   1.444   9.518 -0.0507 -0.1188  0.0777
  199MPD1     H 3029   4.151   1.750   9.737  0.2285 -0.7069  1.3014
  199MPD1    H1 3030   3.929   1.544   9.433 -0.9298  0.1451  0.8416
  199MPD1    H2 3031   4.264   1.360   9.616 -0.4025 -1.0860 -0.6474
  199MPD1    H3 3032   4.105   1.376   9.434  0.2859  2.0355 -1.6507
  199MPD1     N 3033   3.935   1.769   9.558  0.6469  0.2145  0.1321
  199MPD1    H5 3034   3.873   1.748   9.481  0.5369  0.7068  0.0867
  199MPD1    N1 3035   4.300   1.555   9.792 -0.0998  0.1984 -0.2643
  199MPD1    H6 3036   4.333   1.464   9.824  1.9469  0.7374 -0.8000
  199MPD1    H7 3037   4.280   1.611   9.874  0.3800  0.1187 -0.0897
  200MPD1     C 3038   2.102   2.441  14.699 -0.4912 -0.4133 -0.6830
  200MPD1    C1 3039   2.163   2.443  14.577 -0.2540 -0.7381 -0.2946
  200MPD1    C2 3040   2.298   2.457  14.574  0.7667 -0.3819  0.0114
  200MPD1    C3 3041   2.373   2.491  14.681  0.3088  0.5789 -0.2081
  200MPD1    C4 3042   2.312   2.491  14.807 -0.0413 -0.2048  0.4179
  200MPD1    C5 3043   2.178   2.463  14.819  0.4548 -0.1346  0.3766
  200MPD1     H 3044   2.356   2.442  14.484 -0.0145  1.0872 -0.7357
  200MPD1    H1 3045   2.371   2.502  14.898  0.8310  0.2183 -0.2051
  200MPD1    H2 3046   1.996   2.420  14.711 -0.1945 -1.8086 -0.6026
  200MPD1    H3 3047   2.134   2.461  14.918 -2.3228  0.8603 -0.8208
  200MPD1     N 3048   2.513   2.506  14.674  0.0887  0.0862  0.3561
  200MPD1    H5 3049   2.560   2.492  14.585  0.7096 -0.6659  0.7974
  200MPD1    N1 3050   2.092   2.396  14.469  0.6086 -0.5835 -0.3641
  200MPD1    H6 3051   2.131   2.408  14.376 -1.6662  0.2079 -1.2015
  200MPD1    H7 3052   2.006   2.450  14.474  1.7299  1.2026 -0.2287
  201MPD1     C 3053   0.109   2.194  13.042  0.7634  0.4008  0.0889
  201MPD1    C1 3054   0.016   2.100  13.021  1.0096  0.3041 -0.4408
  201MPD1    C2 3055   0.046   1.965  13.007  0.4147  0.3503  0.2188
  201MPD1    C3 3056   0.182   1.935  13.010 -0.4492 -0.4262 -1.1321
  201MPD1    C4 3057   0.279   2.032  13.027  0.1032 -0.3679  0.9798
  201MPD1    C5 3058   0.239   2.162  13.039 -0.4043  0.1690  0.9060
  201MPD1     H 3059   4.691   1.889  12.988  0.1188  0.2592  1.7019
  201MPD1    H1 3060   0.385   2.008  13.026  0.3222  0.5620  1.6925
  201MPD1    H2 3061   0.082   2.296  13.065 -0.4152  0.2857 -0.7831
  201MPD1    H3 3062   0.315   2.239  13.048 -0.0739  0.2968 -3.0523
  201MPD1     N 3063   0.217   1.801  13.012 -0.9235  0.5141 -0.0613
  201MPD1    H5 3064   0.135   1.741  13.016 -0.8371  0.3064 -1.1884
  201MPD1    N1 3065   4.594   2.133  13.036  0.5240 -0.3166 -0.0585
  201MPD1    H6 3066   4.581   2.231  13.011 -0.5815 -0.8929 -1.7538
  201MPD1    H7 3067   4.540   2.089  12.962  0.2762 -0.3583  0.1496
  202MPD1     C 3068   1.458   1.341  10.555  0.5887 -0.8913  0.4104
  202MPD1    C1 3069   1.395   1.399  10.445  0.1769 -0.4235  0.8395
  202MPD1    C2 3070   1.264   1.352  10.422 -0.4913 -0.4906  0.2837
  202MPD1    C3 3071   1.229   1.228  10.468 -0.7501 -0.2197 -0.8539
  202MPD1    C4 3072   1.315   1.154  10.543 -0.0826  0.3171  0.2440
  202MPD1    C5 3073   1.428   1.214  10.590 -0.2388 -0.2563  0.4199
  202MPD1     H 3074   1.202   1.401  10.348  1.2393 -2.4746 -2.4787
  202MPD1    H1 3075   1.294   1.051  10.569  0.6049  0.6036  1.9434
  202MPD1    H2 3076   1.555   1.372  10.592 -0.3083  0.7359  1.3818
  202MPD1    H3 3077   1.494   1.152  10.648 -0.2641 -0.3116  0.3895
  202MPD1     N 3078   1.114   1.158  10.422 -0.3534 -0.2890 -0.2860
  202MPD1    H5 3079   1.114   1.058  10.434  0.4212 -0.2548  0.0150
  202MPD1    N1 3080   1.422   1.536  10.429 -0.2160 -1.0504 -0.4749
  202MPD1    H6 3081   1.386   1.576  10.343  1.4489 -1.0394 -1.1541
  202MPD1    H7 3082   1.521   1.555  10.444 -1.1449  2.5819  1.1374
  203MPD1     C 3083   3.304   2.290  12.383  0.0673  0.7555  0.4135
  203MPD1    C1 3084   3.405   2.298  12.292 -0.3320  0.1520 -0.5796
  203MPD1    C2 3085   3.523   2.239  12.329 -0.0740  0.5944  0.8336
  203MPD1    C3 3086   3.551   2.198  12.454 -0.0693  0.8416 -0.1243
  203MPD1    C4 3087   3.450   2.199  12.549 -0.9841 -0.3219 -0.3677
  203MPD1    C5 3088   3.326   2.246  12.507  0.1398 -0.3675 -1.1652
  203MPD1     H 3089   3.600   2.221  12.254  1.9919 -1.8192  3.5563
  203MPD1    H1 3090   3.463   2.165  12.651 -0.2956  0.5682 -0.1538
  203MPD1    H2 3091   3.204   2.326  12.361 -0.4289 -0.1419  1.1504
  203MPD1    H3 3092   3.235   2.241  12.566 -1.3345 -1.5084 -3.5139
  203MPD1     N 3093   3.674   2.136  12.462  0.0718 -0.5951 -0.4433
  203MPD1    H5 3094   3.728   2.133  12.376  0.2293  2.5515 -0.4408
  203MPD1    N1 3095   3.381   2.338  12.161 -0.0033  0.2559 -0.0707
  203MPD1    H6 3096   3.470   2.365  12.119  0.3128  1.1551  1.1729
  203MPD1    H7 3097   3.316   2.416  12.149 -0.1933  0.5415  2.8120
  204MPD1     C 3098   4.134   3.491   0.514 -0.0737  0.2032  0.6071
  204MPD1    C1 3099   4.215   3.476   0.405  0.0117  0.7776 -0.2860
  204MPD1    C2 3100   4.156   3.465   0.284 -0.1166  0.3585  0.1693
  204MPD1    C3 3101   4.019   3.444   0.276  0.2710 -0.3385  0.6418
  204MPD1    C4 3102   3.943   3.437   0.386  0.5772 -0.0059 -0.6416
  204MPD1    C5 3103   4.003   3.464   0.507  0.5165  0.2147 -0.2871
  204MPD1     H 3104   4.207   3.463   0.188  1.7676 -0.9467  1.2155
  204MPD1    H1 3105   3.837   3.421   0.368  0.4273 -0.0975  0.3218
  204MPD1    H2 3106   4.162   3.523   0.613 -2.2524 -0.6299  1.4789
  204MPD1    H3 3107   3.946   3.461   0.600 -0.7863 -0.6961 -1.1118
  204MPD1     N 3108   3.979   3.400   0.146  0.2945  0.0262 -0.6224
  204MPD1    H5 3109   4.043   3.429   0.072 -0.4931  0.1384 -1.2661
  204MPD1    N1 3110   4.348   3.511   0.413  0.0011 -0.1285  0.2663
  204MPD1    H6 3111   4.397   3.444   0.355 -1.1434 -1.9525  1.4004
  204MPD1    H7 3112   4.381   3.500   0.509  2.5871 -2.1861 -0.8848
  205MPD1     C 3113   3.667   2.231  16.665 -0.2247 -0.2443  0.2766
  205MPD1    C1 3114   3.653   2.148  16.765 -0.5869  0.3500 -0.9317
  205MPD1    C2 3115   3.598   2.190  16.888 -0.2604 -0.1170 -0.2745
  205MPD1    C3 3116   3.539   2.315  16.899 -0.2022  0.0776  0.4265
  205MPD1    C4 3117   3.538   2.392  16.782  0.1592  0.1219 -0.2658
  205MPD1    C5 3118   3.611   2.357  16.671 -0.2473 -0.4485 -0.6670
  205MPD1     H 3119   3.605   2.124  16.973 -0.9534 -0.0275 -0.1422
  205MPD1    H1 3120   3.491   2.490  16.782 -1.3078 -0.5778  0.5513
  205MPD1    H2 3121   3.720   2.195  16.577 -0.2616  0.7872 -0.1619
  205MPD1    H3 3122   3.608   2.406  16.574 -2.4098 -0.8279 -0.7795
  205MPD1     N 3123   3.480   2.373  17.012 -0.0333  0.3175 -0.2599
  205MPD1    H5 3124   3.437   2.465  17.005 -1.3164 -0.1963  0.8602
  205MPD1    N1 3125   3.721   2.030  16.767 -0.6953 -0.0807  0.4287
  205MPD1    H6 3126   3.680   1.961  16.830  0.7480 -1.1604  0.1957
  205MPD1    H7 3127   3.725   1.994  16.672 -0.2153  0.1619  0.3545
  206MPD1     C 3128   3.370   4.255  15.708  0.0217 -0.0122  0.6585
  206MPD1    C1 3129   3.318   4.373  15.667 -0.2248 -0.1472 -0.3053
  206MPD1    C2 3130   3.318   4.481  15.751  0.4556  0.2082  0.2186
  206MPD1    C3 3131   3.380   4.480  15.872 -0.4772 -0.1938  0.9763
  206MPD1    C4 3132   3.458   4.366  15.893  0.6486 -0.1890  0.2144
  206MPD1    C5 3133   3.445   4.248  15.826 -0.1962  0.0974 -0.2710
  206MPD1     H 3134   3.264   4.569  15.716  1.3238  0.5409 -0.2891
  206MPD1    H1 3135   3.519   4.364  15.983 -0.5648  0.6090  1.0481
  206MPD1    H2 3136   3.372   4.168  15.643 -0.4467  1.1412 -0.8970
  206MPD1    H3 3137   3.495   4.158  15.861 -0.2183  0.4013  0.5282
  206MPD1     N 3138   3.380   4.593  15.960  0.0533  0.3575  0.1695
  206MPD1    H5 3139   3.444   4.597  16.039  2.0656  0.6936 -1.4928
  206MPD1    N1 3140   3.253   4.372  15.538  0.2161 -0.5002  0.3648
  206MPD1    H6 3141   3.244   4.455  15.479  0.3058 -0.5647  0.2600
  206MPD1    H7 3142   3.269   4.285  15.487  0.6646 -1.3000  1.8899
  207MPD1     C 3143   0.826   2.923   9.986  0.0030  0.1838 -0.4146
  207MPD1    C1 3144   0.943   2.908   9.905 -0.0689 -0.3060 -0.5857
  207MPD1    C2 3145   1.057   2.975   9.945 -0.5752  0.0808 -0.7880
  207MPD1    C3 3146   1.057   3.059  10.059 -0.1729  0.0254  0.7872
  207MPD1    C4 3147   0.942   3.088  10.125  0.3751 -0.2873  0.2927
  207MPD1    C5 3148   0.828   3.021  10.088 -0.5514  0.1693 -0.1373
  207MPD1     H 3149   1.152   2.966   9.893  0.1442  1.5086  0.3048
  207MPD1    H1 3150   0.927   3.165  10.201  0.0204  1.6981 -1.7929
  207MPD1    H2 3151   0.732   2.880   9.955 -0.1681  0.7578 -0.6690
  207MPD1    H3 3152   0.742   3.040  10.152 -0.6776 -0.5271 -0.1077
  207MPD1     N 3153   1.175   3.131  10.111  0.3142  0.1384  0.0460
  207MPD1    H5 3154   1.160   3.181  10.198 -1.1517 -1.3696  0.6645
  207MPD1    N1 3155   0.960   2.802   9.807 -0.9170 -0.5553 -0.2730
  207MPD1    H6 3156   0.875   2.794   9.752 -1.0550  2.2053 -0.4289
  207MPD1    H7 3157   1.032   2.817   9.738  1.0858 -0.7828  1.7494
  208MPD1     C 3158   3.237   1.136  17.144  0.4598 -0.2989  0.4237
  208MPD1    C1 3159   3.330   1.223  17.198  0.0865 -0.0398 -0.4712
  208MPD1    C2 3160   3.309   1.289  17.317 -0.7113  0.1508 -0.0279
  208MPD1    C3 3161   3.189   1.268  17.385  0.0751  0.3615  0.2626
  208MPD1    C4 3162   3.089   1.203  17.324 -0.7943  0.0380  0.7830
  208MPD1    C5 3163   3.118   1.132  17.207  0.1425 -0.6118  0.5829
  208MPD1     H 3164   3.395   1.340  17.358 -0.0736 -0.5086 -0.5546
  208MPD1    H1 3165   2.994   1.182  17.371  0.0857 -0.5431  2.3159
  208MPD1    H2 3166   3.257   1.071  17.060  0.0159 -0.2605  0.2912
  208MPD1    H3 3167   3.036   1.068  17.176 -1.0490  1.2429 -0.0640
  208MPD1     N 3168   3.177   1.321  17.512 -0.6452  1.3924  0.7634
  208MPD1    H5 3169   3.239   1.387  17.558  0.0914  2.4804 -1.7824
  208MPD1    N1 3170   3.458   1.208  17.157 -0.3034 -0.1219  0.0767
  208MPD1    H6 3171   3.511   1.292  17.178  0.4664 -1.1474  2.2188
  208MPD1    H7 3172   3.464   1.180  17.059  0.2995 -1.2457  0.4307
  209MPD1     C 3173   1.266   2.798  11.827  0.0337  0.2209  0.1222
  209MPD1    C1 3174   1.208   2.704  11.746  0.5366 -0.3046 -0.5742
  209MPD1    C2 3175   1.252   2.702  11.614 -0.0395  0.8300  0.1258
  209MPD1    C3 3176   1.359   2.782  11.565  0.2601  0.2560  0.2250
  209MPD1    C4 3177   1.399   2.885  11.648  0.0965 -0.1245  0.1497
  209MPD1    C5 3178   1.354   2.893  11.776  0.0773  0.3213  0.0525
  209MPD1     H 3179   1.204   2.626  11.554  1.8356 -0.4034  0.1811
  209MPD1    H1 3180   1.487   2.944  11.624  0.6580 -1.2010 -0.4162
  209MPD1    H2 3181   1.244   2.811  11.933  1.6120 -1.0231  0.6189
  209MPD1    H3 3182   1.382   2.967  11.851 -0.5493 -0.4008  1.0023
  209MPD1     N 3183   1.393   2.762  11.432 -0.4869 -0.2660 -0.0112
  209MPD1    H5 3184   1.351   2.690  11.374  1.6213 -0.9785 -0.6804
  209MPD1    N1 3185   1.123   2.607  11.796 -0.5293  0.3112 -0.3285
  209MPD1    H6 3186   1.071   2.625  11.882  1.5931  1.4677  0.7131
  209MPD1    H7 3187   1.066   2.554  11.731 -1.2568 -0.4701  0.9544
  210MPD1     C 3188   1.310   2.086  10.740  0.0994 -0.3531 -0.6239
  210MPD1    C1 3189   1.374   2.082  10.861  0.0271  0.3895  0.2427
  210MPD1    C2 3190   1.396   2.204  10.930 -0.0341  0.6860  0.1435
  210MPD1    C3 3191   1.374   2.319  10.868  0.3269  0.7829 -0.1924
  210MPD1    C4 3192   1.336   2.316  10.735  0.3047  0.4933 -0.8846
  210MPD1    C5 3193   1.301   2.199  10.673 -0.8600 -0.1504 -0.3170
  210MPD1     H 3194   1.446   2.196  11.026 -1.5880 -0.1548  0.8766
  210MPD1    H1 3195   1.331   2.403  10.670 -0.1327  1.1452  0.0245
  210MPD1    H2 3196   1.277   1.993  10.694  0.2632 -0.2630 -0.9266
  210MPD1    H3 3197   1.253   2.204  10.576 -1.9605 -0.3615  0.2161
  210MPD1     N 3198   1.402   2.446  10.924  0.3296 -0.4284 -0.8639
  210MPD1    H5 3199   1.382   2.530  10.870 -1.8332 -0.0720  0.5268
  210MPD1    N1 3200   1.411   1.962  10.915  0.2090  0.0352 -0.1262
  210MPD1    H6 3201   1.496   1.964  10.970 -1.6672 -2.2528  2.9009
  210MPD1    H7 3202   1.403   1.889  10.843  2.0063 -0.5329  0.2550
  211MPD1     C 3203   3.985   1.463  16.579 -0.5140 -0.8071  1.1363
  211MPD1    C1 3204   4.007   1.593  16.548  0.6401 -0.4789  0.7509
  211MPD1    C2 3205   3.890   1.675  16.553  0.3695  0.8246 -0.5519
  211MPD1    C3 3206   3.765   1.629  16.559 -0.5701  0.0577  1.0904
  211MPD1    C4 3207   3.748   1.489  16.575  0.4371  0.2789  0.3646
  211MPD1    C5 3208   3.860   1.409  16.584 -0.0734 -0.2062  0.0483
  211MPD1     H 3209   3.892   1.783  16.564 -1.0224  1.0687 -2.7067
  211MPD1    H1 3210   3.655   1.434  16.576  0.2005  0.7194  1.4193
  211MPD1    H2 3211   4.069   1.395  16.587 -0.3964 -0.8805 -0.6598
  211MPD1    H3 3212   3.855   1.301  16.597  3.1269 -0.4994 -1.2998
  211MPD1     N 3213   3.652   1.714  16.561 -0.0614  0.5030 -0.0015
  211MPD1    H5 3214   3.669   1.811  16.536 -0.6843  0.7500  0.5233
  211MPD1    N1 3215   4.137   1.642  16.561 -0.1064  0.1581  0.6923
  211MPD1    H6 3216   4.139   1.728  16.508  2.4882  0.2530  0.9233
  211MPD1    H7 3217   4.206   1.578  16.520  0.4819  1.6606 -0.6442
  212MPD1     C 3218   3.510   4.628  16.745  0.0379 -0.3702  0.3249
  212MPD1    C1 3219   3.408   4.710  16.693 -0.2950 -0.1461 -0.2411
  212MPD1    C2 3220   3.274   4.688  16.722 -0.0610 -0.5265 -0.4759
  212MPD1    C3 3221   3.239   4.583  16.802  0.2964 -0.8514 -0.1910
  212MPD1    C4 3222   3.340   4.498  16.847  0.3149 -0.2028  0.6958
  212MPD1    C5 3223   3.475   4.522  16.819 -0.8728 -0.2197 -0.2247
  212MPD1     H 3224   3.196   0.021  16.669 -0.0565 -0.3662 -0.3252
  212MPD1    H1 3225   3.319   4.406  16.902 -1.7990  1.1517  2.1240
  212MPD1    H2 3226   3.615   4.639  16.723  0.3785  0.9680  2.6274
  212MPD1    H3 3227   3.552   4.467  16.873 -2.7628  0.1690  2.8476
  212MPD1     N 3228   3.099   4.542  16.825  0.2390 -0.0435  0.2660
  212MPD1    H5 3229   3.097   4.464  16.890 -2.7859  0.8751  1.2517
  212MPD1    N1 3230   3.446   0.082  16.590  0.3715 -0.6493  0.2153
  212MPD1    H6 3231   3.378   0.158  16.578  1.0080 -0.2373 -0.7907
  212MPD1    H7 3232   3.546   0.099  16.588  0.2696 -0.0412  0.0612
  213MPD1     C 3233   1.252   0.720  15.701 -0.1973  0.9597  0.1834
  213MPD1    C1 3234   1.124   0.668  15.696 -0.4293  0.0048 -0.7801
  213MPD1    C2 3235   1.044   0.721  15.592 -0.0959  0.5801 -0.4559
  213MPD1    C3 3236   1.082   0.833  15.519  1.0918 -1.0554 -0.6622
  213MPD1    C4 3237   1.196   0.893  15.548  1.0654  0.4507  0.2307
  213MPD1    C5 3238   1.281   0.841  15.642 -0.0675 -0.0183 -0.0699
  213MPD1     H 3239   0.953   0.667  15.567  0.6627 -0.4659 -0.9616
  213MPD1    H1 3240   1.214   0.992  15.507  0.6712  0.1164 -0.7460
  213MPD1    H2 3241   1.320   0.670  15.769 -0.5794  1.4500  0.9388
  213MPD1    H3 3242   1.369   0.900  15.666  0.8231  0.3050 -4.0838
  213MPD1     N 3243   0.995   0.878  15.410 -0.3797  0.2175  0.4213
  213MPD1    H5 3244   0.912   0.824  15.387  0.0036 -0.4594  0.6433
  213MPD1    N1 3245   1.109   0.542  15.745 -0.3714 -0.6002  0.4136
  213MPD1    H6 3246   1.169   0.531  15.826  0.2029  0.1727  0.0900
  213MPD1    H7 3247   1.012   0.519  15.767 -0.3669 -1.5674 -0.5773
  214MPD1     C 3248   0.114   0.791  15.322  0.0591  0.1267 -0.5112
  214MPD1    C1 3249   0.146   0.813  15.194  0.2472 -0.5017  0.4490
  214MPD1    C2 3250   0.282   0.833  15.162 -0.0704  0.1240 -0.3882
  214MPD1    C3 3251   0.384   0.834  15.256 -0.6383  0.6300  0.1166
  214MPD1    C4 3252   0.344   0.823  15.387  0.0449 -0.3432 -0.1577
  214MPD1    C5 3253   0.212   0.802  15.418 -0.4595  0.4428 -0.3651
  214MPD1     H 3254   0.308   0.836  15.057  0.1364  1.8256 -0.3009
  214MPD1    H1 3255   0.426   0.831  15.457  0.9940  0.7053 -1.3832
  214MPD1    H2 3256   0.016   0.759  15.353  0.1456 -0.6173 -0.9998
  214MPD1    H3 3257   0.169   0.806  15.517  1.2809  0.0882  0.4086
  214MPD1     N 3258   0.522   0.869  15.229  0.3814 -0.1030 -0.4590
  214MPD1    H5 3259   0.573   0.887  15.315 -1.0036  1.4486  0.0306
  214MPD1    N1 3260   0.054   0.809  15.091 -0.0389 -0.6795 -0.6333
  214MPD1    H6 3261   0.081   0.868  15.013  2.3704  2.6970  2.7484
  214MPD1    H7 3262   4.681   0.828  15.129  0.4151 -2.7527  1.5233
  215MPD1     C 3263   1.071   1.533  10.676  0.3980 -0.1526  0.0434
  215MPD1    C1 3264   1.181   1.569  10.750  0.5470 -0.6665  0.0441
  215MPD1    C2 3265   1.169   1.673  10.843  0.3100 -0.1817 -0.4938
  215MPD1    C3 3266   1.052   1.749  10.841  0.6455  0.3638  0.1895
  215MPD1    C4 3267   0.948   1.716  10.764  0.9479  0.2015  0.2043
  215MPD1    C5 3268   0.958   1.614  10.677 -0.4229 -0.0898  0.0396
  215MPD1     H 3269   1.250   1.702  10.910  1.2127 -0.0281 -1.6454
  215MPD1    H1 3270   0.849   1.759  10.774  0.0924 -1.1740 -2.3733
  215MPD1    H2 3271   1.082   1.438  10.626  2.6432  0.1999 -0.1025
  215MPD1    H3 3272   0.864   1.591  10.629 -0.1008  1.4114 -1.3226
  215MPD1     N 3273   1.050   1.868  10.922 -0.0025  0.0534 -0.3853
  215MPD1    H5 3274   1.118   1.869  10.998  0.4966  0.3371 -0.8363
  215MPD1    N1 3275   1.293   1.484  10.757 -0.0158 -0.4095 -0.0377
  215MPD1    H6 3276   1.303   1.431  10.671  2.6098  0.3223 -0.1931
  215MPD1    H7 3277   1.369   1.552  10.765  0.7258 -1.3152  0.7723
  216MPD1     C 3278   4.064   4.629  17.371  0.0116 -0.3717  0.7361
  216MPD1    C1 3279   4.006   4.582  17.483  0.2794 -0.4102  0.1190
  216MPD1    C2 3280   3.963   4.452  17.472 -0.1837  0.2961 -0.6287
  216MPD1    C3 3281   3.973   4.377  17.356  0.3441 -1.0029 -0.6468
  216MPD1    C4 3282   4.030   4.426  17.246  0.1100 -0.4982  0.1539
  216MPD1    C5 3283   4.073   4.555  17.258 -0.3861  0.2081  0.0830
  216MPD1     H 3284   3.908   4.411  17.555  3.0365 -3.4978 -0.3116
  216MPD1    H1 3285   4.030   4.373  17.152 -1.7307  1.3343 -0.8837
  216MPD1    H2 3286   4.104   0.010  17.359  1.6163 -1.1758 -0.6933
  216MPD1    H3 3287   4.131   4.601  17.178 -0.9928 -0.3245 -0.6573
  216MPD1     N 3288   3.909   4.247  17.364 -0.4335 -0.0989 -0.0294
  216MPD1    H5 3289   3.841   4.249  17.440 -0.0103 -3.7331  0.4282
  216MPD1    N1 3290   4.019   4.650  17.603  0.1197  0.1588 -0.2740
  216MPD1    H6 3291   4.016   0.031  17.588  2.3574  0.4061  1.0052
  216MPD1    H7 3292   3.955   4.616  17.675  0.0498  0.9004  0.0201
  217MPD1     C 3293   0.085   0.781   8.102  0.9046 -0.1710 -0.2717
  217MPD1    C1 3294   0.175   0.847   8.192  0.5528 -0.2537  0.1396
  217MPD1    C2 3295   0.162   0.815   8.328  0.7874  0.2444 -0.0711
  217MPD1    C3 3296   0.074   0.724   8.382 -0.2837 -0.6638 -0.1529
  217MPD1    C4 3297   4.711   0.659   8.296 -0.4346 -0.5118  0.8548
  217MPD1    C5 3298   0.003   0.686   8.160 -0.4159  0.3922 -0.2521
  217MPD1     H 3299   0.210   0.887   8.393 -0.5637  0.6559  0.4545
  217MPD1    H1 3300   4.646   0.580   8.332  1.5848 -3.4919 -1.9479
  217MPD1    H2 3301   0.091   0.784   7.994 -1.0592  2.1486 -0.3074
  217MPD1    H3 3302   4.663   0.626   8.092  2.9697 -1.3475 -1.6789
  217MPD1     N 3303   0.060   0.710   8.527 -0.1902  0.5021 -0.0804
  217MPD1    H5 3304   4.715   0.639   8.559  1.7710 -0.6395  1.3247
  217MPD1    N1 3305   0.275   0.926   8.136 -0.1026 -0.5748 -0.2388
  217MPD1    H6 3306   0.299   0.998   8.204 -1.1501 -1.6778  1.2922
  217MPD1    H7 3307   0.228   0.984   8.066  0.9734  0.1254 -0.3791
  218MPD1     C 3308   0.568   2.426  12.394 -0.5993  0.6496  0.5938
  218MPD1    C1 3309   0.581   2.288  12.393  0.7510 -0.1116  1.0174
  218MPD1    C2 3310   0.710   2.240  12.397  0.3653  0.1047  0.4807
  218MPD1    C3 3311   0.818   2.317  12.398 -0.0540  0.3387 -0.2585
  218MPD1    C4 3312   0.812   2.456  12.403  0.0756  0.8420 -0.2798
  218MPD1    C5 3313   0.680   2.503  12.404 -0.3368  0.4105  0.6734
  218MPD1     H 3314   0.719   2.134  12.382  0.1810  0.3059 -1.0413
  218MPD1    H1 3315   0.901   2.517  12.402  0.6633 -0.0444 -3.0068
  218MPD1    H2 3316   0.470   2.472  12.390 -0.3959  0.7906 -3.4853
  218MPD1    H3 3317   0.671   2.611  12.405 -1.1944  0.3193  2.3877
  218MPD1     N 3318   0.944   2.253  12.405 -0.4293 -0.3158  0.1434
  218MPD1    H5 3319   0.954   2.153  12.417  1.4178 -0.4102 -1.9887
  218MPD1    N1 3320   0.480   2.191  12.374  0.0427 -0.0012 -0.3973
  218MPD1    H6 3321   0.392   2.215  12.421 -0.3460 -2.8466  0.2965
  218MPD1    H7 3322   0.519   2.100  12.397  0.5599  0.3464  0.0829
  219MPD1     C 3323   1.720   2.548  11.875 -0.2052  0.2773  0.0659
  219MPD1    C1 3324   1.761   2.422  11.902  0.1063  0.2956  0.6093
  219MPD1    C2 3325   1.698   2.355  12.009 -0.0988 -0.0207  0.1169
  219MPD1    C3 3326   1.580   2.406  12.060 -0.0535  0.8763 -0.5926
  219MPD1    C4 3327   1.521   2.520  12.000 -0.4495  0.4377 -0.6012
  219MPD1    C5 3328   1.601   2.596  11.913  0.4557  0.4121 -0.0873
  219MPD1     H 3329   1.748   2.274  12.060  1.5215  0.1767 -1.1712
  219MPD1    H1 3330   1.432   2.556  12.049  1.2467  0.3489  2.5376
  219MPD1    H2 3331   1.778   2.617  11.815  0.0176 -0.0663 -0.1113
  219MPD1    H3 3332   1.574   2.696  11.881  2.1852  0.5669 -1.0731
  219MPD1     N 3333   1.500   2.345  12.155 -0.0920  0.2608  0.1872
  219MPD1    H5 3334   1.422   2.403  12.186  1.4390  1.5740  1.5656
  219MPD1    N1 3335   1.883   2.374  11.848  1.0573 -0.1384 -0.1248
  219MPD1    H6 3336   1.867   2.276  11.827  0.4280  0.1676 -1.0400
  219MPD1    H7 3337   1.915   2.424  11.766  1.6549  2.5202  1.7045
  220MPD1     C 3338   0.077   3.204   9.709 -0.2893  0.2241  0.3402
  220MPD1    C1 3339   0.054   3.067   9.686  0.5131  1.0622  0.4087
  220MPD1    C2 3340   0.102   2.972   9.775  0.2073 -0.6010 -0.1971
  220MPD1    C3 3341   0.207   3.005   9.863 -0.5390 -0.1682  0.8526
  220MPD1    C4 3342   0.225   3.149   9.881  0.0975  0.6207 -0.1230
  220MPD1    C5 3343   0.165   3.248   9.807 -0.2017 -0.4116  0.5191
  220MPD1     H 3344   0.087   2.866   9.758 -1.2832 -0.1727 -1.4323
  220MPD1    H1 3345   0.289   3.193   9.957  2.1069  0.0534 -1.4870
  220MPD1    H2 3346   0.026   3.273   9.642  1.4136  0.3590 -0.8106
  220MPD1    H3 3347   0.191   3.351   9.827 -0.4416 -0.3267  0.3892
  220MPD1     N 3348   0.279   2.899   9.923 -1.0741 -0.3929 -0.1929
  220MPD1    H5 3349   0.264   2.804   9.893  0.9156 -0.5726 -0.6464
  220MPD1    N1 3350   4.672   3.038   9.589 -0.4089  0.3970  0.1947
  220MPD1    H6 3351   4.674   3.117   9.524  2.3504 -0.2947 -0.5626
  220MPD1    H7 3352   4.688   2.946   9.549  2.9694  1.1818 -0.2557
  221MPD1     C 3353   2.970   2.178  16.231  0.3284 -0.0706  0.4262
  221MPD1    C1 3354   2.934   2.055  16.274  0.8908 -0.2754 -0.1185
  221MPD1    C2 3355   3.032   1.958  16.281  0.2368 -0.3398 -0.7243
  221MPD1    C3 3356   3.159   1.981  16.233 -0.1358 -0.5506 -0.1923
  221MPD1    C4 3357   3.191   2.112  16.185  0.4858  0.1642  0.2480
  221MPD1    C5 3358   3.098   2.212  16.186  0.1692 -0.9962  0.1436
  221MPD1     H 3359   3.006   1.855  16.306 -2.6474  0.3134 -1.0849
  221MPD1    H1 3360   3.294   2.140  16.166  0.8882 -1.8162 -0.4685
  221MPD1    H2 3361   2.894   2.255  16.219  1.0138  0.1000 -2.7902
  221MPD1    H3 3362   3.116   2.306  16.136  0.7707 -1.2608 -0.1322
  221MPD1     N 3363   3.263   1.886  16.235 -0.3138 -0.4107 -0.1677
  221MPD1    H5 3364   3.338   1.907  16.170  0.0296 -1.5591 -0.1494
  221MPD1    N1 3365   2.804   2.023  16.304  0.2862 -0.0861 -0.1613
  221MPD1    H6 3366   2.745   2.101  16.332 -1.2587 -1.3161  0.0385
  221MPD1    H7 3367   2.804   1.944  16.368  0.7496  1.2384  1.4651
  222MPD1     C 3368   2.948   4.242  17.156 -0.7796 -0.5578 -0.7749
  222MPD1    C1 3369   3.016   4.361  17.157 -0.4688  0.2014 -0.5126
  222MPD1    C2 3370   2.953   4.462  17.211 -0.2080  0.8503  0.7842
  222MPD1    C3 3371   2.843   4.454  17.292 -0.3766  0.0015 -0.5731
  222MPD1    C4 3372   2.784   4.335  17.297 -0.1025 -0.2786 -0.3121
  222MPD1    C5 3373   2.829   4.231  17.227 -0.8313 -1.3777  0.4182
  222MPD1     H 3374   3.001   4.560  17.205 -0.6007  0.8111 -3.4098
  222MPD1    H1 3375   2.693   4.325  17.355 -0.0455  1.2225  0.0287
  222MPD1    H2 3376   2.986   4.151  17.112  0.4861 -1.1730  1.5556
  222MPD1    H3 3377   2.775   4.138  17.244  1.2458 -2.0552  3.3881
  222MPD1     N 3378   2.793   4.563  17.376  0.4439 -0.1399  0.3769
  222MPD1    H5 3379   2.700   4.556  17.416  0.6028 -0.5442  0.6770
  222MPD1    N1 3380   3.127   4.384  17.069 -0.1296 -0.3336 -0.2344
  222MPD1    H6 3381   3.195   4.451  17.105  0.2157  0.1164 -1.7022
  222MPD1    H7 3382   3.173   4.295  17.049 -1.2510 -0.7637 -0.8840
  223MPD1     C 3383   2.664   0.000   0.632  0.2100 -0.8410 -0.6039
  223MPD1    C1 3384   2.763   0.083   0.593 -0.1920 -0.5929 -0.1701
  223MPD1    C2 3385   2.773   0.117   0.456  0.5758  0.5493 -0.4195
  223MPD1    C3 3386   2.689   0.063   0.363  0.7872 -0.5545 -0.2322
  223MPD1    C4 3387   2.597   4.688   0.405  0.2914 -0.0829  0.2767
  223MPD1    C5 3388   2.584   4.669   0.537  0.1113 -0.5358 -0.5246
  223MPD1     H 3389   2.852   0.187   0.430  1.3922  0.1450  0.9857
  223MPD1    H1 3390   2.537   4.639   0.330  0.0182  0.9052 -0.1561
  223MPD1    H2 3391   2.646   4.689   0.735  1.8469  1.9045  0.5015
  223MPD1    H3 3392   2.508   4.600   0.574  1.3590 -0.4930  2.1836
  223MPD1     N 3393   2.689   0.121   0.230  0.1233 -0.1700  0.2707
  223MPD1    H5 3394   2.749   0.201   0.212  1.1418 -1.0177 -0.0937
  223MPD1    N1 3395   2.863   0.113   0.684 -0.3097 -0.7408 -0.3223
  223MPD1    H6 3396   2.830   0.129   0.779 -1.7654 -0.8361 -0.8138
  223MPD1    H7 3397   2.937   0.178   0.659  0.1079 -0.4205  1.7985
  224MPD1     C 3398   0.115   2.492   9.168 -0.0637 -0.7239 -0.3604
  224MPD1    C1 3399   0.237   2.458   9.210  0.7990  0.2854  0.3937
  224MPD1    C2 3400   0.251   2.346   9.291  0.0201 -0.3213  0.6411
  224MPD1    C3 3401   0.135   2.270   9.325  1.0848 -0.0218 -0.4443
  224MPD1    C4 3402   0.015   2.298   9.269  0.0394 -0.5254  0.2988
  224MPD1    C5 3403   0.008   2.413   9.193  0.0627  0.3560  0.0068
  224MPD1     H 3404   0.346   2.314   9.331  0.0955  0.6620  1.2314
  224MPD1    H1 3405   4.649   2.234   9.286 -0.7059  1.0402  2.3538
  224MPD1    H2 3406   0.103   2.577   9.102  2.3097 -0.8792 -1.0015
  224MPD1    H3 3407   4.629   2.448   9.164  0.3596  0.3097 -1.0603
  224MPD1     N 3408   0.129   2.157   9.413  0.5888  0.0930 -0.0357
  224MPD1    H5 3409   0.034   2.125   9.428  1.2341 -2.4638 -1.3605
  224MPD1    N1 3410   0.348   2.532   9.153 -0.1252 -0.2436  0.2448
  224MPD1    H6 3411   0.434   2.530   9.208 -0.8003 -2.0029  1.2309
  224MPD1    H7 3412   0.327   2.619   9.106  0.5647 -0.3920 -0.3360
  225MPD1     C 3413   0.508   2.719  13.615 -0.2108  0.7517 -1.2436
  225MPD1    C1 3414   0.544   2.655  13.497  0.6636  0.3160  0.7519
  225MPD1    C2 3415   0.456   2.660  13.387 -0.0795 -0.2326 -0.0503
  225MPD1    C3 3416   0.337   2.734  13.389 -0.0625  0.4574 -0.1439
  225MPD1    C4 3417   0.301   2.789  13.512  0.2611  0.5031  0.6068
  225MPD1    C5 3418   0.380   2.777  13.622  0.0782  0.4476 -0.1727
  225MPD1     H 3419   0.477   2.598  13.300  0.4730 -0.6193  0.3533
  225MPD1    H1 3420   0.208   2.844  13.514 -0.0022  0.0843 -0.2030
  225MPD1    H2 3421   0.566   2.727  13.706 -2.0472 -0.6203  0.0666
  225MPD1    H3 3422   0.361   2.849  13.700 -0.9847  0.0563 -0.0559
  225MPD1     N 3423   0.254   2.754  13.270 -0.0963  0.1449 -0.1108
  225MPD1    H5 3424   0.184   2.827  13.269 -0.5753 -0.3140  0.4674
  225MPD1    N1 3425   0.664   2.584  13.496  0.2040 -0.2492  0.1725
  225MPD1    H6 3426   0.688   2.575  13.398 -0.4829 -3.3175  0.2960
  225MPD1    H7 3427   0.741   2.638  13.535 -1.6287  1.8858  0.8243
  226MPD1     C 3428   4.305   3.336   9.342  0.0067  0.0677  0.4355
  226MPD1    C1 3429   4.360   3.304   9.465  0.0907  0.2523 -0.3361
  226MPD1    C2 3430   4.339   3.175   9.517 -0.0867  0.4459  0.6294
  226MPD1    C3 3431   4.255   3.086   9.454 -0.6160 -0.4619 -0.3190
  226MPD1    C4 3432   4.198   3.118   9.337  0.1229 -0.6127  0.0224
  226MPD1    C5 3433   4.218   3.247   9.288 -0.6947 -0.0348  0.0234
  226MPD1     H 3434   4.390   3.151   9.609  0.8661  0.8916  0.2247
  226MPD1    H1 3435   4.131   3.051   9.285  0.0342 -0.6020  0.1235
  226MPD1    H2 3436   4.316   3.431   9.292  0.8160  0.8390  2.0854
  226MPD1    H3 3437   4.173   3.264   9.190  0.4549  1.4934 -0.2421
  226MPD1     N 3438   4.267   2.956   9.499 -0.0587  0.1803  0.0800
  226MPD1    H5 3439   4.331   2.945   9.577 -0.9605  1.9354  1.0769
  226MPD1    N1 3440   4.460   3.384   9.521 -0.5303 -0.2496  0.4049
  226MPD1    H6 3441   4.472   3.359   9.619 -0.9865  1.0122  0.7867
  226MPD1    H7 3442   4.440   3.484   9.519  2.7484  0.3644 -0.6753
  227MPD1     C 3443   3.953   2.032   9.259  0.3306  0.1813  0.0120
  227MPD1    C1 3444   3.886   2.152   9.254  0.3924  0.4634 -0.1309
  227MPD1    C2 3445   3.953   2.257   9.306  0.0423 -0.4346 -0.2800
  227MPD1    C3 3446   4.076   2.245   9.362  0.8541  0.7502  1.1271
  227MPD1    C4 3447   4.130   2.120   9.390  1.0429  0.5311 -1.0692
  227MPD1    C5 3448   4.072   2.015   9.321  0.0617  0.5717 -0.0241
  227MPD1     H 3449   3.911   2.356   9.288  0.3008 -0.1730  0.5374
  227MPD1    H1 3450   4.218   2.111   9.452 -0.9384  2.2054  1.9826
  227MPD1    H2 3451   3.921   1.942   9.208  0.3588  0.5055 -0.5757
  227MPD1    H3 3452   4.119   1.918   9.332  3.2656  2.4257  2.4902
  227MPD1     N 3453   4.158   2.360   9.389  0.5785  0.1855  0.0696
  227MPD1    H5 3454   4.127   2.449   9.353 -1.1480  0.3167  1.8782
  227MPD1    N1 3455   3.779   2.174   9.176 -0.2773  0.3442 -0.5083
  227MPD1    H6 3456   3.746   2.264   9.211  1.2136  1.2101 -1.3836
  227MPD1    H7 3457   3.708   2.106   9.204 -0.6857  1.3588  0.9304
  228MPD1     C 3458   2.725   0.376  12.559  0.8004 -1.0771 -0.4210
  228MPD1    C1 3459   2.650   0.475  12.507 -0.3924  0.7157 -0.6782
  228MPD1    C2 3460   2.516   0.469  12.529  0.0702  0.2948 -0.0949
  228MPD1    C3 3461   2.457   0.370  12.608 -0.0556 -0.1983  0.0026
  228MPD1    C4 3462   2.541   0.277  12.671  0.3507  0.5022  0.3640
  228MPD1    C5 3463   2.672   0.286  12.645  0.4232  0.0317 -0.2878
  228MPD1     H 3464   2.456   0.546  12.481  1.1752 -0.0371 -2.0078
  228MPD1    H1 3465   2.507   0.209  12.749  1.5526  0.1633  0.5967
  228MPD1    H2 3466   2.832   0.373  12.540  0.6454 -1.8834 -1.1307
  228MPD1    H3 3467   2.729   0.206  12.692 -0.4212 -1.5573 -1.9719
  228MPD1     N 3468   2.319   0.371  12.629 -0.7801 -0.0840 -0.2010
  228MPD1    H5 3469   2.274   0.450  12.585  0.6345  0.9752  0.2433
  228MPD1    N1 3470   2.699   0.553  12.405  0.7202  0.4419  0.3234
  228MPD1    H6 3471   2.656   0.645  12.406  1.4370  0.7767  1.1559
  228MPD1    H7 3472   2.798   0.568  12.423  0.9884 -2.6557  1.5815
  229MPD1     C 3473   1.706   4.060  14.327 -0.3614  0.3856 -0.4463
  229MPD1    C1 3474   1.752   4.123  14.443 -0.0361  0.4684 -0.5314
  229MPD1    C2 3475   1.831   4.056  14.532  0.8752 -0.3666 -0.2444
  229MPD1    C3 3476   1.865   3.927  14.516  0.9390  0.1086 -0.1294
  229MPD1    C4 3477   1.827   3.862  14.402 -0.4321 -0.5174  0.6441
  229MPD1    C5 3478   1.739   3.929  14.313 -0.2439  0.3093  0.3182
  229MPD1     H 3479   1.879   4.107  14.615 -1.5686  0.2722  0.7889
  229MPD1    H1 3480   1.842   3.759  14.374 -0.1120  0.0072 -1.1260
  229MPD1    H2 3481   1.658   4.111  14.244  0.5820  0.5280 -0.9010
  229MPD1    H3 3482   1.711   3.876  14.222  1.4045 -2.3714  1.3817
  229MPD1     N 3483   1.947   3.851  14.599  0.1945 -0.7725  0.1432
  229MPD1    H5 3484   1.947   3.754  14.568  0.7539 -1.7724  3.2931
  229MPD1    N1 3485   1.738   4.267  14.443 -0.3986  0.3714 -0.4038
  229MPD1    H6 3486   1.648   4.299  14.408  0.2434  1.8705 -0.7298
  229MPD1    H7 3487   1.757   4.306  14.535 -0.3329 -0.1046 -0.2213
  230MPD1     C 3488   2.362   3.502  15.572 -0.7909  0.4278 -0.6190
  230MPD1    C1 3489   2.388   3.411  15.479 -0.2782  0.3093 -0.3539
  230MPD1    C2 3490   2.347   3.438  15.350  0.0268  0.2216  0.4311
  230MPD1    C3 3491   2.273   3.553  15.316 -0.0748  0.1289  0.0237
  230MPD1    C4 3492   2.242   3.642  15.412 -0.2424  0.2868 -0.4769
  230MPD1    C5 3493   2.292   3.616  15.538  0.0228 -0.8717 -0.9213
  230MPD1     H 3494   2.365   3.360  15.277 -1.4118  0.2238  0.0801
  230MPD1    H1 3495   2.162   3.714  15.398  0.4587  0.6701 -2.5116
  230MPD1    H2 3496   2.405   3.515  15.671 -2.1215  0.2078 -0.0115
  230MPD1    H3 3497   2.268   3.687  15.617 -0.3364 -2.4719  0.4026
  230MPD1     N 3498   2.220   3.560  15.181 -0.0667 -0.4561 -0.7206
  230MPD1    H5 3499   2.235   3.485  15.115  0.2331 -0.6609 -0.4206
  230MPD1    N1 3500   2.427   3.285  15.512  0.5091 -0.0273 -0.1110
  230MPD1    H6 3501   2.495   3.287  15.587 -0.3650  0.4851  0.6614
  230MPD1    H7 3502   2.465   3.229  15.435 -0.6038 -1.4329  0.3645
  231MPD1     C 3503   0.152   1.000  15.804 -0.2711 -0.0416 -0.5179
  231MPD1    C1 3504   0.094   1.108  15.744 -1.2568  0.0608  0.4131
  231MPD1    C2 3505   0.167   1.167  15.648  0.3078 -0.2572  0.1739
  231MPD1    C3 3506   0.291   1.123  15.614  0.1166 -0.6212  0.4698
  231MPD1    C4 3507   0.347   1.013  15.675 -0.2865  0.8169 -0.2920
  231MPD1    C5 3508   0.281   0.960  15.784 -0.5859  0.0437  0.4378
  231MPD1     H 3509   0.123   1.256  15.605 -0.6664 -0.8048  0.0336
  231MPD1    H1 3510   0.442   0.972  15.643  0.0117  2.1238 -1.0613
  231MPD1    H2 3511   0.096   0.959  15.887  0.8043 -0.1053  0.1743
  231MPD1    H3 3512   0.322   0.887  15.851 -1.6023  0.2371  1.2735
  231MPD1     N 3513   0.352   1.193  15.506  0.4235  0.6607 -0.3446
  231MPD1    H5 3514   0.279   1.247  15.461  0.3150  1.5663  0.9228
  231MPD1    N1 3515   4.678   1.144  15.766 -0.3298 -0.4133  0.1561
  231MPD1    H6 3516   4.640   1.123  15.858 -0.8813  0.1091  0.0423
  231MPD1    H7 3517   4.666   1.243  15.748 -1.3681 -0.8673 -1.6570
  232MPD1     C 3518   1.845   3.053   0.451  0.4939 -0.0075  0.4241
  232MPD1    C1 3519   1.785   2.929   0.442 -0.1251  0.0798  0.0664
  232MPD1    C2 3520   1.708   2.898   0.335 -0.2403  0.0435  0.5203
  232MPD1    C3 3521   1.686   2.990   0.228  0.0864  0.2555  0.9708
  232MPD1    C4 3522   1.741   3.117   0.238 -0.0187 -0.2968 -0.0416
  232MPD1    C5 3523   1.819   3.146   0.346 -0.0875 -0.5414 -1.3124
  232MPD1     H 3524   1.663   2.799   0.328  0.9367 -0.2875 -2.7075
  232MPD1    H1 3525   1.737   3.191   0.159  0.8272  0.2942  0.4731
  232MPD1    H2 3526   1.892   3.097   0.538 -2.9543  1.5263  1.5188
  232MPD1    H3 3527   1.855   3.248   0.355 -1.4980  0.2291 -4.3012
  232MPD1     N 3528   1.606   2.950   0.115  0.6378  0.0778 -0.0446
  232MPD1    H5 3529   1.564   2.858   0.121  1.4586 -0.2194  1.1455
  232MPD1    N1 3530   1.819   2.827   0.533 -0.2303  0.4038  0.1430
  232MPD1    H6 3531   1.849   2.859   0.625 -2.2436  0.8071  0.6512
  232MPD1    H7 3532   1.737   2.770   0.553  0.6236 -0.1846  2.0301
  233MPD1     C 3533   3.768   0.707   2.711  0.6084 -0.5886  0.3906
  233MPD1    C1 3534   3.754   0.823   2.638  0.0857  0.1586 -0.2779
  233MPD1    C2 3535   3.722   0.815   2.505 -0.3968 -0.1085 -0.4856
  233MPD1    C3 3536   3.693   0.692   2.445 -1.2125  0.0937  0.0788
  233MPD1    C4 3537   3.718   0.575   2.519 -0.0438  0.1054 -0.0505
  233MPD1    C5 3538   3.774   0.581   2.643  1.4942  0.0091  0.1035
  233MPD1     H 3539   3.719   0.911   2.454 -1.2983 -0.2937 -0.7753
  233MPD1    H1 3540   3.690   0.478   2.481  0.7777 -0.6187  1.2429
  233MPD1    H2 3541   3.778   0.714   2.819 -0.1576  1.6455  0.3250
  233MPD1    H3 3542   3.805   0.501   2.710  1.4949  0.1365  0.2551
  233MPD1     N 3543   3.648   0.676   2.314  0.0527  0.3409  0.2660
  233MPD1    H5 3544   3.635   0.582   2.279 -0.9302  0.9006 -0.8983
  233MPD1    N1 3545   3.762   0.944   2.712 -0.1129 -0.1221 -0.2591
  233MPD1    H6 3546   3.840   0.937   2.777 -0.9300 -3.9121  0.2549
  233MPD1    H7 3547   3.808   1.015   2.654 -0.4038  0.5769  0.3554
  234MPD1     C 3548   0.319   0.086  10.195  0.1503 -0.6272  0.0664
  234MPD1    C1 3549   0.222   0.111  10.105  0.0412 -0.1776  0.3145
  234MPD1    C2 3550   0.211   0.235  10.048 -0.2755 -0.4625 -1.0712
  234MPD1    C3 3551   0.288   0.341  10.083 -0.5951  0.4631 -0.8125
  234MPD1    C4 3552   0.376   0.318  10.181  0.1704 -1.2347 -0.1186
  234MPD1    C5 3553   0.395   0.189  10.238  0.7795 -0.4089  0.5627
  234MPD1     H 3554   0.136   0.252   9.972  1.4862  0.3820 -2.6141
  234MPD1    H1 3555   0.443   0.399  10.207 -1.5886 -0.4065  1.7940
  234MPD1    H2 3556   0.338   4.704  10.228  5.4640  0.1054 -0.6946
  234MPD1    H3 3557   0.467   0.175  10.318 -1.4408  1.1462  2.8271
  234MPD1     N 3558   0.277   0.458  10.003 -0.0866  0.6047 -0.6210
  234MPD1    H5 3559   0.241   0.453   9.908 -0.9351 -0.1617 -0.2530
  234MPD1    N1 3560   0.136   0.007  10.066  0.5756 -0.5787  0.0357
  234MPD1    H6 3561   0.105   4.670  10.145  3.9552 -1.7320  0.5481
  234MPD1    H7 3562   0.049   0.045  10.028  1.6072 -0.2067 -1.9236
  235MPD1     C 3563   0.504   3.370   9.833  0.4587  0.6553 -0.5778
  235MPD1    C1 3564   0.637   3.327   9.858 -0.3096  0.1387  1.0777
  235MPD1    C2 3565   0.742   3.396   9.801 -0.0524 -0.4549  0.7451
  235MPD1    C3 3566   0.713   3.509   9.723  0.3784 -0.2118  0.2401
  235MPD1    C4 3567   0.580   3.560   9.713 -0.3975  0.9464  0.6261
  235MPD1    C5 3568   0.476   3.482   9.758  0.0976 -0.8444  0.0051
  235MPD1     H 3569   0.841   3.352   9.798 -0.2132 -0.6601 -1.8385
  235MPD1    H1 3570   0.561   3.648   9.652 -0.3777  0.2764 -0.3446
  235MPD1    H2 3571   0.419   3.320   9.877  2.1816 -1.9387 -0.1766
  235MPD1    H3 3572   0.374   3.517   9.751  0.4491 -0.0847 -1.2973
  235MPD1     N 3573   0.825   3.568   9.659 -0.4333  0.1709  0.1312
  235MPD1    H5 3574   0.917   3.546   9.693 -0.1749  0.8607 -0.1131
  235MPD1    N1 3575   0.661   3.208   9.926  0.5328 -0.0083  0.0164
  235MPD1    H6 3576   0.590   3.172   9.988 -0.7070  0.8970 -0.8802
  235MPD1    H7 3577   0.753   3.198   9.970 -0.2597 -1.2772  1.3612
  236MPD1     C 3578   0.517   4.170   9.256  0.1440  0.1575  0.1336
  236MPD1    C1 3579   0.473   4.056   9.324  0.0632  0.3804 -0.9474
  236MPD1    C2 3580   0.521   4.028   9.451  0.6475 -0.3295  0.3152
  236MPD1    C3 3581   0.625   4.099   9.505  0.4302 -0.1514 -0.5164
  236MPD1    C4 3582   0.671   4.205   9.435 -0.1835  0.3226 -0.7462
  236MPD1    C5 3583   0.621   4.241   9.311  0.1947 -0.0371  0.1239
  236MPD1     H 3584   0.480   3.944   9.507 -1.9718 -0.9124 -2.5024
  236MPD1    H1 3585   0.754   4.264   9.473  1.3783 -1.8588 -0.7752
  236MPD1    H2 3586   0.477   4.193   9.158 -0.9473  1.6976  0.9306
  236MPD1    H3 3587   0.647   4.340   9.276  1.4226 -0.3367  0.1933
  236MPD1     N 3588   0.687   4.072   9.630  0.3476 -0.5558  0.1837
  236MPD1    H5 3589   0.766   4.127   9.660 -0.6272  1.3884 -0.8374
  236MPD1    N1 3590   0.385   3.964   9.264  0.3771 -0.4756 -0.2985
  236MPD1    H6 3591   0.340   3.913   9.339  0.3162 -0.4091 -0.2901
  236MPD1    H7 3592   0.314   4.013   9.209  1.0694  0.3374 -0.4739
  237MPD1     C 3593   0.739   2.527  15.245 -0.7273  0.1551 -0.1195
  237MPD1    C1 3594   0.703   2.419  15.320 -0.5634  0.4958  0.0090
  237MPD1    C2 3595   0.571   2.379  15.333 -0.1967 -0.4440 -0.2560
  237MPD1    C3 3596   0.477   2.443  15.257  0.0668  0.1461 -0.0670
  237MPD1    C4 3597   0.516   2.538  15.167  0.0581  0.2468  0.0140
  237MPD1    C5 3598   0.646   2.585  15.158 -0.5173 -0.2225  0.6629
  237MPD1     H 3599   0.546   2.301  15.404 -0.4575  1.4810  1.7572
  237MPD1    H1 3600   0.449   2.575  15.090  1.4421  1.3183 -0.6828
  237MPD1    H2 3601   0.841   2.564  15.236  0.2399 -2.8503 -1.4556
  237MPD1    H3 3602   0.665   2.665  15.087 -0.2016 -1.6009 -0.7977
  237MPD1     N 3603   0.341   2.410  15.267 -0.5470  0.5868 -0.4157
  237MPD1    H5 3604   0.277   2.452  15.200  0.2950  2.0931 -0.2819
  237MPD1    N1 3605   0.799   2.350  15.405 -0.0086 -0.3708  0.4265
  237MPD1    H6 3606   0.787   2.249  15.399 -0.8583 -0.1733 -1.4005
  237MPD1    H7 3607   0.892   2.370  15.369  0.4868 -2.5438  0.5125
  238MPD1     C 3608   1.633   1.725  14.838 -0.4687  0.6174 -0.4751
  238MPD1    C1 3609   1.588   1.660  14.948  0.6417  0.1919 -0.5606
  238MPD1    C2 3610   1.543   1.534  14.930  0.0781  0.3476 -0.7531
  238MPD1    C3 3611   1.554   1.471  14.809  0.2038 -0.3243  0.2630
  238MPD1    C4 3612   1.629   1.533  14.707  0.2840 -0.2518  0.3082
  238MPD1    C5 3613   1.662   1.665  14.724  0.1351  0.5425 -0.1721
  238MPD1     H 3614   1.490   1.489  15.013  0.0981 -0.2294 -1.0589
  238MPD1    H1 3615   1.664   1.473  14.623 -2.0043 -1.3150  0.1240
  238MPD1    H2 3616   1.658   1.830  14.846  1.0533  0.2189  0.0508
  238MPD1    H3 3617   1.714   1.710  14.641 -0.7446  0.4796 -0.7556
  238MPD1     N 3618   1.517   1.335  14.784  0.5542  0.4638 -0.3554
  238MPD1    H5 3619   1.535   1.294  14.693  3.2975 -1.1633  0.9221
  238MPD1    N1 3620   1.560   1.722  15.071  0.4532  0.0103 -0.2440
  238MPD1    H6 3621   1.557   1.650  15.143 -1.8239 -0.4000 -0.7436
  238MPD1    H7 3622   1.623   1.797  15.099 -0.2155  0.7109 -0.6219
  239MPD1     C 3623   2.352   1.685  14.843  0.3208  0.0281  0.7834
  239MPD1    C1 3624   2.403   1.605  14.736  0.7025 -0.2441  1.0862
  239MPD1    C2 3625   2.397   1.665  14.613 -0.1197  0.9221  0.5075
  239MPD1    C3 3626   2.361   1.794  14.590 -0.6267  0.2508 -0.0900
  239MPD1    C4 3627   2.321   1.876  14.690  0.4541 -0.1141 -0.2173
  239MPD1    C5 3628   2.316   1.822  14.819 -0.0136 -0.2761 -0.0936
  239MPD1     H 3629   2.428   1.607  14.526 -1.8010  2.0229 -0.8240
  239MPD1    H1 3630   2.300   1.981  14.676  1.0983 -0.1454 -1.4280
  239MPD1    H2 3631   2.344   1.653  14.946 -1.3262  0.1378  0.6878
  239MPD1    H3 3632   2.294   1.876  14.910 -1.4316 -1.1701  0.1032
  239MPD1     N 3633   2.361   1.851  14.465  0.1561 -0.1710  0.1308
  239MPD1    H5 3634   2.335   1.949  14.465 -0.0121 -0.2093 -1.7193
  239MPD1    N1 3635   2.432   1.472  14.760  0.5207  0.8710 -0.4892
  239MPD1    H6 3636   2.465   1.445  14.853 -0.6707  0.4563 -0.1916
  239MPD1    H7 3637   2.491   1.423  14.693 -0.7699 -1.2863 -0.0628
  240MPD1     C 3638   1.445   1.731  13.270 -0.5990  0.1061 -0.3489
  240MPD1    C1 3639   1.516   1.808  13.358 -0.4967 -0.3374 -0.2076
  240MPD1    C2 3640   1.517   1.754  13.491 -0.2859 -0.4687 -0.4163
  240MPD1    C3 3641   1.443   1.640  13.535 -0.3231 -0.1601  0.3054
  240MPD1    C4 3642   1.367   1.577  13.441  0.5688 -0.5818  0.4417
  240MPD1    C5 3643   1.366   1.627  13.311  0.2038 -0.3088 -0.0379
  240MPD1     H 3644   1.574   1.805  13.568  0.6604  0.0505 -1.4752
  240MPD1    H1 3645   1.321   1.480  13.460 -0.7608  0.0784  0.6252
  240MPD1    H2 3646   1.457   1.751  13.164 -0.6985 -0.1825 -0.4145
  240MPD1    H3 3647   1.318   1.566  13.235 -0.1342 -1.1165  0.8138
  240MPD1     N 3648   1.458   1.588  13.668  0.5730 -0.3597 -0.2410
  240MPD1    H5 3649   1.531   1.629  13.726  0.6048  0.2499 -0.7097
  240MPD1    N1 3650   1.604   1.911  13.314  0.2162  0.6511 -0.0806
  240MPD1    H6 3651   1.572   1.958  13.230  1.6852  0.0144 -1.0002
  240MPD1    H7 3652   1.627   1.977  13.388 -2.2266  2.5768 -1.0239
  241MPD1     C 3653   1.983   1.153  14.420 -0.1821 -0.0542  0.3678
  241MPD1    C1 3654   1.997   1.275  14.359 -0.3059  0.0231 -0.7616
  241MPD1    C2 3655   1.901   1.306  14.257 -0.7999 -0.6418  0.0476
  241MPD1    C3 3656   1.804   1.218  14.223  0.7440 -0.5647  0.2343
  241MPD1    C4 3657   1.789   1.096  14.293 -0.4680  0.6890 -0.4735
  241MPD1    C5 3658   1.877   1.069  14.388 -0.3534 -0.6122  0.0328
  241MPD1     H 3659   1.907   1.398  14.201 -0.7780 -1.0273 -0.5796
  241MPD1    H1 3660   1.706   1.032  14.267 -1.1120  1.0666  0.6720
  241MPD1    H2 3661   2.069   1.122  14.477 -0.1155 -1.4778 -0.5117
  241MPD1    H3 3662   1.876   0.973  14.437 -0.8974  0.9894  3.1654
  241MPD1     N 3663   1.695   1.241  14.131 -0.4096 -0.2770 -0.4066
  241MPD1    H5 3664   1.630   1.163  14.119  0.7048 -0.7472 -3.2376
  241MPD1    N1 3665   2.086   1.370  14.410  0.1300  0.3447 -0.6267
  241MPD1    H6 3666   2.158   1.325  14.466 -1.1263 -0.0006  0.7071
  241MPD1    H7 3667   2.134   1.415  14.333 -0.4805  1.3594 -0.4142
  242MPD1     C 3668   1.414   0.204  15.846  0.1697 -0.1282 -0.8844
  242MPD1    C1 3669   1.514   0.111  15.865  0.3167 -0.1941 -0.0267
  242MPD1    C2 3670   1.543   0.032  15.755  0.6113 -0.0074  0.9141
  242MPD1    C3 3671   1.502   0.071  15.630  0.2808 -0.1280  0.5831
  242MPD1    C4 3672   1.423   0.181  15.615  0.0150 -0.2094  0.1765
  242MPD1    C5 3673   1.366   0.239  15.725  0.4096 -0.7502 -0.2694
  242MPD1     H 3674   1.593   4.657  15.775 -1.1243 -1.1628 -0.2367
  242MPD1    H1 3675   1.393   0.207  15.514 -1.7841 -1.6817  0.3230
  242MPD1    H2 3676   1.371   0.250  15.934 -0.4310 -2.2387 -0.0703
  242MPD1    H3 3677   1.282   0.307  15.717 -1.9272 -3.1349  3.7680
  242MPD1     N 3678   1.535   4.716  15.511 -0.1837 -0.0749 -0.1156
  242MPD1    H5 3679   1.485   0.027  15.428  1.1295 -1.0104 -1.2649
  242MPD1    N1 3680   1.554   0.075  15.997 -0.2980 -0.4852 -0.4107
  242MPD1    H6 3681   1.637   0.015  15.997 -0.3701 -0.5905  0.9626
  242MPD1    H7 3682   1.567   0.153  16.062  0.1417 -3.2850  2.8695
  243MPD1     C 3683   3.701   3.627  17.424 -0.2918 -1.0991 -0.2828
  243MPD1    C1 3684   3.727   3.604  17.290 -0.8437 -0.0839  0.0804
  243MPD1    C2 3685   3.638   3.529  17.215 -0.4283 -0.2129  0.7020
  243MPD1    C3 3686   3.523   3.482  17.277 -0.4276  0.1345 -0.2640
  243MPD1    C4 3687   3.489   3.521  17.402 -0.0497 -0.5994 -0.1033
  243MPD1    C5 3688   3.578   3.591  17.477 -1.4301  0.6746  0.7665
  243MPD1     H 3689   3.670   3.500  17.115 -0.3740  0.0972  0.6301
  243MPD1    H1 3690   3.401   3.494  17.460 -0.5972 -1.7752 -1.4913
  243MPD1    H2 3691   3.779   3.671  17.487 -1.2818 -0.4190  0.4651
  243MPD1    H3 3692   3.569   3.612  17.583 -1.1665 -3.4408  1.5947
  243MPD1     N 3693   3.429   3.399  17.200 -0.0077  0.4253  0.3592
  243MPD1    H5 3694   3.462   3.375  17.107  2.4166  1.3979  0.9728
  243MPD1    N1 3695   3.853   3.626  17.242 -0.5139  0.3113  0.0397
  243MPD1    H6 3696   3.912   3.700  17.280 -0.9729  0.4670  0.4442
  243MPD1    H7 3697   3.857   3.625  17.140 -0.8333  1.2721  0.0234
  244MPD1     C 3698   2.523   3.042  17.429 -0.4056  0.5988 -1.5675
  244MPD1    C1 3699   2.615   3.111  17.499  0.2591 -0.7250 -0.2432
  244MPD1    C2 3700   2.744   3.128  17.451 -0.1490 -0.0585  0.1617
  244MPD1    C3 3701   2.786   3.060  17.341 -0.1224  0.2597  0.5276
  244MPD1    C4 3702   2.693   2.981  17.279 -0.4224  0.4399 -0.1563
  244MPD1    C5 3703   2.562   2.973  17.319  0.5079 -0.3356 -0.2410
  244MPD1     H 3704   2.810   3.183  17.517 -1.2595  0.5285  0.7753
  244MPD1    H1 3705   2.713   2.930  17.186  2.4673 -0.1706  0.7826
  244MPD1    H2 3706   2.418   3.037  17.456 -0.8314  0.8863 -3.1153
  244MPD1    H3 3707   2.494   2.912  17.260  1.3994 -0.5225 -1.0779
  244MPD1     N 3708   2.912   3.092  17.284 -0.2847  0.9080 -0.7438
  244MPD1    H5 3709   2.964   3.169  17.323  3.2205 -1.6896 -0.3554
  244MPD1    N1 3710   2.580   3.182  17.614  0.4053 -0.0425  0.1244
  244MPD1    H6 3711   2.646   3.187   0.010 -0.6277 -2.6188  1.1864
  244MPD1    H7 3712   2.492   3.141  17.645 -0.8965  1.9202 -0.9501
  245MPD1     C 3713   0.195   3.769  13.052  1.1226 -0.0521 -0.1893
  245MPD1    C1 3714   0.135   3.884  13.095  0.0488 -0.2136  0.6144
  245MPD1    C2 3715   0.191   3.959  13.191  0.0574  0.5766 -0.0112
  245MPD1    C3 3716   0.304   3.912  13.258 -0.0113 -0.0753 -0.0247
  245MPD1    C4 3717   0.361   3.794  13.219  0.5124 -0.4237 -1.2344
  245MPD1    C5 3718   0.304   3.727  13.118  0.8109  0.0858  0.4539
  245MPD1     H 3719   0.140   4.048  13.226  0.9992  1.2933 -0.4634
  245MPD1    H1 3720   0.456   3.750  13.249  1.0317  0.7986 -1.0819
  245MPD1    H2 3721   0.158   3.715  12.966 -3.2823  0.1093  1.5530
  245MPD1    H3 3722   0.358   3.639  13.084  1.9512  0.9572  0.0245
  245MPD1     N 3723   0.355   3.984  13.366 -0.0331  0.0021 -0.6320
  245MPD1    H5 3724   0.310   4.070  13.394 -2.3654 -1.5752  0.5087
  245MPD1    N1 3725   0.032   3.934  13.027  0.4686  0.0787  0.0465
  245MPD1    H6 3726   4.683   3.986  13.082  1.5003  0.5042  0.9160
  245MPD1    H7 3727   4.697   3.861  12.982  0.8805  0.1494 -0.5667
  246MPD1     C 3728   3.800   0.209   8.166 -0.3257 -0.2248 -0.1107
  246MPD1    C1 3729   3.919   0.261   8.121  1.0227 -0.4757  0.8706
  246MPD1    C2 3730   4.036   0.255   8.202  0.7035 -0.2281 -0.1679
  246MPD1    C3 3731   4.029   0.188   8.326  0.8389 -0.4952  0.2460
  246MPD1    C4 3732   3.913   0.124   8.358 -0.1803 -0.1903  0.5052
  246MPD1    C5 3733   3.808   0.127   8.269 -0.1335 -0.3308 -0.3663
  246MPD1     H 3734   4.135   0.279   8.166  0.5549  0.4456 -0.1186
  246MPD1    H1 3735   3.898   0.066   8.448 -1.6865  0.8427  0.9122
  246MPD1    H2 3736   3.706   0.225   8.115 -0.1881 -0.9136 -0.5888
  246MPD1    H3 3737   3.718   0.082   8.311  0.1988 -1.7991 -1.2202
  246MPD1     N 3738   4.136   0.202   8.408 -0.5927  0.1757  1.3769
  246MPD1    H5 3739   4.219   0.256   8.385 -0.9425 -0.6321 -1.6723
  246MPD1    N1 3740   3.914   0.348   8.012  0.1040  0.2024 -0.0837
  246MPD1    H6 3741   3.844   0.325   7.941  1.2923 -0.2143 -1.1316
  246MPD1    H7 3742   4.005   0.347   7.965  0.7407  3.2443  1.1447
  247MPD1     C 3743   4.175   2.703  15.628 -0.4236 -0.4369 -0.6716
  247MPD1    C1 3744   4.260   2.814  15.634 -0.2179  0.4547  0.1464
  247MPD1    C2 3745   4.252   2.907  15.737  0.7740 -0.5241  1.0076
  247MPD1    C3 3746   4.174   2.883  15.851 -0.3868 -0.5119 -1.2593
  247MPD1    C4 3747   4.096   2.768  15.846 -0.1191 -0.8159  0.9024
  247MPD1    C5 3748   4.089   2.691  15.737  0.2625 -0.2042 -0.7768
  247MPD1     H 3749   4.322   2.989  15.730 -0.2184  0.3308  1.0450
  247MPD1    H1 3750   4.031   2.748  15.931 -0.7145  0.6927  0.8072
  247MPD1    H2 3751   4.172   2.636  15.543 -0.6797 -0.4088 -0.6845
  247MPD1    H3 3752   4.012   2.617  15.716 -1.1677  0.5249  1.8857
  247MPD1     N 3753   4.178   2.961  15.970  0.3847  0.1867 -0.4056
  247MPD1    H5 3754   4.142   2.912  16.052 -1.2390  0.8121 -0.7472
  247MPD1    N1 3755   4.349   2.840  15.526  0.2582  0.5614 -0.2754
  247MPD1    H6 3756   4.386   2.755  15.483  2.0650  0.8896  0.6244
  247MPD1    H7 3757   4.423   2.897  15.566  0.5999 -0.1329  0.0752
  248MPD1     C 3758   0.929   3.484  17.405 -0.1283 -0.1201 -0.2954
  248MPD1    C1 3759   0.903   3.473  17.539  0.8312  0.4875 -0.0135
  248MPD1    C2 3760   0.898   3.585  17.612  0.0107  0.2229  0.1765
  248MPD1    C3 3761   0.934   3.713  17.559  0.3963 -0.0456  0.1506
  248MPD1    C4 3762   0.968   3.721  17.420 -0.1703 -0.7523 -0.6360
  248MPD1    C5 3763   0.969   3.604  17.342 -0.1359  0.0364 -0.2911
  248MPD1     H 3764   0.855   3.575   0.031  1.0807  2.3515  0.8364
  248MPD1    H1 3765   0.986   3.816  17.371 -0.2085  0.3396  1.4802
  248MPD1    H2 3766   0.921   3.403  17.333 -2.0280  0.0596 -0.2767
  248MPD1    H3 3767   0.979   3.617  17.235  0.5315 -0.9052 -0.3466
  248MPD1     N 3768   0.924   3.830  17.643  0.4428  0.1497 -0.3191
  248MPD1    H5 3769   0.892   3.812   0.057 -2.2251  0.9655 -1.0615
  248MPD1    N1 3770   0.824   3.365  17.578 -0.5500  0.3742 -0.1256
  248MPD1    H6 3771   0.803   3.362  17.678  1.1070  0.7060  0.2354
  248MPD1    H7 3772   0.842   3.272  17.539 -2.6071  0.0676 -0.3146
  249MPD1     C 3773   2.964   3.506   9.377  0.2045  0.0269  0.9643
  249MPD1    C1 3774   2.844   3.448   9.335 -0.3105 -0.4551 -1.2233
  249MPD1    C2 3775   2.775   3.374   9.426 -0.1777  0.1491  0.1868
  249MPD1    C3 3776   2.808   3.376   9.564 -0.1644 -0.1593  0.2346
  249MPD1    C4 3777   2.930   3.435   9.605  0.2549 -0.3025 -0.2575
  249MPD1    C5 3778   3.001   3.502   9.510  0.1435  0.4352  0.4576
  249MPD1     H 3779   2.683   3.325   9.397 -0.2007 -0.1166  0.7073
  249MPD1    H1 3780   2.967   3.438   9.706 -1.9952  1.0391  0.5353
  249MPD1    H2 3781   3.031   3.552   9.306  0.7075 -1.7874  0.2491
  249MPD1    H3 3782   3.102   3.535   9.530  1.0070 -1.7083 -0.4418
  249MPD1     N 3783   2.724   3.316   9.655 -0.0469  0.1841  0.2899
  249MPD1    H5 3784   2.633   3.281   9.625  1.0572 -1.6186 -0.9818
  249MPD1    N1 3785   2.819   3.441   9.195  0.4354 -0.4284 -0.5038
  249MPD1    H6 3786   2.834   3.530   9.147  0.2519 -0.3932 -0.4924
  249MPD1    H7 3787   2.723   3.421   9.169  0.9998 -2.4850 -1.0265
  250MPD2     C 3788   3.197   2.591  13.578  0.2130  0.5978 -0.6699
  250MPD2    C1 3789   3.136   2.651  13.468 -0.1402  0.2223  0.2640
  250MPD2    C2 3790   3.075   2.575  13.380  0.5363 -0.8556  0.4321
  250MPD2    C3 3791   3.070   2.438  13.394 -0.4300 -0.2159 -0.1560
  250MPD2    C4 3792   3.126   2.383  13.498 -0.3976  0.3736  0.1598
  250MPD2    C5 3793   3.190   2.456  13.588 -0.3151  0.1519  0.1418
  250MPD2     H 3794   3.021   2.619  13.297 -0.3992  1.7101  2.4171
  250MPD2    H1 3795   3.131   2.275  13.505 -0.7817  0.4452  1.5180
  250MPD2    H2 3796   3.255   2.650  13.648  0.5751 -1.5962  0.8481
  250MPD2    H3 3797   3.251   2.417  13.669  1.1674 -0.0878 -1.0838
  250MPD2     N 3798   3.018   2.355  13.293 -0.1821  0.4649  0.1608
  250MPD2    H5 3799   3.030   2.255  13.304  0.8140  0.8320  2.4240
  250MPD2    N1 3800   3.136   2.791  13.463  0.7571  0.1447  0.2164
  250MPD2    H7 3801   3.157   2.838  13.550  2.7022  0.3142 -0.3610
  251TMC3    C1 3802   3.074   2.998  13.376  0.1877 -0.2338  0.4308
  251TMC3    C2 3803   3.102   3.050  13.504  0.0737 -0.6322  0.0475
  251TMC3    C3 3804   3.088   3.188  13.514  0.0948  0.8862  0.8325
  251TMC3    C4 3805   3.023   3.077  13.275  0.8580 -0.6134  0.5198
  251TMC3    C5 3806   3.010   3.206  13.291 -0.3600  0.8211 -0.8441
  251TMC3    C6 3807   3.057   3.268  13.406 -0.5425  0.0898  0.8304
  251TMC3     C 3808   3.103   2.861  13.351  0.7174  0.6000  0.4043
  251TMC3     O 3809   3.087   2.820  13.236  0.1765  0.0990  0.0238
  251TMC3     H 3810   3.142   2.995  13.588  2.0971 -0.7264 -0.9876
  251TMC3    H1 3811   2.987   3.023  13.189  0.0372 -0.6121  0.8592
  251TMC3    H2 3812   3.052   3.376  13.411  1.2602  0.2326 -0.4334
  251TMC3    C7 3813   3.046   3.278  13.168 -0.6295 -1.2022  0.0848
  251TMC3    C8 3814   3.144   3.265  13.626  0.3477  0.2135  0.4213
  251TMC3    O1 3815   3.008   3.234  13.060 -0.0071 -0.3875  0.4006
  251TMC3    O2 3816   3.119   3.381  13.657 -0.1853 -0.3498 -0.1050
  252TMC3    C1 3817   3.669   3.110   9.305  0.0330 -0.7443  0.6094
  252TMC3    C2 3818   3.723   3.237   9.286  0.7621  0.0344  0.5925
  252TMC3    C3 3819   3.834   3.277   9.346 -0.1126  0.0518  0.8919
  252TMC3    C4 3820   3.735   3.026   9.393  0.5293  0.2285  0.0547
  252TMC3    C5 3821   3.852   3.071   9.451 -0.1565 -0.2487  0.0422
  252TMC3    C6 3822   3.907   3.198   9.432 -0.4550  0.5277  0.3048
  252TMC3     C 3823   3.535   3.083   9.264 -0.4298  0.1693 -0.4112
  252TMC3     O 3824   3.488   3.149   9.170  0.3573  0.4925  0.2539
  252TMC3     H 3825   3.667   3.311   9.231  1.2178  0.7501  1.0886
  252TMC3    H1 3826   3.688   2.930   9.410  1.4089 -0.9044 -3.9395
  252TMC3    H2 3827   4.000   3.228   9.478 -0.0683  1.4055 -1.0756
  252TMC3    C7 3828   3.908   2.989   9.562  0.3496  0.5966  0.1344
  252TMC3    C8 3829   3.884   3.406   9.296  0.4494 -0.0176 -0.3189
  252TMC3    O1 3830   3.953   3.058   9.652  0.7762 -0.5142  0.1936
  252TMC3    O2 3831   3.826   3.457   9.203 -0.4224  0.5592 -0.4965
  253MPD2     C 3832   4.654   2.612  15.293 -0.0066  0.3484 -0.4049
  253MPD2    C1 3833   4.532   2.551  15.296 -0.6985  0.2622 -0.0357
  253MPD2    C2 3834   4.480   2.525  15.424  0.3247  0.1150  0.2448
  253MPD2    C3 3835   4.555   2.558  15.539  0.7852 -0.0168 -0.2495
  253MPD2    C4 3836   4.676   2.623  15.524 -0.1005  0.0639  0.0784
  253MPD2    C5 3837   0.011   2.648  15.403  0.1237 -0.1403  0.5546
  253MPD2     H 3838   4.388   2.469  15.434 -1.2627  2.5210 -0.9688
  253MPD2    H1 3839   0.001   2.658  15.616 -0.0206  0.1351  0.0119
  253MPD2    H2 3840   4.691   2.641  15.195  1.8483 -1.3929 -0.2084
  253MPD2    H3 3841   0.109   2.693  15.388  0.3323 -0.9942 -0.6436
  253MPD2     N 3842   4.519   2.520  15.672  0.2786  0.1586  0.0861
  253MPD2    H5 3843   4.569   2.563  15.749 -3.6309  1.4094  1.9408
  253MPD2    N1 3844   4.456   2.521  15.179  0.2856  0.4728 -0.7680
  253MPD2    H7 3845   4.368   2.476  15.202 -0.6168  1.9769 -1.3192
  254TMC3    C1 3846   4.396   2.447  15.846 -0.0408 -0.6930 -0.1088
  254TMC3    C2 3847   4.271   2.419  15.903  0.2732  0.0239 -0.2066
  254TMC3    C3 3848   4.262   2.354  16.025 -0.1746 -0.4945 -0.7701
  254TMC3    C4 3849   4.512   2.400  15.910  0.9689 -0.4046 -0.8976
  254TMC3    C5 3850   4.504   2.332  16.027 -0.4288 -0.4503 -0.3809
  254TMC3    C6 3851   4.379   2.310  16.081 -0.6240 -0.1779 -0.0032
  254TMC3     C 3852   4.403   2.459  15.705 -0.7368 -0.3808  0.9133
  254TMC3     O 3853   4.303   2.416  15.649 -0.4628  0.4915  0.3578
  254TMC3     H 3854   4.186   2.472  15.862  1.6321  1.8584 -0.6825
  254TMC3    H1 3855   4.596   2.382  15.844  2.0974  0.9064  0.1806
  254TMC3    H2 3856   4.365   2.239  16.162 -1.3527 -0.3046 -0.2369
  254TMC3    C7 3857   4.614   2.270  16.089 -0.3639 -0.5766  0.6795
  254TMC3    C8 3858   4.166   2.397  16.127  0.3486 -0.5277  0.1232
  254TMC3    O1 3859   4.583   2.172  16.155 -0.3603 -0.3327  0.0189
  254TMC3    O2 3860   4.214   2.386  16.243 -0.2125  0.1631  0.2716
  255MPD2     C 3861   2.803   0.693  10.194 -0.0525  0.7598 -0.1517
  255MPD2    C1 3862   2.942   0.713  10.194 -0.3323  0.5743 -0.5222
  255MPD2    C2 3863   3.024   0.611  10.236  0.2065  0.2984  0.0850
  255MPD2    C3 3864   2.975   0.483  10.269 -0.5680 -1.1532  0.4920
  255MPD2    C4 3865   2.835   0.469  10.278 -0.3396 -0.3516 -0.1103
  255MPD2    C5 3866   2.757   0.575  10.240  0.2138  0.1425  0.7520
  255MPD2     H 3867   3.130   0.630  10.232  0.4145 -1.3020 -2.0040
  255MPD2    H1 3868   2.776   0.379  10.294 -1.2158 -0.1300 -2.0719
  255MPD2    H2 3869   2.729   0.764  10.158 -1.0495 -0.1607  0.0618
  255MPD2    H3 3870   2.649   0.565  10.236  0.2936 -0.5314  0.2408
  255MPD2     N 3871   3.070   0.384  10.304 -0.1806 -0.6467 -0.3381
  255MPD2    H5 3872   3.163   0.405  10.269  0.1866  0.2854  1.1717
  255MPD2    N1 3873   2.987   0.837  10.151 -0.6683 -0.3219  0.4704
  255MPD2    H7 3874   2.915   0.905  10.130 -0.6881 -0.7247 -0.7973
  256TMC3    C1 3875   3.124   1.021  10.091 -0.2670 -0.8079  0.1064
  256TMC3    C2 3876   3.222   1.033  10.001 -0.0078  0.1700 -0.2208
  256TMC3    C3 3877   3.188   1.113   9.896 -0.1444  0.1430 -1.1060
  256TMC3    C4 3878   3.008   1.088  10.088  0.1791  0.4193  0.4395
  256TMC3    C5 3879   2.975   1.158   9.975 -0.1104  0.1305 -0.6914
  256TMC3    C6 3880   3.068   1.177   9.875  0.2677 -0.4080 -0.0714
  256TMC3     C 3881   3.115   0.891  10.156 -0.1885  0.4413 -0.4384
  256TMC3     O 3882   3.222   0.838  10.177  0.0074 -0.4030 -0.0724
  256TMC3     H 3883   3.318   0.986  10.014  0.2201  0.7345  0.1376
  256TMC3    H1 3884   2.941   1.095  10.173  0.1055  0.6381  0.3646
  256TMC3    H2 3885   3.049   1.221   9.777 -0.9063 -0.9125 -0.0671
  256TMC3    C7 3886   2.857   1.108   9.915 -0.5653 -0.6538 -0.1511
  256TMC3    C8 3887   3.267   1.077   9.778  0.2668 -0.7919 -0.6267
  256TMC3    O1 3888   2.868   1.058   9.805  0.0223  0.5448 -0.5938
  256TMC3    O2 3889   3.290   1.167   9.700 -0.2791 -0.0983 -0.6224
  257MPD2     C 3890   2.202   2.589  12.950  0.4211  0.0075 -0.0129
  257MPD2    C1 3891   2.162   2.476  12.880  0.5174 -0.4962  0.8354
  257MPD2    C2 3892   2.167   2.350  12.947 -0.7204  0.5545 -0.1862
  257MPD2    C3 3893   2.179   2.350  13.085  0.5054 -0.2877 -0.3312
  257MPD2    C4 3894   2.200   2.468  13.157  0.3534  0.1441 -0.4207
  257MPD2    C5 3895   2.212   2.585  13.086 -0.2826 -0.2732 -0.3717
  257MPD2     H 3896   2.177   2.259  12.889 -0.8625  0.8952 -0.7480
  257MPD2    H1 3897   2.211   2.475  13.265  1.6416 -1.3344 -0.4647
  257MPD2    H2 3898   2.225   2.682  12.898 -0.1579 -0.8784 -1.8460
  257MPD2    H3 3899   2.224   2.682  13.133  0.7580  0.4580 -2.1460
  257MPD2     N 3900   2.169   2.223  13.148 -0.5631  0.3516  0.1644
  257MPD2    H5 3901   2.153   2.146  13.083  0.2719 -1.0540  1.6350
  257MPD2    N1 3902   2.141   2.499  12.743 -0.2824 -0.3787  0.4995
  257MPD2    H7 3903   2.144   2.596  12.713 -1.3648 -0.5987 -0.3277
  258TMC3    C1 3904   2.174   2.051  13.300  0.2013 -0.2480  0.3075
  258TMC3    C2 3905   2.243   1.969  13.219  0.4631  0.3391 -0.2889
  258TMC3    C3 3906   2.268   1.837  13.263 -0.0621 -0.0463  0.2969
  258TMC3    C4 3907   2.143   2.014  13.431 -0.9705 -0.4376  0.7068
  258TMC3    C5 3908   2.165   1.882  13.471  0.3073 -0.3545 -0.1702
  258TMC3    C6 3909   2.219   1.792  13.379 -0.4799  0.9382  0.6534
  258TMC3     C 3910   2.191   2.195  13.280  0.8119  0.2824  0.1226
  258TMC3     O 3911   2.193   2.269  13.376  0.2569 -0.0976  0.7645
  258TMC3     H 3912   2.297   2.014  13.136 -0.1249 -2.8774 -2.4214
  258TMC3    H1 3913   2.090   2.083  13.496 -2.0445  0.2960 -0.9467
  258TMC3    H2 3914   2.249   1.693  13.412 -0.3188 -0.1939 -2.9263
  258TMC3    C7 3915   2.128   1.850  13.607 -0.5113 -0.1313 -0.4864
  258TMC3    C8 3916   2.352   1.745  13.188  0.0756  0.5288 -0.0795
  258TMC3    O1 3917   2.047   1.927  13.654  0.5037  0.0228  0.0997
  258TMC3    O2 3918   2.361   1.630  13.234 -0.1457  0.1404 -0.1735
  259MPD2     C 3919   1.824   4.191   0.504  0.2697  0.1723  0.0493
  259MPD2    C1 3920   1.813   4.054   0.515 -0.3805 -0.3824 -0.4375
  259MPD2    C2 3921   1.792   3.986   0.391 -0.2799  0.4356 -0.5781
  259MPD2    C3 3922   1.771   4.046   0.271  0.3028 -0.1973  0.0558
  259MPD2    C4 3923   1.779   4.186   0.263  0.4785  0.9319 -0.0498
  259MPD2    C5 3924   1.822   4.251   0.380  0.2236 -0.5350  0.2081
  259MPD2     H 3925   1.808   3.879   0.391  0.6694  0.5774  0.9970
  259MPD2    H1 3926   1.775   4.235   0.166 -2.3389  2.7581  0.9730
  259MPD2    H2 3927   1.832   4.248   0.596 -0.3573 -1.1879  0.9574
  259MPD2    H3 3928   1.835   4.359   0.376  2.4849 -0.7943  0.5882
  259MPD2     N 3929   1.734   3.951   0.173  0.3601 -0.0619  0.0347
  259MPD2    H5 3930   1.757   3.855   0.200  1.5353 -0.4076 -2.1975
  259MPD2    N1 3931   1.831   3.984   0.639 -0.2205  0.1158 -0.4376
  259MPD2    H7 3932   1.880   4.028   0.716  1.1043 -2.6430  0.2928
  260TMC3    C1 3933   1.655   3.850  17.669  0.2441  0.7192  0.5017
  260TMC3    C2 3934   1.675   3.836  17.535 -0.0787 -0.0006  0.1400
  260TMC3    C3 3935   1.721   3.716  17.497 -0.2386 -0.6197  0.9334
  260TMC3    C4 3936   1.661   3.743   0.075 -0.1531 -0.2750 -0.4096
  260TMC3    C5 3937   1.691   3.620   0.028 -0.2712  0.0695 -0.6953
  260TMC3    C6 3938   1.740   3.611  17.583 -0.6971 -0.7673  0.0204
  260TMC3     C 3939   1.694   3.980   0.046  0.0711  0.1886 -0.1190
  260TMC3     O 3940   1.680   4.091  17.675  0.1148 -0.0713  0.2692
  260TMC3     H 3941   1.678   3.922  17.468  1.7615 -0.3191 -0.1873
  260TMC3    H1 3942   1.603   3.750   0.166 -0.0571 -3.1764 -0.1342
  260TMC3    H2 3943   1.782   3.521  17.538  1.1729  0.7903 -1.3035
  260TMC3    C7 3944   1.602   3.511   0.051  0.2065 -0.2366 -0.8147
  260TMC3    C8 3945   1.677   3.664  17.365  0.8606 -0.4379  0.7825
  260TMC3    O1 3946   1.581   3.440  17.635  0.0224  0.0299  0.4594
  260TMC3    O2 3947   1.672   3.743  17.273 -0.1461  0.0940  0.0357
  261MPD2     C 3948   2.761   2.218  12.484  0.5337  0.1962  0.3634
  261MPD2    C1 3949   2.824   2.310  12.567 -0.1792  0.7493  0.5727
  261MPD2    C2 3950   2.886   2.420  12.509  0.1035  0.5182 -0.4464
  261MPD2    C3 3951   2.879   2.444  12.370 -0.4937 -0.0805 -0.2321
  261MPD2    C4 3952   2.829   2.345  12.289 -0.1037 -0.4543  0.2976
  261MPD2    C5 3953   2.768   2.236  12.348  1.2502  0.2977  0.6785
  261MPD2     H 3954   2.930   2.498  12.570 -0.8088 -0.5045  1.5001
  261MPD2    H1 3955   2.833   2.350  12.181  0.4011 -2.2357  0.2299
  261MPD2    H2 3956   2.720   2.128  12.530 -0.8924 -0.1243 -1.5567
  261MPD2    H3 3957   2.733   2.161  12.279 -0.2476  2.5402 -0.9876
  261MPD2     N 3958   2.918   2.566  12.315  0.1906 -0.1951  0.3778
  261MPD2    H5 3959   2.930   2.645  12.377 -0.5476 -0.0332  0.3180
  261MPD2    N1 3960   2.837   2.300  12.705  0.1319  0.3622 -0.2252
  261MPD2    H7 3961   2.900   2.368  12.748  0.0620 -0.5718  1.3331
  262TMC3    C1 3962   3.004   2.727  12.153 -0.2243  0.1262 -0.2745
  262TMC3    C2 3963   2.925   2.832  12.187  0.5908 -0.2414  0.3079
  262TMC3    C3 3964   2.970   2.953  12.145 -0.6897 -0.1881  0.2303
  262TMC3    C4 3965   3.106   2.733  12.067 -0.6225 -0.1052 -0.7482
  262TMC3    C5 3966   3.142   2.855  12.020  0.0166  0.1324  0.5341
  262TMC3    C6 3967   3.072   2.963  12.063  0.9822  0.3669 -0.3638
  262TMC3     C 3968   2.970   2.579  12.190  0.1224  0.2942  0.2935
  262TMC3     O 3969   3.007   2.487  12.115  0.3853 -0.3568 -0.2070
  262TMC3     H 3970   2.838   2.824  12.252  0.7147 -2.3176  0.2311
  262TMC3    H1 3971   3.160   2.642  12.044 -1.0367 -0.5718  0.1228
  262TMC3    H2 3972   3.105   3.063  12.038 -0.3627  1.3574  1.8451
  262TMC3    C7 3973   3.242   2.860  11.919  0.1795  0.2985  0.2850
  262TMC3    C8 3974   2.870   3.044  12.096 -0.0208 -0.1834 -0.1684
  262TMC3    O1 3975   3.320   2.765  11.914  0.1489 -0.4702 -0.8517
  262TMC3    O2 3976   2.904   3.162  12.087 -0.0692  0.1935  0.2613
  263MPD2     C 3977   3.533   1.797  11.571  0.4579  0.3797 -0.2459
  263MPD2    C1 3978   3.623   1.756  11.479  0.0619  0.4928 -0.4959
  263MPD2    C2 3979   3.616   1.824  11.354 -1.0764 -0.1993 -0.3744
  263MPD2    C3 3980   3.517   1.916  11.321 -0.6398  0.2057  0.3108
  263MPD2    C4 3981   3.424   1.950  11.417 -1.0809 -0.2085 -0.8283
  263MPD2    C5 3982   3.440   1.890  11.545 -0.6325  0.5107  0.0220
  263MPD2     H 3983   3.699   1.809  11.286 -1.5124  0.6720 -1.1036
  263MPD2    H1 3984   3.353   2.032  11.411 -1.1280 -0.0886  1.2299
  263MPD2    H2 3985   3.525   1.767  11.675 -0.3923  1.5511  0.0307
  263MPD2    H3 3986   3.375   1.916  11.628  0.7537 -0.2333  1.3237
  263MPD2     N 3987   3.520   1.974  11.187 -0.0955  0.8818  0.2216
  263MPD2    H5 3988   3.592   1.943  11.123  0.5531  2.5797  0.1166
  263MPD2    N1 3989   3.719   1.669  11.528  0.2856  0.1007 -0.2073
  263MPD2    H7 3990   3.708   1.644  11.626 -2.6021  0.4688 -0.4232
  264TMC3    C1 3991   3.488   2.162  11.040 -0.3615 -0.0979  0.7177
  264TMC3    C2 3992   3.416   2.279  11.034  1.3530  0.3228  0.9316
  264TMC3    C3 3993   3.401   2.345  10.912 -0.8132 -0.3541  0.1758
  264TMC3    C4 3994   3.569   2.111  10.945 -0.4565 -0.1724  0.9964
  264TMC3    C5 3995   3.540   2.174  10.824  0.8458  0.2557 -0.5163
  264TMC3    C6 3996   3.444   2.269  10.807 -0.4673  0.1469 -0.4096
  264TMC3     C 3997   3.440   2.082  11.152 -0.6768 -0.8868  0.4909
  264TMC3     O 3998   3.330   2.113  11.186  0.3316 -0.2766 -0.0486
  264TMC3     H 3999   3.377   2.326  11.124  0.8393 -0.0972  0.9269
  264TMC3    H1 4000   3.612   2.011  10.952 -0.2032 -0.1930 -1.0063
  264TMC3    H2 4001   3.444   2.314  10.709  1.3340 -0.2373 -0.5806
  264TMC3    C7 4002   3.664   2.185  10.745 -0.1399 -0.3505  0.6992
  264TMC3    C8 4003   3.454   2.476  10.914  0.2441  0.3775  0.3251
  264TMC3    O1 4004   3.748   2.095  10.753  0.4302 -0.1333 -0.1348
  264TMC3    O2 4005   3.555   2.493  10.844  0.2703 -0.1985  0.8340
  265MPD2     C 4006   1.148   1.979  15.467  0.3042  0.1364  0.1631
  265MPD2    C1 4007   1.166   2.092  15.384 -0.1710 -0.9152  0.0074
  265MPD2    C2 4008   1.205   2.080  15.253  0.3431 -0.7414 -0.8330
  265MPD2    C3 4009   1.231   1.958  15.199  0.2573  0.6753  0.0931
  265MPD2    C4 4010   1.199   1.845  15.276 -0.1412 -0.2170 -0.2987
  265MPD2    C5 4011   1.157   1.855  15.412 -0.7190 -0.4665 -0.1306
  265MPD2     H 4012   1.222   2.168  15.192 -1.3783  1.7089  2.2009
  265MPD2    H1 4013   1.203   1.748  15.228  2.6492 -0.9718  1.4270
  265MPD2    H2 4014   1.105   1.983  15.567  0.8293  0.1231  0.3871
  265MPD2    H3 4015   1.144   1.759  15.460 -0.4160  0.0880  1.0514
  265MPD2     N 4016   1.269   1.927  15.068 -0.4931 -0.1601  0.6128
  265MPD2    H5 4017   1.244   1.834  15.037 -1.3680  0.5716 -0.8795
  265MPD2    N1 4018   1.132   2.222  15.438 -0.4046  0.3774  0.0030
  265MPD2    H7 4019   1.116   2.298  15.372 -1.5340  1.4772  1.5473
  266TMC3    C1 4020   1.072   2.386  15.602  0.0497 -0.4004  0.4660
  266TMC3    C2 4021   1.030   2.397  15.735 -0.2707  0.5300 -0.0003
  266TMC3    C3 4022   0.978   2.518  15.779  0.1276 -0.5098 -0.2155
  266TMC3    C4 4023   1.066   2.490  15.517  0.0019  0.3937  0.4637
  266TMC3    C5 4024   1.004   2.607  15.564 -0.0212 -0.0700  0.0717
  266TMC3    C6 4025   0.964   2.622  15.691  0.0293 -0.1177 -0.4950
  266TMC3     C 4026   1.131   2.256  15.571 -0.2184  0.6786  0.7111
  266TMC3     O 4027   1.170   2.183  15.665  0.5896  0.5307 -0.0190
  266TMC3     H 4028   1.037   2.315  15.805  0.8926  0.4125 -0.2532
  266TMC3    H1 4029   1.100   2.483  15.414  0.5854 -1.8203  0.8278
  266TMC3    H2 4030   0.928   2.713  15.737 -0.2846 -0.3324 -0.3163
  266TMC3    C7 4031   1.018   2.720  15.484  0.0906  0.4279 -0.2781
  266TMC3    C8 4032   0.929   2.527  15.914  0.6823  0.4711  0.6542
  266TMC3    O1 4033   1.032   2.692  15.368 -0.0923  0.1664 -0.3090
  266TMC3    O2 4034   0.879   2.419  15.949  0.0007  0.4696 -0.3620
  267MPD2     C 4035   3.776   3.766   0.317  0.4801 -0.0251  0.5106
  267MPD2    C1 4036   3.877   3.826   0.238 -0.4317  0.6074 -0.0913
  267MPD2    C2 4037   3.838   3.867   0.111  0.1769 -0.2773  0.8805
  267MPD2    C3 4038   3.715   3.855   0.064  0.2120 -0.4742 -0.3499
  267MPD2    C4 4039   3.621   3.802   0.148 -0.6190  1.1127  0.2334
  267MPD2    C5 4040   3.651   3.755   0.268  0.1251  0.2270 -0.0880
  267MPD2     H 4041   3.908   3.923   0.050 -1.4646 -0.0978 -0.8460
  267MPD2    H1 4042   3.518   3.799   0.114 -0.2378  1.6721 -0.9785
  267MPD2    H2 4043   3.804   3.730   0.415 -0.8126 -3.0223 -0.2196
  267MPD2    H3 4044   3.582   3.708   0.337 -1.2026  1.5845 -0.4951
  267MPD2     N 4045   3.703   3.914  17.617  0.2076  0.0202  0.4988
  267MPD2    H5 4046   3.791   3.954  17.587  0.4150 -0.5011  0.4207
  267MPD2    N1 4047   4.011   3.831   0.287 -0.6022 -0.5411  0.5084
  267MPD2    H7 4048   4.028   3.826   0.387  1.8830  1.0570  0.1775
  268TMC3    C1 4049   4.240   3.867   0.289  0.3798  0.3008  0.3363
  268TMC3    C2 4050   4.336   3.942   0.223  0.1597  0.3203 -0.2870
  268TMC3    C3 4051   4.444   3.982   0.299 -0.2123  0.1601  0.1656
  268TMC3    C4 4052   4.248   3.828   0.427  0.0718 -0.2481 -0.2787
  268TMC3    C5 4053   4.363   3.869   0.489 -0.6509  0.5181  0.5285
  268TMC3    C6 4054   4.455   3.948   0.431 -0.3109 -0.2434 -0.3542
  268TMC3     C 4055   4.121   3.848   0.210  0.0401  0.6936 -0.2869
  268TMC3     O 4056   4.132   3.853   0.091  0.1056 -0.3816  0.0535
  268TMC3     H 4057   4.314   3.976   0.122  1.5789  1.1786 -0.3079
  268TMC3    H1 4058   4.189   3.747   0.466  0.3273  0.2559  1.1475
  268TMC3    H2 4059   4.549   3.961   0.484 -0.3433 -1.7262  0.0620
  268TMC3    C7 4060   4.393   3.832   0.629 -0.3379 -0.3693 -0.1918
  268TMC3    C8 4061   4.500   4.113   0.257 -0.0633  0.6710 -0.1465
  268TMC3    O1 4062   4.511   3.833   0.657  0.0603 -0.1824  0.1200
  268TMC3    O2 4063   4.513   4.197   0.345 -0.3237 -0.4517  0.5026
  269MPD2     C 4064   3.642   2.656  15.744 -0.3291 -0.8527 -0.4036
  269MPD2    C1 4065   3.507   2.681  15.731  0.3492 -0.2026 -0.2021
  269MPD2    C2 4066   3.470   2.811  15.703 -0.6595  0.5736 -0.5446
  269MPD2    C3 4067   3.568   2.912  15.698  0.1926  0.3409  0.1836
  269MPD2    C4 4068   3.702   2.884  15.727 -0.2710 -0.5210  0.9563
  269MPD2    C5 4069   3.739   2.754  15.741  0.0302 -0.4862  0.4997
  269MPD2     H 4070   3.367   2.834  15.675 -0.4478  2.1266 -0.0572
  269MPD2    H1 4071   3.782   2.956  15.739 -1.9840  1.6981 -0.8737
  269MPD2    H2 4072   3.673   2.554  15.763  0.7664 -0.8888 -2.3519
  269MPD2    H3 4073   3.838   2.720  15.769  0.0946 -0.1750  0.6517
  269MPD2     N 4074   3.523   3.041  15.670 -0.0824  0.2956 -0.4347
  269MPD2    H5 4075   3.431   3.047  15.629  0.4405  0.1610 -1.6292
  269MPD2    N1 4076   3.417   2.568  15.742  0.1920  1.0736  0.0826
  269MPD2    H7 4077   3.460   2.477  15.756 -0.9741  0.6930  1.1636
  270TMC3    C1 4078   3.211   2.456  15.793  0.8177  0.0490 -0.3548
  270TMC3    C2 4079   3.080   2.449  15.754 -0.0269 -0.1431 -0.0626
  270TMC3    C3 4080   3.033   2.320  15.752  0.0225 -0.4184 -0.6803
  270TMC3    C4 4081   3.290   2.350  15.840 -0.0513 -0.1183 -0.6747
  270TMC3    C5 4082   3.230   2.226  15.855 -0.6678 -0.2756 -0.2235
  270TMC3    C6 4083   3.107   2.216  15.803  0.2485 -0.0562  0.1749
  270TMC3     C 4084   3.275   2.578  15.750 -0.0665  0.3555 -0.1824
  270TMC3     O 4085   3.200   2.675  15.741  0.2794  0.2741 -0.7706
  270TMC3     H 4086   3.019   2.536  15.733 -1.9732 -1.5990 -0.4491
  270TMC3    H1 4087   3.388   2.366  15.884  0.0275  0.1712 -0.9518
  270TMC3    H2 4088   3.080   2.120  15.761  2.6151 -0.7238  0.1665
  270TMC3    C7 4089   3.316   2.109  15.861 -0.6397 -0.6786  1.1562
  270TMC3    C8 4090   2.943   2.292  15.648 -0.1400 -0.1174  0.2800
  270TMC3    O1 4091   3.435   2.125  15.842 -0.1154 -0.3873 -0.3216
  270TMC3    O2 4092   2.955   2.364  15.550 -0.3576  0.1130  0.4982
  271MPD2     C 4093   2.623   2.218  14.040  0.3924  0.5784 -0.1935
  271MPD2    C1 4094   2.540   2.225  14.153 -0.6791 -0.4157 -0.1267
  271MPD2    C2 4095   2.416   2.281  14.132 -0.6502 -0.2113  1.0785
  271MPD2    C3 4096   2.376   2.331  14.011  0.2982  0.6656 -0.0964
  271MPD2    C4 4097   2.456   2.324  13.902 -0.4125 -0.4326 -0.2798
  271MPD2    C5 4098   2.581   2.264  13.919 -0.7537  0.3745 -0.5112
  271MPD2     H 4099   2.345   2.276  14.213 -2.0248 -1.4273 -0.1994
  271MPD2    H1 4100   2.415   2.344  13.804 -0.5615  0.3940 -0.0532
  271MPD2    H2 4101   2.718   2.167  14.038 -1.9407 -3.7216 -0.1092
  271MPD2    H3 4102   2.639   2.246  13.830 -1.2174  0.5419 -0.8468
  271MPD2     N 4103   2.249   2.382  13.991 -0.1971  0.3294  0.0064
  271MPD2    H5 4104   2.227   2.410  13.896 -0.0587  0.8739  0.1341
  271MPD2    N1 4105   2.568   2.159  14.274 -0.2905  0.3528 -0.7697
  271MPD2    H7 4106   2.504   2.164  14.353 -1.0908  0.3508 -1.4220
  272TMC3    C1 4107   2.679   2.014  14.419 -0.0044 -0.1460  0.5305
  272TMC3    C2 4108   2.719   1.886  14.437  0.5081  0.3656  0.0162
  272TMC3    C3 4109   2.718   1.834  14.569  0.7776  0.2611 -0.9475
  272TMC3    C4 4110   2.642   2.092  14.528  0.4752  0.0699 -0.5376
  272TMC3    C5 4111   2.646   2.036  14.650 -0.1739 -0.4589 -0.2736
  272TMC3    C6 4112   2.690   1.911  14.675 -0.8683 -0.0840  0.2907
  272TMC3     C 4113   2.669   2.071  14.286 -0.1998  0.1661 -0.3942
  272TMC3     O 4114   2.747   2.022  14.203 -0.0819 -0.4135 -0.8909
  272TMC3     H 4115   2.742   1.826  14.350 -1.7772 -0.1244 -0.2558
  272TMC3    H1 4116   2.596   2.188  14.506  0.8625  0.3310 -0.2143
  272TMC3    H2 4117   2.667   1.867  14.771 -2.1044 -0.1167 -0.0285
  272TMC3    C7 4118   2.587   2.111  14.758 -0.1911  0.2921  0.5954
  272TMC3    C8 4119   2.815   1.724  14.586  0.1797  0.0598  0.2347
  272TMC3    O1 4120   2.479   2.163  14.730  0.3054 -0.3098  0.6387
  272TMC3    O2 4121   2.852   1.669  14.479 -0.4452  0.1364  0.2501
  273MPD2     C 4122   4.177   1.301  11.992 -0.7221  0.0207  0.5028
  273MPD2    C1 4123   4.296   1.274  11.922  0.0738 -0.1551 -0.2677
  273MPD2    C2 4124   4.287   1.209  11.797 -0.5378 -0.4412 -0.3839
  273MPD2    C3 4125   4.164   1.181  11.745 -1.0113  0.0940 -0.1689
  273MPD2    C4 4126   4.050   1.221  11.803  0.3330 -0.1953 -0.0629
  273MPD2    C5 4127   4.057   1.284  11.925  0.2416 -0.0107 -0.0153
  273MPD2     H 4128   4.376   1.179  11.743  0.2457  3.1380 -1.0873
  273MPD2    H1 4129   3.954   1.196  11.759  0.5578  1.4868 -1.4998
  273MPD2    H2 4130   4.171   1.347  12.090 -0.7122  2.7574 -0.7771
  273MPD2    H3 4131   3.963   1.307  11.975  1.1101  0.0082  1.5993
  273MPD2     N 4132   4.146   1.094  11.630  1.1094 -0.0388 -0.5330
  273MPD2    H5 4133   4.053   1.069  11.599  0.4905 -0.0778  1.3638
  273MPD2    N1 4134   4.419   1.300  11.981 -0.8851  0.2932  0.3085
  273MPD2    H7 4135   4.423   1.330  12.077  0.3224  1.5877 -0.1521
  274TMC3    C1 4136   4.214   0.960  11.441 -0.1688  0.0418 -0.1398
  274TMC3    C2 4137   4.093   0.977  11.386 -0.7806  0.2484  0.0886
  274TMC3    C3 4138   4.079   0.985  11.248  0.0230 -0.0630  0.5025
  274TMC3    C4 4139   4.326   0.950  11.358  0.4758  0.1890  0.0370
  274TMC3    C5 4140   4.307   0.965  11.220 -0.6257 -0.3458  0.3557
  274TMC3    C6 4141   4.186   0.973  11.165 -0.1751  0.4443 -0.4847
  274TMC3     C 4142   4.246   1.016  11.571 -0.4048 -0.8010 -0.5460
  274TMC3     O 4143   4.365   1.004  11.604  0.7224  0.1485 -0.4627
  274TMC3     H 4144   4.006   1.002  11.446  0.5778 -0.6157  2.4380
  274TMC3    H1 4145   4.424   0.945  11.405 -0.1303  0.5465  1.3379
  274TMC3    H2 4146   4.177   1.011  11.063  2.9384 -0.0215 -0.9514
  274TMC3    C7 4147   4.420   0.966  11.130 -0.5370 -0.6019  0.1926
  274TMC3    C8 4148   3.946   0.963  11.196 -0.5705 -0.6070  0.6999
  274TMC3    O1 4149   4.405   0.905  11.024 -0.2593 -0.6088 -0.4313
  274TMC3    O2 4150   3.858   0.925  11.266  0.5124 -0.1798 -0.4412
  275MPD2     C 4151   4.187   2.941  14.515  0.1302  0.6742 -0.6841
  275MPD2    C1 4152   4.099   2.986  14.610 -0.1234 -0.2418 -0.1972
  275MPD2    C2 4153   3.956   2.968  14.593 -0.4946 -0.2959 -0.1186
  275MPD2    C3 4154   3.911   2.899  14.483 -0.5510 -0.7004 -0.3944
  275MPD2    C4 4155   3.996   2.844  14.394 -0.0801  0.4429 -0.7318
  275MPD2    C5 4156   4.132   2.867  14.413  0.1045  0.3173 -0.3486
  275MPD2     H 4157   3.886   3.017  14.660 -0.1381 -0.6701  0.5338
  275MPD2    H1 4158   3.967   2.782  14.310 -1.7450  0.1439  0.0756
  275MPD2    H2 4159   4.293   2.963  14.527  0.3203 -0.8727  0.4581
  275MPD2    H3 4160   4.196   2.835  14.332  1.4210 -0.8493  1.1401
  275MPD2     N 4161   3.774   2.882  14.453 -0.6418 -0.5570  0.0582
  275MPD2    H5 4162   3.750   2.824  14.373 -0.8620  1.2009 -1.1559
  275MPD2    N1 4163   4.134   3.056  14.731  1.2779 -0.8830  0.5589
  275MPD2    H7 4164   4.059   3.060  14.800  1.7299  1.3341  0.8898
  276TMC3    C1 4165   4.245   3.178  14.894  0.2257 -0.0433  0.2162
  276TMC3    C2 4166   4.122   3.195  14.958 -1.3165  0.0121  0.1371
  276TMC3    C3 4167   4.121   3.218  15.096  0.3153 -0.3344  0.0434
  276TMC3    C4 4168   4.361   3.184  14.961 -0.5641  0.5317 -0.7794
  276TMC3    C5 4169   4.357   3.209  15.095  0.8849 -0.2378 -0.1421
  276TMC3    C6 4170   4.238   3.213  15.167 -0.1297  0.4254  0.4348
  276TMC3     C 4171   4.257   3.110  14.767  0.3396  0.3836  0.4022
  276TMC3     O 4172   4.363   3.088  14.709  1.1021 -0.5012  0.3416
  276TMC3     H 4173   4.031   3.214  14.902  0.0110 -1.4485 -2.5521
  276TMC3    H1 4174   4.454   3.164  14.908  0.0151 -1.7060  1.0641
  276TMC3    H2 4175   4.241   3.226  15.275  2.7098 -0.1357  0.4328
  276TMC3    C7 4176   4.459   3.286  15.159  0.3830 -0.3956  0.3467
  276TMC3    C8 4177   4.004   3.253  15.174 -0.7170 -0.0554  0.2892
  276TMC3    O1 4178   4.430   3.362  15.250 -0.3653 -0.1331  0.5184
  276TMC3    O2 4179   4.021   3.330  15.267 -0.1330  0.1234  0.1737
  277MPD2     C 4180   1.351   2.074  13.731 -0.3375 -0.2924 -0.2697
  277MPD2    C1 4181   1.263   2.009  13.642  0.0978 -0.6834 -0.2747
  277MPD2    C2 4182   1.153   1.950  13.692  0.0071 -0.1452 -0.2443
  277MPD2    C3 4183   1.129   1.947  13.826 -0.5193 -0.1827 -0.1245
  277MPD2    C4 4184   1.218   2.005  13.916  0.1459 -0.7277  0.5640
  277MPD2    C5 4185   1.326   2.066  13.864 -0.3119  0.2497 -0.0225
  277MPD2     H 4186   1.085   1.906  13.620 -1.5020  0.7442  0.6372
  277MPD2    H1 4187   1.188   1.994  14.019  0.8912 -1.0331  0.7485
  277MPD2    H2 4188   1.441   2.125  13.699 -1.0528  1.1096 -0.0920
  277MPD2    H3 4189   1.390   2.118  13.934 -0.6593 -0.8342  1.0916
  277MPD2     N 4190   1.005   1.896  13.857 -0.2711 -0.5994 -0.4133
  277MPD2    H5 4191   0.955   1.849  13.782 -2.5809 -0.7986  1.2187
  277MPD2    N1 4192   1.271   2.004  13.504 -0.1663  0.0706  0.0456
  277MPD2    H7 4193   1.216   1.937  13.451  1.4056 -0.4905 -0.8761
  278TMC3    C1 4194   0.810   1.841  13.963  0.0494  0.3045 -0.2913
  278TMC3    C2 4195   0.815   1.724  13.890  0.2320  0.0973  0.0625
  278TMC3    C3 4196   0.693   1.667  13.869  0.6513  0.3856 -0.6978
  278TMC3    C4 4197   0.703   1.890  14.038  0.0688 -0.0914  0.5622
  278TMC3    C5 4198   0.583   1.832  13.994 -0.0270 -0.3142  0.5943
  278TMC3    C6 4199   0.573   1.727  13.908 -0.0547  0.3973  0.2120
  278TMC3     C 4200   0.940   1.899  13.975 -0.3540  0.4048 -0.6396
  278TMC3     O 4201   0.947   1.973  14.074 -0.6562 -0.1978 -0.1751
  278TMC3     H 4202   0.901   1.670  13.852  0.2438 -0.3120  0.6690
  278TMC3    H1 4203   0.707   1.989  14.082  2.4492 -0.1865  0.5580
  278TMC3    H2 4204   0.480   1.675  13.890 -0.7685  1.4968  0.7154
  278TMC3    C7 4205   0.473   1.924  13.979  0.2752  0.0854 -0.9321
  278TMC3    C8 4206   0.689   1.566  13.765  0.1603  0.0239 -0.0071
  278TMC3    O1 4207   0.477   2.018  14.057 -0.1847  0.0455 -0.0525
  278TMC3    O2 4208   0.798   1.515  13.738 -0.2275  0.2066  0.7124
  279MPD2     C 4209   4.369   1.946   0.386  0.0849 -1.1693  0.8414
  279MPD2    C1 4210   4.464   1.966   0.480  0.4305 -0.1127  0.6382
  279MPD2    C2 4211   4.586   2.022   0.445 -0.1945 -0.0090 -0.8662
  279MPD2    C3 4212   4.609   2.040   0.313  0.5722  0.3269  0.3023
  279MPD2    C4 4213   4.515   2.020   0.217  0.4946  0.0814 -0.3984
  279MPD2    C5 4214   4.391   1.977   0.257 -0.0220  0.4458 -0.6623
  279MPD2     H 4215   4.663   2.043   0.518  0.4474 -3.3251 -0.6207
  279MPD2    H1 4216   4.534   2.044   0.113  1.9849  1.7815  0.2771
  279MPD2    H2 4217   4.267   1.913   0.403 -1.2756  1.6102 -1.9922
  279MPD2    H3 4218   4.317   1.966   0.179 -0.7485  0.2094  0.0576
  279MPD2     N 4219   0.006   2.097   0.270 -0.7797  0.4365 -0.4471
  279MPD2    H5 4220   0.011   2.123   0.172 -1.3393 -0.5087 -0.7260
  279MPD2    N1 4221   4.431   1.944   0.619 -0.6724  0.1335 -0.5531
  279MPD2    H7 4222   4.331   1.935   0.638 -0.5831 -0.8770 -0.5722
  280TMC3    C1 4223   4.466   1.993   0.849 -1.1698 -0.2404 -0.4281
  280TMC3    C2 4224   4.330   1.974   0.861 -0.2178  0.1261 -0.4297
  280TMC3    C3 4225   4.245   2.070   0.907  0.3204  0.5952  0.5848
  280TMC3    C4 4226   4.520   2.107   0.902 -0.7156 -0.0671  0.0182
  280TMC3    C5 4227   4.437   2.204   0.943  0.5350  0.3143  0.1954
  280TMC3    C6 4228   4.298   2.192   0.940 -0.4239  0.3832  0.3337
  280TMC3     C 4229   4.523   1.961   0.722  0.1642  0.2309 -0.0437
  280TMC3     O 4230   4.646   1.951   0.717  0.1918 -0.1350 -0.5733
  280TMC3     H 4231   4.289   1.876   0.841  0.7036 -0.7551  1.9409
  280TMC3    H1 4232   4.622   2.133   0.876  0.0240 -0.9313  2.0837
  280TMC3    H2 4233   4.227   2.268   0.970  0.4614  0.9465  1.0056
  280TMC3    C7 4234   4.492   2.329   0.950  0.6191 -0.7171  1.0294
  280TMC3    C8 4235   4.108   2.040   0.950 -0.2675 -0.1081  1.1924
  280TMC3    O1 4236   4.589   2.350   1.019  0.0288 -0.3346  0.0813
  280TMC3    O2 4237   4.057   2.119   1.028 -0.0749  0.4393  0.6582
  281TMC3    C1 4238   3.594   2.735  13.071  0.9618  0.1686 -0.3009
  281TMC3    C2 4239   3.567   2.847  13.003 -0.8024 -0.3667  0.4526
  281TMC3    C3 4240   3.456   2.851  12.921  0.1713  0.7088 -0.0155
  281TMC3    C4 4241   3.530   2.615  13.037  0.1971 -0.0876 -0.6784
  281TMC3    C5 4242   3.420   2.621  12.952  0.5267 -0.6849  0.0766
  281TMC3    C6 4243   3.376   2.741  12.901 -0.3477 -0.3747 -0.4187
  281TMC3     C 4244   3.687   2.732  13.177  0.1478 -0.2127 -0.5199
  281TMC3     O 4245   3.748   2.624  13.184  0.6325 -0.0826 -0.2416
  281TMC3     H 4246   3.623   2.936  13.028 -0.1246 -0.9213  0.9064
  281TMC3    H1 4247   3.561   2.523  13.085 -0.5201  0.9533  1.7727
  281TMC3    H2 4248   3.280   2.750  12.853  0.7089  3.4079 -1.8591
  281TMC3    C7 4249   3.352   2.505  12.917 -0.7361 -0.3285 -0.3764
  281TMC3    C8 4250   3.380   2.977  12.925  1.0393 -0.3071  0.4135
  281TMC3    O1 4251   3.296   2.506  12.810  0.5107  0.4145  0.5383
  281TMC3    O2 4252   3.259   2.971  12.917  0.6867 -0.1616 -0.6190
  282MPD2     C 4253   0.851   3.922  15.328 -0.0090  0.6424  0.2723
  282MPD2    C1 4254   0.733   3.889  15.390  0.2306 -0.3362 -0.2213
  282MPD2    C2 4255   0.624   3.839  15.316 -0.1451  0.2056 -0.3354
  282MPD2    C3 4256   0.620   3.844  15.178 -0.4410 -0.4611  0.2867
  282MPD2    C4 4257   0.738   3.887  15.112  0.2026  0.1059  0.2880
  282MPD2    C5 4258   0.850   3.915  15.191  0.3305  0.1422  0.4707
  282MPD2     H 4259   0.539   3.788  15.359 -0.9261  0.0930 -2.0264
  282MPD2    H1 4260   0.747   3.892  15.004  0.7298  1.8681  0.4102
  282MPD2    H2 4261   0.941   3.939  15.386  0.1914  1.8484 -0.3931
  282MPD2    H3 4262   0.936   3.945  15.132 -0.6668  0.3637 -0.8880
  282MPD2     N 4263   0.505   3.797  15.112 -0.4652  0.9313  0.9105
  282MPD2    H5 4264   0.425   3.760  15.162 -1.5969 -0.8332 -2.2037
  282MPD2    N1 4265   0.717   3.902  15.530  0.1868 -0.3158  0.0447
  282MPD2    H7 4266   0.617   3.905  15.546  0.1299 -0.4987 -0.2989
  283TMC3    C1 4267   0.735   3.974  15.754  0.1803 -0.6448 -0.6897
  283TMC3    C2 4268   0.798   4.072  15.832  0.1171  0.0939  0.5167
  283TMC3    C3 4269   0.729   4.115  15.941  0.5094 -0.3589 -0.2144
  283TMC3    C4 4270   0.631   3.902  15.804 -0.0618 -0.5493 -0.7496
  283TMC3    C5 4271   0.580   3.931  15.927 -0.0302 -0.0121  0.0997
  283TMC3    C6 4272   0.624   4.043  15.993  0.4209 -0.7400 -0.3805
  283TMC3     C 4273   0.805   3.932  15.627 -0.1641  0.0765 -0.2107
  283TMC3     O 4274   0.924   3.962  15.612  0.5179 -0.4269 -0.1581
  283TMC3     H 4275   0.881   4.123  15.785  0.2274 -0.2509  0.3348
  283TMC3    H1 4276   0.586   3.832  15.734 -1.2200 -1.2503  0.7007
  283TMC3    H2 4277   0.569   4.091  16.074  1.3247 -0.3744  0.0147
  283TMC3    C7 4278   0.460   3.865  15.976 -0.4081 -0.4984  0.8208
  283TMC3    C8 4279   0.763   4.242  16.004 -0.5416 -0.3558  0.1556
  283TMC3    O1 4280   0.391   3.924  16.060 -0.1070  0.3111 -0.0098
  283TMC3    O2 4281   0.740   4.254  16.125 -0.7216  0.5839  0.3102
  284MPD2     C 4282   3.741   3.703  11.758 -0.1190  0.2640  0.1992
  284MPD2    C1 4283   3.878   3.702  11.762  0.2748 -0.4094 -0.4830
  284MPD2    C2 4284   3.930   3.625  11.869 -0.0033  1.2745 -0.3974
  284MPD2    C3 4285   3.853   3.566  11.966 -0.1081  0.2931 -0.1776
  284MPD2    C4 4286   3.711   3.567  11.958 -0.1874  0.3389  0.2069
  284MPD2    C5 4287   3.663   3.634  11.847  0.3184 -0.1996 -0.2230
  284MPD2     H 4288   4.038   3.617  11.864 -0.2715 -2.3299 -0.8388
  284MPD2    H1 4289   3.648   3.541  12.043 -1.2213 -1.2224 -1.0468
  284MPD2    H2 4290   3.684   3.751  11.679  0.6865  0.5408 -0.2088
  284MPD2    H3 4291   3.557   3.633  11.826  0.3843  1.0876 -0.6025
  284MPD2     N 4292   3.929   3.497  12.064 -0.5034  0.0883  0.1580
  284MPD2    H5 4293   4.030   3.495  12.056 -0.6303 -0.8912 -1.2219
  284MPD2    N1 4294   3.968   3.739  11.658 -0.3815  0.6782  0.4372
  284MPD2    H7 4295   4.056   3.688  11.660 -0.0424  1.3400  2.1090
  285TMC3    C1 4296   4.039   3.825  11.456 -0.2499  0.0686  0.4729
  285TMC3    C2 4297   4.093   3.700  11.441  0.2717 -0.5190 -0.3089
  285TMC3    C3 4298   4.219   3.702  11.387  0.4882 -0.1291  0.8295
  285TMC3    C4 4299   4.107   3.937  11.431 -0.1274 -0.1108 -0.6440
  285TMC3    C5 4300   4.217   3.933  11.354 -0.1110 -0.2483  0.6366
  285TMC3    C6 4301   4.275   3.815  11.339  0.4343 -1.7428  0.6100
  285TMC3     C 4302   3.942   3.833  11.560  0.0543 -0.5238 -0.1070
  285TMC3     O 4303   3.844   3.904  11.560 -0.6678  0.0210  0.2878
  285TMC3     H 4304   4.039   3.613  11.478  2.2904  0.0212  3.9223
  285TMC3    H1 4305   4.067   4.034  11.461 -1.1419 -0.4272 -0.9949
  285TMC3    H2 4306   4.356   3.808  11.267  1.1694  1.5452  1.1230
  285TMC3    C7 4307   4.294   4.050  11.385  0.2903  0.6965  0.5351
  285TMC3    C8 4308   4.253   3.576  11.324 -0.4654  0.9345  0.6563
  285TMC3    O1 4309   4.235   4.154  11.390  0.5681 -0.1914  0.0718
  285TMC3    O2 4310   4.158   3.519  11.272  0.1259 -0.4551  0.0118
  286MPD2     C 4311   3.412   2.177   1.441 -0.5126 -0.3025  0.2648
  286MPD2    C1 4312   3.543   2.215   1.462 -0.3079  0.0236 -0.5698
  286MPD2    C2 4313   3.645   2.120   1.439 -0.1149 -0.4320  0.4674
  286MPD2    C3 4314   3.605   1.997   1.387 -0.0425  0.2094 -0.5418
  286MPD2    C4 4315   3.477   1.955   1.374  0.8977 -0.2279 -0.3591
  286MPD2    C5 4316   3.382   2.049   1.402  0.2121  0.8256 -0.0382
  286MPD2     H 4317   3.747   2.152   1.455 -1.0980  2.0555  1.6952
  286MPD2    H1 4318   3.452   1.858   1.333 -1.5473 -0.8150  2.5327
  286MPD2    H2 4319   3.339   2.256   1.444  0.2055  0.3908 -0.5144
  286MPD2    H3 4320   3.280   2.017   1.382  0.9529 -0.1058 -2.2327
  286MPD2     N 4321   3.697   1.896   1.343  0.1549 -0.2352  0.6816
  286MPD2    H5 4322   3.666   1.803   1.318  0.8368 -1.0219  2.7918
  286MPD2    N1 4323   3.576   2.338   1.508  0.2631  0.3552  0.1785
  286MPD2    H7 4324   3.674   2.364   1.510  1.2871 -3.5388  1.2197
  287TMC3    C1 4325   3.892   1.774   1.308 -0.0576 -0.4835 -0.5897
  287TMC3    C2 4326   3.841   1.724   1.192  0.6164  0.3895  0.4292
  287TMC3    C3 4327   3.905   1.611   1.143  0.6588 -0.2907 -0.3205
  287TMC3    C4 4328   4.008   1.724   1.358 -0.9189  0.0782 -0.8082
  287TMC3    C5 4329   4.065   1.612   1.309  0.3520  0.3336 -0.1655
  287TMC3    C6 4330   4.017   1.550   1.199 -0.4643  0.0140 -0.6009
  287TMC3     C 4331   3.837   1.898   1.360  0.9509  0.1003 -0.1941
  287TMC3     O 4332   3.903   1.977   1.428  0.0266 -0.5450 -0.0045
  287TMC3     H 4333   3.749   1.762   1.149  0.7748  0.4819  0.1675
  287TMC3    H1 4334   4.055   1.782   1.437 -0.8921  1.3594 -1.7736
  287TMC3    H2 4335   4.052   1.459   1.153  0.3640 -0.3569  0.7618
  287TMC3    C7 4336   4.193   1.566   1.369  0.0399 -0.3257 -0.1079
  287TMC3    C8 4337   3.861   1.549   1.017 -0.1589  0.1841  0.3727
  287TMC3    O1 4338   4.198   1.572   1.494  0.2712  0.1929  0.1357
  287TMC3    O2 4339   3.937   1.484   0.948 -0.0914  0.3124  0.1700
  288TMC3    C1 4340   1.078   1.619  14.194  0.7888 -0.9699  0.2351
  288TMC3    C2 4341   1.055   1.691  14.309  0.3660  0.2671  0.3366
  288TMC3    C3 4342   0.926   1.699  14.358  0.7294  0.4605  0.6213
  288TMC3    C4 4343   0.974   1.549  14.140 -0.1354 -0.3459 -0.5404
  288TMC3    C5 4344   0.846   1.551  14.201  0.8198 -0.8614 -0.0482
  288TMC3    C6 4345   0.820   1.625  14.316  0.3940 -0.3770  0.0883
  288TMC3     C 4346   1.192   1.644  14.117  0.7314 -0.0419 -0.2861
  288TMC3     O 4347   1.178   1.626  13.997 -0.2859  0.2217  0.4931
  288TMC3     H 4348   1.131   1.762  14.341  0.2439  0.3789  0.3801
  288TMC3    H1 4349   0.985   1.501  14.044 -0.5707  2.8302 -2.2009
  288TMC3    H2 4350   0.721   1.646  14.357  0.9775  2.4698  0.0217
  288TMC3    C7 4351   0.740   1.467  14.145 -0.5807  0.3206 -0.0685
  288TMC3    C8 4352   0.914   1.757  14.490  0.1142  0.0231  0.5062
  288TMC3    O1 4353   0.629   1.513  14.165  0.1966  0.4273 -0.6689
  288TMC3    O2 4354   0.990   1.853  14.510  0.3817  0.4316  0.0655
  289MPD2     C 4355   1.194   0.886  14.240  0.5938 -0.5387  0.6283
  289MPD2    C1 4356   1.152   1.017  14.205 -0.1897  0.7143  0.5169
  289MPD2    C2 4357   1.023   1.049  14.235  1.1413 -0.1952 -0.3098
  289MPD2    C3 4358   0.941   0.955  14.298  0.2051 -0.1297 -0.3564
  289MPD2    C4 4359   0.979   0.826  14.308 -0.2859  0.0949 -0.1267
  289MPD2    C5 4360   1.116   0.792  14.294  0.2642 -0.1089  0.1429
  289MPD2     H 4361   0.981   1.147  14.219  0.5141 -0.9977 -3.5986
  289MPD2    H1 4362   0.916   0.746  14.344 -0.7000 -0.5561 -2.2947
  289MPD2    H2 4363   1.297   0.859  14.222  0.6009  0.4943 -0.8659
  289MPD2    H3 4364   1.149   0.690  14.313  1.2074  0.1427 -0.1516
  289MPD2     N 4365   0.806   0.978  14.334 -0.3227 -0.0221 -0.0984
  289MPD2    H5 4366   0.742   0.899  14.339  0.0388 -0.1641  1.9827
  289MPD2    N1 4367   1.247   1.097  14.132  0.4160  0.0918 -0.4183
  289MPD2    H7 4368   1.341   1.059  14.134  1.0087  1.6325  1.3383
  290TMC3    C1 4369   0.607   1.092  14.352  0.1931 -0.9387  0.4000
  290TMC3    C2 4370   0.530   1.200  14.309  0.7125  0.0788 -0.2704
  290TMC3    C3 4371   0.411   1.176  14.256  0.5255  0.4473 -0.0498
  290TMC3    C4 4372   0.557   0.967  14.361  0.2385 -0.0785 -0.7889
  290TMC3    C5 4373   0.434   0.945  14.323  0.1962  0.3683 -0.5448
  290TMC3    C6 4374   0.359   1.056  14.271 -0.0858  0.0125  0.5703
  290TMC3     C 4375   0.749   1.104  14.334  0.0083 -0.5909 -0.5912
  290TMC3     O 4376   0.792   1.218  14.338  0.3452 -0.4129 -0.2280
  290TMC3     H 4377   0.571   1.297  14.284 -1.3668  1.0383 -0.0187
  290TMC3    H1 4378   0.600   0.895  14.429 -5.0562 -0.4858  2.1108
  290TMC3    H2 4379   0.251   1.051  14.256 -0.2879 -0.4052  2.1978
  290TMC3    C7 4380   0.358   0.827  14.371 -0.0200  0.0812  0.3293
  290TMC3    C8 4381   0.321   1.284  14.213  0.2261 -0.2216  0.4495
  290TMC3    O1 4382   0.246   0.852  14.416  0.2759  0.4124 -0.2963
  290TMC3    O2 4383   0.217   1.249  14.157 -0.3785 -0.2139 -0.0719
  291MPD2     C 4384   0.907   0.507   0.739 -0.0551 -0.5415  0.6684
  291MPD2    C1 4385   0.881   0.450   0.621  0.8202  0.0325 -0.5743
  291MPD2    C2 4386   0.853   0.523   0.508 -0.0001 -0.0520  0.2297
  291MPD2    C3 4387   0.873   0.660   0.517 -0.0512  0.5650  0.1834
  291MPD2    C4 4388   0.904   0.724   0.637  0.0725  0.0491  0.2554
  291MPD2    C5 4389   0.926   0.644   0.747  0.5317  0.1963  0.1145
  291MPD2     H 4390   0.823   0.475   0.416  0.8623  1.5685 -0.9019
  291MPD2    H1 4391   0.928   0.828   0.658 -0.7815  0.8637 -2.8288
  291MPD2    H2 4392   0.909   0.452   0.832 -1.1267  2.3793  2.4169
  291MPD2    H3 4393   0.948   0.695   0.840  3.0241 -0.5148 -0.0746
  291MPD2     N 4394   0.850   0.742   0.405  0.2673  0.2990  0.3769
  291MPD2    H5 4395   0.881   0.836   0.426  0.4637  0.4599 -0.6046
  291MPD2    N1 4396   0.866   0.310   0.618 -0.7410  0.0910  0.9399
  291MPD2    H7 4397   0.819   0.273   0.536  1.2899 -0.1519 -0.1098
  292TMC3    C1 4398   0.816   0.113   0.743  0.5000  0.1048  0.0935
  292TMC3    C2 4399   0.842   0.026   0.846 -0.2831 -0.0035 -0.2409
  292TMC3    C3 4400   0.747   4.648   0.871  0.7376  0.2033  0.0824
  292TMC3    C4 4401   0.692   0.101   0.674  0.2832 -0.8539 -0.3717
  292TMC3    C5 4402   0.606   4.718   0.704  0.1831 -0.1200 -0.7316
  292TMC3    C6 4403   0.634   4.634   0.805  1.0128 -0.1874  0.0916
  292TMC3     C 4404   0.907   0.220   0.714 -0.1056 -0.6283 -0.0606
  292TMC3     O 4405   1.005   0.234   0.788 -0.0693 -0.2831  0.9744
  292TMC3     H 4406   0.931   0.042   0.906 -0.7578  0.4584  0.3521
  292TMC3    H1 4407   0.668   0.182   0.606 -3.0708 -1.4168  0.1400
  292TMC3    H2 4408   0.563   4.554   0.824 -0.3586  0.5792 -1.7208
  292TMC3    C7 4409   0.537   4.660   0.586  0.3663 -0.5198 -0.1931
  292TMC3    C8 4410   0.776   4.556   0.973  0.2371 -0.1067  0.1940
  292TMC3    O1 4411   0.566   4.694   0.474  0.4988 -0.3232  0.2772
  292TMC3    O2 4412   0.682   4.493   1.013 -0.0717  1.1101  0.5503
  293MPD2     C 4413   2.481   2.485  12.371 -0.3483 -0.2159  0.4130
  293MPD2    C1 4414   2.438   2.369  12.431  1.0383 -0.8538 -0.3823
  293MPD2    C2 4415   2.432   2.359  12.568 -0.6185  0.5595  0.3228
  293MPD2    C3 4416   2.488   2.456  12.654  0.6241 -0.1876 -0.4066
  293MPD2    C4 4417   2.544   2.569  12.593  0.0388 -0.4636  0.5615
  293MPD2    C5 4418   2.543   2.573  12.457 -0.0549  0.1734 -0.3182
  293MPD2     H 4419   2.392   2.270  12.615  0.5734 -0.9324 -1.4863
  293MPD2    H1 4420   2.592   2.652  12.642  1.3002 -0.5737 -0.5109
  293MPD2    H2 4421   2.486   2.515  12.267 -2.1135 -0.9138  0.1336
  293MPD2    H3 4422   2.592   2.659  12.411 -1.4154  0.8325 -0.5479
  293MPD2     N 4423   2.489   2.422  12.790 -0.5793 -0.1339 -0.3248
  293MPD2    H5 4424   2.460   2.328  12.817 -0.0033 -0.1653  0.1837
  293MPD2    N1 4425   2.397   2.266  12.350 -0.2654  0.1023 -0.7216
  293MPD2    H7 4426   2.410   2.282  12.250 -0.6723 -1.0513 -0.9579
  294TMC3    C1 4427   2.306   2.060  12.278  0.0490 -0.0468  0.6979
  294TMC3    C2 4428   2.206   1.974  12.305  0.2562 -0.1968  0.6032
  294TMC3    C3 4429   2.135   1.913  12.207  0.1968  0.1884  0.3286
  294TMC3    C4 4430   2.332   2.100  12.148 -0.8334 -0.3086  0.0709
  294TMC3    C5 4431   2.247   2.042  12.049 -0.5344  0.3953  0.5982
  294TMC3    C6 4432   2.157   1.938  12.076 -0.4896 -0.3475  0.6250
  294TMC3     C 4433   2.350   2.144  12.390 -0.0019  0.4222  0.1398
  294TMC3     O 4434   2.309   2.114  12.502 -0.1343  0.0560  0.0048
  294TMC3     H 4435   2.186   1.951  12.409 -1.4905  0.1435  0.3522
  294TMC3    H1 4436   2.390   2.187  12.121  0.4571 -1.5246 -1.0553
  294TMC3    H2 4437   2.100   1.882  12.002 -2.9475  2.0959  0.6511
  294TMC3    C7 4438   2.243   2.104  11.919 -0.2699  0.7856 -0.0047
  294TMC3    C8 4439   2.041   1.807  12.254 -0.8295  0.1667 -0.6020
  294TMC3    O1 4440   2.343   2.154  11.873  0.0159 -0.3417 -0.5058
  294TMC3    O2 4441   2.005   1.817  12.373 -0.3236 -0.2625 -0.5286
  295MPD2     C 4442   3.282   0.724   0.852  0.5302 -0.9074 -0.6680
  295MPD2    C1 4443   3.190   0.827   0.870 -0.7622  0.1142  0.4932
  295MPD2    C2 4444   3.186   0.891   0.991 -0.0498  0.5698 -0.5994
  295MPD2    C3 4445   3.267   0.850   1.099 -0.5863 -0.5630 -0.3400
  295MPD2    C4 4446   3.363   0.749   1.080  0.4811 -0.3567 -0.0270
  295MPD2    C5 4447   3.367   0.697   0.948  0.2848 -0.6051  0.2364
  295MPD2     H 4448   3.117   0.973   1.006 -1.0190 -0.7462  2.0203
  295MPD2    H1 4449   3.422   0.700   1.157  0.3814  1.2966  1.0960
  295MPD2    H2 4450   3.310   0.686   0.755 -0.4855 -2.3541 -0.3964
  295MPD2    H3 4451   3.436   0.616   0.926 -0.2354 -1.1704  0.7046
  295MPD2     N 4452   3.252   0.910   1.222 -0.1405 -0.2884  0.7924
  295MPD2    H5 4453   3.303   0.868   1.299  2.4681  0.4828 -0.5147
  295MPD2    N1 4454   3.107   0.862   0.764 -0.1259  0.0126  0.3288
  295MPD2    H7 4455   3.142   0.831   0.674  0.7744 -1.2334  1.1211
  296TMC3    C1 4456   3.150   1.052   1.393 -0.2540 -0.3847 -0.3506
  296TMC3    C2 4457   3.093   1.173   1.420  0.2083  0.1566 -0.2101
  296TMC3    C3 4458   3.045   1.184   1.548 -0.2031  0.1189  0.1398
  296TMC3    C4 4459   3.170   0.951   1.485 -0.2647  0.3165 -0.0265
  296TMC3    C5 4460   3.137   0.984   1.611  0.1849 -0.8545  0.3711
  296TMC3    C6 4461   3.070   1.092   1.641 -0.3286  0.4119 -0.0243
  296TMC3     C 4462   3.198   1.036   1.250  0.2719 -0.1364  0.5350
  296TMC3     O 4463   3.163   1.124   1.174  0.0785 -0.4644 -0.5667
  296TMC3     H 4464   3.087   1.256   1.349 -0.5550 -0.1945 -0.5590
  296TMC3    H1 4465   3.224   0.863   1.453 -0.3313 -0.0199  0.7991
  296TMC3    H2 4466   3.045   1.109   1.745 -0.6083  0.8337 -0.1633
  296TMC3    C7 4467   3.164   0.905   1.723  0.2982 -0.3410  0.2455
  296TMC3    C8 4468   2.964   1.305   1.583  0.0587  0.1565 -0.6118
  296TMC3    O1 4469   3.134   0.946   1.835  0.3802  1.0805 -0.1615
  296TMC3    O2 4470   2.972   1.341   1.700  0.4327  0.3850  0.1480
  297MPD2     C 4471   0.233   2.847  16.897 -0.5843  0.3465  0.0067
  297MPD2    C1 4472   0.217   2.838  16.759 -0.0646  0.1141  0.5421
  297MPD2    C2 4473   0.231   2.951  16.675 -0.3639  0.4765 -1.1309
  297MPD2    C3 4474   0.255   3.075  16.737 -0.6187  0.1050  0.1895
  297MPD2    C4 4475   0.263   3.083  16.871  0.0815 -0.3240  0.4011
  297MPD2    C5 4476   0.248   2.971  16.948 -0.1595 -0.1949  0.4715
  297MPD2     H 4477   0.236   2.923  16.570 -0.0523 -3.2191 -0.1425
  297MPD2    H1 4478   0.283   3.181  16.912  2.8365 -1.6908  2.3071
  297MPD2    H2 4479   0.222   2.765  16.967 -0.3654  1.9361  1.8665
  297MPD2    H3 4480   0.257   2.990  17.054  1.5113 -0.0210  0.2963
  297MPD2     N 4481   0.269   3.197  16.675  0.6211  0.0669 -0.6757
  297MPD2    H5 4482   0.295   3.274  16.735  0.9571 -1.3874  1.0302
  297MPD2    N1 4483   0.185   2.719  16.699  0.2751  0.3383  0.5759
  297MPD2    H7 4484   0.161   2.730  16.601  0.1549 -1.1785  0.4362
  298TMC3    C1 4485   0.085   2.506  16.669 -0.1252 -0.4355  0.2866
  298TMC3    C2 4486   0.078   2.536  16.533  0.3192 -0.9473  0.0484
  298TMC3    C3 4487   4.685   2.500  16.475 -0.9457  0.3084 -0.3276
  298TMC3    C4 4488   4.701   2.443  16.739  0.0741 -0.7800  0.0635
  298TMC3    C5 4489   4.581   2.423  16.675  0.0551 -0.2244  0.3702
  298TMC3    C6 4490   4.581   2.436  16.540  0.0071 -0.0685 -0.6231
  298TMC3     C 4491   0.161   2.596  16.750  0.6216  0.5000 -0.1726
  298TMC3     O 4492   0.188   2.558  16.860  0.1898 -0.2885  0.1205
  298TMC3     H 4493   0.161   2.582  16.481 -1.1149  1.9177  0.2804
  298TMC3    H1 4494   4.689   2.437  16.847  0.9282 -1.0963  0.1342
  298TMC3    H2 4495   4.492   2.408  16.486 -0.2193 -0.6221  0.0471
  298TMC3    C7 4496   4.490   2.522  16.735 -0.6922 -0.5976  0.0653
  298TMC3    C8 4497   4.653   2.546  16.335  0.0099 -0.2842  0.0305
  298TMC3    O1 4498   4.528   2.576  16.840 -0.7597 -0.5260 -0.4402
  298TMC3    O2 4499   4.539   2.532  16.288  0.3351 -0.5677  0.0575
  299MPD2     C 4500   0.749   2.325  11.178  0.3536  0.2134  0.0155
  299MPD2    C1 4501   0.742   2.452  11.122  0.0553 -0.5988  0.0344
  299MPD2    C2 4502   0.686   2.470  11.000 -0.0903  0.1413  0.0887
  299MPD2    C3 4503   0.635   2.370  10.919 -0.0520 -0.2324 -0.1769
  299MPD2    C4 4504   0.642   2.247  10.976  0.8371 -0.1287 -0.7425
  299MPD2    C5 4505   0.701   2.221  11.099 -0.1390 -0.1321  0.2517
  299MPD2     H 4506   0.685   2.574  10.967 -0.1368  0.4381  1.0004
  299MPD2    H1 4507   0.598   2.158  10.932  0.5027  0.0426 -0.7547
  299MPD2    H2 4508   0.791   2.292  11.273 -0.2784 -1.3824 -0.2550
  299MPD2    H3 4509   0.705   2.119  11.136  1.4824 -1.2860 -3.0571
  299MPD2     N 4510   0.574   2.390  10.794 -0.4367 -0.1136  0.4832
  299MPD2    H5 4511   0.555   2.310  10.734  0.0984  1.4359 -1.7353
  299MPD2    N1 4512   0.785   2.547  11.215 -0.3867 -0.7135 -0.1185
  299MPD2    H7 4513   0.841   2.512  11.292 -0.5917  0.7765  0.7040
  300TMC3    C1 4514   0.414   2.484  10.661  0.7276 -0.2668  0.0549
  300TMC3    C2 4515   0.383   2.583  10.574  0.0148  0.2443 -0.5931
  300TMC3    C3 4516   0.275   2.559  10.496  0.5212  0.1390  0.1720
  300TMC3    C4 4517   0.336   2.372  10.677  0.1307  0.5738 -0.9397
  300TMC3    C5 4518   0.223   2.358  10.601  0.0808 -0.5199 -0.1676
  300TMC3    C6 4519   0.195   2.448  10.504  0.3601  0.2459 -0.0843
  300TMC3     C 4520   0.517   2.507  10.755 -0.1295 -0.5616  0.3139
  300TMC3     O 4521   0.539   2.617  10.799  0.6919 -0.2892  0.0292
  300TMC3     H 4522   0.439   2.675  10.564 -0.0291  0.4085  0.7617
  300TMC3    H1 4523   0.341   2.313  10.767 -1.4355  1.1552 -0.4786
  300TMC3    H2 4524   0.099   2.437  10.455 -1.3667 -0.6590  3.4794
  300TMC3    C7 4525   0.112   2.315  10.679 -0.0367 -0.0543  0.7182
  300TMC3    C8 4526   0.226   2.652  10.393 -0.0616  0.4551 -0.2077
  300TMC3    O1 4527   0.124   2.201  10.727 -0.0589 -0.1160 -0.1471
  300TMC3    O2 4528   0.266   2.765  10.408 -0.4130 -0.2805 -0.2044
  301MPD2     C 4529   3.872   4.089   1.274 -0.3151  0.2258 -0.4479
  301MPD2    C1 4530   3.804   4.036   1.163 -0.2210 -0.0116  1.0795
  301MPD2    C2 4531   3.798   3.901   1.142  0.3938 -0.9462  0.0541
  301MPD2    C3 4532   3.864   3.814   1.227  0.0800  0.0014  0.1661
  301MPD2    C4 4533   3.938   3.865   1.331  0.2595 -0.3681  0.4233
  301MPD2    C5 4534   3.942   3.998   1.354 -0.3321 -0.2945  0.4951
  301MPD2     H 4535   3.735   3.874   1.059 -0.5873 -3.0981  1.5026
  301MPD2    H1 4536   3.995   3.805   1.402  1.0606 -2.2569 -1.8226
  301MPD2    H2 4537   3.878   4.197   1.281  0.1949  0.0583  1.9816
  301MPD2    H3 4538   4.007   4.036   1.431 -0.0920  0.3290 -0.0099
  301MPD2     N 4539   3.875   3.674   1.197  0.3680 -0.3893  0.4566
  301MPD2    H5 4540   3.929   3.610   1.255  3.1073  0.8611 -0.7116
  301MPD2    N1 4541   3.715   4.107   1.093 -0.2093  0.7950 -0.3258
  301MPD2    H7 4542   3.674   4.062   1.012  0.0569  1.2504 -0.7125
  302TMC3    C1 4543   3.754   3.497   1.100 -0.5751 -0.4789 -0.2898
  302TMC3    C2 4544   3.733   3.451   1.230 -0.4407 -0.3353  0.1699
  302TMC3    C3 4545   3.628   3.373   1.252  0.2750 -0.3511  0.2752
  302TMC3    C4 4546   3.671   3.459   1.001  0.4886 -0.2759 -0.3574
  302TMC3    C5 4547   3.568   3.374   1.025 -0.8766  0.5809 -0.1208
  302TMC3    C6 4548   3.537   3.339   1.153 -0.7640  1.0912  0.2167
  302TMC3     C 4549   3.831   3.618   1.082  0.3079 -0.0590 -0.5209
  302TMC3     O 4550   3.811   3.678   0.976  0.2194  0.1074 -0.7387
  302TMC3     H 4551   3.800   3.473   1.312 -1.1347 -0.3883  0.7464
  302TMC3    H1 4552   3.689   3.486   0.897  0.8781  1.3240  0.1312
  302TMC3    H2 4553   3.455   3.271   1.172  1.1268 -1.5484 -1.1135
  302TMC3    C7 4554   3.469   3.368   0.924 -0.0833 -0.5277  0.0725
  302TMC3    C8 4555   3.626   3.307   1.377  0.4075  0.5999  0.1591
  302TMC3    O1 4556   3.521   3.390   0.811  0.3295 -0.2383  0.0263
  302TMC3    O2 4557   3.729   3.307   1.442 -0.8264  0.2169 -0.8297
  303MPD2     C 4558   2.986   1.430  10.274 -0.6107  0.2700  1.2750
  303MPD2    C1 4559   2.856   1.408  10.233  0.1983 -0.3935  0.4298
  303MPD2    C2 4560   2.818   1.426  10.097  0.2694 -0.0437  0.1204
  303MPD2    C3 4561   2.914   1.459  10.001 -0.6004 -0.3774  0.2343
  303MPD2    C4 4562   3.043   1.489  10.048  0.0702 -0.0114 -0.3236
  303MPD2    C5 4563   3.080   1.475  10.181  0.1155  0.2120 -0.5835
  303MPD2     H 4564   2.716   1.402  10.070  0.0633 -0.4340  1.2258
  303MPD2    H1 4565   3.121   1.527   9.983 -0.5658  1.1198 -0.4214
  303MPD2    H2 4566   3.012   1.417  10.379  0.0382  1.9205  1.3211
  303MPD2    H3 4567   3.182   1.497  10.210 -0.0527  0.7356 -0.3916
  303MPD2     N 4568   2.896   1.465   9.861  0.3126 -0.5102 -0.0923
  303MPD2    H5 4569   2.969   1.500   9.800  1.9228 -1.3557  1.3729
  303MPD2    N1 4570   2.766   1.388  10.343 -0.2477 -0.0555 -1.0393
  303MPD2    H7 4571   2.814   1.357  10.426  0.6414 -1.5687 -2.1214
  304TMC3    C1 4572   2.569   1.359  10.474  0.7438  0.4092 -0.3001
  304TMC3    C2 4573   2.442   1.415  10.490 -0.6238 -0.1686  0.2328
  304TMC3    C3 4574   2.342   1.339  10.545 -0.6656  0.6400  0.5530
  304TMC3    C4 4575   2.593   1.231  10.521 -0.5597 -1.0708  0.1476
  304TMC3    C5 4576   2.499   1.167  10.598 -0.7772 -0.8521 -0.2316
  304TMC3    C6 4577   2.380   1.227  10.610  0.3112 -0.2100 -0.3514
  304TMC3     C 4578   2.627   1.394  10.346  0.9406 -0.0531 -0.2276
  304TMC3     O 4579   2.553   1.436  10.261  0.3302  0.1591 -0.5156
  304TMC3     H 4580   2.420   1.502  10.430 -3.1940 -0.9653  0.0206
  304TMC3    H1 4581   2.684   1.177  10.496 -0.1263  0.3123 -1.2748
  304TMC3    H2 4582   2.303   1.187  10.675  1.5632  1.3223  2.0986
  304TMC3    C7 4583   2.501   1.020  10.575 -0.1881 -0.1617 -0.2311
  304TMC3    C8 4584   2.237   1.310  10.447 -0.4402 -0.2854 -0.2909
  304TMC3    O1 4585   2.610   0.967  10.554  0.3221 -0.2267 -0.1046
  304TMC3    O2 4586   2.249   1.196  10.405  0.4641 -0.4840 -0.4808
  305MPD2     C 4587   0.934   4.407  13.973 -0.3852 -0.1650 -0.0144
  305MPD2    C1 4588   0.956   4.274  13.995  0.5537  0.1387  0.2809
  305MPD2    C2 4589   0.956   4.184  13.888  0.1401  0.0515 -0.1199
  305MPD2    C3 4590   0.930   4.236  13.762 -0.2371 -0.2875  0.0072
  305MPD2    C4 4591   0.908   4.368  13.737  0.6706 -0.1102  0.2987
  305MPD2    C5 4592   0.909   4.450  13.845 -0.3497  0.0844  0.2321
  305MPD2     H 4593   0.993   4.083  13.903  0.7583  0.9768  4.5779
  305MPD2    H1 4594   0.900   4.410  13.637 -3.0251  0.1949  0.7273
  305MPD2    H2 4595   0.946   4.474  14.057 -0.5573 -0.9328  0.6247
  305MPD2    H3 4596   0.885   4.555  13.837  1.2694  0.3479 -1.0878
  305MPD2     N 4597   0.929   4.154  13.649 -0.3338 -0.1259 -0.3414
  305MPD2    H5 4598   0.915   4.208  13.564  3.0297  0.5323 -0.4569
  305MPD2    N1 4599   0.997   4.234  14.126 -0.1337 -0.3281  0.6070
  305MPD2    H7 4600   1.009   4.311  14.191  2.3987 -1.4964  1.5214
  306TMC3    C1 4601   1.111   4.118  14.306  0.6969  0.8177 -0.1657
  306TMC3    C2 4602   1.218   4.033  14.333  0.6361 -0.5015 -0.2579
  306TMC3    C3 4603   1.271   4.030  14.458 -0.4890 -0.3429  0.0486
  306TMC3    C4 4604   1.056   4.195  14.405  0.2332  0.2784  0.1613
  306TMC3    C5 4605   1.116   4.199  14.527  0.1729  0.1493 -0.2205
  306TMC3    C6 4606   1.227   4.119  14.558 -0.1524  0.1352 -0.6425
  306TMC3     C 4607   1.053   4.115  14.163  0.3614 -0.1616  0.1768
  306TMC3     O 4608   1.073   4.014  14.093 -0.0775 -0.2349 -0.0515
  306TMC3     H 4609   1.257   3.969  14.255 -1.9492 -0.0012 -1.9277
  306TMC3    H1 4610   0.974   4.261  14.379 -0.9248 -2.5044 -3.2594
  306TMC3    H2 4611   1.255   4.101  14.661 -2.5588  1.8380  0.3322
  306TMC3    C7 4612   1.056   4.288  14.622  0.3672  0.7778  0.0309
  306TMC3    C8 4613   1.390   3.949  14.487  0.1315 -0.0622  0.1739
  306TMC3    O1 4614   0.930   4.303  14.623  0.7457 -0.3109 -0.0799
  306TMC3    O2 4615   1.399   3.840  14.435  0.3986 -0.0718  0.5444
  307MPD2     C 4616   3.406   1.858   0.518 -0.2679 -0.1025  0.4861
  307MPD2    C1 4617   3.406   1.976   0.452 -0.1513  0.1099  0.1581
  307MPD2    C2 4618   3.356   2.082   0.525  0.4096 -0.4272 -0.1089
  307MPD2    C3 4619   3.310   2.071   0.656  0.3082 -0.6310  0.0331
  307MPD2    C4 4620   3.326   1.951   0.722  1.1178  0.9881 -0.4941
  307MPD2    C5 4621   3.368   1.842   0.650 -0.0061  0.5142  0.1287
  307MPD2     H 4622   3.364   2.185   0.492  2.1126 -0.8183 -0.9153
  307MPD2    H1 4623   3.319   1.937   0.829 -1.1377  1.1501 -0.6203
  307MPD2    H2 4624   3.441   1.768   0.470 -0.6246 -0.2973  0.5905
  307MPD2    H3 4625   3.381   1.747   0.700 -0.3557  1.0395  1.2021
  307MPD2     N 4626   3.272   2.189   0.717 -0.0577 -0.4005  0.3457
  307MPD2    H5 4627   3.255   2.266   0.653  0.4660 -0.0794  0.5988
  307MPD2    N1 4628   3.449   1.990   0.319  0.0789 -0.2431  0.0693
  307MPD2    H7 4629   3.424   2.082   0.283  1.7157 -0.2321 -1.0142
  308TMC3    C1 4630   3.126   2.539   0.860 -0.7729 -0.6001  0.2167
  308TMC3    C2 4631   3.199   2.602   0.952 -0.1866  0.3793 -0.0018
  308TMC3    C3 4632   3.297   2.539   1.016  0.1357 -0.3608 -0.5225
  308TMC3    C4 4633   3.143   2.408   0.820  0.4754 -0.1899 -0.3497
  308TMC3    C5 4634   3.241   2.344   0.891  0.3309 -0.2494  0.4135
  308TMC3    C6 4635   3.316   2.401   0.995  0.8044  0.7845  0.2327
  308TMC3     C 4636   3.085   2.631   0.760  0.3283 -0.2417 -0.2151
  308TMC3     O 4637   3.174   2.710   0.733 -0.0885  0.2572 -0.4160
  308TMC3     H 4638   3.175   2.705   0.976 -1.0630 -0.5145  2.8792
  308TMC3    H1 4639   3.081   2.362   0.745  0.8500 -0.8590 -0.2473
  308TMC3    H2 4640   3.387   2.338   1.046  1.0843 -0.0633 -1.2045
  308TMC3    C7 4641   3.265   2.205   0.856 -0.3785  0.1611 -0.0523
  308TMC3    C8 4642   3.417   2.621   1.012 -0.0378 -0.5100  0.1071
  308TMC3    O1 4643   3.319   2.133   0.941  0.0463 -0.6023  0.1268
  308TMC3    O2 4644   3.514   2.590   1.080  0.0252 -0.0203  0.1341
  309MPD2     C 4645   2.672   2.687  17.034  0.4195  0.1788  0.4316
  309MPD2    C1 4646   2.643   2.795  16.958  0.1063 -0.2838  0.0023
  309MPD2    C2 4647   2.526   2.861  16.974 -0.2037  0.6764 -0.6777
  309MPD2    C3 4648   2.424   2.817  17.048  0.3001 -0.4893  0.2257
  309MPD2    C4 4649   2.439   2.694  17.110 -0.0850  0.1336  0.4160
  309MPD2    C5 4650   2.565   2.636  17.105 -0.3808  0.7220  0.2951
  309MPD2     H 4651   2.523   2.954  16.918  0.3224  0.5411 -0.9266
  309MPD2    H1 4652   2.361   2.665  17.178  0.9949  0.8018  1.9427
  309MPD2    H2 4653   2.767   2.636  17.022  0.2589 -0.3626  1.4373
  309MPD2    H3 4654   2.590   2.544  17.155  0.9429  1.0322  0.2052
  309MPD2     N 4655   2.299   2.889  17.070 -0.7065 -0.8394  0.1299
  309MPD2    H5 4656   2.235   2.863  17.144 -1.5678 -2.0289 -1.0176
  309MPD2    N1 4657   2.729   2.842  16.857 -0.1063 -1.2319 -0.0115
  309MPD2    H7 4658   2.708   2.920  16.795  2.6829 -1.2030 -0.9377
  310TMC3    C1 4659   2.916   2.861  16.716 -0.2801 -0.6245  0.1256
  310TMC3    C2 4660   2.836   2.898  16.607  0.1510 -0.1159  0.2269
  310TMC3    C3 4661   2.893   2.901  16.481 -0.1100  0.4999 -0.3629
  310TMC3    C4 4662   3.054   2.842  16.700  0.0981 -0.5024  0.3853
  310TMC3    C5 4663   3.106   2.837  16.571  0.4590 -0.2713 -0.4135
  310TMC3    C6 4664   3.027   2.874  16.463 -1.3734 -0.1914 -0.0169
  310TMC3     C 4665   2.856   2.801  16.833 -0.0997  0.3347 -0.9563
  310TMC3     O 4666   2.928   2.721  16.893 -0.6518  0.0471  0.3506
  310TMC3     H 4667   2.730   2.916  16.615 -0.1091 -1.7279  0.5350
  310TMC3    H1 4668   3.118   2.816  16.784 -0.9866  0.2494  1.4465
  310TMC3    H2 4669   3.062   2.855  16.362  0.3074 -1.8912  0.8805
  310TMC3    C7 4670   3.198   2.726  16.554 -0.2128  0.0327 -0.4220
  310TMC3    C8 4671   2.821   2.976  16.381 -0.4113  0.0715  0.0871
  310TMC3    O1 4672   3.228   2.656  16.649  0.4469  0.1120  0.2820
  310TMC3    O2 4673   2.708   3.014  16.409  0.2284 -0.3259 -0.4258
  311MPD2     C 4674   0.085   3.797  12.532 -0.0674  0.0757  0.6351
  311MPD2    C1 4675   0.106   3.896  12.622  1.1478  0.1981 -0.2811
  311MPD2    C2 4676   4.712   3.938  12.687  0.1685 -0.0906 -0.2016
  311MPD2    C3 4677   4.588   3.875  12.680 -1.1626 -0.4311 -0.1348
  311MPD2    C4 4678   4.576   3.764  12.596  0.2006 -0.6611 -0.2839
  311MPD2    C5 4679   4.684   3.729  12.520  0.1352 -0.0369  0.2896
  311MPD2     H 4680   0.008   4.019  12.759 -3.4861 -0.1699  0.6491
  311MPD2    H1 4681   4.480   3.714  12.582 -0.5494  0.7853 -0.2717
  311MPD2    H2 4682   0.160   3.753  12.467 -1.0045 -0.0466 -0.3666
  311MPD2    H3 4683   4.679   3.650  12.446  0.4343  0.9438 -0.7718
  311MPD2     N 4684   4.484   3.919  12.768 -0.3376  0.4221 -0.7228
  311MPD2    H5 4685   4.506   3.993  12.835  0.5783  1.0449 -1.7186
  311MPD2    N1 4686   0.228   3.963  12.637  0.3741  0.6358 -0.2087
  311MPD2    H7 4687   0.237   4.043  12.698 -0.4206  1.2421 -0.8840
  312TMC3    C1 4688   4.294   3.887  12.909 -0.3892 -0.1211 -0.2660
  312TMC3    C2 4689   4.160   3.875  12.911  0.1419  0.2647  0.2096
  312TMC3    C3 4690   4.095   3.843  13.029 -0.1478 -0.7877  0.8038
  312TMC3    C4 4691   4.368   3.842  13.013  0.2533  0.0327 -0.3632
  312TMC3    C5 4692   4.297   3.811  13.130 -0.3047 -0.5038  0.1429
  312TMC3    C6 4693   4.158   3.802  13.146 -0.2830 -0.0495  0.2218
  312TMC3     C 4694   4.355   3.864  12.776  0.0369 -0.3874  0.1977
  312TMC3     O 4695   4.297   3.790  12.699  0.1250 -0.4353  0.0434
  312TMC3     H 4696   4.105   3.877  12.817  0.2031  2.3112  0.2218
  312TMC3    H1 4697   4.475   3.834  13.002  0.2071 -0.2008 -0.6446
  312TMC3    H2 4698   4.103   3.775  13.236 -1.3858  0.7662 -0.2043
  312TMC3    C7 4699   4.386   3.795  13.242 -0.4245  0.5866 -0.9038
  312TMC3    C8 4700   3.948   3.865  13.047  0.5624 -0.5134  0.8596
  312TMC3    O1 4701   4.501   3.830  13.217  0.2034 -0.6842 -0.1363
  312TMC3    O2 4702   3.885   3.805  13.132  0.6637  0.7318  0.0301
  313MPD2     C 4703   4.265   3.178  10.587  0.5088  0.0105  0.1176
  313MPD2    C1 4704   4.138   3.217  10.616  0.3107  0.0144  0.0596
  313MPD2    C2 4705   4.033   3.138  10.581 -0.0114  0.1103  0.9955
  313MPD2    C3 4706   4.047   3.024  10.500  0.3420 -0.4327 -0.5750
  313MPD2    C4 4707   4.177   2.978  10.475 -0.2314 -0.0184  0.1781
  313MPD2    C5 4708   4.281   3.065  10.513  0.1809 -0.1887  0.7268
  313MPD2     H 4709   3.929   3.170  10.587  0.0016  0.1331  1.0995
  313MPD2    H1 4710   4.203   2.890  10.417  0.9370 -0.4108  1.2901
  313MPD2    H2 4711   4.350   3.241  10.613  1.1582 -0.1455 -1.6139
  313MPD2    H3 4712   4.382   3.036  10.487  0.7239  1.2281  1.2500
  313MPD2     N 4713   3.939   2.951  10.458  0.0227  0.3004 -0.1185
  313MPD2    H5 4714   3.857   2.955  10.517 -0.5718 -2.5197 -0.7271
  313MPD2    N1 4715   4.105   3.340  10.689  0.3357  0.9938 -0.4195
  313MPD2    H7 4716   4.005   3.359  10.693 -0.0985 -1.1990 -1.4309
  314TMC3    C1 4717   4.128   3.557  10.792  0.2937 -0.1252 -0.4447
  314TMC3    C2 4718   4.221   3.631  10.868  0.0641  0.0823  0.0407
  314TMC3    C3 4719   4.210   3.768  10.851  0.1041 -0.3704 -0.4106
  314TMC3    C4 4720   4.035   3.604  10.708  0.8999 -0.2271  0.0970
  314TMC3    C5 4721   4.032   3.738  10.693  0.1593  0.1662  0.7793
  314TMC3    C6 4722   4.115   3.823  10.767  0.0919 -0.0865 -0.2404
  314TMC3     C 4723   4.188   3.425  10.758 -0.0804 -0.0650 -0.0360
  314TMC3     O 4724   4.307   3.410  10.783  0.4827  0.2937 -0.1192
  314TMC3     H 4725   4.298   3.591  10.932 -1.9305 -0.1549  2.2806
  314TMC3    H1 4726   3.963   3.553  10.645  1.1161 -1.3144  0.7364
  314TMC3    H2 4727   4.117   3.929  10.745  2.7621  0.0135  0.4630
  314TMC3    C7 4728   4.017   3.791  10.559  0.2478  0.7300  0.5823
  314TMC3    C8 4729   4.296   3.859  10.919  0.1803  0.4771 -0.7919
  314TMC3    O1 4730   4.016   3.714  10.466  0.3910  0.3514  0.1548
  314TMC3    O2 4731   4.271   3.980  10.921  0.1237 -0.4725 -0.2291
  315MPD2     C 4732   3.697   2.593   0.360  0.3092 -0.5203  0.2671
  315MPD2    C1 4733   3.732   2.635   0.491 -0.2658  0.2783 -0.8476
  315MPD2    C2 4734   3.808   2.746   0.520  0.3709 -0.7424 -0.2488
  315MPD2    C3 4735   3.851   2.823   0.411 -0.2622 -0.0969 -0.4489
  315MPD2    C4 4736   3.809   2.794   0.288 -0.2866  0.4699 -0.2901
  315MPD2    C5 4737   3.743   2.677   0.261 -0.6917 -0.2124 -0.0722
  315MPD2     H 4738   3.834   2.770   0.622  1.7527  1.4588 -1.1014
  315MPD2    H1 4739   3.844   2.848   0.200 -0.7995  2.6839  0.8529
  315MPD2    H2 4740   3.613   2.529   0.338  0.5536 -0.3945 -1.0854
  315MPD2    H3 4741   3.712   2.652   0.160 -0.8841 -1.7689  0.3720
  315MPD2     N 4742   3.958   2.915   0.438  0.0890  0.3579 -0.0736
  315MPD2    H5 4743   3.999   2.908   0.530 -1.7434 -1.4960  0.6232
  315MPD2    N1 4744   3.694   2.560   0.605 -0.6790  0.8254 -0.0401
  315MPD2    H7 4745   3.739   2.583   0.693  2.2300 -0.1928 -1.2659
  316TMC3    C1 4746   4.145   3.030   0.363 -0.0818 -0.3552 -0.4508
  316TMC3    C2 4747   4.214   2.971   0.466  0.5098 -0.2105  0.4622
  316TMC3    C3 4748   4.349   3.003   0.479 -0.3221  0.0899  0.7031
  316TMC3    C4 4749   4.209   3.105   0.273 -0.4040 -0.4990  0.4058
  316TMC3    C5 4750   4.343   3.139   0.286 -0.4881 -0.0108 -0.2140
  316TMC3    C6 4751   4.415   3.090   0.395  0.2845 -0.1624 -1.0069
  316TMC3     C 4752   4.010   2.998   0.342 -0.8319  0.1632 -0.4391
  316TMC3     O 4753   3.959   3.029   0.235 -0.5991 -0.1415  0.8312
  316TMC3     H 4754   4.159   2.925   0.547 -1.5324 -1.3071 -1.5702
  316TMC3    H1 4755   4.145   3.154   0.201  0.4465 -2.2867 -1.5536
  316TMC3    H2 4756   4.510   3.140   0.402 -0.5315  0.7518  4.2018
  316TMC3    C7 4757   4.406   3.235   0.198  0.3454  0.0271 -0.3075
  316TMC3    C8 4758   4.430   2.950   0.582 -0.1095  0.4578  0.2629
  316TMC3    O1 4759   4.489   3.304   0.252 -0.6890 -0.2862 -0.2338
  316TMC3    O2 4760   4.529   3.019   0.598  0.0038 -0.0977  0.4102
  317MPD2     C 4761   1.252   1.011  12.929  0.6122 -0.8758  0.1609
  317MPD2    C1 4762   1.300   0.926  12.842  0.8608 -0.5473  0.4647
  317MPD2    C2 4763   1.365   0.810  12.892 -0.0563 -0.0462  0.0948
  317MPD2    C3 4764   1.389   0.799  13.025 -0.2933 -0.5423 -0.5201
  317MPD2    C4 4765   1.349   0.898  13.110 -0.0048 -0.3720 -1.2753
  317MPD2    C5 4766   1.266   1.002  13.062  0.4807 -0.3956 -0.7909
  317MPD2     H 4767   1.400   0.736  12.821  0.9733 -1.0272  1.6413
  317MPD2    H1 4768   1.357   0.880  13.217  0.2398 -1.4053 -1.4626
  317MPD2    H2 4769   1.165   1.066  12.896  0.5941 -0.5018  0.8312
  317MPD2    H3 4770   1.210   1.059  13.136  1.2709 -0.7734  0.1062
  317MPD2     N 4771   1.466   0.688  13.058 -0.0964 -0.5194 -0.0952
  317MPD2    H5 4772   1.458   0.612  12.992 -1.6709  0.2351 -0.7744
  317MPD2    N1 4773   1.283   0.931  12.700 -0.3307  0.5836 -0.0643
  317MPD2    H7 4774   1.341   0.864  12.652  1.8925  2.8524 -0.4934
  318TMC3    C1 4775   1.547   0.532  13.212  0.1239  0.2958  0.4935
  318TMC3    C2 4776   1.448   0.445  13.188 -0.3477 -0.1942 -0.1626
  318TMC3    C3 4777   1.471   0.310  13.198  0.3644 -0.2008  0.3801
  318TMC3    C4 4778   1.666   0.501  13.265  0.2857  0.0078 -0.2485
  318TMC3    C5 4779   1.684   0.365  13.299  0.1195 -0.8705  0.0302
  318TMC3    C6 4780   1.591   0.273  13.257 -0.1517 -0.0887 -0.7028
  318TMC3     C 4781   1.520   0.668  13.181 -0.6530 -0.4045  0.0828
  318TMC3     O 4782   1.555   0.754  13.262 -0.0131 -0.3570  0.4789
  318TMC3     H 4783   1.352   0.491  13.165 -0.2127  0.9347  1.5774
  318TMC3    H1 4784   1.736   0.578  13.296  1.8270 -2.2227  1.7941
  318TMC3    H2 4785   1.614   0.168  13.265  3.3439  0.6898 -0.5824
  318TMC3    C7 4786   1.800   0.298  13.348  0.7096  0.7776 -0.0956
  318TMC3    C8 4787   1.367   0.210  13.181 -0.2955  0.0040  0.5394
  318TMC3    O1 4788   1.782   0.214  13.430 -0.1230  0.3923  0.1426
  318TMC3    O2 4789   1.397   0.088  13.189 -0.5574  0.0114 -0.1106
  319MPD2     C 4790   2.176   2.447  16.673  0.2760  0.2333 -0.1121
  319MPD2    C1 4791   2.075   2.378  16.739 -0.1209  0.0467  0.2848
  319MPD2    C2 4792   1.988   2.313  16.655 -0.2779 -0.1730 -0.0558
  319MPD2    C3 4793   1.999   2.315  16.517  0.3613  0.7016  0.0780
  319MPD2    C4 4794   2.116   2.367  16.462 -0.4594 -0.9240 -0.2251
  319MPD2    C5 4795   2.207   2.426  16.544 -0.6163  0.3303  0.0594
  319MPD2     H 4796   1.897   2.270  16.697  0.2992 -1.1539  0.1886
  319MPD2    H1 4797   2.144   2.359  16.358  0.1885  0.4782 -0.1611
  319MPD2    H2 4798   2.239   2.515  16.729 -1.3222  1.3330  0.3516
  319MPD2    H3 4799   2.285   2.482  16.494 -1.3418  0.1782 -1.2481
  319MPD2     N 4800   1.909   2.265  16.430  0.7546 -0.2292 -0.6026
  319MPD2    H5 4801   1.924   2.279  16.331 -1.5671  1.7450 -0.6771
  319MPD2    N1 4802   2.037   2.389  16.876  0.5713 -0.7083 -0.1039
  319MPD2    H7 4803   1.969   2.324  16.914 -1.1786  0.7830 -0.7139
  320TMC3    C1 4804   1.722   2.152  16.351  0.2813  1.1393  0.9081
  320TMC3    C2 4805   1.681   2.266  16.282 -0.0594  0.3551 -0.2061
  320TMC3    C3 4806   1.586   2.245  16.187 -0.1092  0.5488  0.4740
  320TMC3    C4 4807   1.666   2.033  16.335  0.5711  0.5404  0.1784
  320TMC3    C5 4808   1.580   2.010  16.234 -0.0722 -0.2394  0.2133
  320TMC3    C6 4809   1.541   2.116  16.154 -0.2111  0.1355 -0.2741
  320TMC3     C 4810   1.805   2.175  16.465  0.0042 -0.2044 -0.0725
  320TMC3     O 4811   1.802   2.095  16.554  0.3604  0.2211 -0.5192
  320TMC3     H 4812   1.723   2.363  16.308  2.9390 -0.7628 -0.8649
  320TMC3    H1 4813   1.706   1.946  16.386  0.6966 -0.1974 -1.1885
  320TMC3    H2 4814   1.446   2.097  16.104 -1.4659 -0.1228  2.2140
  320TMC3    C7 4815   1.493   1.895  16.244 -0.4619  0.2949 -0.3677
  320TMC3    C8 4816   1.517   2.359  16.141 -0.7849  0.8771  0.2856
  320TMC3    O1 4817   1.419   1.867  16.149  1.0895  0.4231 -0.8328
  320TMC3    O2 4818   1.530   2.459  16.214 -0.4254 -0.4329 -0.2015
  321TMC3    C1 4819   2.017   2.492  17.096 -0.1458 -0.3262 -0.2811
  321TMC3    C2 4820   1.971   2.377  17.158  0.0757  0.3808  0.0634
  321TMC3    C3 4821   1.954   2.385  17.296  0.1378 -0.6363 -0.4339
  321TMC3    C4 4822   2.032   2.610  17.158 -0.1145 -0.1315 -0.2017
  321TMC3    C5 4823   2.015   2.617  17.290  0.5414  0.1584 -0.4783
  321TMC3    C6 4824   1.963   2.507  17.359 -0.2413  0.1548  0.6783
  321TMC3     C 4825   2.079   2.491  16.962 -0.6150 -0.2402  0.2014
  321TMC3     O 4826   2.144   2.589  16.939  0.4044 -0.6004  0.0503
  321TMC3     H 4827   1.969   2.281  17.107 -1.9806  0.1807  0.5400
  321TMC3    H1 4828   2.050   2.705  17.108 -0.1677 -0.9985 -1.8643
  321TMC3    H2 4829   1.948   2.498  17.466 -0.1094  0.8972  0.7597
  321TMC3    C7 4830   2.134   2.678  17.354 -0.1318  0.9791  0.9292
  321TMC3    C8 4831   2.032   2.288  17.370 -0.4760 -0.0544 -0.5796
  321TMC3    O1 4832   2.190   2.774  17.305 -0.0223  0.3345  0.1678
  321TMC3    O2 4833   2.132   2.328  17.425 -0.6521 -0.4986  0.1388
  322MPD2     C 4834   1.476   3.720  13.151 -0.4984 -0.0401  0.3738
  322MPD2    C1 4835   1.397   3.652  13.237  1.0651 -0.5977 -0.4644
  322MPD2    C2 4836   1.385   3.520  13.216  0.3856 -1.4297 -0.3423
  322MPD2    C3 4837   1.447   3.452  13.121 -0.5993 -0.3873  0.6850
  322MPD2    C4 4838   1.516   3.519  13.027 -0.5521 -0.0909  0.3795
  322MPD2    C5 4839   1.538   3.660  13.040  0.4850 -0.0391 -0.2461
  322MPD2     H 4840   1.332   3.454  13.284  0.6529 -2.1557 -0.8469
  322MPD2    H1 4841   1.564   3.466  12.945  0.4093 -0.7230  1.3683
  322MPD2    H2 4842   1.484   3.827  13.164  0.9104  0.1334 -1.9489
  322MPD2    H3 4843   1.597   3.720  12.972 -0.1653  0.1388 -0.6553
  322MPD2     N 4844   1.410   3.315  13.117 -0.0578  0.1176  0.2657
  322MPD2    H5 4845   1.361   3.273  13.195 -0.1212  0.3797  0.3676
  322MPD2    N1 4846   1.347   3.721  13.353  0.6919 -0.0485 -0.2297
  322MPD2    H7 4847   1.372   3.819  13.356 -0.0567  0.0808  1.4725
  323TMC3    C1 4848   1.245   3.758  13.559 -0.0818 -1.0200 -0.6398
  323TMC3    C2 4849   1.345   3.838  13.597 -0.1072 -0.0161  0.3935
  323TMC3    C3 4850   1.338   3.870  13.731 -0.2855 -0.6565  0.7370
  323TMC3    C4 4851   1.144   3.719  13.644  0.8774  0.3418 -0.9175
  323TMC3    C5 4852   1.143   3.752  13.769  0.0801 -0.0379  0.0354
  323TMC3    C6 4853   1.244   3.826  13.819  0.5598  0.2211  0.6291
  323TMC3     C 4854   1.263   3.671  13.442  0.0723 -0.2999  0.1942
  323TMC3     O 4855   1.208   3.562  13.443 -0.1558 -0.2280 -0.7253
  323TMC3     H 4856   1.431   3.857  13.533 -0.7327  0.0105 -0.4331
  323TMC3    H1 4857   1.065   3.653  13.611  0.8501  0.5110 -1.1899
  323TMC3    H2 4858   1.266   3.846  13.923 -0.8553  0.2343  0.9259
  323TMC3    C7 4859   1.059   3.681  13.857 -0.1485 -0.1007  0.2759
  323TMC3    C8 4860   1.451   3.940  13.788  0.2975  0.2176 -0.0842
  323TMC3    O1 4861   1.025   3.569  13.813  0.1134  0.2156  0.6971
  323TMC3    O2 4862   1.486   3.889  13.897  0.6195  0.2934 -0.1603
  324MPD2     C 4863   3.283   0.495  14.092  0.2259  0.1553 -0.3623
  324MPD2    C1 4864   3.255   0.440  14.213  0.4188 -0.6329  0.7012
  324MPD2    C2 4865   3.127   0.388  14.222 -0.4940  0.9393  1.1379
  324MPD2    C3 4866   3.032   0.385  14.120 -0.1809 -0.1330 -0.3891
  324MPD2    C4 4867   3.066   0.426  13.997 -0.4014  0.3153  0.2536
  324MPD2    C5 4868   3.195   0.480  13.988  0.5433  0.0627  0.2510
  324MPD2     H 4869   3.095   0.338  14.313 -1.1588  0.8139  0.8336
  324MPD2    H1 4870   3.003   0.426  13.909 -1.3373  2.3797  0.9194
  324MPD2    H2 4871   3.381   0.535  14.067 -0.3731  1.5850 -0.4085
  324MPD2    H3 4872   3.236   0.522  13.897 -2.9201 -0.0840 -1.3517
  324MPD2     N 4873   2.898   0.339  14.140 -0.5653  0.3193  0.0230
  324MPD2    H5 4874   2.848   0.321  14.054  0.8094 -0.0866 -0.6959
  324MPD2    N1 4875   3.342   0.426  14.327 -0.6431  0.4442 -0.0684
  324MPD2    H7 4876   3.315   0.366  14.405 -0.2925  0.0973 -0.2126
  325TMC3    C1 4877   2.699   0.290  14.253  0.9063 -0.4894 -0.0981
  325TMC3    C2 4878   2.666   0.196  14.162 -0.3232  0.0050  0.2402
  325TMC3    C3 4879   2.534   0.170  14.132  1.0462 -0.6984  0.3446
  325TMC3    C4 4880   2.594   0.361  14.312 -0.1307 -0.1243 -0.0421
  325TMC3    C5 4881   2.464   0.328  14.285 -0.1354 -0.2246 -0.6988
  325TMC3    C6 4882   2.430   0.233  14.189 -0.0329  0.2314  0.9427
  325TMC3     C 4883   2.832   0.339  14.263 -0.3075 -0.6061  0.0908
  325TMC3     O 4884   2.863   0.394  14.367  0.3465  0.4277  0.1752
  325TMC3     H 4885   2.740   0.142  14.105  1.3010 -0.7034  3.0005
  325TMC3    H1 4886   2.609   0.449  14.373  3.1597 -0.9387  0.3438
  325TMC3    H2 4887   2.327   0.208  14.166  0.4439 -0.7162 -0.1643
  325TMC3    C7 4888   2.363   0.372  14.382 -0.2618 -0.0873  0.2351
  325TMC3    C8 4889   2.516   0.045  14.055  0.0009  0.2198 -0.2244
  325TMC3    O1 4890   2.407   0.443  14.470  0.3608 -0.7736 -0.0879
  325TMC3    O2 4891   2.612   0.007  13.984 -0.1849 -0.3323  0.4228
  326MPD2     C 4892   3.594   1.196  11.466 -0.1583 -0.1724  0.3482
  326MPD2    C1 4893   3.567   1.225  11.334  0.6602  0.1257 -0.1455
  326MPD2    C2 4894   3.669   1.259  11.241 -0.1023  0.5218  0.5191
  326MPD2    C3 4895   3.805   1.256  11.280  0.5689  0.2461 -0.2829
  326MPD2    C4 4896   3.832   1.236  11.413 -0.0011  0.4062  1.0503
  326MPD2    C5 4897   3.729   1.211  11.506  0.9457 -0.5018  0.5747
  326MPD2     H 4898   3.639   1.282  11.139 -2.1076 -1.5653  0.6621
  326MPD2    H1 4899   3.936   1.246  11.443  0.3396  0.0097  0.0112
  326MPD2    H2 4900   3.529   1.178  11.551 -0.1796 -0.4207  0.2791
  326MPD2    H3 4901   3.745   1.190  11.611 -0.2297 -0.5633  0.7365
  326MPD2     N 4902   3.915   1.284  11.196  0.1754  0.0641 -0.4359
  326MPD2    H5 4903   4.009   1.284  11.236  0.3383  0.8885 -0.8135
  326MPD2    N1 4904   3.440   1.225  11.275  0.1141 -0.2119 -0.0788
  326MPD2    H7 4905   3.426   1.254  11.179 -1.7456  0.3350  0.3432
  327TMC3    C1 4906   3.233   1.147  11.231  0.4060  0.1965  0.5881
  327TMC3    C2 4907   3.153   1.250  11.188 -0.5952  0.4224  0.3409
  327TMC3    C3 4908   3.128   1.248  11.051 -0.5264 -0.5014 -0.3012
  327TMC3    C4 4909   3.273   1.047  11.145 -0.3220  0.1338 -0.7400
  327TMC3    C5 4910   3.239   1.052  11.012  0.5415  0.0804 -0.9078
  327TMC3    C6 4911   3.160   1.156  10.965 -0.3710 -0.1274 -0.0159
  327TMC3     C 4912   3.325   1.180  11.335 -0.3378 -0.6069  0.3352
  327TMC3     O 4913   3.302   1.119  11.436  0.1930 -0.3328  0.0788
  327TMC3     H 4914   3.134   1.336  11.251  0.0062  0.5101  0.4034
  327TMC3    H1 4915   3.324   0.963  11.192  1.5413  1.0482 -1.1432
  327TMC3    H2 4916   3.131   1.171  10.861  1.2397  1.7875 -0.2038
  327TMC3    C7 4917   3.351   1.013  10.925  0.4836 -0.2467  1.2286
  327TMC3    C8 4918   3.066   1.368  10.994 -0.4357 -0.3305  0.7148
  327TMC3    O1 4919   3.326   0.990  10.808  0.3141 -0.2472  0.4568
  327TMC3    O2 4920   3.096   1.399  10.875  0.0937 -0.7032  0.1725
  328MPD2     C 4921   1.719   0.769  17.213 -0.0045  1.1235  0.4615
  328MPD2    C1 4922   1.627   0.724  17.129 -0.4312  0.2177 -0.2243
  328MPD2    C2 4923   1.573   0.809  17.034 -0.3859 -0.6293  0.4382
  328MPD2    C3 4924   1.607   0.941  17.031  0.4366 -0.3673  0.2028
  328MPD2    C4 4925   1.706   0.989  17.116  0.4128 -0.3493 -0.2705
  328MPD2    C5 4926   1.757   0.902  17.208  0.1881 -0.8608  0.2436
  328MPD2     H 4927   1.487   0.774  16.978  0.8821 -0.4756 -1.6025
  328MPD2    H1 4928   1.753   1.085  17.100 -0.2549  0.3328  1.8336
  328MPD2    H2 4929   1.779   0.696  17.266 -0.2195 -0.4174 -1.4257
  328MPD2    H3 4930   1.839   0.932  17.272 -0.0612 -0.8593  0.5642
  328MPD2     N 4931   1.537   1.037  16.951 -0.5578 -0.2607 -0.3119
  328MPD2    H5 4932   1.557   1.137  16.957  0.6378 -0.3844 -2.2820
  328MPD2    N1 4933   1.578   0.592  17.128  0.7398  0.6194 -0.3409
  328MPD2    H7 4934   1.519   0.572  17.048  1.1737  0.4913 -0.6289
  329TMC3    C1 4935   1.514   0.384  17.187 -0.2216 -0.2613  0.5708
  329TMC3    C2 4936   1.371   0.398  17.207  0.3020 -0.3301 -0.1256
  329TMC3    C3 4937   1.291   0.303  17.148  0.4699  0.0587  0.2661
  329TMC3    C4 4938   1.574   0.287  17.122  0.0030 -0.2751  0.0647
  329TMC3    C5 4939   1.478   0.207  17.058 -0.4210 -0.1604 -0.1306
  329TMC3    C6 4940   1.340   0.203  17.068 -0.1388  0.9962 -0.1281
  329TMC3     C 4941   1.597   0.491  17.224 -0.6355  0.4544  0.1665
  329TMC3     O 4942   1.661   0.487  17.330 -0.4116 -0.3947 -0.4970
  329TMC3     H 4943   1.339   0.491  17.251  1.5013  0.8462 -1.7525
  329TMC3    H1 4944   1.682   0.283  17.112  0.0074  0.0107 -0.0208
  329TMC3    H2 4945   1.270   0.130  17.031  0.5417  0.1085  0.3344
  329TMC3    C7 4946   1.529   0.092  16.986 -0.3233  0.5134 -0.3773
  329TMC3    C8 4947   1.155   0.332  17.136 -0.1131  0.3298  0.5714
  329TMC3    O1 4948   1.643   0.061  17.012 -0.0149  0.1455 -0.2264
  329TMC3    O2 4949   1.092   0.289  17.042 -0.3252  0.2059  0.1090
  330TMC3    C1 4950   4.499   4.657   9.904 -0.0020 -0.1198  0.1112
  330TMC3    C2 4951   4.388   4.660   9.825  1.7151 -0.0678  0.1613
  330TMC3    C3 4952   4.329   4.539   9.795 -0.4702  0.0666 -0.5431
  330TMC3    C4 4953   4.530   4.547   9.985 -0.6207  0.5113 -0.1008
  330TMC3    C5 4954   4.453   4.434   9.963 -0.2343 -0.4857  0.9431
  330TMC3    C6 4955   4.361   4.426   9.863 -0.7148 -0.1095  0.1651
  330TMC3     C 4956   4.536   0.062   9.958  0.2381 -0.5005 -0.2269
  330TMC3     O 4957   4.585   0.062  10.068  0.5218 -0.4329  0.8441
  330TMC3     H 4958   4.344   0.032   9.788  2.8989  0.7858  0.9034
  330TMC3    H1 4959   4.613   4.554  10.055  0.3179 -0.7706 -1.0922
  330TMC3    H2 4960   4.326   4.324   9.846  0.6128 -0.6985  0.9410
  330TMC3    C7 4961   4.490   4.312  10.039 -0.7868 -0.0335 -0.1952
  330TMC3    C8 4962   4.234   4.538   9.685  0.7700  0.9918  0.5959
  330TMC3    O1 4963   4.469   4.210   9.975  0.0406  0.1951  0.4970
  330TMC3    O2 4964   4.232   4.631   9.607 -0.3497 -0.6671  0.6368
  331MPD2     C 4965   1.789   3.953  12.637 -0.3465 -0.3673  0.7334
  331MPD2    C1 4966   1.870   3.997  12.533 -1.0077 -0.0984 -0.5981
  331MPD2    C2 4967   1.917   3.900  12.446 -0.6281 -0.3177 -0.1187
  331MPD2    C3 4968   1.890   3.764  12.467 -0.0532 -0.0266 -0.2344
  331MPD2    C4 4969   1.790   3.722  12.553  0.2321 -0.2510 -0.1146
  331MPD2    C5 4970   1.742   3.819  12.640  0.4484  0.0391  0.5967
  331MPD2     H 4971   1.982   3.926  12.363 -0.6315  0.8054  0.2319
  331MPD2    H1 4972   1.771   3.619  12.578 -0.0910 -0.0896  0.3063
  331MPD2    H2 4973   1.743   4.019  12.709 -1.6693 -1.8163  1.2153
  331MPD2    H3 4974   1.682   3.789  12.725  0.9448 -1.1106  0.5351
  331MPD2     N 4975   1.969   3.659  12.415  0.5277 -0.4066 -0.8006
  331MPD2    H5 4976   1.944   3.564  12.438 -0.9506  0.0921 -0.3329
  331MPD2    N1 4977   1.901   4.135  12.522 -0.4079  0.2749 -0.3066
  331MPD2    H7 4978   1.848   4.194  12.585 -2.3961 -0.9774 -0.7967
  332TMC3    C1 4979   2.140   3.556  12.287 -0.0398  0.3962 -0.3959
  332TMC3    C2 4980   2.206   3.571  12.170  0.1603 -0.2108 -0.7330
  332TMC3    C3 4981   2.337   3.518  12.171  0.0987 -0.2907 -0.8286
  332TMC3    C4 4982   2.188   3.490  12.399  0.0851  0.4568  0.3349
  332TMC3    C5 4983   2.320   3.458  12.403  0.1643 -0.7521  0.2396
  332TMC3    C6 4984   2.394   3.466  12.287  0.1521  0.9757  0.6301
  332TMC3     C 4985   2.050   3.666  12.305 -0.1291  0.6203 -0.0237
  332TMC3     O 4986   2.041   3.745  12.211 -0.1879 -0.4960 -0.9223
  332TMC3     H 4987   2.173   3.629  12.084  0.2393  0.0363 -0.5960
  332TMC3    H1 4988   2.130   3.487  12.491  2.4703 -0.6382  1.7778
  332TMC3    H2 4989   2.492   3.428  12.261 -0.0368  0.2192  1.0313
  332TMC3    C7 4990   2.372   3.401  12.524  0.0449 -0.8647  0.2440
  332TMC3    C8 4991   2.435   3.562  12.070 -0.2821  0.0140 -0.0522
  332TMC3    O1 4992   2.285   3.369  12.605 -0.2351 -0.0535  0.4231
  332TMC3    O2 4993   2.552   3.565  12.095 -0.2825 -0.0115  0.0592
  333MPD2     C 4994   2.630   4.147  11.210 -0.6638 -1.2658  0.4086
  333MPD2    C1 4995   2.659   4.075  11.102  0.1049  0.6328 -0.1984
  333MPD2    C2 4996   2.603   3.948  11.094 -0.4730 -0.0708 -0.4466
  333MPD2    C3 4997   2.515   3.906  11.185  0.3951 -0.0120  0.1115
  333MPD2    C4 4998   2.478   3.985  11.292  0.4703 -0.1380 -0.3837
  333MPD2    C5 4999   2.532   4.109  11.301  0.0368 -0.2472 -0.1367
  333MPD2     H 5000   2.633   3.895  11.004  1.6270 -1.7286  1.2337
  333MPD2    H1 5001   2.421   3.961  11.382  1.2942 -1.9497 -0.3489
  333MPD2    H2 5002   2.676   4.241  11.235  1.8984 -3.0867  2.5309
  333MPD2    H3 5003   2.502   4.165  11.388  0.6177 -1.5719  0.9075
  333MPD2     N 5004   2.464   3.775  11.170 -0.4922  0.1391 -0.1571
  333MPD2    H5 5005   2.504   3.714  11.099 -0.2434  0.5932 -0.4078
  333MPD2    N1 5006   2.739   4.117  10.993 -0.3195 -0.2283 -0.0481
  333MPD2    H7 5007   2.753   4.044  10.924 -0.7034 -0.3667  0.0207
  334TMC3    C1 5008   2.831   4.263  10.836  0.3177  0.1253 -0.0168
  334TMC3    C2 5009   2.948   4.204  10.787 -0.3399  0.2801 -0.1924
  334TMC3    C3 5010   3.037   4.286  10.718 -0.0941 -0.0635 -0.0231
  334TMC3    C4 5011   2.785   4.382  10.790 -0.1888  0.4716  0.0938
  334TMC3    C5 5012   2.875   4.454  10.709 -0.9291 -0.1825  0.1215
  334TMC3    C6 5013   2.995   4.409  10.675  0.5658 -0.1655  0.2387
  334TMC3     C 5014   2.779   4.242  10.971 -0.0385 -0.8601  0.2507
  334TMC3     O 5015   2.760   4.341  11.039  0.6868 -0.2962 -0.0556
  334TMC3     H 5016   2.984   4.107  10.820  1.5044  1.5126  1.4513
  334TMC3    H1 5017   2.692   4.420  10.831 -0.0472  1.6543 -0.6830
  334TMC3    H2 5018   3.071   4.462  10.619  0.4818 -1.4906 -1.1281
  334TMC3    C7 5019   2.835   4.581  10.660 -0.0175  0.1282  0.0373
  334TMC3    C8 5020   3.151   4.228  10.641 -0.7219 -0.5939 -0.2607
  334TMC3    O1 5021   2.922   4.638  10.600 -0.0787 -0.4804  0.0437
  334TMC3    O2 5022   3.123   4.112  10.606 -0.0238  0.0353  0.3089
  335TMC3    C1 5023   2.492   1.053  17.655 -0.4828  0.1523 -0.8059
  335TMC3    C2 5024   2.414   0.992  17.563 -0.7545 -0.1524 -0.4045
  335TMC3    C3 5025   2.436   1.011  17.429 -0.8095  0.2842  0.4669
  335TMC3    C4 5026   2.582   1.146  17.616  0.3467  0.4122  0.6325
  335TMC3    C5 5027   2.608   1.171  17.481 -0.9122 -0.0583 -0.9382
  335TMC3    C6 5028   2.536   1.099  17.386  0.5363  0.8514  1.1001
  335TMC3     C 5029   2.488   1.001   0.110  0.1637 -0.6042 -0.1484
  335TMC3     O 5030   2.468   0.879   0.126  0.6294 -0.3087  0.6516
  335TMC3     H 5031   2.347   0.911  17.593  0.9977 -0.3098  3.1418
  335TMC3    H1 5032   2.655   1.186   0.005  0.7259 -0.9381  1.0164
  335TMC3    H2 5033   2.548   1.111  17.279  0.7188 -0.4738  0.9709
  335TMC3    C7 5034   2.704   1.268  17.433  0.1124 -0.4409 -0.2446
  335TMC3    C8 5035   2.350   0.954  17.330 -0.4074  0.1543  0.2318
  335TMC3    O1 5036   2.736   1.250  17.315  0.4371  0.2389 -0.0139
  335TMC3    O2 5037   2.356   1.014  17.226  0.0483  1.2181  0.2810
  336MPD2     C 5038   1.796   3.510  16.020  0.4549  0.2657  0.8111
  336MPD2    C1 5039   1.707   3.441  15.940 -0.1399 -0.1362 -0.0677
  336MPD2    C2 5040   1.711   3.299  15.939  0.2233  0.0100 -0.8464
  336MPD2    C3 5041   1.802   3.234  16.029  0.1205 -0.2823  0.8912
  336MPD2    C4 5042   1.892   3.310  16.105 -0.1221  0.2956 -0.7549
  336MPD2    C5 5043   1.883   3.444  16.100  0.3857 -0.2007  0.0872
  336MPD2     H 5044   1.641   3.233  15.890 -1.5197  1.3321 -0.1403
  336MPD2    H1 5045   1.965   3.272  16.176 -0.4162 -2.3910 -1.8758
  336MPD2    H2 5046   1.809   3.617  16.011 -0.2402  0.2692 -0.2668
  336MPD2    H3 5047   1.961   3.493  16.156 -0.6273  0.7530  0.6720
  336MPD2     N 5048   1.799   3.093  16.047 -0.5418 -0.6352  0.6195
  336MPD2    H5 5049   1.865   3.047  16.108 -0.2585 -0.3134  0.5509
  336MPD2    N1 5050   1.604   3.499  15.860 -0.2390  0.1774 -0.1328
  336MPD2    H7 5051   1.563   3.444  15.785  1.8911 -0.5158 -0.7751
  337TMC3    C1 5052   1.465   3.687  15.776  0.3432  0.3756  0.6407
  337TMC3    C2 5053   1.369   3.604  15.723 -0.0321 -0.5014  0.5410
  337TMC3    C3 5054   1.259   3.659  15.657 -0.6535 -0.2828 -0.2976
  337TMC3    C4 5055   1.444   3.823  15.775 -0.1302  0.2145  0.3051
  337TMC3    C5 5056   1.344   3.874  15.701  0.4950 -0.2040 -0.7236
  337TMC3    C6 5057   1.244   3.791  15.641 -0.3021 -0.0751  0.2101
  337TMC3     C 5058   1.570   3.636  15.871 -0.5554  0.4873 -0.4353
  337TMC3     O 5059   1.590   3.714  15.967 -0.4350 -0.6384 -0.1934
  337TMC3     H 5060   1.368   3.502  15.760  0.4467 -1.0842 -1.0446
  337TMC3    H1 5061   1.528   3.875  15.818 -0.8740  2.0369 -0.4459
  337TMC3    H2 5062   1.155   3.832  15.597  0.0302  1.0061  0.5514
  337TMC3    C7 5063   1.315   4.017  15.720  0.2898  0.1744  0.8965
  337TMC3    C8 5064   1.140   3.573  15.639 -0.9820  1.1357 -0.1361
  337TMC3    O1 5065   1.234   4.068  15.647  0.0212 -0.2229 -0.3610
  337TMC3    O2 5066   1.108   3.487  15.717  0.1226 -0.0336 -0.2622
  338MPD2     C 5067   1.973   2.406   0.748 -0.4093 -0.3349 -0.7416
  338MPD2    C1 5068   1.914   2.514   0.689 -0.4204  0.2814 -0.9405
  338MPD2    C2 5069   1.773   2.526   0.689  0.0123  0.0986 -0.0644
  338MPD2    C3 5070   1.696   2.427   0.747 -0.3127  0.4676 -0.0127
  338MPD2    C4 5071   1.758   2.320   0.812  0.0330 -0.0840  0.1428
  338MPD2    C5 5072   1.895   2.314   0.812  0.1483 -0.2651  0.1158
  338MPD2     H 5073   1.725   2.599   0.625 -0.7620 -1.5246 -1.3407
  338MPD2    H1 5074   1.709   2.239   0.865 -0.7090  0.3702  0.1339
  338MPD2    H2 5075   2.081   2.401   0.754 -0.3321 -0.7376 -2.5578
  338MPD2    H3 5076   1.944   2.228   0.857  1.2580 -0.3972 -1.3347
  338MPD2     N 5077   1.555   2.432   0.726 -0.2857 -0.6121  0.1365
  338MPD2    H5 5078   1.521   2.512   0.673  1.2620 -0.4685 -0.6589
  338MPD2    N1 5079   1.987   2.610   0.607  0.4754 -0.0861 -0.1337
  338MPD2    H7 5080   1.937   2.677   0.550 -2.6562 -0.2365  2.4298
  339TMC3    C1 5081   1.331   2.350   0.739  0.4661 -0.0482 -0.3046
  339TMC3    C2 5082   1.237   2.285   0.813 -0.1545 -0.6861 -0.2248
  339TMC3    C3 5083   1.112   2.276   0.751 -0.1739  0.1568 -0.0813
  339TMC3    C4 5084   1.308   2.393   0.611 -0.5556 -0.5298 -0.5060
  339TMC3    C5 5085   1.190   2.371   0.553 -0.6211  0.1799 -0.0828
  339TMC3    C6 5086   1.088   2.321   0.624 -0.3043 -1.1455 -0.4191
  339TMC3     C 5087   1.464   2.350   0.792  0.0230  0.0214  0.7557
  339TMC3     O 5088   1.482   2.271   0.880  0.8482 -0.2069 -0.1942
  339TMC3     H 5089   1.257   2.255   0.915 -1.8074  0.3883  0.4140
  339TMC3    H1 5090   1.394   2.421   0.550 -0.0106 -1.8239 -0.3181
  339TMC3    H2 5091   0.986   2.304   0.591 -0.1833  1.7474 -2.2739
  339TMC3    C7 5092   1.172   2.453   0.439  0.5231 -0.5465 -0.6629
  339TMC3    C8 5093   0.997   2.223   0.819 -0.3752 -0.1926 -0.3960
  339TMC3    O1 5094   1.257   2.542   0.425  0.2602 -0.6438 -0.9214
  339TMC3    O2 5095   0.881   2.243   0.773  0.4060 -0.0555 -0.2322
  340MPD2     C 5096   2.399   0.870  10.037 -0.5463 -0.0971 -0.1057
  340MPD2    C1 5097   2.498   0.846   9.941 -0.2722  0.8440 -0.7311
  340MPD2    C2 5098   2.609   0.930   9.920  0.4903 -0.7101 -0.4373
  340MPD2    C3 5099   2.629   1.039  10.003 -0.5375  0.2114 -0.0706
  340MPD2    C4 5100   2.526   1.071  10.094  0.0670  0.5345  0.0365
  340MPD2    C5 5101   2.420   0.981  10.115 -0.3541 -0.6236 -0.0284
  340MPD2     H 5102   2.680   0.905   9.842 -0.0906 -1.6683 -0.6631
  340MPD2    H1 5103   2.540   1.155  10.161 -1.5640  1.5960 -0.9615
  340MPD2    H2 5104   2.313   0.807  10.053 -0.0407 -0.3228  1.7314
  340MPD2    H3 5105   2.357   1.010  10.198 -0.2287  1.1087 -0.5529
  340MPD2     N 5106   2.752   1.117  10.007 -0.1810  0.0677  0.6780
  340MPD2    H5 5107   2.772   1.175  10.088  0.6395 -1.3448  1.4800
  340MPD2    N1 5108   2.480   0.730   9.872 -0.6646 -0.4313 -0.4546
  340MPD2    H7 5109   2.418   0.664   9.918 -0.2722  0.6763  1.6734
  341TMC3    C1 5110   2.525   0.554   9.726  0.1951  0.6369 -0.7313
  341TMC3    C2 5111   2.406   0.498   9.755 -0.1194 -0.0652  0.1540
  341TMC3    C3 5112   2.393   0.361   9.738  0.8074  0.3595 -1.0303
  341TMC3    C4 5113   2.624   0.481   9.676  0.0391 -0.5571  0.5642
  341TMC3    C5 5114   2.608   0.352   9.646  0.3910  0.0356 -0.4593
  341TMC3    C6 5115   2.500   0.287   9.697  0.0191  0.3232  0.2661
  341TMC3     C 5116   2.553   0.694   9.757 -0.6455  0.7190 -0.1777
  341TMC3     O 5117   2.652   0.743   9.702  0.4898  0.2526  0.3191
  341TMC3     H 5118   2.329   0.548   9.812 -0.0583 -0.7937  0.8664
  341TMC3    H1 5119   2.716   0.535   9.661  0.6090 -1.7582 -0.3120
  341TMC3    H2 5120   2.486   0.181   9.684  1.0355  0.2704 -0.3268
  341TMC3    C7 5121   2.705   0.275   9.578 -0.2035  0.4846  0.0693
  341TMC3    C8 5122   2.271   0.297   9.780  0.1683  0.1753  0.7428
  341TMC3    O1 5123   2.670   0.161   9.561 -0.1649  0.2403  0.0409
  341TMC3    O2 5124   2.286   0.181   9.804  0.0804 -0.4571  0.5258
  342MPD2     C 5125   0.499   3.520   0.183 -0.2300 -0.3634 -0.4209
  342MPD2    C1 5126   0.493   3.531   0.043 -0.1015 -0.3258 -0.2549
  342MPD2    C2 5127   0.494   3.659  17.665 -0.2331 -0.4721  0.4256
  342MPD2    C3 5128   0.497   3.771   0.063 -0.3263  0.1333  0.2626
  342MPD2    C4 5129   0.485   3.762   0.196  0.2639 -0.2664 -0.2529
  342MPD2    C5 5130   0.491   3.636   0.250 -0.0525 -0.4954 -0.1284
  342MPD2     H 5131   0.507   3.663  17.557 -1.1109  3.0932  0.4496
  342MPD2    H1 5132   0.468   3.850   0.257  0.3281  0.3861 -1.1731
  342MPD2    H2 5133   0.477   3.426   0.233  1.2806 -0.4946 -0.0107
  342MPD2    H3 5134   0.491   3.628   0.358 -0.6562  0.3745 -0.0611
  342MPD2     N 5135   0.500   3.901   0.014 -0.4575 -0.2238 -0.1656
  342MPD2    H5 5136   0.503   3.976   0.083  0.0307 -1.0501  0.7247
  342MPD2    N1 5137   0.480   3.412  17.653  0.1265  0.1791 -0.0530
  342MPD2    H7 5138   0.471   3.435  17.554  0.2812 -0.0612 -0.1216
  343TMC3    C1 5139   0.423   3.190  17.603 -0.3252  0.0579  0.0738
  343TMC3    C2 5140   0.473   3.183  17.476  0.0607 -0.2695  0.0870
  343TMC3    C3 5141   0.464   3.065  17.411 -0.1033 -0.4073  0.7161
  343TMC3    C4 5142   0.367   3.076  17.659 -0.4627 -0.8409  0.5074
  343TMC3    C5 5143   0.368   2.959  17.590 -0.1624 -0.2954 -0.2205
  343TMC3    C6 5144   0.424   2.947  17.468  0.6994 -0.7477  0.6343
  343TMC3     C 5145   0.478   3.284   0.021 -0.0536  0.4402 -0.0374
  343TMC3     O 5146   0.518   3.233   0.130 -0.4116  0.5196 -0.8233
  343TMC3     H 5147   0.516   3.273  17.434 -2.0322  1.3512  1.4210
  343TMC3    H1 5148   0.318   3.085   0.074 -1.1590  1.1287 -0.0381
  343TMC3    H2 5149   0.420   2.855  17.411 -1.9797 -1.0893  1.3832
  343TMC3    C7 5150   0.302   2.845  17.642 -0.4751 -0.2908  0.3108
  343TMC3    C8 5151   0.468   3.055  17.270  0.9431  0.0793 -0.1843
  343TMC3    O1 5152   0.239   2.790  17.555  0.6071 -0.6747  0.6495
  343TMC3    O2 5153   0.401   3.139  17.210  0.5735 -0.0278 -0.0971
  344MPD2     C 5154   1.367   3.123  11.259  0.1279  0.2460 -0.6068
  344MPD2    C1 5155   1.252   3.118  11.184 -0.2833  0.1436 -0.0611
  344MPD2    C2 5156   1.252   3.191  11.069  0.0730  0.7716 -0.7031
  344MPD2    C3 5157   1.364   3.270  11.031  0.5201 -0.6580  0.4359
  344MPD2    C4 5158   1.473   3.278  11.115  0.1616  0.0585  0.1853
  344MPD2    C5 5159   1.478   3.200  11.228  0.4640 -0.3617  0.6521
  344MPD2     H 5160   1.158   3.180  11.016  0.7266  1.0112 -1.9105
  344MPD2    H1 5161   1.565   3.331  11.092  0.2779 -0.9290 -1.6690
  344MPD2    H2 5162   1.359   3.066  11.351 -2.1174 -2.7693 -2.6430
  344MPD2    H3 5163   1.558   3.200  11.301  0.7808 -2.5640  0.2811
  344MPD2     N 5164   1.385   3.347  10.909  0.4490  0.3246 -0.6947
  344MPD2    H5 5165   1.471   3.401  10.906 -0.0974  1.2204 -0.2123
  344MPD2    N1 5166   1.135   3.050  11.234  0.3328 -0.4670  0.1491
  344MPD2    H7 5167   1.065   3.031  11.164 -1.2002 -0.0099  1.5506
  345TMC3    C1 5168   1.344   3.470  10.707 -0.6909  0.3711 -0.9127
  345TMC3    C2 5169   1.425   3.565  10.759 -0.2632  0.4653 -0.5382
  345TMC3    C3 5170   1.472   3.654  10.667  0.9411 -0.2091 -0.5847
  345TMC3    C4 5171   1.309   3.449  10.581  0.0243 -0.0120 -0.3080
  345TMC3    C5 5172   1.361   3.543  10.496 -0.6276 -0.4295  0.7698
  345TMC3    C6 5173   1.445   3.640  10.532  0.1793 -0.6804 -0.6261
  345TMC3     C 5174   1.301   3.368  10.806  0.4189 -0.3725 -0.1959
  345TMC3     O 5175   1.198   3.305  10.785 -0.0029  0.0905 -0.4609
  345TMC3     H 5176   1.441   3.581  10.865  3.3603 -0.5086 -0.9254
  345TMC3    H1 5177   1.245   3.365  10.552 -0.8601  0.5353  0.0616
  345TMC3    H2 5178   1.472   3.715  10.460  1.2705 -2.3526 -1.9703
  345TMC3    C7 5179   1.322   3.542  10.356 -0.2383 -0.1661 -0.7615
  345TMC3    C8 5180   1.509   3.789  10.701 -0.0853 -0.0706  0.5175
  345TMC3    O1 5181   1.417   3.581  10.289 -0.4032 -0.2034 -0.1457
  345TMC3    O2 5182   1.536   3.858  10.603 -0.1482 -0.1080  0.2989
  346MPD2     C 5183   1.318   4.243  13.932 -0.3241 -0.2938 -0.3396
  346MPD2    C1 5184   1.290   4.379  13.911 -0.2499  0.2001 -0.2023
  346MPD2    C2 5185   1.318   4.475  14.003  0.1355 -0.4573  0.9787
  346MPD2    C3 5186   1.371   4.437  14.122  0.0993  0.1632  0.2383
  346MPD2    C4 5187   1.403   4.302  14.140 -0.2831 -0.0757  0.5109
  346MPD2    C5 5188   1.376   4.206  14.054 -0.2723  0.6874 -0.0979
  346MPD2     H 5189   1.287   4.576  13.980  0.7087 -0.7421 -1.0699
  346MPD2    H1 5190   1.451   4.266  14.231 -0.2412 -1.1965  0.0416
  346MPD2    H2 5191   1.297   4.160  13.865  1.5495 -1.1456  0.1123
  346MPD2    H3 5192   1.407   4.103  14.065  0.8808  1.0745  0.2373
  346MPD2     N 5193   1.401   4.540  14.215  0.6151  0.6016 -0.7734
  346MPD2    H5 5194   1.361   4.632  14.201 -1.9969 -0.5409 -0.8528
  346MPD2    N1 5195   1.244   4.429  13.782 -0.6641  0.1408 -0.2735
  346MPD2    H7 5196   1.239   4.530  13.776 -0.6838  0.1729  0.3529
  347TMC3    C1 5197   1.489   4.651  14.399  0.5577 -0.2773  0.1392
  347TMC3    C2 5198   1.616   4.675  14.458  0.2295 -0.0831 -0.0046
  347TMC3    C3 5199   1.633   0.075  14.517  0.0678  0.3693 -0.3335
  347TMC3    C4 5200   1.383   0.016  14.415 -0.2672  0.1501  0.1684
  347TMC3    C5 5201   1.403   0.133  14.485  0.7631  0.1899  0.4842
  347TMC3    C6 5202   1.528   0.167  14.532 -0.7152 -0.1810 -0.5718
  347TMC3     C 5203   1.480   4.522  14.329 -0.7585  0.4477 -0.5541
  347TMC3     O 5204   1.536   4.423  14.376  0.1688 -0.1011  0.2856
  347TMC3     H 5205   1.701   4.612  14.433 -0.6761 -1.3788  0.1610
  347TMC3    H1 5206   1.284   4.701  14.388  0.1775 -0.8920 -0.1300
  347TMC3    H2 5207   1.548   0.265  14.574  0.0047 -0.5170 -0.1391
  347TMC3    C7 5208   1.304   0.233  14.515 -0.1596  0.8741 -0.3440
  347TMC3    C8 5209   1.757   0.141  14.481 -0.2951 -0.2297 -0.3505
  347TMC3    O1 5210   1.343   0.325  14.580 -0.5298 -0.7293 -1.1836
  347TMC3    O2 5211   1.817   0.090  14.388 -0.0588 -0.0965  0.1992
  348MPD2     C 5212   4.578   4.534  11.929 -0.2956  0.4922  0.4537
  348MPD2    C1 5213   4.675   4.628  11.974  0.2804 -0.3352 -0.2342
  348MPD2    C2 5214   4.682   0.032  11.911  0.0301 -0.1976  0.4799
  348MPD2    C3 5215   4.602   0.067  11.807  0.3346 -0.0925  0.2896
  348MPD2    C4 5216   4.512   4.693  11.768  0.1699  0.3551 -0.5526
  348MPD2    C5 5217   4.498   4.565  11.824  0.2700 -0.0897 -0.9529
  348MPD2     H 5218   0.037   0.104  11.943  0.5235 -0.7587  0.6083
  348MPD2    H1 5219   4.444   4.712  11.686 -1.5809 -4.5032 -0.2129
  348MPD2    H2 5220   4.568   4.435  11.972 -0.2906 -0.3059 -1.3773
  348MPD2    H3 5221   4.431   4.491  11.783  1.2554 -1.6285  0.2024
  348MPD2     N 5222   4.616   0.197  11.750  0.2553 -0.2255  0.1749
  348MPD2    H5 5223   4.684   0.264  11.786 -0.5032 -0.0637  1.3028
  348MPD2    N1 5224   0.058   4.599  12.066  0.2504 -0.1702 -0.3815
  348MPD2    H7 5225   0.129   4.669  12.089 -0.6788 -0.1831  2.4811
  349TMC3    C1 5226   0.192   4.472  12.217  0.2860  0.1732 -0.3490
  349TMC3    C2 5227   0.229   4.336  12.229 -0.3030  0.5792 -0.4158
  349TMC3    C3 5228   0.361   4.301  12.208  0.5413 -0.0374 -0.0016
  349TMC3    C4 5229   0.288   4.567  12.203 -0.1532 -0.2684  0.3044
  349TMC3    C5 5230   0.414   4.528  12.173  0.0050  0.4997 -0.2885
  349TMC3    C6 5231   0.452   4.396  12.172  0.5963 -0.0375 -0.1748
  349TMC3     C 5232   0.071   4.478  12.137 -0.2802 -0.4461  0.5889
  349TMC3     O 5233   4.715   4.380  12.136 -0.0909  0.2895  0.1816
  349TMC3     H 5234   0.157   4.256  12.244  2.2312 -1.3027  1.8198
  349TMC3    H1 5235   0.272   4.675  12.205  1.3471 -0.0530  0.7655
  349TMC3    H2 5236   0.554   4.385  12.137  0.3495  0.1057 -0.9324
  349TMC3    C7 5237   0.451   4.583  12.048  1.0678  1.0546 -0.4014
  349TMC3    C8 5238   0.407   4.163  12.219 -0.1584  0.1704  0.6311
  349TMC3    O1 5239   0.445   4.510  11.949  0.3768  0.3799  0.0178
  349TMC3    O2 5240   0.311   4.096  12.259  0.2866 -0.6621  0.4970
  350MPD2     C 5241   3.548   2.085   9.899 -0.1728 -0.9491  0.3097
  350MPD2    C1 5242   3.668   2.102   9.960  0.1236 -0.5449  0.3577
  350MPD2    C2 5243   3.704   2.221  10.014  0.2565 -0.8922  0.2421
  350MPD2    C3 5244   3.609   2.320  10.021  0.0322  0.3930 -0.1725
  350MPD2    C4 5245   3.481   2.307   9.965  0.5669  0.1456  0.8691
  350MPD2    C5 5246   3.457   2.185   9.905 -0.8539 -1.2492 -0.1960
  350MPD2     H 5247   3.798   2.220  10.069  0.7974 -0.3319 -0.6654
  350MPD2    H1 5248   3.402   2.377   9.988 -0.8419 -1.0979 -0.2339
  350MPD2    H2 5249   3.523   1.990   9.852 -0.1987  0.2634 -2.1504
  350MPD2    H3 5250   3.357   2.178   9.864 -1.3414  1.4909  0.5152
  350MPD2     N 5251   3.627   2.441  10.090 -0.4729  0.2863  0.3633
  350MPD2    H5 5252   3.546   2.502  10.095 -2.3715 -2.3831  2.3589
  350MPD2    N1 5253   3.765   1.998   9.975 -0.1189 -0.8101 -0.3269
  350MPD2    H7 5254   3.847   2.029  10.025  0.8373 -2.9599 -0.5681
  351TMC3    C1 5255   3.864   1.783   9.985  0.0185 -0.3775 -0.6862
  351TMC3    C2 5256   3.990   1.832  10.022  0.0239  0.1664  0.1626
  351TMC3    C3 5257   4.094   1.746  10.050 -0.1489 -0.9686  0.8994
  351TMC3    C4 5258   3.835   1.652   9.984 -0.1628 -0.1576  0.2331
  351TMC3    C5 5259   3.939   1.567  10.019  0.1702 -0.6065 -0.8262
  351TMC3    C6 5260   4.068   1.610  10.050  0.2243  0.0819 -0.1210
  351TMC3     C 5261   3.754   1.871   9.939  0.2006 -0.4097 -0.5643
  351TMC3     O 5262   3.663   1.819   9.872  0.3535  0.1140  0.2801
  351TMC3     H 5263   4.006   1.939  10.014 -0.8228  0.4296  1.9816
  351TMC3    H1 5264   3.736   1.628   9.947 -0.0189 -2.2478  1.2025
  351TMC3    H2 5265   4.150   1.540  10.038 -0.2182  0.2037 -3.8756
  351TMC3    C7 5266   3.918   1.426   9.983  0.6864 -0.5418 -0.1871
  351TMC3    C8 5267   4.235   1.787  10.052 -0.0550 -0.0102 -0.4866
  351TMC3    O1 5268   3.821   1.402   9.911  0.4789 -0.5125 -0.4738
  351TMC3    O2 5269   4.327   1.706  10.036  0.9136 -0.2657 -1.4581
  352MPD2     C 5270   3.435   0.341   1.238 -0.1089  0.4240  0.2803
  352MPD2    C1 5271   3.367   0.303   1.133 -0.3891  0.1331  0.0889
  352MPD2    C2 5272   3.381   0.178   1.086  0.9016 -0.6659 -1.0009
  352MPD2    C3 5273   3.486   0.095   1.125 -0.1666 -0.3819 -0.3113
  352MPD2    C4 5274   3.557   0.141   1.237 -1.2258 -0.1257  0.7999
  352MPD2    C5 5275   3.535   0.267   1.288 -0.3629  0.3117 -0.1672
  352MPD2     H 5276   3.312   0.156   1.005 -1.5751  0.6803  0.7602
  352MPD2    H1 5277   3.628   0.072   1.282 -2.4722 -1.8301  0.1350
  352MPD2    H2 5278   3.424   0.439   1.284  0.6365  0.2781  0.7753
  352MPD2    H3 5279   3.588   0.300   1.377  1.3213 -1.7724 -0.4025
  352MPD2     N 5280   3.489   4.679   1.093 -0.1214  0.0820  0.5420
  352MPD2    H5 5281   3.564   4.622   1.130 -0.3751  0.5504  1.7857
  352MPD2    N1 5282   3.273   0.389   1.079  0.4490 -0.2035  0.5155
  352MPD2    H7 5283   3.237   0.454   1.148  1.6320  1.1172 -0.0950
  353TMC3    C1 5284   3.437   4.472   0.987 -0.1368  0.1767 -0.2737
  353TMC3    C2 5285   3.559   4.425   1.016  0.0343  0.3276  0.0190
  353TMC3    C3 5286   3.574   4.287   1.040 -0.6697  0.2814 -0.5161
  353TMC3    C4 5287   3.324   4.390   1.004 -0.1554 -0.1752  0.4941
  353TMC3    C5 5288   3.343   4.258   1.032  0.4429 -0.4135  1.4021
  353TMC3    C6 5289   3.470   4.199   1.025  0.1217 -0.5337  0.1275
  353TMC3     C 5290   3.407   4.615   0.999 -0.6519 -0.0839  0.7674
  353TMC3     O 5291   3.303   4.653   0.945  0.9985 -0.3319 -0.2103
  353TMC3     H 5292   3.647   4.488   1.010  0.7541 -0.5191  1.6636
  353TMC3    H1 5293   3.227   4.439   0.994 -1.7510 -3.4027  0.1689
  353TMC3    H2 5294   3.478   4.092   1.032 -1.8423 -0.6378  0.7649
  353TMC3    C7 5295   3.230   4.168   1.052  0.1450  0.2796  0.2006
  353TMC3    C8 5296   3.693   4.243   1.104  0.1268 -0.3590  0.2369
  353TMC3    O1 5297   3.243   4.047   1.042  0.4961 -0.2372 -0.2986
  353TMC3    O2 5298   3.750   4.328   1.167 -0.6200  0.1305  0.5710
  354TMC3    C1 5299   4.016   0.975  13.156 -0.4840 -0.2768 -0.1973
  354TMC3    C2 5300   4.010   1.116  13.158 -0.4853  0.0557  0.0900
  354TMC3    C3 5301   4.070   1.177  13.045  0.4889 -0.8434 -0.1359
  354TMC3    C4 5302   4.077   0.907  13.053 -0.8459  0.6858  0.1782
  354TMC3    C5 5303   4.150   0.978  12.956 -0.6981 -0.1535 -0.5348
  354TMC3    C6 5304   4.131   1.110  12.947 -0.6795  0.1530  0.4461
  354TMC3     C 5305   3.937   0.895  13.249  0.6750 -0.2213  0.5925
  354TMC3     O 5306   3.900   0.788  13.205 -0.6329 -0.4406  0.0913
  354TMC3     H 5307   3.949   1.170  13.230  3.1820  1.7649  1.9323
  354TMC3    H1 5308   4.083   0.799  13.064 -1.0486  0.2592 -3.8751
  354TMC3    H2 5309   4.164   1.167  12.861 -0.2360 -2.4548 -1.0919
  354TMC3    C7 5310   4.183   0.914  12.835  0.3564 -0.3886  0.2821
  354TMC3    C8 5311   4.027   1.304  13.015 -0.8390 -0.5589 -0.4941
  354TMC3    O1 5312   4.112   0.821  12.798  0.1601  0.0585 -0.4972
  354TMC3    O2 5313   4.029   1.330  12.894 -0.4205 -0.3756  0.0414
  355MPD2     C 5314   4.133   1.895  11.505 -0.3696  0.2160 -0.4002
  355MPD2    C1 5315   4.057   2.003  11.523 -0.0438  0.5524  0.8610
  355MPD2    C2 5316   4.074   2.079  11.635  0.0074  0.3612 -0.1828
  355MPD2    C3 5317   4.175   2.048  11.722  0.4898 -0.2004  0.4482
  355MPD2    C4 5318   4.244   1.934  11.706  0.0149  0.2171 -0.0487
  355MPD2    C5 5319   4.232   1.857  11.592  0.5024 -0.4483 -0.6705
  355MPD2     H 5320   4.012   2.166  11.656 -0.5328  0.0741 -0.5951
  355MPD2    H1 5321   4.330   1.906  11.765 -0.3586  0.0128  0.4043
  355MPD2    H2 5322   4.120   1.834  11.416 -0.7397 -0.3313  0.0268
  355MPD2    H3 5323   4.296   1.775  11.561 -0.4104 -1.2814 -0.3346
  355MPD2     N 5324   4.217   2.125  11.833 -0.7617  0.0258 -0.2794
  355MPD2    H5 5325   4.300   2.097  11.884  0.8357  0.4128 -2.6540
  355MPD2    N1 5326   3.973   2.028  11.418  0.6028 -0.5415 -0.4807
  355MPD2    H7 5327   3.979   1.970  11.335 -1.4688 -0.5429 -0.6259
  356TMC3    C1 5328   4.250   2.313  11.966  0.2005  0.1527 -0.2278
  356TMC3    C2 5329   4.266   2.445  11.940  0.0487 -0.4742 -0.7309
  356TMC3    C3 5330   4.375   2.513  11.970  0.1801 -0.0949 -0.8740
  356TMC3    C4 5331   4.336   2.251  12.054 -0.3501  0.8169  0.1737
  356TMC3    C5 5332   4.436   2.328  12.110  0.0327 -0.0231  0.1235
  356TMC3    C6 5333   4.456   2.458  12.066  0.4002  0.6511 -0.0674
  356TMC3     C 5334   4.165   2.246  11.875 -0.1692 -0.4351  0.0853
  356TMC3     O 5335   4.072   2.311  11.826  0.0625 -0.5666 -0.3892
  356TMC3     H 5336   4.201   2.479  11.860  2.5061 -2.0293 -3.3951
  356TMC3    H1 5337   4.319   2.148  12.085  3.0978 -0.0944 -0.9575
  356TMC3    H2 5338   4.531   2.518  12.116 -0.1019 -0.4076  1.9500
  356TMC3    C7 5339   4.494   2.281  12.233 -0.8156 -0.0699 -0.2597
  356TMC3    C8 5340   4.400   2.623  11.878 -0.3522 -0.1103  0.4559
  356TMC3    O1 5341   4.477   2.161  12.248  0.4742  0.3554 -0.4182
  356TMC3    O2 5342   4.314   2.635  11.793 -0.2457 -0.1117  0.8003
  357MPD2     C 5343   3.402   1.282   1.513 -0.7035  0.7799  0.4049
  357MPD2    C1 5344   3.465   1.172   1.461 -0.2998  0.0837 -0.0511
  357MPD2    C2 5345   3.497   1.073   1.549 -0.0170 -0.1997  0.7674
  357MPD2    C3 5346   3.464   1.075   1.679 -0.1736  0.3571 -0.3232
  357MPD2    C4 5347   3.402   1.186   1.732 -0.4159  0.2734  0.3099
  357MPD2    C5 5348   3.369   1.289   1.648 -0.4512 -0.5079  0.0430
  357MPD2     H 5349   3.555   0.991   1.508 -1.6541 -2.0255  2.0580
  357MPD2    H1 5350   3.372   1.193   1.836 -0.4571  0.8753  0.2562
  357MPD2    H2 5351   3.368   1.362   1.449  0.3124  1.0946  0.2562
  357MPD2    H3 5352   3.311   1.375   1.679 -3.1610 -2.3770  0.1891
  357MPD2     N 5353   3.495   0.966   1.768  0.9093 -0.0728  0.3038
  357MPD2    H5 5354   3.467   0.972   1.866  1.7570 -1.1738  0.6094
  357MPD2    N1 5355   3.499   1.180   1.325  0.1793 -0.6040  0.3335
  357MPD2    H7 5356   3.465   1.263   1.277 -0.1601 -0.2564  1.1635
  358TMC3    C1 5357   3.630   1.143   1.130  0.4213  0.1825 -0.0660
  358TMC3    C2 5358   3.537   1.131   1.033  0.3575  0.2048  0.0096
  358TMC3    C3 5359   3.571   1.087   0.915  0.2920  0.6561  0.3251
  358TMC3    C4 5360   3.760   1.129   1.098  0.2688  0.6981 -0.4679
  358TMC3    C5 5361   3.796   1.100   0.968 -0.3513 -0.0323 -0.1540
  358TMC3    C6 5362   3.703   1.071   0.878 -0.3013  0.2066  0.7810
  358TMC3     C 5363   3.599   1.103   1.259 -0.0085 -0.0956 -0.1608
  358TMC3     O 5364   3.669   1.016   1.307 -0.0636  0.2484 -0.2096
  358TMC3     H 5365   3.432   1.135   1.060  0.1595  2.3682 -1.1258
  358TMC3    H1 5366   3.836   1.151   1.171  1.2730 -1.1917 -0.9375
  358TMC3    H2 5367   3.717   1.065   0.770  0.3957  0.4721  0.8573
  358TMC3    C7 5368   3.931   1.079   0.929  0.4730  0.0407  0.2559
  358TMC3    C8 5369   3.471   1.065   0.817 -0.6614 -1.1553  0.4333
  358TMC3    O1 5370   3.949   1.075   0.805  0.0586 -0.0350  0.7793
  358TMC3    O2 5371   3.371   1.135   0.815 -0.3717 -0.0880 -0.1834
  359MPD2     C 5372   4.662   0.933  12.496 -0.6853  0.0758 -0.0732
  359MPD2    C1 5373   4.624   0.917  12.369 -0.1073 -0.4016  0.1282
  359MPD2    C2 5374   4.521   0.835  12.347 -0.0896  0.2080  0.2819
  359MPD2    C3 5375   4.456   0.760  12.445  0.0553 -0.3520 -0.3444
  359MPD2    C4 5376   4.504   0.770  12.580 -0.2281  0.0090 -0.1152
  359MPD2    C5 5377   4.609   0.859  12.593 -0.2468  0.0233  1.0018
  359MPD2     H 5378   4.492   0.825  12.242 -1.7051  1.2243  0.6375
  359MPD2    H1 5379   4.454   0.731  12.668 -0.4818 -1.4379 -0.8972
  359MPD2    H2 5380   0.031   0.992  12.515 -0.9012  0.2523  0.3916
  359MPD2    H3 5381   4.660   0.864  12.688  1.7118 -0.4650 -0.0103
  359MPD2     N 5382   4.357   0.670  12.405 -0.0366 -0.2060  0.8218
  359MPD2    H5 5383   4.298   0.630  12.477 -1.7073 -0.1062 -0.4848
  359MPD2    N1 5384   4.670   1.002  12.259  0.8513 -0.7323 -0.0257
  359MPD2    H7 5385   4.623   0.989  12.170  2.7637  0.3221 -1.1844
  360TMC3    C1 5386   0.049   1.177  12.142 -0.0416 -0.5970  0.0400
  360TMC3    C2 5387   0.175   1.218  12.095  1.0159  0.0125 -0.5880
  360TMC3    C3 5388   0.166   1.297  11.982  0.5188  0.3434 -0.1388
  360TMC3    C4 5389   4.650   1.216  12.093 -0.8152 -0.7462  0.8890
  360TMC3    C5 5390   4.650   1.306  11.991 -0.1628  0.5926 -0.7162
  360TMC3    C6 5391   0.049   1.347  11.935  0.7913  0.3975 -0.4510
  360TMC3     C 5392   0.054   1.092  12.264  0.0456  0.1070  0.5028
  360TMC3     O 5393   0.129   1.124  12.355  0.6152 -0.5804  0.0425
  360TMC3     H 5394   0.270   1.172  12.118  1.5408  0.6682 -1.4158
  360TMC3    H1 5395   4.559   1.182  12.143 -1.1920  0.1835  0.8409
  360TMC3    H2 5396   0.035   1.407  11.846 -0.8840 -0.6823 -0.9139
  360TMC3    C7 5397   4.538   1.325  11.909  0.2756 -0.2975 -0.1671
  360TMC3    C8 5398   0.285   1.339  11.912 -0.1164 -0.1152 -0.2083
  360TMC3    O1 5399   4.547   1.344  11.786 -0.5301 -0.0091  0.3275
  360TMC3    O2 5400   0.275   1.443  11.848  0.5585  0.6116  0.3628
  361MPD2     C 5401   1.283   0.020  17.319 -0.8696  0.4145  0.2971
  361MPD2    C1 5402   1.262   4.655  17.216  0.0622  0.6238  0.0309
  361MPD2    C2 5403   1.356   4.570  17.171  0.2781  0.8348 -0.0094
  361MPD2    C3 5404   1.481   4.563  17.232  0.4560  0.2078 -0.4654
  361MPD2    C4 5405   1.503   4.652  17.333  0.2908 -0.0711 -0.7976
  361MPD2    C5 5406   1.404   0.019  17.378 -0.1163 -0.5621  0.9400
  361MPD2     H 5407   1.334   4.495  17.096  1.4655  0.4359  0.0387
  361MPD2    H1 5408   1.595   4.670  17.387  1.2297 -2.5512 -1.5854
  361MPD2    H2 5409   1.207   0.087  17.358 -1.0934 -0.5503  1.5048
  361MPD2    H3 5410   1.428   0.082  17.463  3.3837  0.4277 -0.8149
  361MPD2     N 5411   1.572   4.451  17.215 -0.1153  0.1329  0.3659
  361MPD2    H5 5412   1.659   4.438  17.266  0.7350 -0.4478 -1.2143
  361MPD2    N1 5413   1.142   4.636  17.149 -0.7914  0.0495  0.1859
  361MPD2    H7 5414   1.142   4.556  17.085 -0.5766 -0.8613  1.3329
  362TMC3    C1 5415   0.919   4.620  17.101 -0.0107 -0.5116 -0.3295
  362TMC3    C2 5416   0.802   4.595  17.170  0.0774 -0.4715 -0.1497
  362TMC3    C3 5417   0.716   4.520  17.103 -0.6046  0.1076 -0.4880
  362TMC3    C4 5418   0.954   4.576  16.970  0.3294 -0.4902 -0.2183
  362TMC3    C5 5419   0.849   4.507  16.909 -0.1752  0.4030 -0.0357
  362TMC3    C6 5420   0.738   4.474  16.977 -0.1405 -0.0091  0.4978
  362TMC3     C 5421   1.023   4.692  17.181  0.0245  0.7078 -0.4909
  362TMC3     O 5422   0.991   0.054  17.269 -0.1429 -0.4808  0.2298
  362TMC3     H 5423   0.795   4.628  17.272  1.0605  1.0580 -0.5714
  362TMC3    H1 5424   1.046   4.606  16.920  0.7222 -0.0757  0.7647
  362TMC3    H2 5425   0.652   4.426  16.932 -0.4951  0.2759  0.8707
  362TMC3    C7 5426   0.844   4.537  16.764 -0.7659 -0.1611  0.3769
  362TMC3    C8 5427   0.607   4.452  17.179 -0.8175 -0.1264  0.0563
  362TMC3    O1 5428   0.913   4.630  16.719 -0.5674  0.2157  0.2341
  362TMC3    O2 5429   0.586   4.333  17.173  0.7903 -0.8793 -0.1513
  363TMC3    C1 5430   0.573   1.958   9.870 -0.2900 -0.7260  0.1923
  363TMC3    C2 5431   0.514   1.861   9.940  0.3866 -0.5375 -0.1823
  363TMC3    C3 5432   0.382   1.885   9.973  0.4084 -0.3239  0.1940
  363TMC3    C4 5433   0.509   2.070   9.820  0.1368  0.0132  1.0478
  363TMC3    C5 5434   0.382   2.093   9.865  0.0135 -0.4122 -0.1801
  363TMC3    C6 5435   0.311   1.993   9.935  0.0773 -0.6382  0.0849
  363TMC3     C 5436   0.717   1.955   9.849  0.6793  0.2160  0.3102
  363TMC3     O 5437   0.752   2.034   9.764  0.4013  0.2756  0.2389
  363TMC3     H 5438   0.562   1.765   9.954 -0.4568 -0.9483 -0.0599
  363TMC3    H1 5439   0.559   2.138   9.753 -0.6118 -0.9994 -0.5507
  363TMC3    H2 5440   0.209   2.014   9.965  0.1771  1.2075 -0.8274
  363TMC3    C7 5441   0.294   2.190   9.801 -0.0013  0.6616 -0.7825
  363TMC3    C8 5442   0.307   1.787  10.052  0.6610 -0.0627 -0.0387
  363TMC3    O1 5443   0.173   2.164   9.794  0.7706  0.2185 -0.1577
  363TMC3    O2 5444   0.188   1.804  10.069 -0.7193  0.2238 -0.4270
  364MPD2     C 5445   2.766   1.778  11.005  0.1053 -0.4901 -0.0246
  364MPD2    C1 5446   2.870   1.747  10.922  0.6420 -0.2854  0.7829
  364MPD2    C2 5447   2.940   1.633  10.944  0.1947 -0.5870  0.3343
  364MPD2    C3 5448   2.905   1.541  11.045 -0.5400  0.0102  0.4604
  364MPD2    C4 5449   2.789   1.570  11.114  0.2189 -0.7642 -0.2246
  364MPD2    C5 5450   2.727   1.688  11.098  0.0646  0.3496 -0.7448
  364MPD2     H 5451   3.027   1.620  10.882  1.5903  0.3206  2.1084
  364MPD2    H1 5452   2.762   1.510  11.200  1.8502  0.0226  0.8162
  364MPD2    H2 5453   2.723   1.877  11.003  0.3284 -0.4324 -1.6436
  364MPD2    H3 5454   2.638   1.700  11.159  1.1088 -2.0053  1.2044
  364MPD2     N 5455   2.965   1.416  11.074  0.3004 -1.0791  0.0592
  364MPD2    H5 5456   2.929   1.358  11.148  0.3882  0.8500  1.6178
  364MPD2    N1 5457   2.923   1.842  10.831  0.2631 -0.0189 -0.4149
  364MPD2    H7 5458   2.894   1.937  10.849 -3.9430 -1.4131  0.1070
  365TMC3    C1 5459   3.072   1.933  10.667  0.4822  0.3673 -0.2078
  365TMC3    C2 5460   3.168   1.892  10.583 -0.8006 -0.6311  0.0427
  365TMC3    C3 5461   3.207   1.990  10.495 -0.6515  0.6389 -0.1269
  365TMC3    C4 5462   3.025   2.060  10.684  0.1679 -0.9010 -0.3370
  365TMC3    C5 5463   3.087   2.157  10.608  0.1202 -0.0199  0.2194
  365TMC3    C6 5464   3.180   2.120  10.515 -0.8551 -0.3277  0.4107
  365TMC3     C 5465   3.003   1.818  10.719 -0.5256 -1.3391  1.0378
  365TMC3     O 5466   3.013   1.708  10.670  0.0196 -0.1347 -0.1428
  365TMC3     H 5467   3.202   1.790  10.577  1.1136 -0.1612  2.9842
  365TMC3    H1 5468   2.951   2.089  10.757  0.7052  0.6749 -0.4015
  365TMC3    H2 5469   3.218   2.198  10.450  0.5668 -0.6183  0.8919
  365TMC3    C7 5470   3.106   2.289  10.679  0.0214 -0.2060  0.3328
  365TMC3    C8 5471   3.267   1.958  10.371 -0.0636  1.5186  0.5403
  365TMC3    O1 5472   3.153   2.381  10.613 -0.7425 -0.1364  0.4059
  365TMC3    O2 5473   3.262   2.053  10.294  0.1210  0.0577  0.2367
  366MPD2     C 5474   1.404   3.126  15.590 -0.0846  0.8213 -0.0340
  366MPD2    C1 5475   1.406   3.155  15.455  0.0932 -0.1931 -0.0933
  366MPD2    C2 5476   1.380   3.051  15.365  0.5137 -0.4073  0.4018
  366MPD2    C3 5477   1.369   2.917  15.403 -0.0064  0.6095 -0.7402
  366MPD2    C4 5478   1.398   2.897  15.534 -0.8730  0.3537 -0.2539
  366MPD2    C5 5479   1.410   2.995  15.624 -0.0159 -0.0958  0.3343
  366MPD2     H 5480   1.376   3.066  15.257 -0.9616  0.1975  0.5332
  366MPD2    H1 5481   1.400   2.799  15.579  1.6301 -0.6141 -2.4581
  366MPD2    H2 5482   1.412   3.201  15.668 -0.2091 -0.1392  0.9082
  366MPD2    H3 5483   1.431   2.957  15.723  0.3096 -0.4776  0.1172
  366MPD2     N 5484   1.346   2.817  15.309  0.2768  0.1273 -0.3393
  366MPD2    H5 5485   1.311   2.852  15.221  2.1465  0.1618 -1.0752
  366MPD2    N1 5486   1.424   3.289  15.402 -0.2920  0.1513 -0.4161
  366MPD2    H7 5487   1.402   3.302  15.304 -1.7502 -1.2361 -0.2722
  367TMC3    C1 5488   1.518   3.505  15.388 -0.6849  0.0680 -0.5799
  367TMC3    C2 5489   1.594   3.606  15.446  0.2940  0.4191 -0.4517
  367TMC3    C3 5490   1.641   3.707  15.377  0.2238  0.7605 -0.5708
  367TMC3    C4 5491   1.490   3.519  15.248 -0.0419 -0.6681 -0.1119
  367TMC3    C5 5492   1.550   3.626  15.179  0.4799 -0.2808 -0.2316
  367TMC3    C6 5493   1.624   3.718  15.245 -0.0109  0.4237  0.1378
  367TMC3     C 5494   1.486   3.392  15.473  0.1117 -0.0905  0.2550
  367TMC3     O 5495   1.551   3.387  15.574 -0.1954  0.0157  0.0978
  367TMC3     H 5496   1.617   3.602  15.552  0.2863  2.8550 -0.3679
  367TMC3    H1 5497   1.426   3.450  15.193 -2.5166  2.7652 -1.5203
  367TMC3    H2 5498   1.689   3.780  15.184  1.2443 -1.6473 -0.6435
  367TMC3    C7 5499   1.469   3.674  15.067 -0.3263 -0.7463  0.6973
  367TMC3    C8 5500   1.781   3.740  15.414 -0.5527 -0.0444  0.7290
  367TMC3    O1 5501   1.409   3.586  15.007  0.3755  0.0129  0.2127
  367TMC3    O2 5502   1.872   3.671  15.375 -0.3528  0.2125  0.4035
  368MPD2     C 5503   3.203   4.079  12.499  0.0172  0.6264 -0.4571
  368MPD2    C1 5504   3.277   4.188  12.526  0.1368 -0.0311 -0.7823
  368MPD2    C2 5505   3.410   4.193  12.485  0.1537  0.4402 -0.4196
  368MPD2    C3 5506   3.474   4.089  12.420 -0.2702 -0.3307 -0.7617
  368MPD2    C4 5507   3.401   3.975  12.399  0.2462 -0.0434  0.4892
  368MPD2    C5 5508   3.263   3.973  12.428  0.5885  0.4688 -0.1126
  368MPD2     H 5509   3.483   4.266  12.519  2.0599 -2.0313  0.8309
  368MPD2    H1 5510   3.444   3.892  12.343 -0.3854 -0.3853  0.5210
  368MPD2    H2 5511   3.097   4.072  12.521  0.3002  1.6227  1.2579
  368MPD2    H3 5512   3.201   3.892  12.392 -0.1069  1.7910 -1.8808
  368MPD2     N 5513   3.610   4.099  12.382 -0.1118 -0.2699 -0.9568
  368MPD2    H5 5514   3.644   4.013  12.340  1.6268 -0.6774  1.2406
  368MPD2    N1 5515   3.213   4.296  12.598 -0.2024  0.0251  0.2760
  368MPD2    H7 5516   3.119   4.279  12.632  0.1251 -2.6409 -0.1515
  369TMC3    C1 5517   3.184   4.505  12.700 -0.7223  0.3641 -0.6214
  369TMC3    C2 5518   3.201   4.640  12.675 -0.0392  0.3775 -0.7954
  369TMC3    C3 5519   3.089   4.716  12.670 -0.1426  0.6685  0.0081
  369TMC3    C4 5520   3.063   4.455  12.743 -0.0738 -0.6840 -0.6649
  369TMC3    C5 5521   2.959   4.542  12.750  0.1515  0.0836 -0.7641
  369TMC3    C6 5522   2.967   4.676  12.715  0.0645  0.5405 -0.0215
  369TMC3     C 5523   3.274   4.417  12.623  0.0910 -0.2173  0.3648
  369TMC3     O 5524   3.388   4.460  12.591  0.3467  0.1413 -0.2687
  369TMC3     H 5525   3.293   4.678  12.632 -0.3020  1.3518 -0.4935
  369TMC3    H1 5526   3.052   4.348  12.759 -3.1720 -0.5232 -1.8773
  369TMC3    H2 5527   2.885   0.027  12.719  0.6409  1.3022 -1.4376
  369TMC3    C7 5528   2.839   4.492  12.813  0.6695  0.4774  0.8377
  369TMC3    C8 5529   3.104   0.140  12.654  0.6916 -0.7031 -0.2582
  369TMC3    O1 5530   2.845   4.383  12.868 -0.5532 -0.2520 -0.3089
  369TMC3    O2 5531   3.022   0.202  12.590 -0.6195  0.8023 -0.5802
  370TMC3    C1 5532   2.097   0.513  16.261 -0.1287 -0.0670 -0.1975
  370TMC3    C2 5533   2.094   0.453  16.379 -0.1061  0.6261  0.0694
  370TMC3    C3 5534   2.152   0.325  16.376  0.1890  1.1799 -0.1583
  370TMC3    C4 5535   2.134   0.452  16.147  0.1765 -0.7991 -0.3245
  370TMC3    C5 5536   2.175   0.327  16.140 -0.6402  0.6622  0.4440
  370TMC3    C6 5537   2.182   0.255  16.260  1.2287 -0.2083 -0.1530
  370TMC3     C 5538   2.101   0.655  16.266  0.1026  0.9536  0.1742
  370TMC3     O 5539   2.044   0.711  16.360 -0.2289 -0.1311 -0.0254
  370TMC3     H 5540   2.068   0.502  16.472  1.0800 -0.6202  1.0691
  370TMC3    H1 5541   2.121   0.500  16.051 -2.0236  0.3509  0.5577
  370TMC3    H2 5542   2.230   0.157  16.263  0.8642 -0.3600  0.7933
  370TMC3    C7 5543   2.177   0.258  16.013 -0.2676  0.4455 -0.0839
  370TMC3    C8 5544   2.153   0.237  16.493 -0.2004 -0.1801 -0.5684
  370TMC3    O1 5545   2.132   0.318  15.918  0.2962  0.0040 -0.1321
  370TMC3    O2 5546   2.129   0.122  16.454  0.3252 -1.0715  0.0176
  371TMC3    C1 5547   3.526   3.280  15.661  0.1492  0.3716 -0.3287
  371TMC3    C2 5548   3.390   3.276  15.686  0.0239  0.0514  0.4942
  371TMC3    C3 5549   3.324   3.392  15.713 -0.0348 -0.2226 -0.2412
  371TMC3    C4 5550   3.598   3.401  15.655 -0.3180 -0.0677  0.2686
  371TMC3    C5 5551   3.527   3.517  15.685 -0.5850 -0.0483  0.2893
  371TMC3    C6 5552   3.392   3.508  15.715  0.4068  0.3186 -0.3942
  371TMC3     C 5553   3.603   3.157  15.651  0.0575 -1.0677  0.2926
  371TMC3     O 5554   3.723   3.166  15.655 -0.1016  0.2901 -0.1405
  371TMC3     H 5555   3.331   3.186  15.685 -0.7365  0.5676 -2.6310
  371TMC3    H1 5556   3.706   3.406  15.646 -0.3532  0.9572  0.4382
  371TMC3    H2 5557   3.325   3.589  15.738  0.8139  0.8902 -1.2329
  371TMC3    C7 5558   3.573   3.656  15.664  0.3023 -0.2330  0.5068
  371TMC3    C8 5559   3.183   3.389  15.706  1.0523  0.3414  0.5876
  371TMC3    O1 5560   3.487   3.738  15.642 -0.2358 -0.5830 -0.2874
  371TMC3    O2 5561   3.135   3.299  15.639  0.5005 -1.6968  0.1978
  372MPD2     C 5562   3.434   4.570  13.333 -0.3678  0.2312  0.5553
  372MPD2    C1 5563   3.509   4.481  13.401 -0.2078 -0.1460 -0.3343
  372MPD2    C2 5564   3.451   4.393  13.491  0.5722  0.1354  0.1303
  372MPD2    C3 5565   3.311   4.402  13.510  0.0368 -0.1029  0.2018
  372MPD2    C4 5566   3.232   4.480  13.425 -0.4716  0.0865  0.0858
  372MPD2    C5 5567   3.296   4.559  13.337 -0.2582 -0.0740  0.3369
  372MPD2     H 5568   3.513   4.337  13.559  0.6855 -1.2035 -1.0614
  372MPD2    H1 5569   3.125   4.497  13.434 -0.6802 -0.3393 -1.5700
  372MPD2    H2 5570   3.461   4.663  13.284 -1.1941 -1.0161 -2.2430
  372MPD2    H3 5571   3.246   4.636  13.279  0.6961 -0.1551 -0.6184
  372MPD2     N 5572   3.252   4.321  13.613  0.0545  0.0715  0.3720
  372MPD2    H5 5573   3.329   4.273  13.660  1.2111  2.0985  0.5595
  372MPD2    N1 5574   3.652   4.486  13.390 -0.3392  0.3185  0.1593
  372MPD2    H7 5575   3.703   4.410  13.434 -1.1066  0.0879  0.6526
  373TMC3    C1 5576   3.108   4.262  13.790 -0.4245 -0.6842  0.0701
  373TMC3    C2 5577   3.068   4.343  13.894 -0.0569 -0.2535 -0.2237
  373TMC3    C3 5578   3.059   4.277  14.021  0.9200 -0.5395 -0.2507
  373TMC3    C4 5579   3.123   4.128  13.803  0.3457 -0.2117 -0.6444
  373TMC3    C5 5580   3.104   4.066  13.926  0.6214  0.0974 -0.1343
  373TMC3    C6 5581   3.069   4.139  14.036  0.3001 -0.3078 -0.1828
  373TMC3     C 5582   3.127   4.335  13.669  0.3786 -0.1104  0.1050
  373TMC3     O 5583   3.034   4.416  13.639 -0.1558  0.6050  0.4607
  373TMC3     H 5584   3.056   4.449  13.876 -2.0897  0.0102  2.6250
  373TMC3    H1 5585   3.141   4.073  13.711 -1.0122 -1.1487 -0.3581
  373TMC3    H2 5586   3.053   4.089  14.130  1.4961 -0.5721 -0.1237
  373TMC3    C7 5587   3.201   3.963  13.956  0.4993  0.0311  0.2465
  373TMC3    C8 5588   3.111   4.340  14.143 -0.0619 -0.3501 -0.6805
  373TMC3    O1 5589   3.216   3.886  13.858 -0.2789  0.4148  0.4650
  373TMC3    O2 5590   3.161   4.264  14.228  0.0433 -0.3062 -0.3543
  374TMC3    C1 5591   4.078   0.047   9.946  0.7600  0.5956 -0.0800
  374TMC3    C2 5592   4.145   0.167   9.933  0.7249 -0.2270  0.4603
  374TMC3    C3 5593   4.124   0.243   9.821 -0.1563  0.6324 -0.1694
  374TMC3    C4 5594   3.985   0.007   9.856 -0.0032 -0.1781  0.4040
  374TMC3    C5 5595   3.985   0.071   9.735 -0.4585  0.2685  0.5325
  374TMC3    C6 5596   4.047   0.195   9.718 -0.6351 -0.0590  0.2480
  374TMC3     C 5597   4.112   4.672  10.055 -0.8676  0.1561  0.2050
  374TMC3     O 5598   4.076   4.558  10.029 -0.1393  0.3165 -0.3703
  374TMC3     H 5599   4.232   0.186   9.995  0.7009  0.8493  0.1623
  374TMC3    H1 5600   3.931   4.635   9.875 -2.4800  0.7820 -1.9579
  374TMC3    H2 5601   4.020   0.258   9.634  0.2659 -2.1551 -1.6412
  374TMC3    C7 5602   3.892   0.032   9.632 -0.3959  0.7507 -1.1933
  374TMC3    C8 5603   4.191   0.373   9.803  0.0157 -0.6783  0.1770
  374TMC3    O1 5604   3.789   4.709   9.678  0.3637  0.5279 -0.3253
  374TMC3    O2 5605   4.169   0.429   9.695  0.8890 -0.2560  0.1399
  375MPD2     C 5606   3.919   1.448  16.972  0.4628 -0.2024 -0.4092
  375MPD2    C1 5607   3.819   1.356  16.933 -0.1231  0.1253  0.0362
  375MPD2    C2 5608   3.859   1.235  16.884  0.4136 -0.6285 -0.1074
  375MPD2    C3 5609   3.994   1.203  16.890  0.2242  0.1538  0.1825
  375MPD2    C4 5610   4.096   1.295  16.911 -0.0298  0.3077 -0.3522
  375MPD2    C5 5611   4.049   1.416  16.947 -0.5375 -0.6612  0.3644
  375MPD2     H 5612   3.788   1.163  16.847 -0.4118  0.2689 -0.2730
  375MPD2    H1 5613   4.202   1.276  16.911  0.4397  3.0112  0.5012
  375MPD2    H2 5614   3.899   1.549  17.007 -0.3619 -1.1682  1.9526
  375MPD2    H3 5615   4.131   1.484  16.971 -0.9540 -0.2982  0.7825
  375MPD2     N 5616   4.050   1.075  16.853  0.5645  0.0969  0.1804
  375MPD2    H5 5617   4.149   1.084  16.834  0.3504  0.7056 -0.6401
  375MPD2    N1 5618   3.680   1.383  16.933  0.5170 -0.0558  0.3058
  375MPD2    H7 5619   3.622   1.305  16.902  0.4286  1.3039 -2.9590
  376TMC3    C1 5620   4.049   0.842  16.781  0.1193 -0.0629 -0.9619
  376TMC3    C2 5621   4.182   0.849  16.813  0.8164  0.0014  0.0618
  376TMC3    C3 5622   4.253   0.749  16.749  0.1585  0.0599 -0.6458
  376TMC3    C4 5623   3.993   0.740  16.710  0.0426 -0.4149  0.2111
  376TMC3    C5 5624   4.071   0.644  16.645 -0.2027 -0.0260 -0.4833
  376TMC3    C6 5625   4.204   0.650  16.667 -0.0779  0.0500 -0.8325
  376TMC3     C 5626   3.974   0.961  16.829 -0.5846 -0.8923 -0.5949
  376TMC3     O 5627   3.854   0.950  16.834 -0.3661 -0.3857  0.1074
  376TMC3     H 5628   4.228   0.915  16.886 -0.2341  0.3515  0.4044
  376TMC3    H1 5629   3.894   0.764  16.671  0.1256  0.3401  0.4607
  376TMC3    H2 5630   4.281   0.610  16.602 -0.4569 -1.0078 -0.6294
  376TMC3    C7 5631   4.041   0.617  16.506 -0.1922  0.6551 -0.6043
  376TMC3    C8 5632   4.388   0.738  16.771 -0.3133  0.2293  0.3093
  376TMC3    O1 5633   3.942   0.675  16.458  0.0556 -0.0544  0.0026
  376TMC3    O2 5634   4.441   0.844  16.796 -0.1190  0.0739  0.1598
  377MPD2     C 5635   1.916   0.127  12.230 -0.0266 -0.8554 -0.1210
  377MPD2    C1 5636   1.987   0.070  12.334  0.0392  1.0340 -0.6499
  377MPD2    C2 5637   1.925   0.023  12.449  0.3677  0.2086 -0.0578
  377MPD2    C3 5638   1.785   0.035  12.452 -0.2044  0.4684 -0.1229
  377MPD2    C4 5639   1.722   0.075  12.341 -0.3304 -0.7266  0.0467
  377MPD2    C5 5640   1.777   0.120  12.232 -0.4239  0.1003  0.1400
  377MPD2     H 5641   1.977   4.707  12.537  2.9322  1.0887 -1.2380
  377MPD2    H1 5642   1.615   0.064  12.338 -0.4618  0.6055 -0.1764
  377MPD2    H2 5643   1.961   0.176  12.144 -0.0486  0.2316  0.4770
  377MPD2    H3 5644   1.722   0.149  12.143  0.7025 -0.6444 -0.7923
  377MPD2     N 5645   1.704   0.008  12.558  0.6434  0.5369  0.6745
  377MPD2    H5 5646   1.609   0.042  12.550  0.2550 -0.5839  0.6277
  377MPD2    N1 5647   2.127   0.081  12.322 -0.0893  0.2571 -0.8452
  377MPD2    H7 5648   2.165   0.128  12.240  1.5627 -0.6864 -0.6310
  378TMC3    C1 5649   2.486   0.251  12.256  0.1259  0.2282  0.2556
  378TMC3    C2 5650   2.368   0.200  12.288  0.4042 -0.5246  0.8336
  378TMC3    C3 5651   2.359   0.092  12.376  0.2192 -0.1499  0.3234
  378TMC3    C4 5652   2.604   0.198  12.306  0.1087 -0.4380 -0.6267
  378TMC3    C5 5653   2.590   0.087  12.386  0.3133  0.6394 -0.2595
  378TMC3    C6 5654   2.469   0.033  12.435 -0.5361 -0.4338 -0.9134
  378TMC3     C 5655   2.480   0.359  12.157  0.3216  0.1585  0.1777
  378TMC3     O 5656   2.381   0.365  12.086  0.4070  0.0772 -0.3400
  378TMC3     H 5657   2.279   0.257  12.262 -0.4208 -1.3387  1.8412
  378TMC3    H1 5658   2.701   0.233  12.274 -0.7925  2.0634 -0.6153
  378TMC3    H2 5659   2.460   4.664  12.497  1.1428 -0.0269 -0.0864
  378TMC3    C7 5660   2.701   0.002  12.391 -0.9406  0.4081  0.0016
  378TMC3    C8 5661   2.230   0.033  12.408  0.4451 -0.0350 -0.2243
  378TMC3    O1 5662   2.718   4.667  12.499  0.2668  0.2326  0.4192
  378TMC3    O2 5663   2.219   4.686  12.510  0.0581 -0.1794  0.1402
  379MPD2     C 5664   2.787   3.281  15.974  0.0095  0.4285 -0.8569
  379MPD2    C1 5665   2.686   3.228  16.058 -0.3430  0.0593  0.0237
  379MPD2    C2 5666   2.724   3.141  16.154  0.9020 -0.7781 -0.0158
  379MPD2    C3 5667   2.856   3.107  16.173  0.1457 -0.7156  0.0623
  379MPD2    C4 5668   2.944   3.137  16.077  0.6108 -0.0768  0.0387
  379MPD2    C5 5669   2.911   3.226  15.975  0.2649 -0.9878  0.0642
  379MPD2     H 5670   2.653   3.104  16.227 -0.0589  0.0273 -0.5580
  379MPD2    H1 5671   3.047   3.104  16.086  0.3618  0.0864  3.4220
  379MPD2    H2 5672   2.778   3.354  15.894 -1.0974 -0.4398 -1.5288
  379MPD2    H3 5673   2.993   3.258  15.912  0.5135  1.2439  1.5156
  379MPD2     N 5674   2.901   3.019  16.277  0.1428 -0.0113  0.8124
  379MPD2    H5 5675   3.000   2.997  16.273  0.2224  0.3862  0.6294
  379MPD2    N1 5676   2.552   3.255  16.023 -0.4741  0.3761  0.1659
  379MPD2    H7 5677   2.538   3.331  15.957 -0.1468  1.6109  1.4983
  380TMC3    C1 5678   2.316   3.223  16.009  0.1041  0.3406 -0.0759
  380TMC3    C2 5679   2.233   3.128  15.958 -0.3294 -0.2959  0.2374
  380TMC3    C3 5680   2.130   3.172  15.880  0.2394  0.0115 -0.3989
  380TMC3    C4 5681   2.302   3.354  15.976 -0.4210 -0.0105 -0.6796
  380TMC3    C5 5682   2.198   3.386  15.893 -1.1067 -0.2949  0.7968
  380TMC3    C6 5683   2.116   3.301  15.839  0.1738  0.0874 -0.7916
  380TMC3     C 5684   2.444   3.177  16.058 -0.0078 -0.0875 -0.1943
  380TMC3     O 5685   2.442   3.069  16.116 -0.3487 -0.2694  0.2617
  380TMC3     H 5686   2.250   3.026  15.991  3.3162  0.9162  2.0697
  380TMC3    H1 5687   2.366   3.427  16.024 -0.7195  1.3666 -2.4179
  380TMC3    H2 5688   2.028   3.320  15.778 -0.5057 -1.7388 -0.3831
  380TMC3    C7 5689   2.164   3.527  15.899  0.2144 -0.6656 -0.3224
  380TMC3    C8 5690   2.057   3.076  15.799  0.4020  0.7008  0.0528
  380TMC3    O1 5691   2.224   3.598  15.981  0.1479  0.3399 -0.0350
  380TMC3    O2 5692   2.029   3.114  15.685 -0.2753  0.5090 -0.0274
  381TMC3    C1 5693   1.979   4.330  16.173 -0.7523 -0.8847 -0.1408
  381TMC3    C2 5694   2.061   4.440  16.163  0.5642  1.1803 -0.1888
  381TMC3    C3 5695   2.099   4.511  16.273 -0.4105  0.4057  0.1388
  381TMC3    C4 5696   1.923   4.296  16.294 -0.0714 -0.1890  0.0396
  381TMC3    C5 5697   1.970   4.353  16.405 -0.1166  0.1893 -0.2805
  381TMC3    C6 5698   2.053   4.462  16.401 -0.0481  0.1696  0.1163
  381TMC3     C 5699   1.896   4.301  16.053  0.3419 -0.5267  0.1803
  381TMC3     O 5700   1.774   4.284  16.076  0.7509 -0.6684 -0.1883
  381TMC3     H 5701   2.100   4.463  16.064 -1.0648  1.0420 -0.8569
  381TMC3    H1 5702   1.853   4.213  16.294 -2.2330  1.6181 -2.5856
  381TMC3    H2 5703   2.100   4.518  16.481  1.1831 -0.8964  0.1399
  381TMC3    C7 5704   1.955   4.280  16.532  0.5908 -0.0440 -0.3856
  381TMC3    C8 5705   2.236   4.546  16.260  0.4993 -0.0384 -0.3600
  381TMC3    O1 5706   1.932   4.156  16.530  0.2407 -0.4275 -0.0116
  381TMC3    O2 5707   2.302   4.476  16.186  0.6640  0.3226 -0.1698
  382MPD2     C 5708   1.598   1.736  17.196  0.1476  0.3249 -0.7669
  382MPD2    C1 5709   1.509   1.769  17.298  0.3008  0.0506 -0.8124
  382MPD2    C2 5710   1.480   1.677  17.400 -0.4901  0.1008  0.6343
  382MPD2    C3 5711   1.533   1.552  17.395  0.3604  0.3170  0.2097
  382MPD2    C4 5712   1.621   1.514  17.292  0.2203  0.2996 -1.4187
  382MPD2    C5 5713   1.654   1.612  17.201 -0.6065 -0.3726 -0.1142
  382MPD2     H 5714   1.412   1.720  17.472 -1.8505  0.4780 -0.8505
  382MPD2    H1 5715   1.668   1.416  17.289  0.2739  0.2737  0.2394
  382MPD2    H2 5716   1.637   1.807  17.125  0.5810 -0.0266 -0.8796
  382MPD2    H3 5717   1.723   1.589  17.120  0.3825  0.2746  0.5443
  382MPD2     N 5718   1.494   1.455  17.486  0.1812  0.0225 -0.4573
  382MPD2    H5 5719   1.514   1.360  17.460 -1.1255 -1.0063  2.2796
  382MPD2    N1 5720   1.433   1.885  17.303 -0.5559 -0.2731  0.1505
  382MPD2    H7 5721   1.354   1.881  17.366 -1.2302 -2.8446 -0.8828
  383TMC3    C1 5722   1.336   1.358  17.626 -0.1005  0.4751  0.0289
  383TMC3    C2 5723   1.312   1.250  17.538  1.0102  0.2562 -0.4304
  383TMC3    C3 5724   1.204   1.167  17.567  0.5018  0.0230  0.2707
  383TMC3    C4 5725   1.259   1.367   0.062 -0.6883  0.1234  0.7671
  383TMC3    C5 5726   1.145   1.289   0.070 -0.5815  0.1309  0.3665
  383TMC3    C6 5727   1.113   1.192  17.666  0.2284 -0.2032 -0.2907
  383TMC3     C 5728   1.413   1.480  17.601  0.2518 -0.4969 -0.5357
  383TMC3     O 5729   1.372   1.586  17.646  0.6862 -0.2934 -0.6046
  383TMC3     H 5730   1.370   1.232  17.449  0.1329  0.5597 -1.0620
  383TMC3    H1 5731   1.283   1.438   0.140 -0.7850 -2.0422  2.7581
  383TMC3    H2 5732   1.025   1.131   0.000 -0.0833  0.1994 -0.5027
  383TMC3    C7 5733   1.072   1.299   0.196  0.6542 -0.2466  0.1080
  383TMC3    C8 5734   1.136   1.117  17.439  0.3963  0.0397  0.0232
  383TMC3    O1 5735   0.951   1.301   0.183  0.1136 -0.5376  0.0408
  383TMC3    O2 5736   1.013   1.113  17.444 -0.5744 -0.7097  0.2250
  384MPD2     C 5737   3.164   3.456  12.004  0.5234 -0.4859  0.0304
  384MPD2    C1 5738   3.195   3.374  12.114  0.2120 -0.0354  0.2052
  384MPD2    C2 5739   3.307   3.300  12.111 -1.1591  0.8187 -0.1744
  384MPD2    C3 5740   3.398   3.313  12.008  0.8094  0.0751  0.0083
  384MPD2    C4 5741   3.372   3.405  11.911  0.6591  0.5094  0.2683
  384MPD2    C5 5742   3.251   3.470  11.899  0.6214 -0.2489 -0.3233
  384MPD2     H 5743   3.335   3.231  12.190 -0.0161  2.1133  0.5600
  384MPD2    H1 5744   3.446   3.421  11.833  0.3480 -2.0445 -0.5453
  384MPD2    H2 5745   3.066   3.503  11.999  1.3191  1.0805 -0.5127
  384MPD2    H3 5746   3.226   3.532  11.813  0.6662 -1.4265 -1.1811
  384MPD2     N 5747   3.512   3.229  12.013 -0.0578 -0.1750  0.1802
  384MPD2    H5 5748   3.518   3.168  12.094 -0.6269 -2.1959 -1.3012
  384MPD2    N1 5749   3.106   3.342  12.219 -0.1644  0.2461  0.1683
  384MPD2    H7 5750   3.138   3.276  12.289 -0.1882  0.7685  0.6767
  385TMC3    C1 5751   3.681   3.090  11.941 -0.0904  0.3454  0.0024
  385TMC3    C2 5752   3.671   2.995  11.844  0.0897  0.0542 -0.4336
  385TMC3    C3 5753   3.666   2.867  11.886 -0.5250  0.5740  0.4301
  385TMC3    C4 5754   3.672   3.053  12.073  0.0632  0.5623  0.4360
  385TMC3    C5 5755   3.646   2.925  12.119 -0.3807  0.4958  0.1530
  385TMC3    C6 5756   3.646   2.836  12.019  0.6830  0.2905 -0.4743
  385TMC3     C 5757   3.606   3.212  11.918 -0.4222 -1.2231 -0.6753
  385TMC3     O 5758   3.627   3.275  11.815 -0.4790 -0.6462  0.0684
  385TMC3     H 5759   3.679   3.035  11.744  2.5491 -0.6081 -0.5210
  385TMC3    H1 5760   3.693   3.128  12.149 -0.0870  1.1760 -0.1275
  385TMC3    H2 5761   3.624   2.735  12.050 -1.1805  0.7553 -0.2805
  385TMC3    C7 5762   3.527   2.925  12.201  0.4263  0.3892 -0.0902
  385TMC3    C8 5763   3.647   2.756  11.790  0.6978 -0.3588  0.0814
  385TMC3    O1 5764   3.485   3.039  12.228 -0.4347  0.5051 -0.3647
  385TMC3    O2 5765   3.720   2.742  11.691  0.5036 -0.2942 -0.1108
  386TMC3    C1 5766   3.710   0.844  11.574  0.3703  0.7932  0.6239
  386TMC3    C2 5767   3.663   0.783  11.458 -0.0595 -0.4877  0.7279
  386TMC3    C3 5768   3.531   0.800  11.425  0.3779  0.2942 -0.2940
  386TMC3    C4 5769   3.617   0.897  11.667  0.0259  0.0829  0.4311
  386TMC3    C5 5770   3.490   0.902  11.631 -0.3142 -0.2798 -0.3371
  386TMC3    C6 5771   3.443   0.863  11.508  0.1275  0.4058  0.4087
  386TMC3     C 5772   3.843   0.842  11.616  0.3882 -0.3000 -0.2391
  386TMC3     O 5773   3.887   0.950  11.664  0.0077  0.3060 -0.0699
  386TMC3     H 5774   3.738   0.750  11.386 -0.6704 -2.9457  1.2532
  386TMC3    H1 5775   3.650   0.920  11.768  1.7830 -0.5820  0.0107
  386TMC3    H2 5776   3.343   0.889  11.474  0.2830  0.7754  0.2466
  386TMC3    C7 5777   3.396   0.936  11.734  0.4532 -0.3762 -0.0455
  386TMC3    C8 5778   3.470   0.731  11.310  0.2584 -0.5936  0.7219
  386TMC3    O1 5779   3.436   0.944  11.850 -0.0855 -0.1425 -0.0522
  386TMC3    O2 5780   3.354   0.756  11.294 -0.5520 -0.0982 -0.6300
  387MPD2     C 5781   0.868   0.058   9.664 -0.9073 -0.1597 -0.3815
  387MPD2    C1 5782   1.005   0.053   9.698  0.3993  0.0387 -0.1801
  387MPD2    C2 5783   1.075   4.652   9.695 -0.2482  0.5218  0.3694
  387MPD2    C3 5784   1.015   4.532   9.662  0.3447  0.3635  0.6135
  387MPD2    C4 5785   0.880   4.537   9.636  0.1226 -0.4272  0.8606
  387MPD2    C5 5786   0.811   4.657   9.638 -0.6932  1.0168  0.4982
  387MPD2     H 5787   1.177   4.649   9.732 -0.1914 -0.9928  0.0734
  387MPD2    H1 5788   0.819   4.447   9.627 -1.8325  0.8651  1.2436
  387MPD2    H2 5789   0.809   0.148   9.673  1.3907  1.3529 -0.3248
  387MPD2    H3 5790   0.703   4.652   9.626 -0.3735 -1.4130 -1.3882
  387MPD2     N 5791   1.094   4.417   9.670  0.1091 -0.5965  0.7296
  387MPD2    H5 5792   1.190   4.432   9.699  0.4348 -0.8242 -0.2401
  387MPD2    N1 5793   1.077   0.153   9.771 -0.0125 -0.1498 -0.7524
  387MPD2    H7 5794   1.178   0.150   9.767  0.0232 -0.6712  0.4662
  388TMC3    C1 5795   1.117   0.319   9.937 -0.4322 -0.5607  0.7755
  388TMC3    C2 5796   1.089   0.445   9.980  0.2802 -0.0889  0.0671
  388TMC3    C3 5797   1.166   0.499  10.079 -0.0272  0.0496 -0.0570
  388TMC3    C4 5798   1.204   0.233   9.995 -0.3026 -0.1326  0.0214
  388TMC3    C5 5799   1.277   0.286  10.100 -0.0549  0.0580  0.1871
  388TMC3    C6 5800   1.270   0.423  10.133  0.1314  0.0455  0.3643
  388TMC3     C 5801   1.019   0.260   9.842  0.1189  0.2519  0.3890
  388TMC3     O 5802   0.907   0.304   9.833  0.5470  0.4257  0.0971
  388TMC3     H 5803   1.001   0.492   9.938  0.7989 -0.1212 -1.0670
  388TMC3    H1 5804   1.204   0.127   9.971 -2.5922  0.1595 -1.2882
  388TMC3    H2 5805   1.330   0.454  10.217 -0.6442  0.0575  0.9165
  388TMC3    C7 5806   1.387   0.206  10.157  0.1497  0.1040  0.0852
  388TMC3    C8 5807   1.157   0.639  10.116  0.5875  0.4309  0.5938
  388TMC3    O1 5808   1.456   0.251  10.248 -0.4175 -0.0172 -0.4421
  388TMC3    O2 5809   1.245   0.689  10.187 -0.3011 -0.5212 -0.0052
  389MPD2     C 5810   0.270   3.221  10.697  0.0522 -0.1253 -1.0755
  389MPD2    C1 5811   0.153   3.161  10.665 -0.0128 -0.6840 -1.0551
  389MPD2    C2 5812   0.080   3.091  10.752  0.4526  0.0161 -0.0079
  389MPD2    C3 5813   0.133   3.063  10.880 -0.0160  0.4773  0.4058
  389MPD2    C4 5814   0.258   3.117  10.907  1.0208 -0.4979 -0.0741
  389MPD2    C5 5815   0.318   3.196  10.819  0.3940  0.1407  0.1439
  389MPD2     H 5816   4.693   3.081  10.736  0.9032 -0.5564 -2.6978
  389MPD2    H1 5817   0.306   3.099  11.003  1.0065 -0.2446 -0.0178
  389MPD2    H2 5818   0.331   3.289  10.639 -0.6512  0.1724 -1.4609
  389MPD2    H3 5819   0.409   3.241  10.856 -0.1996  3.3905 -2.4032
  389MPD2     N 5820   0.068   2.998  10.986  0.1060  0.0598 -0.0992
  389MPD2    H5 5821   0.119   2.976  11.071  0.4802  2.8626  0.4105
  389MPD2    N1 5822   0.101   3.193  10.545  0.1538  0.7542  0.0335
  389MPD2    H7 5823   0.143   3.279  10.512  0.0431  1.2682  1.2135
  390TMC3    C1 5824   4.622   2.919  11.119  0.1642 -0.2715 -0.4339
  390TMC3    C2 5825   4.512   2.847  11.130 -0.4303  0.3378 -0.4492
  390TMC3    C3 5826   4.414   2.877  11.219  0.5765 -0.7066  0.4478
  390TMC3    C4 5827   4.638   3.028  11.208 -0.2639 -0.2779 -0.1373
  390TMC3    C5 5828   4.547   3.049  11.310  0.2396  0.4072  0.0953
  390TMC3    C6 5829   4.437   2.978  11.313  0.2647  0.5175 -0.3744
  390TMC3     C 5830   4.658   2.958  10.985 -0.9623 -0.6348  0.0799
  390TMC3     O 5831   4.568   2.969  10.902  0.5026 -1.0309 -0.2930
  390TMC3     H 5832   4.500   2.775  11.049  0.5189 -0.1732 -0.1305
  390TMC3    H1 5833   0.005   3.093  11.208 -1.6041  1.4946  0.1854
  390TMC3    H2 5834   4.370   3.001  11.395  2.2663  0.9707  1.1036
  390TMC3    C7 5835   4.595   3.135  11.420 -0.2746 -0.2944 -0.0737
  390TMC3    C8 5836   4.283   2.812  11.203 -0.3687  0.0230  0.0290
  390TMC3    O1 5837   4.713   3.174  11.407  0.6311  0.2222  0.4970
  390TMC3    O2 5838   4.274   2.716  11.124  0.0297  0.2793 -0.0610
  391MPD2     C 5839   4.058   0.587  11.312  0.2616  0.1879 -0.1544
  391MPD2    C1 5840   4.190   0.607  11.306 -0.3721  0.0881  0.6160
  391MPD2    C2 5841   4.244   0.652  11.190  0.7024  0.3111 -0.1380
  391MPD2    C3 5842   4.171   0.654  11.069  0.3593  0.0345 -0.0261
  391MPD2    C4 5843   4.037   0.634  11.076 -0.4622  0.3143  0.2582
  391MPD2    C5 5844   3.984   0.601  11.196  0.5753  0.7673  0.0734
  391MPD2     H 5845   4.351   0.666  11.190  0.9749 -1.8065  1.7113
  391MPD2    H1 5846   3.973   0.638  10.989  1.6638 -0.1220 -1.3174
  391MPD2    H2 5847   4.013   0.543  11.401  0.6525  2.5580  1.2078
  391MPD2    H3 5848   3.878   0.578  11.202  1.4573 -2.8013  1.7733
  391MPD2     N 5849   4.240   0.683  10.954 -0.4153  0.5474 -0.1743
  391MPD2    H5 5850   4.334   0.715  10.973  0.5446 -1.1110 -2.0318
  391MPD2    N1 5851   4.255   0.585  11.425  0.8214 -0.2783 -0.1667
  391MPD2    H7 5852   4.200   0.549  11.502 -0.6934 -0.3266 -1.2675
  392TMC3    C1 5853   4.304   0.724  10.720 -0.4511  0.1835 -0.3770
  392TMC3    C2 5854   4.268   0.728  10.590  0.4106 -0.1608 -0.2955
  392TMC3    C3 5855   4.355   0.740  10.490 -0.3826  0.0731 -0.2282
  392TMC3    C4 5856   4.442   0.735  10.747  0.0423 -0.0472 -0.3039
  392TMC3    C5 5857   4.530   0.753  10.642 -0.4350  0.5073  0.0439
  392TMC3    C6 5858   4.490   0.761  10.509 -0.2044  0.3155 -0.0892
  392TMC3     C 5859   4.201   0.685  10.822  0.1417 -0.7691 -0.0991
  392TMC3     O 5860   4.088   0.657  10.782 -0.1224  0.3492  0.7367
  392TMC3     H 5861   4.164   0.736  10.561  0.5810  2.0772 -0.3110
  392TMC3    H1 5862   4.474   0.715  10.849  1.2733  1.8451 -0.3223
  392TMC3    H2 5863   4.559   0.751  10.427  0.3202  1.0808  0.2631
  392TMC3    C7 5864   4.669   0.769  10.680 -0.7101 -0.0332 -0.8485
  392TMC3    C8 5865   4.305   0.695  10.361  0.3152  0.2214  0.4160
  392TMC3    O1 5866   4.693   0.796  10.800 -0.2601  0.1162  0.4678
  392TMC3    O2 5867   4.229   0.604  10.384 -0.0420  0.3958  0.0184
  393TMC3    C1 5868   2.704   2.820  10.468 -0.5738 -0.4001  0.1453
  393TMC3    C2 5869   2.592   2.775  10.520  0.1858 -0.0405 -0.1431
  393TMC3    C3 5870   2.583   2.773  10.658 -0.0799 -0.3594  0.0870
  393TMC3    C4 5871   2.814   2.855  10.540  0.3611 -0.2195  0.6498
  393TMC3    C5 5872   2.807   2.843  10.675  1.0117  0.1700 -0.2324
  393TMC3    C6 5873   2.700   2.789  10.732  0.1584 -0.0568  0.0632
  393TMC3     C 5874   2.722   2.810  10.322  0.1716 -0.0644  0.2917
  393TMC3     O 5875   2.816   2.873  10.275 -0.6986  0.0230 -0.2344
  393TMC3     H 5876   2.507   2.760  10.454 -1.3215  0.6940  1.6477
  393TMC3    H1 5877   2.893   2.916  10.499 -1.7329  1.6164 -0.6616
  393TMC3    H2 5878   2.689   2.794  10.839 -0.0081  3.7190 -0.1322
  393TMC3    C7 5879   2.916   2.886  10.752  0.4235  0.5679  0.2438
  393TMC3    C8 5880   2.478   2.688  10.710  0.3306 -0.9292  0.3446
  393TMC3    O1 5881   2.891   2.917  10.866 -0.0672  0.1478 -0.1094
  393TMC3    O2 5882   2.443   2.597  10.640  0.2065  0.3963 -0.0906
  394TMC3    C1 5883   4.669   3.236  10.369 -0.4495  0.4467 -0.0758
  394TMC3    C2 5884   4.574   3.178  10.296 -0.1507  1.2183  0.5500
  394TMC3    C3 5885   4.568   3.204  10.162 -0.2619 -0.8352 -0.0516
  394TMC3    C4 5886   0.055   3.308  10.315  0.7935  0.1747  0.2609
  394TMC3    C5 5887   0.046   3.332  10.180  0.2297 -0.5658  0.0758
  394TMC3    C6 5888   4.663   3.283  10.102 -0.3929  0.1092  0.1194
  394TMC3     C 5889   4.698   3.164  10.498  0.4986  0.1220  0.0731
  394TMC3     O 5890   4.633   3.063  10.521  0.4383 -0.3062 -0.0680
  394TMC3     H 5891   4.495   3.111  10.326  0.3940  0.1878 -0.3159
  394TMC3    H1 5892   0.133   3.351  10.377  1.7170 -0.4298 -0.4777
  394TMC3    H2 5893   4.654   3.303   9.996  1.8242 -1.2081 -0.3308
  394TMC3    C7 5894   0.167   3.394  10.126 -0.1070  0.4631 -0.3912
  394TMC3    C8 5895   4.557   3.081  10.092 -0.0931  0.7228  0.5948
  394TMC3    O1 5896   0.166   3.478  10.037 -0.2972  0.0091  0.4621
  394TMC3    O2 5897   4.496   3.078   9.989  0.1074  0.4560  0.0026
  395TMC3    C1 5898   4.176   1.016  14.635  0.3945  0.4341  0.4468
  395TMC3    C2 5899   4.072   0.961  14.712  0.6214 -0.0888  0.5172
  395TMC3    C3 5900   4.075   0.987  14.852  0.3880 -0.2651  0.0304
  395TMC3    C4 5901   4.265   1.105  14.688 -0.0658  0.3166 -0.0025
  395TMC3    C5 5902   4.266   1.127  14.824 -0.5440 -0.9555  0.6268
  395TMC3    C6 5903   4.173   1.068  14.909  1.1075  0.4479 -0.5092
  395TMC3     C 5904   4.250   0.905  14.569  0.4742  0.1486  0.6640
  395TMC3     O 5905   4.367   0.916  14.604  0.3109  0.3369  0.4996
  395TMC3     H 5906   3.994   0.899  14.670  1.4367 -1.8189  1.5533
  395TMC3    H1 5907   4.331   1.145  14.612 -1.5691  2.3930 -0.2082
  395TMC3    H2 5908   4.190   1.071  15.016  1.0509 -1.0761 -0.4530
  395TMC3    C7 5909   4.393   1.147  14.892  0.1903  0.4729 -0.7179
  395TMC3    C8 5910   4.031   0.878  14.931 -0.1116  1.0865 -0.0837
  395TMC3    O1 5911   4.411   1.206  14.997  0.1784  0.2188  0.1955
  395TMC3    O2 5912   4.008   0.894  15.052  0.3533  0.2854 -0.0568
  396MPD2     C 5913   4.424   1.482  16.893  0.0995  0.7166 -0.4721
  396MPD2    C1 5914   4.511   1.495  16.999 -0.3173  0.5105  0.2280
  396MPD2    C2 5915   4.600   1.598  16.994 -0.0433  0.1695 -0.9649
  396MPD2    C3 5916   4.612   1.685  16.886 -0.7729 -0.0822 -0.3666
  396MPD2    C4 5917   4.518   1.678  16.784 -0.5379 -0.2200 -0.4327
  396MPD2    C5 5918   4.422   1.574  16.795  0.8016 -0.6606 -0.2505
  396MPD2     H 5919   4.683   1.607  17.063  1.5672 -2.8860 -2.4836
  396MPD2    H1 5920   4.507   1.729  16.689 -1.2822 -0.4876 -0.4896
  396MPD2    H2 5921   4.349   1.404  16.883 -0.4628  0.7960  3.0271
  396MPD2    H3 5922   4.355   1.553  16.713  1.0854  0.8288 -0.8627
  396MPD2     N 5923   4.709   1.787  16.888 -0.6187  0.5303  0.3538
  396MPD2    H5 5924   0.041   1.791  16.976  0.2167 -0.8718 -0.0733
  396MPD2    N1 5925   4.501   1.397  17.102 -0.2568 -0.2103  0.7647
  396MPD2    H7 5926   4.422   1.335  17.088 -2.6923  2.6680  1.5621
  397TMC3    C1 5927   4.547   1.270  17.289 -0.3454 -0.3672  0.3224
  397TMC3    C2 5928   4.646   1.178  17.259  0.0607  0.6329  0.1923
  397TMC3    C3 5929   4.607   1.087  17.165  0.5072 -1.1727 -0.2196
  397TMC3    C4 5930   4.421   1.227  17.265  0.5349 -0.1622 -0.2163
  397TMC3    C5 5931   4.391   1.104  17.213 -0.9609 -0.6602 -0.2890
  397TMC3    C6 5932   4.482   1.039  17.150 -0.5948  0.1908 -0.4533
  397TMC3     C 5933   4.578   1.390  17.214 -0.6111 -0.3096 -0.2969
  397TMC3     O 5934   4.673   1.462  17.244  0.0674 -0.0057 -0.3492
  397TMC3     H 5935   0.021   1.230  17.249 -0.7872  2.0323 -0.5750
  397TMC3    H1 5936   4.342   1.299  17.284  0.4277 -0.0122 -1.2057
  397TMC3    H2 5937   4.458   0.950  17.092  0.0325 -0.7170  0.6866
  397TMC3    C7 5938   4.253   1.070  17.197 -0.4079  0.6769  0.7483
  397TMC3    C8 5939   4.665   1.113  17.035  0.6315 -0.7070 -0.3014
  397TMC3    O1 5940   4.213   1.027  17.089 -0.7112 -0.5686 -0.0150
  397TMC3    O2 5941   4.590   1.089  16.939  1.1290  0.4504 -0.1665
  398MPD2     C 5942   2.653   2.695   0.264 -0.3385  0.2873  0.3716
  398MPD2    C1 5943   2.764   2.627   0.303  0.2299  0.2924  0.5290
  398MPD2    C2 5944   2.889   2.682   0.273 -0.1868  0.1758 -0.4385
  398MPD2    C3 5945   2.899   2.805   0.221 -0.1724  0.0756 -0.1917
  398MPD2    C4 5946   2.781   2.870   0.180  0.1161  0.8811 -0.4539
  398MPD2    C5 5947   2.658   2.816   0.198 -0.5067 -0.0315  0.1105
  398MPD2     H 5948   2.970   2.617   0.306 -1.1323 -0.4792  0.6248
  398MPD2    H1 5949   2.789   2.966   0.130 -0.9959  1.1092 -0.1879
  398MPD2    H2 5950   2.549   2.667   0.279 -0.0066 -0.9087  0.4671
  398MPD2    H3 5951   2.574   2.883   0.181 -1.8595 -1.7230  0.1726
  398MPD2     N 5952   3.033   2.854   0.205  0.0481 -0.0679 -0.0486
  398MPD2    H5 5953   3.105   2.785   0.222 -0.1877  0.7009  3.8774
  398MPD2    N1 5954   2.757   2.506   0.371 -0.1105 -0.2971  0.2522
  398MPD2    H7 5955   2.844   2.465   0.404  0.2889 -0.9996 -1.6378
  399TMC3    C1 5956   2.670   2.319   0.485 -0.0065  0.8196 -0.2647
  399TMC3    C2 5957   2.736   2.355   0.601 -0.7502  0.6247 -0.4996
  399TMC3    C3 5958   2.734   2.273   0.709 -0.6025 -0.2719 -0.2110
  399TMC3    C4 5959   2.589   2.211   0.481 -0.3463  0.6234 -0.1662
  399TMC3    C5 5960   2.602   2.126   0.592  0.0115 -0.5467  0.1780
  399TMC3    C6 5961   2.676   2.150   0.697 -0.1046  0.3669  0.3439
  399TMC3     C 5962   2.642   2.430   0.391 -0.2097 -0.1393 -0.5653
  399TMC3     O 5963   2.526   2.445   0.362 -0.1420  0.5151 -0.1429
  399TMC3     H 5964   2.801   2.441   0.611 -0.2105  0.3748 -1.9564
  399TMC3    H1 5965   2.514   2.192   0.406  1.3136 -0.4966 -1.5456
  399TMC3    H2 5966   2.651   2.092   0.785  1.0457  0.5303  0.7700
  399TMC3    C7 5967   2.557   1.986   0.569  0.0149  1.0904 -0.2765
  399TMC3    C8 5968   2.788   2.316   0.835 -0.3000  0.5308 -0.6217
  399TMC3    O1 5969   2.476   1.971   0.480 -0.4545 -0.2197  0.4667
  399TMC3    O2 5970   2.818   2.433   0.843 -0.0857  0.6042 -0.0019
  400TMC3    C1 5971   1.358   1.120  16.819 -0.1774  0.0495 -0.3555
  400TMC3    C2 5972   1.251   1.089  16.739  0.7297  1.1517 -0.4706
  400TMC3    C3 5973   1.141   1.176  16.740 -0.3901 -0.4667  0.3597
  400TMC3    C4 5974   1.350   1.226  16.901  0.1505  0.0773  0.1544
  400TMC3    C5 5975   1.247   1.311  16.901  0.7908  0.0203 -0.1646
  400TMC3    C6 5976   1.142   1.283  16.824  0.4127 -0.1785  0.3201
  400TMC3     C 5977   1.444   1.007  16.857  0.6168  0.6577 -0.6796
  400TMC3     O 5978   1.435   0.901  16.797 -0.1246 -0.6012  0.0066
  400TMC3     H 5979   1.256   1.001  16.677  0.3804 -1.1800  2.8000
  400TMC3    H1 5980   1.435   1.257  16.959  0.5498 -0.8679  0.0782
  400TMC3    H2 5981   1.068   1.362  16.818  1.4411  0.9534  2.5955
  400TMC3    C7 5982   1.224   1.387  17.025  0.3414 -0.7021  0.0450
  400TMC3    C8 5983   1.019   1.148  16.664  0.5427  0.0040  0.1786
  400TMC3    O1 5984   1.322   1.415  17.093  0.3464  0.0752 -0.5307
  400TMC3    O2 5985   0.934   1.236  16.657 -0.8398 -0.0646 -0.2088
  401MPD2     C 5986   0.078   4.040   1.489  0.8420  0.1645 -0.1271
  401MPD2    C1 5987   0.198   3.989   1.445 -0.3720  0.5640 -0.7148
  401MPD2    C2 5988   0.188   3.926   1.325 -0.4758  0.0155 -0.5816
  401MPD2    C3 5989   0.079   3.925   1.246 -0.3574 -0.8646 -0.1903
  401MPD2    C4 5990   4.674   3.963   1.297  0.2526  0.4408 -0.8172
  401MPD2    C5 5991   4.676   4.020   1.422  0.0968 -0.3312  0.7981
  401MPD2     H 5992   0.267   3.862   1.288  1.1385  0.6612  1.7359
  401MPD2    H1 5993   4.584   3.966   1.237 -1.5411 -0.5161  1.8570
  401MPD2    H2 5994   0.068   4.089   1.585 -2.2427  0.5820 -0.6805
  401MPD2    H3 5995   4.586   4.061   1.465 -1.1970 -0.5264 -1.7463
  401MPD2     N 5996   0.090   3.854   1.124  0.4525 -0.0773  0.0854
  401MPD2    H5 5997   0.174   3.800   1.109  0.7879  0.7006 -0.8558
  401MPD2    N1 5998   0.314   4.002   1.522  0.2491 -0.1452  0.7344
  401MPD2    H7 5999   0.388   3.942   1.487 -0.5337 -1.3842  1.2155
  402TMC3    C1 6000   0.051   3.803   0.906  0.1668 -0.5002  0.7496
  402TMC3    C2 6001   0.144   3.703   0.936  0.0339  0.2625  0.8110
  402TMC3    C3 6002   0.267   3.704   0.875  0.2693 -0.2142 -0.4109
  402TMC3    C4 6003   0.081   3.901   0.813 -0.0486  0.0656  0.2673
  402TMC3    C5 6004   0.204   3.904   0.762  0.0800  0.3886  0.0270
  402TMC3    C6 6005   0.301   3.812   0.802  0.4491 -0.4105 -0.7490
  402TMC3     C 6006   0.003   3.870   1.018 -0.1428 -0.4019 -0.5867
  402TMC3     O 6007   4.638   3.952   0.996 -0.5487  0.2645  0.4305
  402TMC3     H 6008   0.122   3.618   1.000  0.3646  0.3957  1.0985
  402TMC3    H1 6009   0.009   3.979   0.792 -0.7686 -0.8846 -0.7734
  402TMC3    H2 6010   0.402   3.819   0.763  0.3726 -2.0025 -1.2414
  402TMC3    C7 6011   0.254   4.038   0.730  0.3567 -0.9235  0.4297
  402TMC3    C8 6012   0.374   3.640   0.961  0.0003 -0.4393  0.0827
  402TMC3    O1 6013   0.213   4.134   0.793  0.0406  0.5934 -0.8016
  402TMC3    O2 6014   0.361   3.528   1.006 -0.1097 -0.8820  0.5636
  403MPD2     C 6015   2.621   2.971  13.369 -0.4246  0.3233 -0.4194
  403MPD2    C1 6016   2.682   2.848  13.391  1.2401  0.1060 -0.0738
  403MPD2    C2 6017   2.769   2.846  13.500 -0.3488 -0.0567 -0.5209
  403MPD2    C3 6018   2.785   2.951  13.595 -0.2833 -0.1573  0.5095
  403MPD2    C4 6019   2.716   3.074  13.573  0.4269 -0.6708  0.7819
  403MPD2    C5 6020   2.641   3.076  13.456 -0.1044 -0.5670 -0.4647
  403MPD2     H 6021   2.833   2.760  13.513 -1.9629 -0.7219  3.1342
  403MPD2    H1 6022   2.718   3.161  13.637  0.5515  0.7309 -1.1328
  403MPD2    H2 6023   2.556   2.988  13.283 -1.7482  1.8349  0.8992
  403MPD2    H3 6024   2.584   3.166  13.437 -0.4399 -0.5628  0.5694
  403MPD2     N 6025   2.867   2.930  13.711  0.1772 -0.3864  0.1666
  403MPD2    H5 6026   2.890   2.832  13.725 -0.5137 -0.5184  0.3486
  403MPD2    N1 6027   2.657   2.744  13.302 -0.1670 -0.1215 -0.3105
  403MPD2    H7 6028   2.588   2.760  13.229  1.1633  1.9911 -1.0940
  404TMC3    C1 6029   2.641   2.515  13.229 -0.0409 -0.0526  0.1977
  404TMC3    C2 6030   2.612   2.391  13.278 -1.0932  1.1298 -0.1264
  404TMC3    C3 6031   2.541   2.312  13.191  0.2959  0.7789  0.9502
  404TMC3    C4 6032   2.633   2.555  13.100  0.2073 -0.2692  0.3029
  404TMC3    C5 6033   2.564   2.463  13.022  0.3017 -0.0445  0.4135
  404TMC3    C6 6034   2.512   2.344  13.059 -0.3250 -0.0476  0.5047
  404TMC3     C 6035   2.700   2.611  13.320 -0.1954 -0.6687  0.3458
  404TMC3     O 6036   2.753   2.561  13.422 -0.3598  0.0092 -0.0291
  404TMC3     H 6037   2.631   2.353  13.378  0.3646 -1.3288 -1.3360
  404TMC3    H1 6038   2.688   2.640  13.061 -0.3198 -0.1444 -0.1670
  404TMC3    H2 6039   2.451   2.285  12.992  0.2876 -1.6306  1.3377
  404TMC3    C7 6040   2.538   2.514  12.884 -0.7478  0.5961  0.6715
  404TMC3    C8 6041   2.543   2.171  13.228 -0.0562 -0.4761 -0.5256
  404TMC3    O1 6042   2.562   2.633  12.873 -0.3379  0.3998 -0.2830
  404TMC3    O2 6043   2.548   2.082  13.147 -0.5011 -0.2726  0.6820
  405MPD2     C 6044   2.738   3.153  14.751  0.1805 -0.6531  0.0553
  405MPD2    C1 6045   2.803   3.085  14.655 -0.8298 -0.4171  0.1113
  405MPD2    C2 6046   2.798   3.122  14.523  0.2238 -0.2139  0.6095
  405MPD2    C3 6047   2.713   3.222  14.487  0.8562  0.5059 -0.3258
  405MPD2    C4 6048   2.650   3.298  14.587  0.4321  0.0195 -0.4375
  405MPD2    C5 6049   2.680   3.272  14.717  0.1256 -0.0194 -0.1808
  405MPD2     H 6050   2.854   3.071  14.445  0.5150  0.0180  0.6662
  405MPD2    H1 6051   2.596   3.386  14.557  1.6129  1.5833  2.0286
  405MPD2    H2 6052   2.739   3.122  14.855 -0.4314  3.2092  1.2157
  405MPD2    H3 6053   2.622   3.331  14.787 -0.1577 -0.7766  0.2238
  405MPD2     N 6054   2.691   3.242  14.351  0.0431 -0.4734 -0.4972
  405MPD2    H5 6055   2.742   3.176  14.294 -1.9324 -1.5539 -0.9982
  405MPD2    N1 6056   2.864   2.962  14.700  0.3307 -0.0396  0.3986
  405MPD2    H7 6057   2.862   2.949  14.801  1.3312 -0.9307  0.3075
  406TMC3    C1 6058   2.434   3.352  13.993 -0.6182  0.2788 -0.0299
  406TMC3    C2 6059   2.470   3.238  13.929  0.4169  0.3176  0.1399
  406TMC3    C3 6060   2.579   3.171  13.980 -0.2507 -0.0064  0.4831
  406TMC3    C4 6061   2.494   3.401  14.097 -0.8201 -0.1987 -0.0845
  406TMC3    C5 6062   2.606   3.333  14.146 -0.3485  0.4294  0.3129
  406TMC3    C6 6063   2.646   3.220  14.086 -0.6573  0.1070  0.2722
  406TMC3     C 6064   2.298   3.380  13.982  0.5920 -0.3471 -0.3321
  406TMC3     O 6065   2.247   3.387  13.873 -0.0036 -0.4171 -0.4449
  406TMC3     H 6066   2.411   3.193  13.850 -0.0232  1.0179  0.0777
  406TMC3    H1 6067   2.464   3.489  14.152  0.6764  1.9090 -2.6733
  406TMC3    H2 6068   2.748   3.194  14.111 -0.3355  0.9794 -0.1410
  406TMC3    C7 6069   2.614   3.340  14.292  0.0360  0.0141  0.0466
  406TMC3    C8 6070   2.588   3.029  13.952  0.0418  0.0914  0.2209
  406TMC3    O1 6071   2.541   3.426  14.344  0.4632  0.9120 -0.3962
  406TMC3    O2 6072   2.526   2.975  13.860  0.2787 -0.3600 -0.2004
  407MPD2     C 6073   0.386   4.178   9.841  0.4691  0.0645 -0.2775
  407MPD2    C1 6074   0.432   4.304   9.797 -0.1168 -0.3152 -0.1400
  407MPD2    C2 6075   0.499   4.388   9.885 -0.2466 -0.0563 -0.3866
  407MPD2    C3 6076   0.515   4.351  10.018 -0.0339 -0.3411  0.6122
  407MPD2    C4 6077   0.483   4.219  10.052 -0.0023  0.1598  0.5553
  407MPD2    C5 6078   0.423   4.132   9.968  0.1961  0.1469  0.5350
  407MPD2     H 6079   0.522   4.489   9.852 -1.6857  0.8358  1.3218
  407MPD2    H1 6080   0.514   4.168  10.142  2.5252  0.7855  0.0497
  407MPD2    H2 6081   0.333   4.111   9.775 -1.4504  1.1380  0.1598
  407MPD2    H3 6082   0.399   4.030   9.996 -2.5067  0.2708 -1.3821
  407MPD2     N 6083   0.585   4.428  10.121  0.1026 -0.3728 -0.1665
  407MPD2    H5 6084   0.603   4.381  10.209  0.5587 -0.3667 -0.2581
  407MPD2    N1 6085   0.410   4.358   9.672  0.4410 -0.3288 -0.3816
  407MPD2    H7 6086   0.434   4.456   9.660 -1.9377  0.4621  1.3258
  408TMC3    C1 6087   0.329   4.398   9.460  0.6107  0.7436  0.2950
  408TMC3    C2 6088   0.430   4.490   9.452 -0.5963  0.1592  0.5670
  408TMC3    C3 6089   0.405   4.618   9.429  0.1579  0.8786  0.5036
  408TMC3    C4 6090   0.214   4.429   9.399  0.3520 -0.1734  0.2886
  408TMC3    C5 6091   0.193   4.559   9.367  0.2513  0.0569 -0.2402
  408TMC3    C6 6092   0.284   4.656   9.372 -0.0509 -0.8441 -0.3955
  408TMC3     C 6093   0.326   4.308   9.574 -0.3608  0.1140 -0.0182
  408TMC3     O 6094   0.267   4.203   9.559  0.1213  0.8026  0.1034
  408TMC3     H 6095   0.523   4.465   9.502  0.2526  2.0777 -0.0499
  408TMC3    H1 6096   0.132   4.358   9.406 -0.3903  0.7021  0.5705
  408TMC3    H2 6097   0.266   0.038   9.338 -0.8240 -0.8389  0.0458
  408TMC3    C7 6098   0.085   4.600   9.277  0.1714  0.3349 -0.4516
  408TMC3    C8 6099   0.440   4.698   9.548  0.4631 -0.1358  0.1752
  408TMC3    O1 6100   0.082   4.709   9.219 -0.2158  0.0686  0.3676
  408TMC3    O2 6101   0.450   4.639   9.654 -0.2695  0.0695 -0.4655
  409MPD2     C 6102   4.691   0.636  17.174 -0.4380  0.3641  0.7912
  409MPD2    C1 6103   0.104   0.635  17.216 -0.1165  0.4930  0.6277
  409MPD2    C2 6104   0.203   0.701  17.152 -0.6994  0.4413 -0.1270
  409MPD2    C3 6105   0.175   0.789  17.048  0.3374  0.2457 -0.1390
  409MPD2    C4 6106   0.046   0.791  17.000 -0.3174  0.6276 -0.0453
  409MPD2    C5 6107   4.664   0.718  17.061 -0.1437 -0.2885 -1.3228
  409MPD2     H 6108   0.306   0.686  17.181 -0.9505  0.2240  0.6641
  409MPD2    H1 6109   0.011   0.854  16.918  1.2165  0.8611 -0.5277
  409MPD2    H2 6110   4.610   0.594  17.233  0.6563 -1.2798  1.1295
  409MPD2    H3 6111   4.562   0.739  17.030 -1.3798 -1.9548  1.6059
  409MPD2     N 6112   0.276   0.865  16.977  0.3488 -0.3473 -0.6554
  409MPD2    H5 6113   0.244   0.944  16.922 -2.2405 -0.8124  0.1878
  409MPD2    N1 6114   0.131   0.554  17.328 -0.0062  0.2826 -0.7893
  409MPD2    H7 6115   0.228   0.550  17.356  0.0440  0.8208 -0.8896
  410TMC3    C1 6116   0.488   0.958  16.927  0.1592 -0.3013 -0.1570
  410TMC3    C2 6117   0.612   0.981  16.975  0.5463 -0.1259  0.2438
  410TMC3    C3 6118   0.688   1.080  16.918 -0.0944  0.4840  0.0838
  410TMC3    C4 6119   0.431   1.043  16.832  0.4132 -0.0822 -0.4206
  410TMC3    C5 6120   0.508   1.153  16.787 -0.0293  0.9073 -0.6219
  410TMC3    C6 6121   0.641   1.168  16.826 -0.1011  0.1526  0.0093
  410TMC3     C 6122   0.409   0.860  16.995  0.5420 -0.1836  0.1189
  410TMC3     O 6123   0.469   0.797  17.078 -0.4318 -0.3330 -0.1005
  410TMC3     H 6124   0.660   0.911  17.043  0.2694  1.4923  2.1285
  410TMC3    H1 6125   0.335   1.024  16.785  1.3463 -0.1758 -2.3200
  410TMC3    H2 6126   0.711   1.242  16.787 -0.3678 -0.2485 -1.2436
  410TMC3    C7 6127   0.458   1.206  16.662  0.4430 -0.2887  0.2561
  410TMC3    C8 6128   0.825   1.097  16.971  0.1659  0.1606  0.8358
  410TMC3    O1 6129   0.407   1.128  16.581 -0.3491 -0.7606  0.3653
  410TMC3    O2 6130   0.857   1.208  16.997 -0.3637  0.1664  0.4750
  411MPD2     C 6131   0.379   1.366  14.631  0.1843 -0.5846  1.0189
  411MPD2    C1 6132   0.258   1.415  14.605 -0.5509  0.3124  0.7522
  411MPD2    C2 6133   0.150   1.334  14.575 -0.3530  0.2641 -0.1557
  411MPD2    C3 6134   0.161   1.202  14.548 -0.3666 -0.1172 -0.5236
  411MPD2    C4 6135   0.289   1.148  14.572 -0.4088 -0.3669 -0.1537
  411MPD2    C5 6136   0.389   1.226  14.616  0.3569 -0.1889  0.4170
  411MPD2     H 6137   0.052   1.378  14.562 -0.8879 -0.2719  2.0617
  411MPD2    H1 6138   0.304   1.042  14.584  0.7262 -0.5057 -3.0550
  411MPD2    H2 6139   0.464   1.431  14.651 -1.5067  2.1933 -0.7732
  411MPD2    H3 6140   0.479   1.171  14.639  0.1076 -0.6116  0.3936
  411MPD2     N 6141   0.060   1.114  14.507 -0.3575 -0.2050  0.0890
  411MPD2    H5 6142   0.088   1.018  14.491  0.2744 -0.0888  0.4751
  411MPD2    N1 6143   0.237   1.552  14.639  0.1261  1.0316  0.0466
  411MPD2    H7 6144   0.312   1.596  14.692  0.0479  0.8950  0.2751
  412TMC3    C1 6145   4.576   1.051  14.394 -0.2684  0.0042  0.3212
  412TMC3    C2 6146   4.442   1.081  14.356  0.9042  0.3930  0.3703
  412TMC3    C3 6147   4.385   0.995  14.266  0.3363  0.2259 -1.0186
  412TMC3    C4 6148   4.649   0.947  14.344  0.3967  0.1781 -0.3446
  412TMC3    C5 6149   4.588   0.873  14.246  0.2907 -0.1488 -0.1963
  412TMC3    C6 6150   4.453   0.886  14.222  0.7323  0.7249 -0.1574
  412TMC3     C 6151   4.649   1.154  14.474  0.2285 -0.0475  0.3062
  412TMC3     O 6152   4.587   1.261  14.478 -0.2505 -0.4128  0.3954
  412TMC3     H 6153   4.395   1.173  14.388 -0.6090  0.0563 -0.9081
  412TMC3    H1 6154   0.038   0.942  14.349  0.5078  2.0482 -0.6886
  412TMC3    H2 6155   4.406   0.819  14.152  0.5273  0.7556 -0.0483
  412TMC3    C7 6156   4.665   0.853  14.120 -0.2986  0.1920  0.0157
  412TMC3    C8 6157   4.317   1.070  14.160  0.2110 -0.3798  0.1245
  412TMC3    O1 6158   4.607   0.863  14.011 -0.2129 -0.3423  0.1512
  412TMC3    O2 6159   4.211   1.126  14.187  0.3510  0.1342  0.3134
  413MPD2     C 6160   2.295   4.445  15.360  0.1066  0.0812 -0.1270
  413MPD2    C1 6161   2.197   4.394  15.278  0.0638 -0.2012  0.4523
  413MPD2    C2 6162   2.215   4.269  15.214  0.2458  0.3511 -0.1359
  413MPD2    C3 6163   2.325   4.191  15.221 -0.2354 -0.0418  0.1250
  413MPD2    C4 6164   2.416   4.241  15.309  0.2484  0.6185  0.7580
  413MPD2    C5 6165   2.406   4.369  15.370  0.3002 -0.2436 -0.0463
  413MPD2     H 6166   2.138   4.227  15.151  1.1102 -0.4786 -0.6342
  413MPD2    H1 6167   2.503   4.182  15.335 -0.8613 -1.5298 -0.3858
  413MPD2    H2 6168   2.287   4.529  15.428 -0.0497  1.2620 -1.6024
  413MPD2    H3 6169   2.471   4.398  15.452  1.3593  1.5272 -1.5102
  413MPD2     N 6170   2.340   4.077  15.140 -0.1942  0.0284 -0.0741
  413MPD2    H5 6171   2.276   4.071  15.062  0.0907 -2.8514 -0.0733
  413MPD2    N1 6172   2.072   4.464  15.275 -0.0444  0.0085 -0.5220
  413MPD2    H7 6173   2.059   4.531  15.350 -0.9866  0.4294 -1.0674
  414TMC3    C1 6174   2.444   3.880  15.071  0.4253 -0.5132  0.7919
  414TMC3    C2 6175   2.494   3.757  15.104 -0.0722 -0.1515 -0.1017
  414TMC3    C3 6176   2.511   3.665  15.009  0.2148 -1.1204 -0.3813
  414TMC3    C4 6177   2.424   3.913  14.943 -0.1394  0.4554 -0.0504
  414TMC3    C5 6178   2.446   3.816  14.846 -0.4102  0.1516 -0.3895
  414TMC3    C6 6179   2.487   3.687  14.877 -0.0110  0.1221 -0.3351
  414TMC3     C 6180   2.436   3.980  15.170 -0.2030  0.8273 -0.4283
  414TMC3     O 6181   2.520   3.975  15.259 -0.3254 -0.4708 -0.1621
  414TMC3     H 6182   2.487   3.730  15.209  0.4389 -1.2900 -0.3591
  414TMC3    H1 6183   2.404   4.016  14.915 -2.9335  0.2091  1.0500
  414TMC3    H2 6184   2.497   3.608  14.805  1.5148 -0.3838  0.4414
  414TMC3    C7 6185   2.433   3.856  14.709  0.0849  0.5411 -0.2336
  414TMC3    C8 6186   2.507   3.529  15.058 -0.1711  0.2031 -0.4010
  414TMC3    O1 6187   2.352   3.947  14.687 -0.1879 -0.7499 -0.3427
  414TMC3    O2 6188   2.441   3.447  15.003 -0.0706  0.6743  0.4063
  415TMC3    C1 6189   2.781   1.417   9.659  0.1577  0.5406  0.2942
  415TMC3    C2 6190   2.874   1.486   9.588 -0.0947 -0.4626 -0.5928
  415TMC3    C3 6191   2.889   1.447   9.451 -0.2803 -0.1927  1.0385
  415TMC3    C4 6192   2.725   1.291   9.623 -0.0678  0.1043 -1.0520
  415TMC3    C5 6193   2.746   1.253   9.495  0.4341  0.0097 -0.8506
  415TMC3    C6 6194   2.813   1.332   9.409 -0.9247 -0.5371 -0.8737
  415TMC3     C 6195   2.777   1.435   9.798  1.1114 -0.1261 -0.1164
  415TMC3     O 6196   2.675   1.394   9.850 -0.0142  0.4911  0.2345
  415TMC3     H 6197   2.915   1.579   9.624 -0.7474 -1.4073  2.6211
  415TMC3    H1 6198   2.676   1.229   9.697 -0.9676  1.3300 -0.6161
  415TMC3    H2 6199   2.828   1.298   9.307  1.1243  1.2046 -1.1631
  415TMC3    C7 6200   2.672   1.143   9.441  0.9521 -0.7411 -0.0981
  415TMC3    C8 6201   2.948   1.537   9.353  0.0199  0.1792 -0.3425
  415TMC3    O1 6202   2.719   1.086   9.344 -0.2075  0.1182  0.2323
  415TMC3    O2 6203   2.920   1.511   9.234  0.0838 -0.0421  0.1686
  416MPD2     C 6204   4.596   1.341  11.439  0.6326  0.2286 -1.3086
  416MPD2    C1 6205   4.469   1.321  11.393  0.2332  0.1703 -0.1739
  416MPD2    C2 6206   4.449   1.223  11.298 -0.6751  0.1520 -0.1451
  416MPD2    C3 6207   4.547   1.135  11.266 -0.4908 -0.1320  0.3380
  416MPD2    C4 6208   4.677   1.162  11.299 -0.2978 -0.1332  0.4992
  416MPD2    C5 6209   4.695   1.261  11.389 -0.5234  0.1819 -0.0917
  416MPD2     H 6210   4.348   1.209  11.261 -0.7578  5.0713 -1.8028
  416MPD2    H1 6211   0.038   1.096  11.269 -1.3679  0.0090 -2.6684
  416MPD2    H2 6212   4.615   1.421  11.510  2.9970  0.8207 -2.6467
  416MPD2    H3 6213   0.067   1.278  11.445 -1.1821  0.0489  1.0199
  416MPD2     N 6214   4.536   1.022  11.179 -0.2004 -0.4934 -0.1501
  416MPD2    H5 6215   4.624   0.995  11.137  0.9338  3.2217 -0.2359
  416MPD2    N1 6216   4.373   1.397  11.447  0.3120  0.3023  0.2866
  416MPD2    H7 6217   4.403   1.461  11.520  1.0998  2.5878 -2.0432
  417TMC3    C1 6218   4.152   1.483  11.490 -0.2759  0.2117 -0.3159
  417TMC3    C2 6219   4.182   1.505  11.626  0.2841  0.4108  0.1185
  417TMC3    C3 6220   4.084   1.567  11.698 -0.5532  0.0570  0.2857
  417TMC3    C4 6221   4.029   1.506  11.437 -0.0654  0.4596  0.0582
  417TMC3    C5 6222   3.929   1.556  11.516  0.2886 -0.6878 -0.1661
  417TMC3    C6 6223   3.957   1.587  11.649 -0.0711 -0.2711  0.4117
  417TMC3     C 6224   4.237   1.385  11.423  0.0808 -0.3531  0.5012
  417TMC3     O 6225   4.175   1.314  11.343  0.0283  0.3916 -0.0578
  417TMC3     H 6226   4.272   1.462  11.668 -0.5325 -0.5531  0.8678
  417TMC3    H1 6227   4.016   1.500  11.329  3.9446  0.4269 -0.4152
  417TMC3    H2 6228   3.884   1.655  11.692 -0.4441 -0.5819  0.2717
  417TMC3    C7 6229   3.819   1.617  11.446 -1.0993  1.0807  0.1793
  417TMC3    C8 6230   4.099   1.613  11.838  0.2011 -0.2425  0.2130
  417TMC3    O1 6231   3.830   1.627  11.324 -0.1410  0.6588  0.0784
  417TMC3    O2 6232   3.996   1.626  11.906  0.3971 -0.1585  0.2152
  418TMC3    C1 6233   3.427   2.951   0.183 -0.1349 -0.0513 -0.3853
  418TMC3    C2 6234   3.289   2.929   0.150  0.1859  0.4474  0.2233
  418TMC3    C3 6235   3.206   3.004   0.227 -0.4929  0.5188 -0.4866
  418TMC3    C4 6236   3.475   3.027   0.290  0.3970  0.2847  0.1659
  418TMC3    C5 6237   3.383   3.075   0.374 -0.6768 -0.2355 -0.2484
  418TMC3    C6 6238   3.249   3.071   0.338  0.3533  0.6658 -0.3577
  418TMC3     C 6239   3.523   2.889   0.096 -0.1564  0.3435  0.0943
  418TMC3     O 6240   3.638   2.936   0.092  0.2029 -0.1098  0.0016
  418TMC3     H 6241   3.254   2.885   0.058  0.3761  0.3356  0.2045
  418TMC3    H1 6242   3.580   3.014   0.313  0.8121  0.3053 -1.7248
  418TMC3    H2 6243   3.177   3.121   0.402 -1.5086  1.1886 -2.8665
  418TMC3    C7 6244   3.393   3.019   0.508  0.1158 -0.0311  0.3767
  418TMC3    C8 6245   3.062   2.991   0.214 -0.3325  0.1008  0.0277
  418TMC3    O1 6246   3.284   2.985   0.557 -0.2227 -0.4971 -0.4482
  418TMC3    O2 6247   2.983   3.083   0.223 -0.1074 -0.2096 -0.2334
  419MPD2     C 6248   2.066   0.855  12.206 -0.1469  0.3633 -0.3208
  419MPD2    C1 6249   1.942   0.907  12.173 -0.0765  0.6952 -0.1171
  419MPD2    C2 6250   1.844   0.924  12.273  0.0231  0.0929 -0.1588
  419MPD2    C3 6251   1.864   0.898  12.405  0.7000  0.4718 -0.0351
  419MPD2    C4 6252   1.983   0.839  12.434  0.6846 -0.8569 -0.7058
  419MPD2    C5 6253   2.078   0.820  12.340  0.3641 -0.8715 -0.3363
  419MPD2     H 6254   1.752   0.971  12.238 -0.8954 -1.1517  0.5642
  419MPD2    H1 6255   2.010   0.806  12.534 -0.6282 -0.0272 -0.0769
  419MPD2    H2 6256   2.149   0.837  12.138  0.1502  2.4229 -0.5059
  419MPD2    H3 6257   2.175   0.776  12.360  1.0638  1.6603  1.8331
  419MPD2     N 6258   1.780   0.944  12.505 -0.2659 -0.1512 -0.0393
  419MPD2    H5 6259   1.802   0.927  12.602  2.4093  0.4277 -0.5477
  419MPD2    N1 6260   1.909   0.951  12.043  0.0780 -0.9980 -0.5519
  419MPD2    H7 6261   1.815   0.954  12.005 -0.4926 -1.3032  0.8581
  420TMC3    C1 6262   1.600   1.092  12.593  0.0745  0.3147 -0.1818
  420TMC3    C2 6263   1.532   1.200  12.552  0.3159 -0.3510 -0.0389
  420TMC3    C3 6264   1.468   1.270  12.647 -0.1169 -0.0820  0.6244
  420TMC3    C4 6265   1.622   1.059  12.726  0.9023 -0.1130  0.0057
  420TMC3    C5 6266   1.562   1.145  12.811  0.5578  0.1064 -0.4380
  420TMC3    C6 6267   1.469   1.244  12.780  0.3424  0.4070 -0.1425
  420TMC3     C 6268   1.666   1.017  12.482  0.3704 -0.3858 -0.1338
  420TMC3     O 6269   1.604   1.035  12.378  0.0246 -0.1578 -0.0757
  420TMC3     H 6270   1.493   1.218  12.453  2.7491 -0.7102 -1.0420
  420TMC3    H1 6271   1.675   0.975  12.771 -0.0881  0.4686  2.2430
  420TMC3    H2 6272   1.421   1.303  12.858  0.4387  0.9051 -0.4649
  420TMC3    C7 6273   1.603   1.131  12.950  0.3891 -0.0049 -0.1158
  420TMC3    C8 6274   1.396   1.393  12.607  0.2461  0.3013 -0.5292
  420TMC3    O1 6275   1.666   1.029  12.981  0.2357  0.4219  0.0831
  420TMC3    O2 6276   1.416   1.435  12.495  0.1612  0.3549 -0.0429
  421TMC3    C1 6277   2.982   2.976  13.914 -0.7536  0.6117  0.9348
  421TMC3    C2 6278   3.009   3.071  14.006  0.1926  0.1121  0.3282
  421TMC3    C3 6279   3.078   3.034  14.120  0.4474 -0.1113  0.0360
  421TMC3    C4 6280   2.990   2.840  13.944 -0.6746  0.1122 -0.5250
  421TMC3    C5 6281   3.043   2.807  14.068 -0.1428  0.2753  0.3905
  421TMC3    C6 6282   3.092   2.900  14.153  0.1761 -0.5580  0.1180
  421TMC3     C 6283   2.903   3.025  13.800  0.6128 -0.5645  0.0686
  421TMC3     O 6284   2.872   3.144  13.805 -0.0487  0.5035  0.2158
  421TMC3     H 6285   2.996   3.177  13.989 -0.4631  0.2398  1.6037
  421TMC3    H1 6286   2.996   2.764  13.867  0.6893  0.4706 -0.7667
  421TMC3    H2 6287   3.142   2.869  14.244 -0.3833  1.1468  1.0118
  421TMC3    C7 6288   3.106   2.677  14.083 -0.6580 -0.5703  0.3714
  421TMC3    C8 6289   3.072   3.130  14.227 -0.0319  0.2435 -0.3505
  421TMC3    O1 6290   3.214   2.672  14.142 -0.9268  0.0738  0.0696
  421TMC3    O2 6291   2.965   3.179  14.238 -0.3611 -0.0970  0.4057
  422TMC3    C1 6292   0.668   4.093  12.528  0.7030  0.3288 -0.0440
  422TMC3    C2 6293   0.627   4.225  12.536 -0.5012  0.1997  0.7595
  422TMC3    C3 6294   0.501   4.256  12.577 -0.3628 -0.4409 -0.9783
  422TMC3    C4 6295   0.577   3.998  12.557 -0.4869  0.5307 -0.1207
  422TMC3    C5 6296   0.451   4.025  12.588 -1.5443  0.1966  0.4643
  422TMC3    C6 6297   0.419   4.154  12.621 -0.0391  0.7452  0.3396
  422TMC3     C 6298   0.800   4.063  12.478  0.2929 -0.3825  0.4055
  422TMC3     O 6299   0.854   4.163  12.421  0.3901 -0.0415  0.7933
  422TMC3     H 6300   0.694   4.302  12.499 -1.1150 -0.4567 -1.7052
  422TMC3    H1 6301   0.595   3.894  12.533  0.2885  0.6994 -0.2490
  422TMC3    H2 6302   0.331   4.174  12.681  1.9163 -1.0503  3.7692
  422TMC3    C7 6303   0.343   3.921  12.577  0.2743 -0.1751  0.4517
  422TMC3    C8 6304   0.453   4.393  12.554  0.4969 -0.1691  0.9818
  422TMC3    O1 6305   0.372   3.817  12.521 -0.3415 -0.1094 -0.4742
  422TMC3    O2 6306   0.549   4.466  12.518  0.1914  0.1307  0.5727
  423MPD2     C 6307   2.709   0.582   0.426  0.4109  0.5932  0.3893
  423MPD2    C1 6308   2.688   0.469   0.502 -0.7477 -1.0875  0.1381
  423MPD2    C2 6309   2.590   0.380   0.463 -0.4407 -0.2861  0.1949
  423MPD2    C3 6310   2.513   0.417   0.351 -0.3421  0.0913  0.9309
  423MPD2    C4 6311   2.537   0.531   0.282 -0.2432 -0.0990  0.4740
  423MPD2    C5 6312   2.646   0.611   0.310  0.3868  0.1571  0.3816
  423MPD2     H 6313   2.579   0.287   0.518  1.0745 -0.8001 -0.3731
  423MPD2    H1 6314   2.473   0.550   0.197  0.5400  2.1018  0.3619
  423MPD2    H2 6315   2.791   0.646   0.455  1.1211 -0.9545  1.7955
  423MPD2    H3 6316   2.678   0.691   0.245  0.0007 -0.3028 -0.3670
  423MPD2     N 6317   2.418   0.326   0.299 -0.0702  0.1488  0.2736
  423MPD2    H5 6318   2.394   0.341   0.201 -0.5914 -1.7783  0.1100
  423MPD2    N1 6319   2.766   0.441   0.622 -0.5549  0.3494 -0.4384
  423MPD2    H7 6320   2.754   0.351   0.665 -1.8197  0.5846 -0.2781
  424TMC3    C1 6321   2.921   0.462   0.794 -0.4260  0.5668 -0.1123
  424TMC3    C2 6322   3.047   0.490   0.824 -0.0183  0.0357 -0.0955
  424TMC3    C3 6323   3.089   0.430   0.940  0.0947  0.2105  0.0123
  424TMC3    C4 6324   2.831   0.386   0.868  0.6775 -0.0523 -0.3068
  424TMC3    C5 6325   2.874   0.337   0.985 -0.6115 -0.0082  0.2678
  424TMC3    C6 6326   3.003   0.360   1.025 -0.3156 -0.7159 -0.5924
  424TMC3     C 6327   2.877   0.508   0.664 -0.3806 -0.4836 -0.4577
  424TMC3     O 6328   2.948   0.599   0.619  0.3017 -0.6143 -0.2922
  424TMC3     H 6329   3.117   0.521   0.748  0.3532  0.4065  0.4022
  424TMC3    H1 6330   2.735   0.345   0.838  0.8901 -0.8840  0.1651
  424TMC3    H2 6331   3.053   0.290   1.090 -0.1584  0.4112  0.5068
  424TMC3    C7 6332   2.808   0.218   1.033 -0.0940 -0.0814  0.5451
  424TMC3    C8 6333   3.222   0.378   0.948 -0.1959 -0.0132  0.1296
  424TMC3    O1 6334   2.765   0.133   0.955 -0.2119 -0.1817  0.3778
  424TMC3    O2 6335   3.268   0.327   0.847 -0.0248  0.2539  0.2736
  425MPD2     C 6336   1.182   4.422  17.427 -0.0767  0.6140  0.2373
  425MPD2    C1 6337   1.123   4.316  17.361  0.1294  0.0866 -0.2434
  425MPD2    C2 6338   0.988   4.291  17.380  0.6665 -0.2703 -0.8647
  425MPD2    C3 6339   0.907   4.374  17.454  0.2735 -0.8492  0.0382
  425MPD2    C4 6340   0.971   4.476  17.531  0.3352 -0.7335  0.5018
  425MPD2    C5 6341   1.107   4.499  17.511  0.0146 -0.2949 -0.3034
  425MPD2     H 6342   0.950   4.193  17.353  0.9341 -1.0002  1.3405
  425MPD2    H1 6343   0.925   4.540  17.606 -1.0098  2.9618 -3.5199
  425MPD2    H2 6344   1.287   4.438  17.406 -0.6818  2.8645 -1.1070
  425MPD2    H3 6345   1.163   4.575  17.563  1.6647 -0.6981 -1.4863
  425MPD2     N 6346   0.773   4.330  17.473 -0.3038  0.2358  0.3299
  425MPD2    H5 6347   0.743   4.252  17.415  1.4677  0.1011 -0.4034
  425MPD2    N1 6348   1.207   4.233  17.293  0.7934 -0.4732 -0.5291
  425MPD2    H7 6349   1.306   4.252  17.281  0.2843  1.2293 -2.0535
  426TMC3    C1 6350   1.261   4.025  17.194  0.0893  0.8064  0.3956
  426TMC3    C2 6351   1.225   3.957  17.080 -0.1387 -0.0946 -0.0490
  426TMC3    C3 6352   1.259   3.828  17.074 -0.5858  0.1239 -0.6133
  426TMC3    C4 6353   1.304   3.965  17.304 -1.1235  0.2772  0.4807
  426TMC3    C5 6354   1.335   3.833  17.301  0.0917 -0.2301 -0.6486
  426TMC3    C6 6355   1.322   3.761  17.178 -0.3705 -0.6965 -0.2249
  426TMC3     C 6356   1.162   4.134  17.214 -0.1549  0.1016  0.4225
  426TMC3     O 6357   1.054   4.132  17.150  0.7681 -0.0264  0.0765
  426TMC3     H 6358   1.173   4.000  16.995  0.7881  2.5708  0.7429
  426TMC3    H1 6359   1.300   4.018  17.399  1.4674 -0.6664  1.1187
  426TMC3    H2 6360   1.326   3.653  17.182  0.5837 -0.6544 -0.1266
  426TMC3    C7 6361   1.322   3.764  17.432 -0.0360 -0.2955  0.3971
  426TMC3    C8 6362   1.145   3.754  17.023  0.4170 -0.1568 -0.1437
  426TMC3    O1 6363   1.309   3.643  17.416  0.3301 -0.2310  0.3351
  426TMC3    O2 6364   1.037   3.799  17.041 -0.7611 -0.2698  0.3997
  427MPD2     C 6365   4.073   1.391  15.008  0.5145  0.0309  0.1735
  427MPD2    C1 6366   4.060   1.418  15.141  0.9086 -0.4980 -0.2481
  427MPD2    C2 6367   3.929   1.425  15.195 -0.0210 -0.3996  0.0418
  427MPD2    C3 6368   3.813   1.418  15.117 -0.2626 -0.7717  0.0489
  427MPD2    C4 6369   3.834   1.395  14.979 -0.6491  0.2944  0.0840
  427MPD2    C5 6370   3.958   1.377  14.926  0.7273 -0.0619  0.4474
  427MPD2     H 6371   3.935   1.443  15.302  1.8915 -1.9903  0.2073
  427MPD2    H1 6372   3.743   1.397  14.921 -1.3498 -3.3248  1.0199
  427MPD2    H2 6373   4.175   1.383  14.972  1.0569  1.8370  1.2644
  427MPD2    H3 6374   3.970   1.347  14.823 -3.2980  1.6809 -0.5625
  427MPD2     N 6375   3.682   1.446  15.158 -0.2697 -0.3111  0.5612
  427MPD2    H5 6376   3.608   1.439  15.090 -0.3619  0.3791  0.5915
  427MPD2    N1 6377   4.171   1.412  15.226 -0.1301  0.3027  0.1889
  427MPD2    H7 6378   4.144   1.414  15.324  1.3717 -0.3968  0.6105
  428TMC3    C1 6379   4.398   1.389  15.292  0.6041 -0.3919  0.0656
  428TMC3    C2 6380   4.366   1.270  15.358  0.8480 -0.0200  0.2158
  428TMC3    C3 6381   4.463   1.207  15.434  0.9567  0.0528 -0.3382
  428TMC3    C4 6382   4.521   1.431  15.289 -0.6269  0.5537 -0.3175
  428TMC3    C5 6383   4.618   1.355  15.346 -0.4415 -0.4216  0.5341
  428TMC3    C6 6384   4.595   1.244  15.426 -0.0335 -0.5276  0.0482
  428TMC3     C 6385   4.302   1.430  15.190  0.0495  0.4138 -0.0540
  428TMC3     O 6386   4.343   1.501  15.100 -0.2446  0.0788 -0.0964
  428TMC3     H 6387   4.275   1.216  15.334  0.1438  1.6148 -0.7873
  428TMC3    H1 6388   4.539   1.518  15.226  0.6262  0.4269 -0.1207
  428TMC3    H2 6389   4.674   1.198  15.484 -1.4601 -1.4242  1.3088
  428TMC3    C7 6390   0.034   1.363  15.316  0.6807  0.0926  0.2005
  428TMC3    C8 6391   4.439   1.066  15.445 -0.3433  1.1109  0.1731
  428TMC3    O1 6392   0.116   1.294  15.370 -0.2392  0.3193  0.2384
  428TMC3    O2 6393   4.369   1.016  15.357 -0.3301 -0.0750  0.6397
  429MPD2     C 6394   0.204   1.681   0.273 -0.6253 -0.7559  0.4007
  429MPD2    C1 6395   0.252   1.566   0.218  0.5182  0.3424 -0.5002
  429MPD2    C2 6396   0.295   1.566   0.089  0.3931 -0.1335  0.2470
  429MPD2    C3 6397   0.300   1.687   0.020  0.4657 -0.1280 -0.5399
  429MPD2    C4 6398   0.254   1.803   0.081 -0.1836  0.1667  0.1442
  429MPD2    C5 6399   0.215   1.799   0.211  0.1520 -0.5373 -0.3148
  429MPD2     H 6400   0.334   1.476   0.041  1.0619  1.7710 -2.7868
  429MPD2    H1 6401   0.254   1.901   0.034  2.8291  0.5367  0.8869
  429MPD2    H2 6402   0.170   1.679   0.375  1.2796 -0.7633  1.0395
  429MPD2    H3 6403   0.180   1.892   0.255 -0.0772 -0.1254 -1.3723
  429MPD2     N 6404   0.350   1.685  17.572  0.4879 -0.2548 -0.4606
  429MPD2    H5 6405   0.354   1.592  17.532 -0.1241  0.2145 -1.6077
  429MPD2    N1 6406   0.267   1.441   0.291 -0.3919 -0.0749  0.6252
  429MPD2    H7 6407   0.298   1.360   0.240  2.3047  1.2536  0.1694
  430TMC3    C1 6408   0.448   1.765  17.374 -0.0853  0.1806  0.1329
  430TMC3    C2 6409   0.435   1.852  17.270 -0.1399  0.4008 -0.1690
  430TMC3    C3 6410   0.471   1.798  17.145 -0.3604 -1.1701 -0.2747
  430TMC3    C4 6411   0.496   1.638  17.365 -0.4702 -0.1424 -0.2403
  430TMC3    C5 6412   0.518   1.594  17.239  0.3464  0.3662 -0.4333
  430TMC3    C6 6413   0.494   1.665  17.128 -0.3595  0.0989 -0.1357
  430TMC3     C 6414   0.375   1.796  17.497  0.0876  0.3813  0.1252
  430TMC3     O 6415   0.339   1.912  17.508 -0.0132  0.5423 -0.3974
  430TMC3     H 6416   0.391   1.951  17.277 -0.6184  0.1583  0.2147
  430TMC3    H1 6417   0.517   1.573  17.449 -0.2446 -0.7057 -0.7381
  430TMC3    H2 6418   0.534   1.638  17.031 -4.3648 -1.1945 -1.4327
  430TMC3    C7 6419   0.626   1.504  17.218  0.0513  0.3552  0.4888
  430TMC3    C8 6420   0.481   1.881  17.029  0.1359 -0.8560  0.5400
  430TMC3    O1 6421   0.624   1.447  17.108 -0.5734  0.0367 -0.3797
  430TMC3    O2 6422   0.441   1.836  16.922 -0.0771 -0.0309  0.3234
  431MPD2     C 6423   1.814   1.613  12.288 -0.2472 -0.1630  0.2420
  431MPD2    C1 6424   1.898   1.623  12.180  0.0552 -0.1082 -0.6597
  431MPD2    C2 6425   1.874   1.540  12.072 -0.1119  0.5173  0.0181
  431MPD2    C3 6426   1.765   1.453  12.070  0.4289 -0.3474 -0.7021
  431MPD2    C4 6427   1.691   1.438  12.179 -0.6829 -0.5749 -0.3138
  431MPD2    C5 6428   1.713   1.518  12.289 -0.1256 -0.5672  0.0875
  431MPD2     H 6429   1.949   1.547  11.993  0.2664  0.8851  0.4120
  431MPD2    H1 6430   1.600   1.378  12.178 -2.1695  1.6686 -0.8888
  431MPD2    H2 6431   1.829   1.672  12.378  3.0155 -0.6475  0.0043
  431MPD2    H3 6432   1.647   1.503  12.373  1.1823 -0.9878  1.0374
  431MPD2     N 6433   1.736   1.361  11.967 -0.2517  0.4753 -0.0434
  431MPD2    H5 6434   1.673   1.284  11.988 -0.3588 -0.1088 -2.5034
  431MPD2    N1 6435   2.006   1.711  12.166 -0.5412  0.6245  0.4291
  431MPD2    H7 6436   2.040   1.716  12.071 -1.7275  1.7437  0.0717
  432TMC3    C1 6437   1.816   1.246  11.785 -0.0852  0.4895  0.7330
  432TMC3    C2 6438   1.886   1.256  11.673  0.3016  0.8934  0.4058
  432TMC3    C3 6439   1.974   1.161  11.642  0.4607  0.1203  0.2100
  432TMC3    C4 6440   1.837   1.139  11.865  0.0417 -0.7633 -0.0702
  432TMC3    C5 6441   1.939   1.051  11.832  0.0998 -0.0536 -0.4679
  432TMC3    C6 6442   2.019   1.063  11.729 -0.1688  0.4410  0.2125
  432TMC3     C 6443   1.812   1.367  11.853  0.1729  0.0298  0.3133
  432TMC3     O 6444   1.846   1.464  11.789 -0.6075 -0.3408  0.0728
  432TMC3     H 6445   1.872   1.340  11.606  2.5513  1.4720  0.6474
  432TMC3    H1 6446   1.793   1.131  11.964  0.7882 -0.7708  0.2626
  432TMC3    H2 6447   2.111   1.014  11.698 -0.4862  1.7033 -2.7396
  432TMC3    C7 6448   1.998   0.983  11.944  0.1380  0.1050 -0.0398
  432TMC3    C8 6449   2.096   1.226  11.591  0.0115  0.0378 -0.1322
  432TMC3    O1 6450   2.119   0.965  11.931 -0.5673 -0.3466  0.7461
  432TMC3    O2 6451   2.108   1.231  11.468  0.0886  0.0015  0.6778
  433MPD2     C 6452   0.966   0.517  10.867 -1.2215  0.5556 -0.4687
  433MPD2    C1 6453   0.911   0.425  10.956 -0.1989 -0.0035  0.0705
  433MPD2    C2 6454   0.910   0.458  11.090 -0.1224 -0.8014 -0.6482
  433MPD2    C3 6455   0.948   0.580  11.137 -0.3151  0.4494 -0.3359
  433MPD2    C4 6456   0.980   0.681  11.042  0.4581  0.6516 -0.5296
  433MPD2    C5 6457   0.992   0.647  10.916  0.6186 -1.2034 -0.4719
  433MPD2     H 6458   0.868   0.379  11.152 -0.5836  0.3941  0.5480
  433MPD2    H1 6459   1.004   0.781  11.075 -1.8796  0.7427  0.9473
  433MPD2    H2 6460   0.977   0.495  10.761  2.0939  0.8901 -0.1826
  433MPD2    H3 6461   1.023   0.725  10.847  2.3466 -1.8568 -0.4412
  433MPD2     N 6462   0.936   0.597  11.277 -0.6523  0.0191 -0.4100
  433MPD2    H5 6463   0.922   0.517  11.338  1.7436  0.3759  0.6092
  433MPD2    N1 6464   0.865   0.297  10.916 -0.1282 -0.5527  0.1034
  433MPD2    H7 6465   0.825   0.232  10.983  1.1150 -1.6681 -0.2310
  434TMC3    C1 6466   0.775   0.129  10.788 -0.2008 -0.4818 -0.3222
  434TMC3    C2 6467   0.801   0.047  10.896 -0.1177  0.6265  0.3453
  434TMC3    C3 6468   0.749   4.645  10.892 -0.8088 -0.9942  0.1844
  434TMC3    C4 6469   0.695   0.089  10.680 -0.2744 -0.9233  0.7787
  434TMC3    C5 6470   0.647   4.688  10.689 -0.0599  0.4086  0.0766
  434TMC3    C6 6471   0.662   4.602  10.791  0.2134 -0.5902  0.1160
  434TMC3     C 6472   0.828   0.260  10.789  0.4298 -0.2299  0.0741
  434TMC3     O 6473   0.851   0.309  10.682 -0.3224  0.1964  0.0697
  434TMC3     H 6474   0.874   0.068  10.974  2.4806  1.2421 -2.2443
  434TMC3    H1 6475   0.677   0.152  10.594 -0.2131 -0.8015  0.8551
  434TMC3    H2 6476   0.612   4.506  10.801 -1.2193  0.1640  0.1249
  434TMC3    C7 6477   0.553   4.649  10.584  0.1295  0.4755 -0.4808
  434TMC3    C8 6478   0.769   4.570  11.019  0.7081 -0.4944  0.2586
  434TMC3    O1 6479   0.507   0.016  10.515 -0.4035 -0.2977 -0.5201
  434TMC3    O2 6480   0.789   4.630  11.120  0.1704  0.0370  0.8679
  435MPD2     C 6481   2.451   0.032  15.350  0.1184  0.2835  0.0789
  435MPD2    C1 6482   2.411   0.033  15.483  0.1074 -0.3802 -0.2160
  435MPD2    C2 6483   2.504   0.016  15.584  0.2016 -0.4053  0.5643
  435MPD2    C3 6484   2.639   4.706  15.552  0.0301 -0.3015 -0.2928
  435MPD2    C4 6485   2.676   4.704  15.417  0.3113 -0.0231  0.7204
  435MPD2    C5 6486   2.583   0.015  15.317 -0.0203 -0.6773  0.6035
  435MPD2     H 6487   2.470   0.028  15.686 -2.1914  0.8941 -0.3658
  435MPD2    H1 6488   2.777   4.680  15.386 -0.0572 -1.2613  0.4622
  435MPD2    H2 6489   2.381   0.056  15.271  1.8434  0.1470 -1.4732
  435MPD2    H3 6490   2.616   0.009  15.214 -0.0814 -1.3550  0.6224
  435MPD2     N 6491   2.730   4.685  15.655  0.5852  0.3151  0.1602
  435MPD2    H5 6492   2.695   4.682  15.750  0.3630  3.2450  0.1585
  435MPD2    N1 6493   2.283   0.082  15.521 -0.3752 -0.2392  0.0763
  435MPD2    H7 6494   2.276   0.134  15.608 -0.4368 -0.1603  0.0244
  436TMC3    C1 6495   1.990   0.357  15.620  0.0392  0.1834 -0.7126
  436TMC3    C2 6496   2.093   0.273  15.578 -0.0804  0.3093 -0.5503
  436TMC3    C3 6497   2.068   0.179  15.481  0.5121 -0.0477  0.2314
  436TMC3    C4 6498   1.863   0.345  15.563 -0.0333 -0.2244 -0.2508
  436TMC3    C5 6499   1.844   0.242  15.472  0.6004 -0.1845 -0.1533
  436TMC3    C6 6500   1.942   0.152  15.435  0.2703  0.1657 -0.3618
  436TMC3     C 6501   2.021   0.486  15.675  0.1802 -0.1246 -0.7657
  436TMC3     O 6502   2.125   0.537  15.637 -0.2738 -0.5388  0.0569
  436TMC3     H 6503   2.195   0.292  15.609  1.2007 -0.7773 -4.0900
  436TMC3    H1 6504   1.793   0.426  15.579 -0.0447 -0.4819  0.9791
  436TMC3    H2 6505   1.922   0.069  15.368 -0.4581 -0.7194  0.9602
  436TMC3    C7 6506   1.740   0.252  15.367 -0.1244 -0.1908  0.2752
  436TMC3    C8 6507   2.179   0.097  15.431  0.1571  0.2118  0.0579
  436TMC3    O1 6508   1.743   0.166  15.284  0.0459 -0.2351  0.4385
  436TMC3    O2 6509   2.154   0.040  15.328  0.1153  0.5065  0.0611
  437TMC3    C1 6510   1.032   2.536  12.700 -0.0837 -0.0782  0.1951
  437TMC3    C2 6511   0.938   2.609  12.775  0.4966 -0.3888 -0.0161
  437TMC3    C3 6512   0.898   2.735  12.726  0.0732  0.3571 -0.2827
  437TMC3    C4 6513   1.086   2.579  12.590 -0.5403  0.4885 -0.4467
  437TMC3    C5 6514   1.047   2.700  12.545 -1.0006  0.0679  0.2129
  437TMC3    C6 6515   0.950   2.781  12.610  0.0446  0.5772  0.2911
  437TMC3     C 6516   1.046   2.397  12.731 -0.5625 -0.6947 -0.4509
  437TMC3     O 6517   0.950   2.338  12.780  0.1689  0.1454 -0.2097
  437TMC3     H 6518   0.898   2.567  12.867 -1.6091 -0.1517 -0.8185
  437TMC3    H1 6519   1.153   2.509  12.542 -0.6956 -0.4409  0.6954
  437TMC3    H2 6520   0.920   2.881  12.579 -1.4098  0.1786  0.4252
  437TMC3    C7 6521   1.138   2.766  12.454  0.0054  0.2445  0.4248
  437TMC3    C8 6522   0.775   2.797  12.769 -0.1604 -0.0953  0.2228
  437TMC3    O1 6523   1.089   2.873  12.414 -0.0587  0.2854 -0.6085
  437TMC3    O2 6524   0.715   2.856  12.685  0.0426 -0.0285  0.2692
  438MPD2     C 6525   3.916   3.229  16.832  0.0721  0.7214 -0.3973
  438MPD2    C1 6526   3.949   3.141  16.929 -0.2781 -0.3541  0.4054
  438MPD2    C2 6527   3.976   3.181  17.059  0.3170  0.0349 -0.5043
  438MPD2    C3 6528   3.955   3.313  17.097  0.1980 -0.4809 -0.4750
  438MPD2    C4 6529   3.932   3.404  16.990 -0.6699  0.2380  0.1246
  438MPD2    C5 6530   3.917   3.361  16.862  0.5551  0.1922 -0.0139
  438MPD2     H 6531   3.997   3.103  17.131 -0.0156  2.2413  2.0094
  438MPD2    H1 6532   3.911   3.508  17.010  0.2322 -0.0743  2.7478
  438MPD2    H2 6533   3.904   3.191  16.731  0.6783  0.7796 -0.4936
  438MPD2    H3 6534   3.900   3.436  16.785 -1.4946 -1.2728 -0.9995
  438MPD2     N 6535   3.958   3.359  17.233  0.1413  0.0911 -0.4268
  438MPD2    H5 6536   3.919   3.451  17.250  2.0273  0.9407 -0.6928
  438MPD2    N1 6537   3.938   3.003  16.915 -0.3777  0.1980 -0.6892
  438MPD2    H7 6538   3.953   2.948  16.999 -0.7657  0.1589 -0.6479
  439TMC3    C1 6539   3.918   2.800  16.821  0.3403  0.2787 -0.2128
  439TMC3    C2 6540   3.861   2.726  16.724 -0.4115  0.1692  0.3949
  439TMC3    C3 6541   3.890   2.588  16.717 -0.2982  0.3226 -0.3750
  439TMC3    C4 6542   4.009   2.746  16.909 -0.4788 -0.0765  0.2373
  439TMC3    C5 6543   4.051   2.621  16.889  0.1631  0.6820 -0.3905
  439TMC3    C6 6544   3.997   2.538  16.793  0.3035 -0.0440  0.0552
  439TMC3     C 6545   3.916   2.942  16.797  0.3578  0.4020 -0.2508
  439TMC3     O 6546   3.870   2.977  16.691  0.0459 -0.3841  0.1818
  439TMC3     H 6547   3.780   2.768  16.666 -0.9487 -0.6909  0.5239
  439TMC3    H1 6548   4.060   2.803  16.987 -0.3530  1.2187 -0.7936
  439TMC3    H2 6549   4.000   2.430  16.809 -0.5729 -0.6361 -3.6857
  439TMC3    C7 6550   4.136   2.555  16.980 -0.1596 -0.2960  0.9200
  439TMC3    C8 6551   3.899   2.531  16.588  0.5077 -0.6698  0.1490
  439TMC3    O1 6552   4.152   2.603  17.088 -0.1072 -0.0523 -0.0833
  439TMC3    O2 6553   3.969   2.431  16.583 -0.0637  1.1002 -0.2825
  440MPD2     C 6554   2.337   3.186  14.588 -0.3373  0.2229 -0.0974
  440MPD2    C1 6555   2.277   3.198  14.715 -0.4644  0.1536 -0.2955
  440MPD2    C2 6556   2.281   3.089  14.802  0.1585  0.3460  0.4666
  440MPD2    C3 6557   2.337   2.966  14.764 -0.2330 -0.5012  0.2251
  440MPD2    C4 6558   2.395   2.950  14.639  1.1603  0.0008 -0.0382
  440MPD2    C5 6559   2.397   3.062  14.560  0.1586  0.0287 -0.1611
  440MPD2     H 6560   2.217   3.094  14.889 -0.1006 -1.0505  0.3548
  440MPD2    H1 6561   2.449   2.870  14.591  0.7443  1.2112 -2.5178
  440MPD2    H2 6562   2.343   3.270  14.519  0.3992  0.4253  0.2081
  440MPD2    H3 6563   2.452   3.059  14.467  1.0724 -1.9409  0.4442
  440MPD2     N 6564   2.348   2.859  14.854  0.6985 -0.1257 -0.0904
  440MPD2    H5 6565   2.408   2.781  14.831 -0.4962 -1.9953  3.1004
  440MPD2    N1 6566   2.212   3.319  14.768  0.2224  0.4181  0.0932
  440MPD2    H7 6567   2.173   3.317  14.861 -2.1667  0.7227 -0.9154
  441TMC3    C1 6568   2.337   2.752  15.046  0.4422 -0.0300  0.3601
  441TMC3    C2 6569   2.451   2.819  15.082 -0.3120 -0.2673  0.0759
  441TMC3    C3 6570   2.499   2.799  15.210 -0.4244  0.2597  0.4912
  441TMC3    C4 6571   2.267   2.690  15.140 -0.2822 -0.0942 -0.3557
  441TMC3    C5 6572   2.308   2.682  15.274  0.1786  0.0249  0.4347
  441TMC3    C6 6573   2.431   2.735  15.305 -0.8227  0.3529  0.3309
  441TMC3     C 6574   2.263   2.831  14.958  0.1244  0.1741  0.4200
  441TMC3     O 6575   2.166   2.888  15.001  0.1884  0.2307 -0.0314
  441TMC3     H 6576   2.524   2.866  15.017  0.8183 -2.1477 -0.0278
  441TMC3    H1 6577   2.164   2.660  15.124 -0.1683  0.3215 -1.9132
  441TMC3    H2 6578   2.461   2.729  15.409 -1.4527  0.1117  0.4971
  441TMC3    C7 6579   2.217   2.636  15.377  0.5081 -0.0533 -0.3018
  441TMC3    C8 6580   2.586   2.901  15.264  0.2574 -0.5669  1.2193
  441TMC3    O1 6581   2.158   2.527  15.364 -0.3075  0.4892  0.3704
  441TMC3    O2 6582   2.635   2.879  15.377 -0.8110  0.4317  0.1678
  442MPD2     C 6583   0.320   4.185  16.710 -0.3148  0.1686  0.2611
  442MPD2    C1 6584   0.314   4.080  16.804 -0.4480  0.6854  0.4382
  442MPD2    C2 6585   0.310   3.951  16.755 -0.4288 -0.6003 -0.9796
  442MPD2    C3 6586   0.313   3.932  16.617 -1.0021  0.6539  0.3677
  442MPD2    C4 6587   0.317   4.039  16.532  0.2041  0.9500  0.8428
  442MPD2    C5 6588   0.327   4.166  16.577  0.3014  0.7417  0.5854
  442MPD2     H 6589   0.301   3.872  16.829  2.6649 -0.3647 -0.3401
  442MPD2    H1 6590   0.316   4.027  16.424 -2.1314  0.2717  0.9563
  442MPD2    H2 6591   0.309   4.283  16.753 -1.3078  1.2734 -2.4993
  442MPD2    H3 6592   0.328   4.254  16.513  0.1478  0.8536  0.7360
  442MPD2     N 6593   0.319   3.799  16.567  0.8076  0.7789  0.1415
  442MPD2    H5 6594   0.311   3.788  16.467  0.5617 -2.4321  0.5334
  442MPD2    N1 6595   0.314   4.121  16.939  0.4971  0.0553  0.4840
  442MPD2    H7 6596   0.298   4.220  16.952 -0.0159  0.0361 -0.0186
  443TMC3    C1 6597   0.303   4.074  17.174  0.0220 -0.6286 -0.4062
  443TMC3    C2 6598   0.196   4.162  17.180 -0.4407  0.4717 -0.0058
  443TMC3    C3 6599   0.087   4.134  17.258 -0.4947 -0.0578 -0.6043
  443TMC3    C4 6600   0.313   3.976  17.271 -0.0800 -0.3472  0.7496
  443TMC3    C5 6601   0.206   3.961  17.358  0.6487  0.2539 -0.5941
  443TMC3    C6 6602   0.094   4.033  17.346  0.5736  0.0680 -0.1536
  443TMC3     C 6603   0.353   4.032  17.041 -0.4991  0.7950  0.8247
  443TMC3     O 6604   0.430   3.940  17.042 -0.6263 -0.6060  0.3296
  443TMC3     H 6605   0.193   4.242  17.106  0.4432 -0.4374 -1.0324
  443TMC3    H1 6606   0.401   3.913  17.273  0.3742  0.1731 -2.9557
  443TMC3    H2 6607   0.007   4.013  17.408  0.8150  0.0665  0.1860
  443TMC3    C7 6608   0.195   3.834  17.422 -0.0550 -0.1704  0.0487
  443TMC3    C8 6609   4.685   4.130  17.177  0.3427 -0.9996 -0.4007
  443TMC3    O1 6610   0.240   3.729  17.374 -0.3516 -0.1216 -0.4635
  443TMC3    O2 6611   4.634   4.023  17.162 -0.3235 -0.1317  0.5397
  444MPD2     C 6612   0.599   3.060  17.007 -0.3206  0.1894 -0.1869
  444MPD2    C1 6613   0.617   2.962  17.101  0.2978 -0.0444 -0.1463
  444MPD2    C2 6614   0.694   2.853  17.060  0.2698  0.0173 -0.7221
  444MPD2    C3 6615   0.749   2.844  16.930 -0.0482 -0.1971 -0.0167
  444MPD2    C4 6616   0.723   2.946  16.833  0.4029  0.5824 -0.3306
  444MPD2    C5 6617   0.645   3.053  16.877  0.9119  0.9056 -0.9879
  444MPD2     H 6618   0.724   2.780  17.134 -1.9510  0.5745  0.7312
  444MPD2    H1 6619   0.764   2.943  16.733  1.4078 -0.6313  0.1239
  444MPD2    H2 6620   0.546   3.154  17.021  0.2351  0.3644  0.8103
  444MPD2    H3 6621   0.625   3.136  16.811 -1.4202 -1.1886 -2.9347
  444MPD2     N 6622   0.831   2.733  16.903  0.9801  0.3766  0.2450
  444MPD2    H5 6623   0.841   2.659  16.972 -0.5145  0.5428  0.6301
  444MPD2    N1 6624   0.569   2.968  17.229  0.5539  0.6955  0.0795
  444MPD2    H7 6625   0.604   2.899  17.294 -1.4742 -0.6013 -0.1916
  445TMC3    C1 6626   0.941   2.581  16.771  0.3436 -0.4344  0.0798
  445TMC3    C2 6627   0.912   2.486  16.861 -0.6270  0.2252 -0.2199
  445TMC3    C3 6628   0.988   2.373  16.862 -0.6811  0.0278 -0.2245
  445TMC3    C4 6629   1.048   2.568  16.682  0.5336  0.1125  0.2676
  445TMC3    C5 6630   1.130   2.456  16.702 -0.6862  0.0431 -0.6688
  445TMC3    C6 6631   1.103   2.358  16.789  0.2923  0.0825  0.4244
  445TMC3     C 6632   0.897   2.715  16.783 -0.4022 -0.4322  0.1390
  445TMC3     O 6633   0.924   2.797  16.699  0.1846  0.0764 -0.1438
  445TMC3     H 6634   0.832   2.496  16.933 -1.0830  1.1405 -0.8607
  445TMC3    H1 6635   1.097   2.652  16.633  2.2306  0.2263  2.1703
  445TMC3    H2 6636   1.180   2.283  16.807  0.8238  0.9177  1.5756
  445TMC3    C7 6637   1.258   2.452  16.635 -0.5811 -0.0338 -0.6717
  445TMC3    C8 6638   0.944   2.274  16.965 -0.0995 -0.3001 -0.3483
  445TMC3    O1 6639   1.249   2.487  16.517 -0.4397 -0.6532 -0.3841
  445TMC3    O2 6640   0.866   2.308  17.055  0.3847  0.3276 -0.2610
  446MPD2     C 6641   0.431   4.579  11.515  0.0612 -0.8812 -0.1400
  446MPD2    C1 6642   0.456   4.601  11.383  0.2560 -0.2085  0.5031
  446MPD2    C2 6643   0.585   4.639  11.345 -0.1515 -0.2924 -0.3844
  446MPD2    C3 6644   0.682   4.662  11.445 -0.3425 -0.8971 -0.0720
  446MPD2    C4 6645   0.651   4.628  11.575  0.1818  0.1912 -0.2147
  446MPD2    C5 6646   0.525   4.581  11.609 -0.3648 -0.5632  0.0055
  446MPD2     H 6647   0.610   4.653  11.240  2.3511  0.3862  0.2910
  446MPD2    H1 6648   0.719   4.647  11.657  0.2598 -0.3729 -0.1487
  446MPD2    H2 6649   0.334   4.545  11.549  0.7789 -0.9937  1.7411
  446MPD2    H3 6650   0.503   4.551  11.711 -2.1313 -2.1683 -0.8491
  446MPD2     N 6651   0.811   4.706  11.404 -0.2207  0.0966  0.3152
  446MPD2    H5 6652   0.811   0.006  11.304  0.7431 -2.0635 -0.0917
  446MPD2    N1 6653   0.355   4.588  11.282 -0.0713  0.4792 -0.0802
  446MPD2    H7 6654   0.373   4.629  11.191  1.0541 -2.0618 -1.0314
  447TMC3    C1 6655   1.047   0.024  11.408 -0.6260  0.0768  0.0141
  447TMC3    C2 6656   1.054   0.018  11.273  0.1381 -0.0266  0.3922
  447TMC3    C3 6657   1.177   4.703  11.217 -0.4164  0.3671 -0.4078
  447TMC3    C4 6658   1.163   0.009  11.485  0.5948  0.0046  0.6539
  447TMC3    C5 6659   1.286   4.702  11.423  0.1567 -0.7098  0.1398
  447TMC3    C6 6660   1.293   4.688  11.289 -0.6107 -0.0067  0.3833
  447TMC3     C 6661   0.927   4.696  11.478 -0.7024 -0.3288  0.4857
  447TMC3     O 6662   0.942   4.653  11.594 -1.0007 -0.7262  0.1892
  447TMC3     H 6663   0.967   0.030  11.209  0.1976 -0.4740  0.2323
  447TMC3    H1 6664   1.161   0.025  11.592  0.4292  0.0110  0.6498
  447TMC3    H2 6665   1.381   4.678  11.227 -0.1987 -1.6033  1.2233
  447TMC3    C7 6666   1.415   0.016  11.482 -0.7233  0.7695  1.1517
  447TMC3    C8 6667   1.171   4.686  11.075  0.6451  0.1097  0.0064
  447TMC3    O1 6668   1.516   4.713  11.414 -0.6108  0.2538  0.0042
  447TMC3    O2 6669   1.126   0.065  11.013  0.4842 -0.1881 -0.4561
  448TMC3    C1 6670   4.299   4.499  16.956 -0.6117  0.4214 -0.2318
  448TMC3    C2 6671   4.276   4.370  16.905 -0.0006  0.2460  0.3801
  448TMC3    C3 6672   4.306   4.264  16.985 -0.0136 -0.1026  0.3927
  448TMC3    C4 6673   4.366   4.517  17.076  0.3150  0.0049 -0.4877
  448TMC3    C5 6674   4.405   4.406  17.155 -0.3062 -0.5794 -0.4973
  448TMC3    C6 6675   4.367   4.280  17.110  0.7967 -0.4907  0.5764
  448TMC3     C 6676   4.291   4.615  16.875  0.2289 -0.0934  0.0824
  448TMC3     O 6677   4.291   0.001  16.936  0.2234  0.0771  0.0969
  448TMC3     H 6678   4.230   4.350  16.809 -0.4240 -0.7998  0.8061
  448TMC3    H1 6679   4.386   4.618  17.108  3.0169 -0.6264 -0.2199
  448TMC3    H2 6680   4.396   4.194  17.170 -0.2797  0.2195  2.1224
  448TMC3    C7 6681   4.478   4.424  17.285 -0.1595 -0.2890 -0.3300
  448TMC3    C8 6682   4.292   4.136  16.932  0.6792 -0.3104  0.1666
  448TMC3    O1 6683   4.530   4.532  17.293  0.1223  0.4882 -0.1231
  448TMC3    O2 6684   4.283   4.050  17.019  0.4348  0.6748  0.2873
  449MPD2     C 6685   0.217   2.538  13.840 -0.4613 -0.3036  0.2209
  449MPD2    C1 6686   0.115   2.453  13.794  0.0054  0.2486  0.5196
  449MPD2    C2 6687   0.009   2.420  13.876 -0.4111 -0.1167 -0.9199
  449MPD2    C3 6688   4.716   2.476  13.998  0.1477  0.0343 -0.5828
  449MPD2    C4 6689   0.091   2.573  14.037 -0.6306 -0.0790  0.5108
  449MPD2    C5 6690   0.205   2.596  13.966  0.5101  0.0741 -0.5249
  449MPD2     H 6691   4.654   2.353  13.835 -1.3675  0.3478  0.0455
  449MPD2    H1 6692   0.082   2.618  14.136  1.5690 -1.1196  1.1762
  449MPD2    H2 6693   0.300   2.577  13.782 -1.0758  1.0558  0.2650
  449MPD2    H3 6694   0.284   2.658  14.008 -1.5654  0.6693  2.4281
  449MPD2     N 6695   4.602   2.439  14.070 -0.8455 -0.4345  0.2768
  449MPD2    H5 6696   4.553   2.356  14.038 -2.5304  0.9962 -0.8341
  449MPD2    N1 6697   0.124   2.397  13.666 -0.6024 -0.2756 -0.1373
  449MPD2    H7 6698   0.046   2.337  13.642  0.4222 -0.7408 -2.3283
  450TMC3    C1 6699   0.185   2.317  13.456  0.7535 -0.0560 -0.2493
  450TMC3    C2 6700   0.274   2.212  13.436  0.1597  0.1274  0.6215
  450TMC3    C3 6701   0.221   2.089  13.408 -0.6886  0.2330 -0.3185
  450TMC3    C4 6702   0.049   2.299  13.447 -0.0489 -0.3961 -0.1728
  450TMC3    C5 6703   4.713   2.178  13.414 -0.4346 -0.6420 -0.0898
  450TMC3    C6 6704   0.077   2.071  13.402  0.1636 -0.6730  0.4410
  450TMC3     C 6705   0.227   2.390  13.581 -0.4749 -0.7527  0.4800
  450TMC3     O 6706   0.346   2.402  13.611 -0.1325 -0.4085  0.4496
  450TMC3     H 6707   0.379   2.223  13.459  0.0038  0.8113  0.9920
  450TMC3    H1 6708   4.716   2.393  13.457  3.1045  1.1229  2.3349
  450TMC3    H2 6709   0.035   1.971  13.405 -2.1840  0.2550 -1.1120
  450TMC3    C7 6710   4.611   2.158  13.524  0.4457 -0.0188 -0.5869
  450TMC3    C8 6711   0.315   1.982  13.375  0.1062 -0.4368 -0.2838
  450TMC3    O1 6712   4.631   2.228  13.619  0.0014 -0.0645  0.0290
  450TMC3    O2 6713   0.266   1.871  13.395  0.7087  0.1698  0.2419
  451MPD2     C 6714   1.413   0.736   1.615 -0.1412  0.4644 -0.3820
  451MPD2    C1 6715   1.438   0.762   1.488  0.7958 -0.3146 -0.7063
  451MPD2    C2 6716   1.539   0.701   1.418 -0.3776  0.3182 -0.0745
  451MPD2    C3 6717   1.632   0.620   1.480 -0.5896  0.4720 -0.2576
  451MPD2    C4 6718   1.604   0.590   1.615  0.1281 -0.2594  0.0155
  451MPD2    C5 6719   1.491   0.642   1.675  0.3050  0.0922 -0.6203
  451MPD2     H 6720   1.542   0.720   1.312  1.8295 -0.3434 -0.1195
  451MPD2    H1 6721   1.673   0.528   1.671  0.6776 -1.2435 -1.7466
  451MPD2    H2 6722   1.333   0.786   1.669  0.7133  0.8627  0.5215
  451MPD2    H3 6723   1.468   0.609   1.776  0.0018  1.4583 -0.2471
  451MPD2     N 6724   1.738   0.557   1.417  0.8083  0.0147 -0.5011
  451MPD2    H5 6725   1.795   0.511   1.487  2.9995  1.6436 -1.2250
  451MPD2    N1 6726   1.348   0.855   1.433 -0.6629 -0.3607  0.3364
  451MPD2    H7 6727   1.281   0.897   1.497  1.1138  0.9512  1.3324
  452TMC3    C1 6728   1.907   0.549   1.260  0.3154 -0.9106  0.1438
  452TMC3    C2 6729   1.993   0.564   1.369 -0.1594  0.0182  0.4296
  452TMC3    C3 6730   2.117   0.594   1.335 -0.0353  0.0159  0.2506
  452TMC3    C4 6731   1.948   0.568   1.127 -0.2063  0.0639  0.4407
  452TMC3    C5 6732   2.080   0.593   1.106  0.2746  0.5960 -0.2983
  452TMC3    C6 6733   2.164   0.616   1.212  0.4902 -0.0656  0.4429
  452TMC3     C 6734   1.766   0.566   1.288 -0.1648  1.0045 -0.2526
  452TMC3     O 6735   1.694   0.607   1.200  0.0603  0.3622  0.0219
  452TMC3     H 6736   1.973   0.558   1.475  0.1533 -2.3313  0.3417
  452TMC3    H1 6737   1.882   0.553   1.042  1.2808  0.4971 -0.7940
  452TMC3    H2 6738   2.265   0.651   1.191  0.5942 -0.5879  0.0588
  452TMC3    C7 6739   2.110   0.671   0.993 -0.1900  0.6883 -0.1991
  452TMC3    C8 6740   2.222   0.573   1.432  0.0247 -0.0150  0.5548
  452TMC3    O1 6741   2.157   0.782   1.003 -0.3818 -0.5200  0.1818
  452TMC3    O2 6742   2.335   0.619   1.409  0.0351 -0.0727 -0.0877
  453TMC3    C1 6743   2.871   3.658  11.574 -0.3015 -0.2847 -0.1175
  453TMC3    C2 6744   2.787   3.571  11.629 -0.0704  0.8637 -0.2722
  453TMC3    C3 6745   2.694   3.517  11.549 -0.3452 -0.2259  0.2582
  453TMC3    C4 6746   2.864   3.694  11.441  0.3003 -0.0769 -0.5332
  453TMC3    C5 6747   2.769   3.636  11.363  1.1971  0.1399 -0.5261
  453TMC3    C6 6748   2.685   3.539  11.415  0.1216 -0.0498 -0.6014
  453TMC3     C 6749   2.973   3.718  11.661  0.0977  0.4223  0.3925
  453TMC3     O 6750   3.052   3.795  11.605 -0.1099 -0.2293  0.1456
  453TMC3     H 6751   2.820   3.532  11.725  0.5926  0.1859 -0.7769
  453TMC3    H1 6752   2.932   3.765  11.397  0.0897  0.1582 -0.4810
  453TMC3    H2 6753   2.622   3.486  11.344  0.6005 -2.3408  0.6755
  453TMC3    C7 6754   2.770   3.640  11.216  0.3417  0.0833  0.1350
  453TMC3    C8 6755   2.616   3.397  11.590 -0.1173 -0.1859 -0.1477
  453TMC3    O1 6756   2.683   3.580  11.157  0.3096  0.4601  0.1298
  453TMC3    O2 6757   2.541   3.344  11.507  0.6535  0.2035 -0.4084
  454MPD2     C 6758   1.536   3.381  16.263 -0.4486 -0.0265  0.2828
  454MPD2    C1 6759   1.497   3.253  16.239 -0.1021 -0.1751 -0.6827
  454MPD2    C2 6760   1.527   3.162  16.338 -0.0524 -0.6731  0.4869
  454MPD2    C3 6761   1.611   3.184  16.441  0.5559  0.0628 -0.1077
  454MPD2    C4 6762   1.652   3.314  16.457  0.7083 -0.5064  0.2307
  454MPD2    C5 6763   1.617   3.415  16.372  0.6055 -0.0208  0.4041
  454MPD2     H 6764   1.499   3.061  16.310 -0.0213 -0.3422 -0.7629
  454MPD2    H1 6765   1.714   3.335  16.544  0.9300  1.7793 -0.4625
  454MPD2    H2 6766   1.516   3.458  16.190 -0.1355 -0.5383 -0.3318
  454MPD2    H3 6767   1.653   3.517  16.377 -0.5520  0.4142 -0.0981
  454MPD2     N 6768   1.628   3.091  16.548  0.5472 -0.3166  0.0963
  454MPD2    H5 6769   1.659   3.127  16.638 -1.6795  0.9809  0.3328
  454MPD2    N1 6770   1.432   3.206  16.128 -0.4659 -0.0595 -0.3245
  454MPD2    H7 6771   1.421   3.106  16.120  0.3390 -0.0047 -2.1225
  455TMC3    C1 6772   1.483   2.924  16.615  0.0590 -0.2340  0.0775
  455TMC3    C2 6773   1.432   3.030  16.679  0.3559  0.7676  0.6252
  455TMC3    C3 6774   1.301   3.060  16.669  0.2463 -0.2271  0.5802
  455TMC3    C4 6775   1.394   2.846  16.548 -0.2791  0.1518  0.2636
  455TMC3    C5 6776   1.263   2.879  16.528 -0.0857 -0.0138  0.3586
  455TMC3    C6 6777   1.219   2.988  16.594  0.2043  0.2064  0.3197
  455TMC3     C 6778   1.593   2.960  16.535  0.4225  0.3015  0.2808
  455TMC3     O 6779   1.606   2.901  16.427  0.1048 -0.4202 -0.3709
  455TMC3     H 6780   1.498   3.080  16.748  1.4512  0.2692 -0.0658
  455TMC3    H1 6781   1.438   2.759  16.500  0.0141  1.1924 -1.3463
  455TMC3    H2 6782   1.125   3.029  16.558 -0.3167 -1.7134 -0.4893
  455TMC3    C7 6783   1.191   2.832  16.408 -0.1975 -0.1757 -0.0903
  455TMC3    C8 6784   1.268   3.192  16.716 -0.1927  0.0233 -0.1146
  455TMC3    O1 6785   1.255   2.779  16.318 -0.6407 -0.0783 -0.3137
  455TMC3    O2 6786   1.365   3.267  16.728  0.1657 -0.2932 -0.2874
  456MPD2     C 6787   4.223   2.675  16.534  0.5088  0.5139  0.5159
  456MPD2    C1 6788   4.307   2.664  16.644 -0.2672  0.2499 -0.1854
  456MPD2    C2 6789   4.322   2.777  16.728  0.6174 -0.2316 -0.2299
  456MPD2    C3 6790   4.259   2.892  16.693 -0.3242 -0.1402 -0.2258
  456MPD2    C4 6791   4.170   2.900  16.591 -0.0803 -0.6068  0.1557
  456MPD2    C5 6792   4.148   2.791  16.511  1.0044 -0.0623  0.6867
  456MPD2     H 6793   4.386   2.776  16.815 -1.2905 -1.4859  1.1621
  456MPD2    H1 6794   4.105   2.986  16.576  1.0239  0.4116  1.2837
  456MPD2    H2 6795   4.207   2.587  16.472  0.0689  1.0949 -0.1997
  456MPD2    H3 6796   4.079   2.792  16.428 -0.3267 -0.0083  1.7908
  456MPD2     N 6797   4.278   3.010  16.781 -0.4140 -0.0345  0.6063
  456MPD2    H5 6798   4.328   2.991  16.868  4.1135 -0.1447 -1.9925
  456MPD2    N1 6799   4.388   2.547  16.645  0.6103  0.4586  0.0399
  456MPD2    H7 6800   4.368   2.479  16.572 -1.2655 -0.6776  1.5680
  457TMC3    C1 6801   4.279   3.240  16.852 -0.6028 -0.6361  0.5442
  457TMC3    C2 6802   4.272   3.369  16.812  0.6084  0.1599  0.1916
  457TMC3    C3 6803   4.283   3.461  16.917 -0.6423 -0.2177 -0.0587
  457TMC3    C4 6804   4.290   3.208  16.982 -0.2674  0.1869  0.4654
  457TMC3    C5 6805   4.318   3.304  17.072  0.0825  0.3009 -0.7156
  457TMC3    C6 6806   4.305   3.434  17.047  0.5414  0.9457 -0.2127
  457TMC3     C 6807   4.258   3.141  16.742  0.4752 -0.4012  0.8157
  457TMC3     O 6808   4.209   3.194  16.643  0.1883 -0.6831 -0.2959
  457TMC3     H 6809   4.273   3.396  16.707 -1.1084 -0.1261  0.1047
  457TMC3    H1 6810   4.310   3.103  17.002 -1.8566  0.1184  1.7082
  457TMC3    H2 6811   4.313   3.508  17.125  2.0131 -0.0558  0.5908
  457TMC3    C7 6812   4.368   3.261  17.206 -0.2522  0.0327 -0.3386
  457TMC3    C8 6813   4.289   3.599  16.881 -0.2645  0.1517  0.0296
  457TMC3    O1 6814   4.350   3.146  17.247 -0.6504  0.0983 -0.0264
  457TMC3    O2 6815   4.299   3.668  16.977  0.1499  0.1225  0.2155
  458MPD2     C 6816   1.558   2.829  12.166 -0.5018  0.5191  0.0433
  458MPD2    C1 6817   1.582   2.731  12.253  0.5703 -0.1851 -0.0973
  458MPD2    C2 6818   1.476   2.691  12.338  0.2067  0.0859  0.1045
  458MPD2    C3 6819   1.350   2.743  12.331 -0.0326  0.6206 -0.2952
  458MPD2    C4 6820   1.329   2.839  12.237 -0.5991  0.5865 -0.2039
  458MPD2    C5 6821   1.432   2.873  12.152  0.3552  0.1390  0.3813
  458MPD2     H 6822   1.488   2.618  12.416  0.6981  0.0789  0.0172
  458MPD2    H1 6823   1.237   2.896  12.222 -1.6113 -1.1343 -0.5581
  458MPD2    H2 6824   1.636   2.854  12.095 -1.8796  0.4914 -1.4813
  458MPD2    H3 6825   1.410   2.956  12.086  1.1384  0.7427  0.8828
  458MPD2     N 6826   1.255   2.702  12.431 -0.3813 -0.2261  0.2024
  458MPD2    H5 6827   1.282   2.630  12.497  0.3691 -0.5058 -0.4108
  458MPD2    N1 6828   1.721   2.696  12.267  0.0238 -0.1770 -0.1322
  458MPD2    H7 6829   1.798   2.740  12.219 -1.0918  1.0496 -0.8201
  459TMC3    C1 6830   1.911   2.583  12.381  0.2758 -0.6297 -0.7269
  459TMC3    C2 6831   1.994   2.691  12.365  0.3858  0.1824  0.1923
  459TMC3    C3 6832   2.119   2.682  12.417 -0.1759  0.1091 -0.0031
  459TMC3    C4 6833   1.941   2.469  12.453 -0.9339  1.2034  0.1924
  459TMC3    C5 6834   2.063   2.478  12.520 -0.0187 -0.0831 -0.1444
  459TMC3    C6 6835   2.153   2.575  12.493 -0.7770  0.1103  0.6227
  459TMC3     C 6836   1.764   2.601  12.359  0.7924 -0.1970 -0.1864
  459TMC3     O 6837   1.692   2.526  12.426  0.8183 -0.1951 -0.0961
  459TMC3     H 6838   1.959   2.784  12.321  1.5950  1.3882  1.7715
  459TMC3    H1 6839   1.858   2.404  12.477  0.8182 -0.3516  2.0524
  459TMC3    H2 6840   2.249   2.588  12.543 -1.5720 -0.0164  2.1944
  459TMC3    C7 6841   2.082   2.415  12.651  0.2673  0.0677 -0.3703
  459TMC3    C8 6842   2.219   2.781  12.408 -0.4522  0.4243  0.0610
  459TMC3    O1 6843   2.023   2.307  12.664 -0.5014 -0.2045  0.2397
  459TMC3    O2 6844   2.310   2.788  12.492  0.3764  0.9623 -0.1989
  460MPD2     C 6845   1.183   4.348  10.908  0.3312  0.1603 -0.4160
  460MPD2    C1 6846   1.158   4.485  10.920 -0.2869  0.2608 -0.9109
  460MPD2    C2 6847   1.091   4.548  10.817 -0.0085  0.8096 -0.2637
  460MPD2    C3 6848   1.026   4.476  10.715 -0.6727 -1.1070  0.6989
  460MPD2    C4 6849   1.049   4.340  10.711 -0.0079 -0.0463 -0.5178
  460MPD2    C5 6850   1.117   4.276  10.809  0.0719  0.1096 -0.1724
  460MPD2     H 6851   1.089   4.656  10.823 -1.2458  0.7392  0.6656
  460MPD2    H1 6852   1.004   4.278  10.635  0.5813 -0.7934 -0.2597
  460MPD2    H2 6853   1.243   4.286  10.973 -0.3656 -0.4449 -0.3500
  460MPD2    H3 6854   1.127   4.169  10.789  1.6953  0.0718  0.8107
  460MPD2     N 6855   0.952   4.553  10.613  0.1874 -0.1785  0.3229
  460MPD2    H5 6856   0.951   4.653  10.630 -0.1710  0.1649 -1.6549
  460MPD2    N1 6857   1.195   4.552  11.038 -0.2015 -1.0643 -0.2702
  460MPD2    H7 6858   1.227   4.484  11.107  2.5621  0.3146 -0.2028
  461TMC3    C1 6859   0.833   4.591  10.413 -0.2839  0.1508  0.4197
  461TMC3    C2 6860   0.757   4.536  10.313 -0.0648  0.2035  0.4624
  461TMC3    C3 6861   0.693   4.619  10.228 -0.8425  0.4790  0.1060
  461TMC3    C4 6862   0.864   0.005  10.424 -0.4397  0.7136 -0.1150
  461TMC3    C5 6863   0.803   0.079  10.327 -0.8612 -0.1577 -0.0483
  461TMC3    C6 6864   0.711   0.035  10.238 -0.1818  0.6927 -0.6627
  461TMC3     C 6865   0.898   4.497  10.500  0.1323 -0.3514  0.2003
  461TMC3     O 6866   0.889   4.381  10.471  0.0786  0.2851 -0.2241
  461TMC3     H 6867   0.740   4.429  10.303 -0.8212  0.4105 -0.4815
  461TMC3    H1 6868   0.952   0.038  10.479 -0.1893  0.4149 -0.3356
  461TMC3    H2 6869   0.674   0.105  10.164  0.9681  0.4650 -1.4621
  461TMC3    C7 6870   0.839   0.222  10.317 -0.1480 -0.0588  0.4607
  461TMC3    C8 6871   0.615   4.566  10.115 -0.2066  0.0822  0.0063
  461TMC3    O1 6872   0.750   0.297  10.267 -0.3410 -0.2933 -0.9195
  461TMC3    O2 6873   0.569   4.643  10.032  0.1909  0.0944  0.3471
  462TMC3    C1 6874   0.711   1.029   0.137 -0.2064 -0.1772 -0.0284
  462TMC3    C2 6875   0.743   1.018   0.005  0.3384  0.0020  0.2171
  462TMC3    C3 6876   0.802   0.900  17.645 -0.1728  0.5812  0.6029
  462TMC3    C4 6877   0.734   0.930   0.230  0.2288 -0.4331 -0.3170
  462TMC3    C5 6878   0.793   0.815   0.185 -0.1407  0.3280  0.7103
  462TMC3    C6 6879   0.831   0.797   0.055 -1.1176  0.5495 -0.5412
  462TMC3     C 6880   0.672   1.165   0.183  0.5298  0.4421  0.0789
  462TMC3     O 6881   0.600   1.238   0.119  0.4705 -0.5395 -0.2679
  462TMC3     H 6882   0.717   1.101  17.620 -2.5506  1.1967  2.9046
  462TMC3    H1 6883   0.694   0.947   0.330  1.2065 -0.4186  0.0795
  462TMC3    H2 6884   0.838   0.698   0.012  0.6769  0.4572 -0.0352
  462TMC3    C7 6885   0.809   0.707   0.279  0.1103  0.0062  0.2829
  462TMC3    C8 6886   0.793   0.869  17.500 -0.2493  0.8447  0.5423
  462TMC3    O1 6887   0.777   0.596   0.236 -0.3763 -0.1355  0.7705
  462TMC3    O2 6888   0.708   0.914  17.426 -0.3596 -0.1461 -0.3398
  463MPD2     C 6889   3.363   4.037   1.411 -0.0277 -0.3823 -0.0917
  463MPD2    C1 6890   3.258   4.134   1.436 -0.2217  0.0360 -0.4151
  463MPD2    C2 6891   3.303   4.268   1.444 -0.2557 -0.6818 -0.3322
  463MPD2    C3 6892   3.438   4.311   1.438  0.3405 -0.3601 -0.2892
  463MPD2    C4 6893   3.537   4.205   1.426 -0.6415  0.3338 -0.0588
  463MPD2    C5 6894   3.497   4.072   1.405 -0.2620  0.1877 -0.1119
  463MPD2     H 6895   3.227   4.345   1.457  0.0958 -0.2420 -0.8550
  463MPD2    H1 6896   3.644   4.225   1.421 -0.4809 -0.5610 -0.1169
  463MPD2    H2 6897   3.329   3.934   1.418  1.1264 -0.9976 -3.5886
  463MPD2    H3 6898   3.563   3.986   1.400 -0.7927 -0.2367  0.2340
  463MPD2     N 6899   3.479   4.449   1.461  0.2581 -0.4904 -0.3493
  463MPD2    H5 6900   3.576   4.460   1.490 -0.0609  1.1112  0.0854
  463MPD2    N1 6901   3.120   4.095   1.443 -0.1891  0.0997 -0.1574
  463MPD2    H7 6902   3.055   4.168   1.470  0.1628 -0.4566  2.1401
  464TMC3    C1 6903   2.923   3.973   1.459 -0.1053 -0.4826  0.2091
  464TMC3    C2 6904   2.866   4.075   1.538 -0.0472  0.4851 -0.5167
  464TMC3    C3 6905   2.732   4.074   1.545  0.1061  0.5709 -1.0807
  464TMC3    C4 6906   2.843   3.880   1.396  0.6666 -0.2835  0.3344
  464TMC3    C5 6907   2.705   3.891   1.403 -0.5069  0.2158 -0.2819
  464TMC3    C6 6908   2.649   3.982   1.486 -0.0442 -0.0683  0.0580
  464TMC3     C 6909   3.064   3.973   1.425 -0.2561 -0.1357 -0.5524
  464TMC3     O 6910   3.114   3.870   1.377 -0.9780  0.1577 -0.1879
  464TMC3     H 6911   2.928   4.140   1.598  0.2150 -1.3361  1.2016
  464TMC3    H1 6912   2.883   3.808   1.326  2.2295  0.5836  0.3179
  464TMC3    H2 6913   2.543   4.004   1.490 -0.3184 -1.3534  0.0087
  464TMC3    C7 6914   2.639   3.768   1.373 -0.5443  0.5510  0.4632
  464TMC3    C8 6915   2.680   4.201   1.572 -0.2095  1.0110 -0.3159
  464TMC3    O1 6916   2.708   3.670   1.352 -0.3583  0.3525  0.6817
  464TMC3    O2 6917   2.596   4.255   1.499 -0.4911 -0.5275  0.5136
  465MPD2     C 6918   3.137   3.271  16.509  0.2750  0.2916  0.2824
  465MPD2    C1 6919   3.049   3.289  16.613  0.7704 -0.0530  0.2561
  465MPD2    C2 6920   2.918   3.334  16.586  0.1941 -0.2571 -0.8904
  465MPD2    C3 6921   2.869   3.366  16.460 -0.3573  1.0561 -0.1408
  465MPD2    C4 6922   2.961   3.368  16.360  0.8273  0.0552 -0.0602
  465MPD2    C5 6923   3.091   3.316  16.383  0.2356 -0.2493 -0.3539
  465MPD2     H 6924   2.844   3.344  16.664  1.4859 -0.1278  0.3173
  465MPD2    H1 6925   2.934   3.391  16.257  1.9059 -1.7649 -0.7558
  465MPD2    H2 6926   3.236   3.227  16.521  0.3301  0.4019  0.2306
  465MPD2    H3 6927   3.158   3.309  16.299  1.8431  0.4243  0.8709
  465MPD2     N 6928   2.735   3.392  16.454 -0.1996 -0.0240  0.1906
  465MPD2    H5 6929   2.678   3.363  16.532 -0.7644  0.4696 -0.0406
  465MPD2    N1 6930   3.078   3.254  16.745  0.2046 -0.2913  0.4024
  465MPD2    H7 6931   3.001   3.259  16.811  0.9334  1.6465  1.1079
  466TMC3    C1 6932   2.346   3.308  16.445 -0.0780  0.4391 -0.1112
  466TMC3    C2 6933   2.259   3.396  16.390 -0.4286  0.8121  0.0078
  466TMC3    C3 6934   2.309   3.496  16.309 -0.4029  0.6532 -0.8342
  466TMC3    C4 6935   2.484   3.313  16.418  0.6785 -0.1174 -0.8222
  466TMC3    C5 6936   2.529   3.418  16.346  0.2606 -0.1097 -0.4989
  466TMC3    C6 6937   2.438   3.503  16.284  0.2277  0.1879  0.5605
  466TMC3     C 6938   2.326   3.268  16.586 -0.4260 -0.1841 -0.1541
  466TMC3     O 6939   2.420   3.208  16.634  0.0684 -0.4669 -0.0204
  466TMC3     H 6940   2.156   3.396  16.424 -0.5044  1.0714 -0.2225
  466TMC3    H1 6941   2.547   3.235  16.459 -2.9258 -0.7510  3.5259
  466TMC3    H2 6942   2.478   3.593  16.239  2.5367 -1.2304 -0.2716
  466TMC3    C7 6943   2.669   3.431  16.337  0.5182 -0.3758 -0.3034
  466TMC3    C8 6944   2.254   3.630  16.334 -0.1054 -0.4208 -0.2135
  466TMC3    O1 6945   2.713   3.481  16.235 -0.2239 -0.0303  0.1124
  466TMC3    O2 6946   2.205   3.641  16.446  0.4367 -0.1073 -0.0505
  467TMC3    C1 6947   3.444   1.698  13.494 -0.1651  0.8011 -0.6151
  467TMC3    C2 6948   3.428   1.796  13.396 -0.3432  0.4200 -0.5311
  467TMC3    C3 6949   3.334   1.897  13.428  0.1002 -0.0409  0.3446
  467TMC3    C4 6950   3.371   1.711  13.612 -0.4011 -0.2486  0.1216
  467TMC3    C5 6951   3.294   1.816  13.644 -0.8302  0.8181 -0.4621
  467TMC3    C6 6952   3.265   1.909  13.549  0.5821 -0.9413  0.0407
  467TMC3     C 6953   3.583   1.661  13.500  0.0050 -0.4505  0.3158
  467TMC3     O 6954   3.667   1.731  13.444 -0.0577 -0.2625 -0.0754
  467TMC3     H 6955   3.473   1.787  13.298  0.5764  0.4989 -0.1202
  467TMC3    H1 6956   3.390   1.642  13.693  1.5534  1.3024  0.9677
  467TMC3    H2 6957   3.196   1.991  13.563  0.7863 -0.4887 -1.6582
  467TMC3    C7 6958   3.283   1.865  13.783 -0.4213  0.9498  0.4466
  467TMC3    C8 6959   3.324   2.011  13.340  0.1831  0.8183  0.2754
  467TMC3    O1 6960   3.322   1.975  13.812  0.4646 -0.0144  0.3665
  467TMC3    O2 6961   3.325   2.122  13.390  0.2036  0.4704 -0.2741
  468MPD2     C 6962   2.558   0.276  10.707 -0.0164  0.2190 -0.0857
  468MPD2    C1 6963   2.689   0.258  10.665  0.6284  0.5009 -0.1331
  468MPD2    C2 6964   2.749   0.129  10.667 -0.9423  0.7708 -0.2343
  468MPD2    C3 6965   2.665   0.023  10.690 -0.2418  0.4179  0.1939
  468MPD2    C4 6966   2.534   0.045  10.718 -0.0756  0.1616  0.5037
  468MPD2    C5 6967   2.478   0.168  10.723  0.2427 -0.3346  0.1863
  468MPD2     H 6968   2.851   0.120  10.633 -1.2422 -0.4997 -0.7960
  468MPD2    H1 6969   2.475   4.679  10.748 -1.4638  0.7275 -0.6008
  468MPD2    H2 6970   2.512   0.374  10.717  0.3582  0.3983 -0.0996
  468MPD2    H3 6971   2.378   0.194  10.757 -0.8222  0.8077 -3.7593
  468MPD2     N 6972   2.710   4.615  10.699 -0.0578 -0.6475 -0.1599
  468MPD2    H5 6973   2.640   4.542  10.712 -1.1428  0.7759  1.9347
  468MPD2    N1 6974   2.767   0.369  10.620 -0.8675  0.1232  0.0807
  468MPD2    H7 6975   2.851   0.353  10.566 -0.8602  0.2716  0.0486
  469TMC3    C1 6976   2.850   0.590  10.610 -0.0215 -0.2363  0.4108
  469TMC3    C2 6977   2.978   0.548  10.640 -0.7096 -0.5574  0.0569
  469TMC3    C3 6978   3.075   0.636  10.692  0.7053  1.0021  0.3850
  469TMC3    C4 6979   2.813   0.723  10.639 -0.3759 -0.4168 -0.3355
  469TMC3    C5 6980   2.910   0.803  10.697  1.0686  0.6565  0.7459
  469TMC3    C6 6981   3.047   0.769  10.722  0.9690  0.4096  0.0119
  469TMC3     C 6982   2.743   0.500  10.640  0.0135  0.6014  0.0197
  469TMC3     O 6983   2.650   0.552  10.696  0.4880  0.4541 -0.0915
  469TMC3     H 6984   3.006   0.446  10.661 -0.2044 -0.5368 -0.5138
  469TMC3    H1 6985   2.711   0.754  10.616 -0.4176 -0.7989 -0.6696
  469TMC3    H2 6986   3.127   0.835  10.754  2.0446 -0.9561  0.1409
  469TMC3    C7 6987   2.881   0.937  10.745 -0.3412  0.9856 -0.1383
  469TMC3    C8 6988   3.205   0.584  10.726  0.4802  0.3784 -0.0129
  469TMC3    O1 6989   2.971   1.018  10.748 -0.4629 -0.0852  0.1349
  469TMC3    O2 6990   3.237   0.479  10.673  0.2533  0.1824 -0.4253
  470TMC3    C1 6991   0.089   0.442   0.497 -1.0465 -0.3750 -0.6016
  470TMC3    C2 6992   0.118   0.571   0.521  1.0502 -0.2306 -0.0345
  470TMC3    C3 6993   0.064   0.666   0.437  0.8194 -0.0490 -0.1878
  470TMC3    C4 6994   0.021   0.398   0.386 -0.2484 -0.1053 -0.2367
  470TMC3    C5 6995   4.676   0.491   0.309  0.4921 -0.4209 -0.3287
  470TMC3    C6 6996   4.708   0.623   0.331 -0.9943 -0.5601 -0.1750
  470TMC3     C 6997   0.147   0.330   0.577  0.1627  0.4012 -0.2912
  470TMC3     O 6998   0.126   0.211   0.551  0.1954 -0.3329  0.5490
  470TMC3     H 6999   0.176   0.599   0.608 -0.1484  1.2328  0.2833
  470TMC3    H1 7000   0.005   0.290   0.383  1.3669 -0.3894  1.2947
  470TMC3    H2 7001   4.661   0.694   0.265 -1.0764  0.1890  0.6939
  470TMC3    C7 7002   4.610   0.442   0.189 -0.2195  0.9055  0.4903
  470TMC3    C8 7003   0.050   0.805   0.493  0.0937  0.9662  0.1394
  470TMC3    O1 7004   4.607   0.514   0.088  0.1686  0.7082  0.0306
  470TMC3    O2 7005   0.084   0.820   0.611 -0.2826  0.5276  0.2698
  471MPD2     C 7006   0.601   2.321  16.801 -0.0082 -0.3083  0.6314
  471MPD2    C1 7007   0.599   2.189  16.759  0.0220 -0.2856 -0.4304
  471MPD2    C2 7008   0.556   2.085  16.843  0.2040 -0.8271  0.1023
  471MPD2    C3 7009   0.540   2.106  16.972  0.9594  0.0381  0.4106
  471MPD2    C4 7010   0.555   2.240  17.018  1.4693 -0.4784  0.2453
  471MPD2    C5 7011   0.571   2.342  16.933  0.2112 -0.2202  0.5285
  471MPD2     H 7012   0.558   1.985  16.802 -1.7897 -1.9277  2.7029
  471MPD2    H1 7013   0.548   2.258  17.125 -2.3944  0.4810 -0.1698
  471MPD2    H2 7014   0.625   2.410  16.744  0.2641 -0.3471  0.6871
  471MPD2    H3 7015   0.581   2.445  16.968  1.4583  0.2710 -1.2924
  471MPD2     N 7016   0.516   2.004  17.070  0.4422 -0.1523  0.4472
  471MPD2    H5 7017   0.524   2.035  17.166 -0.8969  1.8168 -0.0739
  471MPD2    N1 7018   0.633   2.144  16.633 -0.1588 -0.0041  0.4165
  471MPD2    H7 7019   0.627   2.046  16.608 -1.7764  0.0124  0.7757
  472TMC3    C1 7020   0.724   2.131  16.430 -0.6701 -0.5238 -0.1271
  472TMC3    C2 7021   0.687   2.161  16.303  0.6339 -0.0790  0.4414
  472TMC3    C3 7022   0.671   2.068  16.206 -0.0118  0.5087  0.7313
  472TMC3    C4 7023   0.749   2.005  16.465 -0.4465  0.1342  0.2741
  472TMC3    C5 7024   0.728   1.906  16.372  0.0886 -0.0117 -0.4254
  472TMC3    C6 7025   0.688   1.941  16.247 -0.4583  0.1016  0.0968
  472TMC3     C 7026   0.695   2.220  16.535 -0.4896  0.0531  0.2017
  472TMC3     O 7027   0.706   2.342  16.522  0.1124  0.2794  0.9311
  472TMC3     H 7028   0.652   2.260  16.276  0.2493 -0.4495 -0.4151
  472TMC3    H1 7029   0.789   1.980  16.563  1.8730 -0.3522 -0.7977
  472TMC3    H2 7030   0.680   1.864  16.171  1.8166  1.6509 -1.6985
  472TMC3    C7 7031   0.678   1.786  16.436 -0.7059  0.8387  0.0899
  472TMC3    C8 7032   0.568   2.096  16.113 -0.3021  0.6457  0.4104
  472TMC3    O1 7033   0.678   1.778  16.560  0.1971  0.6627  0.1202
  472TMC3    O2 7034   0.584   2.185  16.027 -0.3966  0.4459  0.4107
  473MPD2     C 7035   0.698   3.991  14.191  0.0802 -0.2296 -0.2768
  473MPD2    C1 7036   0.658   4.111  14.139 -0.3163  0.5053  0.4342
  473MPD2    C2 7037   0.669   4.222  14.220 -1.2906  0.3664  0.1916
  473MPD2    C3 7038   0.708   4.206  14.353  0.1855 -0.1398  0.0497
  473MPD2    C4 7039   0.744   4.088  14.408  0.4512  0.3837 -0.0378
  473MPD2    C5 7040   0.737   3.977  14.322 -0.1160 -0.1283  0.2558
  473MPD2     H 7041   0.660   4.323  14.181 -1.3854 -0.1633 -1.1507
  473MPD2    H1 7042   0.773   4.081  14.512  0.2614 -0.3301 -0.0365
  473MPD2    H2 7043   0.695   3.898  14.136  1.5124 -0.9821  0.9149
  473MPD2    H3 7044   0.758   3.875  14.351 -1.7243  0.2370  2.7650
  473MPD2     N 7045   0.711   4.323  14.433  0.1028  0.4806 -0.0218
  473MPD2    H5 7046   0.768   4.317  14.516  0.9952 -1.7226 -0.8081
  473MPD2    N1 7047   0.632   4.132  13.998  0.2061 -0.0795  0.4532
  473MPD2    H7 7048   0.633   4.232  13.981 -0.1636  0.2956  2.7053
  474TMC3    C1 7049   0.684   4.539  14.509 -0.0338 -0.5750  0.0462
  474TMC3    C2 7050   0.599   4.646  14.518 -0.6747  0.2911  0.1430
  474TMC3    C3 7051   0.652   0.046  14.554 -0.1847 -0.1361  0.1770
  474TMC3    C4 7052   0.816   4.568  14.503  0.1088  0.7118 -0.1268
  474TMC3    C5 7053   0.865   4.685  14.547 -0.3878  0.5718 -0.4847
  474TMC3    C6 7054   0.782   0.073  14.576 -0.0823  0.6810  0.5805
  474TMC3     C 7055   0.631   4.432  14.426  0.4491  0.0413  0.1246
  474TMC3     O 7056   0.536   4.452  14.352  0.4822 -0.6413  0.0564
  474TMC3     H 7057   0.492   4.633  14.519 -0.5760 -0.5840 -0.0616
  474TMC3    H1 7058   0.891   4.491  14.487 -0.2836 -0.0197  1.4794
  474TMC3    H2 7059   0.814   0.169  14.614  1.2763  0.8398 -0.9921
  474TMC3    C7 7060   1.003   4.695  14.593  0.4603  0.3444  0.2318
  474TMC3    C8 7061   0.554   0.148  14.585 -0.1917  0.3321  0.5404
  474TMC3    O1 7062   1.098   4.655  14.526 -0.1824 -0.3730 -0.5426
  474TMC3    O2 7063   0.455   0.100  14.639  0.3844 -0.1597  0.1558
  475MPD2     C 7064   3.421   2.953  10.788 -0.2471 -0.6001  0.0244
  475MPD2    C1 7065   3.401   2.864  10.677 -0.3969 -0.2164  1.4072
  475MPD2    C2 7066   3.268   2.833  10.651 -0.3471  0.0202  0.0458
  475MPD2    C3 7067   3.169   2.888  10.726  0.2033 -0.4539 -0.2962
  475MPD2    C4 7068   3.185   2.989  10.823 -0.2837  0.0207 -0.1517
  475MPD2    C5 7069   3.316   3.022  10.846 -0.0254  0.2692  0.2789
  475MPD2     H 7070   3.243   2.763  10.572  0.9497 -0.6738  0.2326
  475MPD2    H1 7071   3.105   3.042  10.874 -0.1521  1.1720 -1.1514
  475MPD2    H2 7072   3.520   2.991  10.809  0.0511 -0.6790 -1.2473
  475MPD2    H3 7073   3.344   3.099  10.917  1.0009 -1.9128  2.2396
  475MPD2     N 7074   3.037   2.859  10.682  0.0542 -0.0335  0.2639
  475MPD2    H5 7075   3.031   2.791  10.607 -0.9296  0.2454  0.0967
  475MPD2    N1 7076   3.504   2.823  10.599 -0.0891 -0.4944  0.3895
  475MPD2    H7 7077   3.593   2.871  10.611 -0.4541 -0.1417  1.6551
  476TMC3    C1 7078   3.610   2.728  10.402  0.3144 -0.4860  0.4452
  476TMC3    C2 7079   3.615   2.623  10.305 -0.3865 -0.5020 -0.5679
  476TMC3    C3 7080   3.728   2.597  10.234 -0.2994 -0.0344 -0.8298
  476TMC3    C4 7081   3.704   2.825  10.396 -0.4739 -0.3741 -0.9558
  476TMC3    C5 7082   3.820   2.797  10.324  0.3148 -0.0404 -0.3436
  476TMC3    C6 7083   3.831   2.686  10.248  0.2003  0.0806 -0.1083
  476TMC3     C 7084   3.491   2.738  10.486 -0.5990  0.7449 -0.6874
  476TMC3     O 7085   3.395   2.676  10.441 -0.5637 -0.1136  0.4886
  476TMC3     H 7086   3.534   2.551  10.305  1.2466 -2.2942 -2.7369
  476TMC3    H1 7087   3.690   2.922  10.444  0.2201 -1.4111  1.3346
  476TMC3    H2 7088   3.924   2.676  10.194 -0.7210  0.4962 -1.7730
  476TMC3    C7 7089   3.933   2.885  10.337  0.3262  0.5322  0.2990
  476TMC3    C8 7090   3.746   2.482  10.150  0.4841  0.1389 -0.5863
  476TMC3    O1 7091   4.016   2.890  10.245  0.4258 -0.0043  0.0946
  476TMC3    O2 7092   3.865   2.454  10.135  0.0396  0.4268 -0.5835
  477MPD2     C 7093   1.046   3.730  11.729 -0.2897  0.2827 -0.2234
  477MPD2    C1 7094   1.076   3.825  11.823  0.3967  0.5126  0.4918
  477MPD2    C2 7095   1.198   3.813  11.887  0.2064 -0.2731  0.1787
  477MPD2    C3 7096   1.288   3.709  11.859 -0.5176 -0.9166  0.7222
  477MPD2    C4 7097   1.255   3.622  11.759 -0.4034  0.2595 -0.0652
  477MPD2    C5 7098   1.137   3.637  11.689  0.6106  0.1524  0.5289
  477MPD2     H 7099   1.224   3.872  11.975  1.1451  0.4439 -0.5700
  477MPD2    H1 7100   1.315   3.535  11.736  0.0391  0.5666 -0.0712
  477MPD2    H2 7101   0.947   3.732  11.684 -1.1793  0.7588  1.7642
  477MPD2    H3 7102   1.108   3.568  11.611  5.1657 -1.9689  0.7400
  477MPD2     N 7103   1.397   3.690  11.949  0.1589  0.7290  0.8125
  477MPD2    H5 7104   1.394   3.739  12.038  2.0959 -1.4422  2.0839
  477MPD2    N1 7105   0.985   3.935  11.832 -0.0806 -0.0131 -0.6645
  477MPD2    H7 7106   0.914   3.943  11.759 -0.6504 -0.7760 -0.1850
  478TMC3    C1 7107   0.923   4.157  11.867 -0.0658  0.5364  0.0860
  478TMC3    C2 7108   0.958   4.285  11.917  0.4056 -0.4017 -0.2323
  478TMC3    C3 7109   0.906   4.393  11.861 -0.2025  0.1077 -0.3019
  478TMC3    C4 7110   0.830   4.146  11.769  0.2957 -0.9468 -0.3655
  478TMC3    C5 7111   0.775   4.260  11.718 -0.3143  0.6922  0.0468
  478TMC3    C6 7112   0.814   4.381  11.752 -0.4843 -0.9574 -0.0820
  478TMC3     C 7113   1.003   4.046  11.909  0.1688 -0.3788 -0.3748
  478TMC3     O 7114   1.089   4.057  11.992  0.1721 -0.5650  0.5433
  478TMC3     H 7115   1.032   4.297  11.995 -0.0659  1.5071 -0.0865
  478TMC3    H1 7116   0.791   4.049  11.740 -0.2278 -1.4485  2.0455
  478TMC3    H2 7117   0.770   4.466  11.701 -0.2300 -0.3157  0.7696
  478TMC3    C7 7118   0.708   4.246  11.593  0.3560  0.4638  0.1148
  478TMC3    C8 7119   0.892   4.515  11.941 -0.0021 -0.0354 -0.3597
  478TMC3    O1 7120   0.604   4.185  11.597 -0.0117 -0.2398 -0.3626
  478TMC3    O2 7121   0.920   4.488  12.057  0.1409  0.3805  0.3005
  479MPD2     C 7122   0.196   1.596  15.091  0.5029  0.2203  0.1579
  479MPD2    C1 7123   0.175   1.531  15.214 -0.0917  0.4264  0.5519
  479MPD2    C2 7124   0.275   1.535  15.307  0.4586 -0.6547 -0.4093
  479MPD2    C3 7125   0.397   1.598  15.281  0.0083  0.5445  1.1085
  479MPD2    C4 7126   0.416   1.661  15.159 -0.3089 -0.5510 -1.0573
  479MPD2    C5 7127   0.318   1.659  15.070 -0.3519 -1.1133  0.2649
  479MPD2     H 7128   0.256   1.494  15.405  1.8624  1.2521  0.6578
  479MPD2    H1 7129   0.506   1.719  15.137  0.2443 -0.8138  0.4608
  479MPD2    H2 7130   0.121   1.587  15.013 -0.4896  0.8749  1.0299
  479MPD2    H3 7131   0.325   1.700  14.970  0.2891 -0.5991  0.5219
  479MPD2     N 7132   0.496   1.622  15.375  0.4574  0.0448  0.1782
  479MPD2    H5 7133   0.583   1.660  15.339  0.5494 -0.8811 -0.5570
  479MPD2    N1 7134   0.054   1.464  15.223 -0.1934 -0.4382  0.3345
  479MPD2    H7 7135   4.699   1.486  15.158 -0.3104  0.6562  0.8406
  480TMC3    C1 7136   0.264   1.506  15.771  0.2796  0.0070 -0.2463
  480TMC3    C2 7137   0.179   1.611  15.766  0.2836 -0.1778  0.4586
  480TMC3    C3 7138   0.191   1.707  15.665  0.4696  0.4854  0.2546
  480TMC3    C4 7139   0.361   1.495  15.676 -0.1128  0.0918  0.2058
  480TMC3    C5 7140   0.384   1.589  15.588 -0.3105 -0.1663  0.1433
  480TMC3    C6 7141   0.300   1.697  15.578 -0.8038  0.2197  0.3874
  480TMC3     C 7142   0.253   1.415  15.882 -0.4300 -0.2831  0.0552
  480TMC3     O 7143   0.353   1.347  15.898  0.1217 -0.5913 -0.3677
  480TMC3     H 7144   0.097   1.618  15.835 -1.1741  0.6367 -1.3484
  480TMC3    H1 7145   0.420   1.404  15.669  1.0875  0.8433  0.5351
  480TMC3    H2 7146   0.329   1.778  15.512 -1.4888 -0.8533 -1.2431
  480TMC3    C7 7147   0.497   1.571  15.505  0.0217  0.6909  0.0809
  480TMC3    C8 7148   0.064   1.740  15.600 -0.2811  0.4539 -0.1490
  480TMC3    O1 7149   0.605   1.551  15.562 -0.2755 -0.0029  0.5222
  480TMC3    O2 7150   4.685   1.723  15.670  0.9391 -0.0511 -0.4370
  481MPD2     C 7151   1.677   0.604  14.284 -0.2106  0.5186  0.1512
  481MPD2    C1 7152   1.620   0.721  14.237 -0.3104 -0.5723  0.0840
  481MPD2    C2 7153   1.538   0.796  14.324  0.5315 -0.0883 -0.0673
  481MPD2    C3 7154   1.513   0.754  14.457 -0.4895 -0.8634  0.7948
  481MPD2    C4 7155   1.581   0.643  14.502  0.4455 -1.1263  0.2079
  481MPD2    C5 7156   1.664   0.571  14.417  0.3583 -0.4194  0.1016
  481MPD2     H 7157   1.494   0.887  14.284  0.6138  0.0178  0.0838
  481MPD2    H1 7158   1.556   0.607  14.601 -2.6595  0.4853 -0.0058
  481MPD2    H2 7159   1.740   0.552  14.214  0.3221  0.9189  0.3360
  481MPD2    H3 7160   1.710   0.478  14.449  0.2195 -0.6188 -0.2736
  481MPD2     N 7161   1.432   0.824  14.549 -0.2729  0.1421 -0.0570
  481MPD2    H5 7162   1.427   0.782  14.641 -1.7524 -0.3227 -0.3446
  481MPD2    N1 7163   1.636   0.757  14.097 -0.6138  0.4184  0.1684
  481MPD2    H7 7164   1.689   0.695  14.036  0.2707  0.5837  0.7764
  482TMC3    C1 7165   1.586   0.850  13.888  0.3921 -0.4128  0.5707
  482TMC3    C2 7166   1.593   0.725  13.831  0.1420 -0.8184 -0.3742
  482TMC3    C3 7167   1.583   0.729  13.695 -0.2627  0.2330  0.0549
  482TMC3    C4 7168   1.570   0.970  13.826  0.2072  0.1059  0.7719
  482TMC3    C5 7169   1.576   0.964  13.691  0.2275 -0.4623  0.0124
  482TMC3    C6 7170   1.575   0.843  13.620  0.4731  0.8821  0.0980
  482TMC3     C 7171   1.572   0.860  14.035 -0.1067  0.2611  0.3103
  482TMC3     O 7172   1.520   0.959  14.085 -0.9525 -0.1888 -0.3396
  482TMC3     H 7173   1.590   0.636  13.892 -0.0307  1.6768  3.2335
  482TMC3    H1 7174   1.584   1.058  13.888 -0.3306 -0.8231  2.2008
  482TMC3    H2 7175   1.556   0.834  13.513 -0.2672  0.5038  0.2556
  482TMC3    C7 7176   1.608   1.086  13.617 -0.6742 -0.0474 -0.7030
  482TMC3    C8 7177   1.536   0.604  13.632 -0.3456  0.2287 -0.2039
  482TMC3    O1 7178   1.616   1.185  13.689  0.8040  0.1823 -0.5277
  482TMC3    O2 7179   1.580   0.505  13.681 -0.0366 -0.2306 -0.0252
  483TMC3    C1 7180   0.487   4.109   1.629 -0.2531  0.1498 -0.1809
  483TMC3    C2 7181   0.540   4.227   1.584 -0.1352 -1.0051 -0.4502
  483TMC3    C3 7182   0.665   4.227   1.539 -0.0694 -0.4786  0.0046
  483TMC3    C4 7183   0.559   3.998   1.630 -0.1326 -0.3028 -0.3504
  483TMC3    C5 7184   0.690   4.000   1.593  0.7029 -0.5328 -0.3675
  483TMC3    C6 7185   0.750   4.115   1.545 -0.3062  0.1227  1.0269
  483TMC3     C 7186   0.344   4.107   1.608 -0.3624 -0.3635 -0.4588
  483TMC3     O 7187   0.286   4.209   1.640  0.0681 -0.1007  0.2752
  483TMC3     H 7188   0.480   4.310   1.549  0.6764 -0.0638  0.3814
  483TMC3    H1 7189   0.513   3.911   1.675  2.4816 -1.5031  0.0017
  483TMC3    H2 7190   0.852   4.116   1.510 -0.7052 -0.6218 -0.1719
  483TMC3    C7 7191   0.770   3.879   1.568  0.1894 -0.2849 -0.7227
  483TMC3    C8 7192   0.708   4.351   1.472 -0.5231 -0.4969 -0.2197
  483TMC3    O1 7193   0.872   3.888   1.497 -0.2929  0.1761 -0.4938
  483TMC3    O2 7194   0.633   4.433   1.420 -0.1505  0.4135  0.0180
  484MPD2     C 7195   2.237   3.023  12.132 -0.3136  0.1898 -0.5298
  484MPD2    C1 7196   2.271   2.974  12.260 -0.3116 -0.5989 -0.5528
  484MPD2    C2 7197   2.391   3.016  12.320  0.4743  0.0038 -0.3072
  484MPD2    C3 7198   2.471   3.113  12.249  0.0085  0.8779 -0.2950
  484MPD2    C4 7199   2.426   3.164  12.133  0.3787 -0.1401  0.3080
  484MPD2    C5 7200   2.314   3.115  12.077  0.3508  0.2455 -0.4431
  484MPD2     H 7201   2.427   2.964  12.407  0.3170  0.9982  0.3493
  484MPD2    H1 7202   2.494   3.221  12.070 -0.8423  1.9613  0.8879
  484MPD2    H2 7203   2.142   2.993  12.089  0.2496  1.4754 -2.6594
  484MPD2    H3 7204   2.282   3.151  11.979  1.7855 -2.5144 -1.9214
  484MPD2     N 7205   2.593   3.150  12.294 -0.0690  0.0043 -0.2277
  484MPD2    H5 7206   2.640   3.222  12.239  1.7842 -1.5643 -0.7132
  484MPD2    N1 7207   2.198   2.863  12.298 -0.3204 -0.2035  0.0398
  484MPD2    H7 7208   2.114   2.844  12.243  0.2726  1.6148 -1.5019
  485TMC3    C1 7209   2.788   3.165  12.414  0.3752  0.7334 -0.0972
  485TMC3    C2 7210   2.882   3.103  12.495  0.0903 -0.4866 -0.4120
  485TMC3    C3 7211   3.005   3.163  12.512 -0.5949 -0.3265  0.2530
  485TMC3    C4 7212   2.810   3.286  12.364  0.3217  0.1316  0.5623
  485TMC3    C5 7213   2.930   3.343  12.376  0.2161 -0.0300  0.8760
  485TMC3    C6 7214   3.023   3.286  12.460 -0.2362  0.0763  0.5994
  485TMC3     C 7215   2.660   3.101  12.406 -0.1912  0.3875 -0.0466
  485TMC3     O 7216   2.637   3.011  12.486  0.5770 -0.6458  0.5642
  485TMC3     H 7217   2.852   3.018  12.555  1.2575 -0.3806  0.3181
  485TMC3    H1 7218   2.743   3.347  12.305  2.9595  0.4136 -2.1818
  485TMC3    H2 7219   3.121   3.332  12.468 -0.7093  0.8191  2.1636
  485TMC3    C7 7220   2.983   3.400  12.249 -0.5561 -0.0623  0.0253
  485TMC3    C8 7221   3.124   3.084  12.489 -0.3650  0.6808  0.0744
  485TMC3    O1 7222   2.914   3.481  12.191  0.0157 -0.2503  0.2633
  485TMC3    O2 7223   3.220   3.139  12.437 -0.0453  0.2331  0.5419
  486MPD2     C 7224   4.409   1.840  12.931 -0.4084  0.6717 -0.2295
  486MPD2    C1 7225   4.445   1.868  12.801  0.0787 -0.1945  0.0751
  486MPD2    C2 7226   4.404   1.981  12.740 -0.2783 -0.0314 -0.6017
  486MPD2    C3 7227   4.320   2.070  12.804  0.6038 -0.4408 -1.0133
  486MPD2    C4 7228   4.277   2.033  12.930 -0.8502 -0.2963  0.2302
  486MPD2    C5 7229   4.322   1.919  12.988 -0.3996 -0.5187 -0.7238
  486MPD2     H 7230   4.431   2.007  12.638 -1.4308 -0.2331 -0.9681
  486MPD2    H1 7231   4.203   2.087  12.989 -0.3738 -0.5069  1.0246
  486MPD2    H2 7232   4.433   1.745  12.977  2.5104  1.5664  0.0673
  486MPD2    H3 7233   4.281   1.888  13.083  0.7475 -1.8780 -0.6725
  486MPD2     N 7234   4.254   2.173  12.733 -0.7750 -0.5407  0.4163
  486MPD2    H5 7235   4.259   2.171  12.631  1.3936 -0.3884  0.5283
  486MPD2    N1 7236   4.508   1.764  12.727  0.1857  0.1985  0.3174
  486MPD2    H7 7237   4.530   1.683  12.785 -0.5502 -0.0635  0.2250
  487TMC3    C1 7238   4.573   1.633  12.546  0.7570 -0.3899  0.8129
  487TMC3    C2 7239   4.528   1.563  12.438 -0.1597  0.1745  0.6549
  487TMC3    C3 7240   4.586   1.444  12.404 -0.1210  0.8031  0.2300
  487TMC3    C4 7241   4.675   1.583  12.627 -0.2279  0.2219 -0.2344
  487TMC3    C5 7242   0.014   1.466  12.596 -0.0715  0.4087 -0.1118
  487TMC3    C6 7243   4.680   1.392  12.489  0.4947 -0.6861  0.4869
  487TMC3     C 7244   4.503   1.751  12.586  0.0375 -0.2728  0.2003
  487TMC3     O 7245   4.451   1.827  12.503 -0.0222 -0.3536 -0.1408
  487TMC3     H 7246   4.434   1.588  12.389 -0.1324 -0.6482  0.1818
  487TMC3    H1 7247   4.708   1.628  12.720 -1.6864  0.4535  0.1817
  487TMC3    H2 7248   0.025   1.318  12.442 -1.8116 -2.5368  0.2121
  487TMC3    C7 7249   0.064   1.381  12.708  0.5146 -0.3105  0.8437
  487TMC3    C8 7250   4.503   1.338  12.361 -0.2288 -0.2061  0.1772
  487TMC3    O1 7251   0.067   1.439  12.816  0.0255 -0.1674 -0.1420
  487TMC3    O2 7252   4.439   1.345  12.259  0.6118  0.9778 -0.2660
  488MPD2     C 7253   4.597   3.124  16.805  0.0398  0.2182 -0.6075
  488MPD2    C1 7254   4.625   3.244  16.877  0.3556  0.2905 -0.1841
  488MPD2    C2 7255   4.661   3.238  17.006 -0.4149 -0.4799 -0.1200
  488MPD2    C3 7256   4.653   3.115  17.075 -0.2594 -0.0934  0.1768
  488MPD2    C4 7257   4.626   2.996  17.001  0.5649 -0.3760 -1.4954
  488MPD2    C5 7258   4.605   3.003  16.867 -0.0853  0.6204  0.0845
  488MPD2     H 7259   4.685   3.324  17.068  0.5134  0.6341 -2.0326
  488MPD2    H1 7260   4.624   2.897  17.046  1.6868  0.4358  0.3513
  488MPD2    H2 7261   4.581   3.124  16.698 -2.7004 -0.8553 -0.2133
  488MPD2    H3 7262   4.593   2.913  16.808 -0.1299  0.7605 -0.1177
  488MPD2     N 7263   4.682   3.115  17.211 -0.1691  0.0169 -0.1145
  488MPD2    H5 7264   4.712   3.203  17.252 -0.4892  0.0455  0.0601
  488MPD2    N1 7265   4.624   3.374  16.807  0.8859  0.2483  0.2332
  488MPD2    H7 7266   4.654   3.450  16.868  0.1693  1.7494 -1.2854
  489TMC3    C1 7267   4.714   3.031  17.434  0.1880  0.8962 -0.2345
  489TMC3    C2 7268   0.068   3.143  17.457 -0.1635 -0.4859  0.3063
  489TMC3    C3 7269   0.077   3.186  17.592 -0.4436 -0.6359 -0.6084
  489TMC3    C4 7270   4.644   2.962  17.530  0.1084  0.9524 -0.5644
  489TMC3    C5 7271   4.647   3.012  17.655  0.2229 -0.0647  0.0777
  489TMC3    C6 7272   0.005   3.118   0.009  0.1146 -0.3286  0.3388
  489TMC3     C 7273   4.684   3.006  17.292 -0.2328 -0.8204 -0.1987
  489TMC3     O 7274   4.635   2.898  17.270  0.2948 -0.2227 -0.4053
  489TMC3     H 7275   0.138   3.179  17.382 -1.2133  2.3700  0.6873
  489TMC3    H1 7276   4.593   2.869  17.504  1.2730  0.4734 -1.1372
  489TMC3    H2 7277   0.002   3.144   0.114 -1.7049 -0.1806  0.2436
  489TMC3    C7 7278   4.570   2.941   0.078  0.5136 -0.5005  0.4665
  489TMC3    C8 7279   0.115   3.326  17.600 -0.3381 -0.5530 -0.3992
  489TMC3    O1 7280   4.601   2.949   0.198  0.3131 -0.2315 -0.3289
  489TMC3    O2 7281   0.164   3.370  17.497 -0.0102  0.4170 -0.6137
  490MPD2     C 7282   0.627   2.713   0.420 -0.6962  0.1803 -0.6733
  490MPD2    C1 7283   0.592   2.698   0.292 -0.1517  0.2915 -0.4809
  490MPD2    C2 7284   0.647   2.780   0.200  0.6499 -0.2305 -0.1212
  490MPD2    C3 7285   0.732   2.885   0.236  0.9343 -0.6721 -0.0813
  490MPD2    C4 7286   0.764   2.902   0.370  0.1392  0.0203  0.0622
  490MPD2    C5 7287   0.718   2.810   0.461 -0.1185  0.2180  1.2230
  490MPD2     H 7288   0.616   2.762   0.098  0.7223  0.8202 -0.3344
  490MPD2    H1 7289   0.826   2.983   0.405  1.6561 -1.0498 -0.1494
  490MPD2    H2 7290   0.598   2.634   0.488 -0.5038  0.6776 -0.0109
  490MPD2    H3 7291   0.752   2.824   0.563  0.9612  1.2980  0.7019
  490MPD2     N 7292   0.783   2.979   0.150  0.2930  0.0561  0.3978
  490MPD2    H5 7293   0.838   3.051   0.196  1.2280 -0.8859  0.7583
  490MPD2    N1 7294   0.499   2.603   0.249 -0.2931  0.4736 -0.1242
  490MPD2    H7 7295   0.497   2.597   0.148 -1.2810  0.4473 -0.0947
  491TMC3    C1 7296   0.332   2.422   0.260 -0.4298 -0.0826 -0.3506
  491TMC3    C2 7297   0.288   2.311   0.336 -0.1089 -0.2214 -0.2924
  491TMC3    C3 7298   0.221   2.211   0.272  0.1679 -0.4530  0.8516
  491TMC3    C4 7299   0.305   2.434   0.125 -0.2765  0.8497  0.4566
  491TMC3    C5 7300   0.251   2.325   0.057  0.2408 -1.2502 -0.1608
  491TMC3    C6 7301   0.209   2.218   0.135 -0.6275 -0.4484  0.0182
  491TMC3     C 7302   0.417   2.525   0.332 -0.2326 -0.6905 -0.4585
  491TMC3     O 7303   0.410   2.521   0.453 -0.2319  0.3013  0.5707
  491TMC3     H 7304   0.289   2.304   0.444 -1.6618 -0.4560 -0.2928
  491TMC3    H1 7305   0.296   2.533   0.081 -2.0179  0.1770 -0.6785
  491TMC3    H2 7306   0.166   2.131   0.086 -0.5440 -0.7443  0.4708
  491TMC3    C7 7307   0.227   2.327  17.593  0.3438  0.2002  0.9176
  491TMC3    C8 7308   0.117   2.137   0.352  0.0247  0.0467 -0.1363
  491TMC3    O1 7309   0.148   2.240  17.550  0.2468 -0.6059 -0.4299
  491TMC3    O2 7310   0.138   2.123   0.475 -0.2849  0.1117 -0.0055
  492MPD2     C 7311   0.961   2.886  11.988  0.3682 -0.3782  0.0678
  492MPD2    C1 7312   0.864   2.837  11.901 -0.4438 -0.6727  0.1286
  492MPD2    C2 7313   0.739   2.800  11.952 -0.5483  0.3035  0.3157
  492MPD2    C3 7314   0.712   2.810  12.094 -0.4932  0.2595  0.1908
  492MPD2    C4 7315   0.810   2.860  12.176 -0.6247 -0.4163 -1.0982
  492MPD2    C5 7316   0.933   2.895  12.122 -0.7098  0.0129  0.2808
  492MPD2     H 7317   0.659   2.766  11.888 -0.1202  1.9101 -1.0749
  492MPD2    H1 7318   0.801   2.866  12.284  0.5846 -0.5462 -0.9835
  492MPD2    H2 7319   1.054   2.926  11.950  0.5249 -1.0388 -0.2502
  492MPD2    H3 7320   1.005   2.919  12.199  1.5124 -3.0270 -0.8431
  492MPD2     N 7321   0.584   2.786  12.154  0.4999  0.5939  0.0735
  492MPD2    H5 7322   0.581   2.814  12.251  0.2088 -0.4003  0.3530
  492MPD2    N1 7323   0.899   2.820  11.761  0.2799 -0.3491 -0.1558
  492MPD2    H7 7324   0.994   2.853  11.746  1.1581 -2.4758  0.6886
  493TMC3    C1 7325   0.892   2.790  11.535 -1.1286 -0.2310 -0.7672
  493TMC3    C2 7326   0.985   2.884  11.508  0.5761  0.1047 -0.1977
  493TMC3    C3 7327   1.011   2.918  11.379 -0.4683 -0.1729  0.4761
  493TMC3    C4 7328   0.822   2.724  11.434  1.0694 -0.3433  0.1150
  493TMC3    C5 7329   0.848   2.764  11.304 -0.0301 -0.2158  0.3300
  493TMC3    C6 7330   0.941   2.860  11.274  0.2937  0.1514  0.0896
  493TMC3     C 7331   0.827   2.774  11.658  0.2577  0.2951 -0.2216
  493TMC3     O 7332   0.714   2.729  11.655  0.2045 -0.0733  0.4943
  493TMC3     H 7333   1.034   2.922  11.597  0.1323 -0.7582  0.4033
  493TMC3    H1 7334   0.742   2.652  11.445  1.6069 -1.0059 -0.3443
  493TMC3    H2 7335   0.964   2.893  11.173 -1.0810 -0.4878 -0.4248
  493TMC3    C7 7336   0.796   2.683  11.191  0.3099 -0.2715  0.0029
  493TMC3    C8 7337   1.119   3.005  11.361 -0.1262  0.6314  0.9283
  493TMC3    O1 7338   0.767   2.747  11.091 -0.9885 -0.2721  0.0156
  493TMC3    O2 7339   1.183   3.006  11.469  0.4389 -0.3518  0.1576
  494TMC3    C1 7340   2.251   4.645   0.702 -0.8643  0.5957 -0.6898
  494TMC3    C2 7341   2.296   4.519   0.704  0.4748  0.0601 -0.4747
  494TMC3    C3 7342   2.218   4.428   0.624 -0.5608  0.1450 -0.2394
  494TMC3    C4 7343   2.150   4.692   0.630  0.0853 -0.0233  0.2437
  494TMC3    C5 7344   2.077   4.597   0.556 -0.6276  0.2343  0.3791
  494TMC3    C6 7345   2.115   4.463   0.544  0.1389 -0.0002 -0.4870
  494TMC3     C 7346   2.310   0.009   0.798  0.2530 -0.0868  0.4312
  494TMC3     O 7347   2.341   4.682   0.907 -0.1752 -0.1550  0.1035
  494TMC3     H 7348   2.372   4.482   0.772  2.8946  0.4963 -2.9513
  494TMC3    H1 7349   2.110   0.071   0.651  1.4183  0.3643  0.9515
  494TMC3    H2 7350   2.062   4.394   0.480 -0.3556  1.0619 -1.2291
  494TMC3    C7 7351   1.994   4.647   0.450  0.7381 -0.1098  0.2499
  494TMC3    C8 7352   2.267   4.294   0.608 -0.5056  0.1220  0.1488
  494TMC3    O1 7353   1.967   4.574   0.360  0.0007 -0.1751  0.1587
  494TMC3    O2 7354   2.376   4.276   0.655 -0.0961  0.2315  0.6018
  495TMC3    C1 7355   0.149   1.771  14.622  1.1982  0.1445  0.1287
  495TMC3    C2 7356   0.057   1.840  14.547 -0.4706 -0.2494 -0.1067
  495TMC3    C3 7357   4.678   1.920  14.604 -0.1617  0.4040 -0.2399
  495TMC3    C4 7358   0.148   1.774  14.758  0.6213 -0.3217 -0.1568
  495TMC3    C5 7359   0.054   1.858  14.815 -0.9001 -0.1276 -0.3005
  495TMC3    C6 7360   4.673   1.922  14.741 -0.1840 -0.1522  0.2730
  495TMC3     C 7361   0.132   1.629  14.594  0.5920 -0.0271 -0.1929
  495TMC3     O 7362   0.035   1.598  14.516 -0.3270  0.1214 -0.5435
  495TMC3     H 7363   0.064   1.828  14.439 -0.3040 -0.4232 -0.0772
  495TMC3    H1 7364   0.222   1.722  14.818 -0.1724 -0.1215  0.9805
  495TMC3    H2 7365   4.596   1.982  14.787 -0.9046 -1.0723  0.2633
  495TMC3    C7 7366   0.053   1.868  14.961 -0.4626  0.2641 -0.4005
  495TMC3    C8 7367   4.555   1.924  14.528  0.5515 -0.2052 -0.1155
  495TMC3    O1 7368   0.156   1.907  15.014  0.2545 -0.4616  0.3281
  495TMC3    O2 7369   4.448   1.938  14.590 -0.3428 -0.2458  0.0629
  496MPD2     C 7370   2.061   1.642  15.226  0.3148  0.2385 -0.1438
  496MPD2    C1 7371   2.090   1.552  15.323 -0.7458  0.0671 -0.8449
  496MPD2    C2 7372   1.994   1.526  15.420  0.4518  0.6311  0.2756
  496MPD2    C3 7373   1.867   1.573  15.419  0.1264 -0.5550  0.4166
  496MPD2    C4 7374   1.845   1.663  15.319  0.3261  0.6581  0.0759
  496MPD2    C5 7375   1.937   1.700  15.228  0.0154 -0.0797 -0.0394
  496MPD2     H 7376   2.023   1.475  15.511 -0.2552  0.3291  0.3341
  496MPD2    H1 7377   1.747   1.710  15.310  0.8884  1.7535 -0.2784
  496MPD2    H2 7378   2.113   1.667  15.134 -0.4539  0.0635 -0.6218
  496MPD2    H3 7379   1.911   1.771  15.150  1.8718  1.2998  0.5836
  496MPD2     N 7380   1.779   1.547  15.525 -0.1393  0.2005 -0.8254
  496MPD2    H5 7381   1.807   1.489  15.603 -0.8639  0.4103 -0.4038
  496MPD2    N1 7382   2.216   1.489  15.311 -0.6863  0.1544 -0.4175
  496MPD2    H7 7383   2.281   1.525  15.242 -1.3797 -0.1572 -1.2338
  497TMC3    C1 7384   1.567   1.528  15.629  0.1287  0.0243 -0.8913
  497TMC3    C2 7385   1.440   1.525  15.615 -0.4337  0.7587 -0.2583
  497TMC3    C3 7386   1.351   1.523  15.723  0.3060 -0.0108  0.1220
  497TMC3    C4 7387   1.608   1.547  15.759  0.3755  0.1762  0.5752
  497TMC3    C5 7388   1.524   1.543  15.869 -0.0889  0.0991  0.4078
  497TMC3    C6 7389   1.390   1.543  15.850  0.6558 -0.4342  0.2245
  497TMC3     C 7390   1.644   1.581  15.518  0.1345  0.7248 -0.3216
  497TMC3     O 7391   1.575   1.625  15.426 -0.0847  0.6205  0.1909
  497TMC3     H 7392   1.395   1.526  15.516 -1.2330 -0.7415  0.0868
  497TMC3    H1 7393   1.716   1.554  15.768  0.4897  0.5424 -1.0758
  497TMC3    H2 7394   1.322   1.548  15.934  0.1755  0.3510 -0.2105
  497TMC3    C7 7395   1.570   1.538  16.010  0.1957 -0.1766 -0.5711
  497TMC3    C8 7396   1.222   1.571  15.684 -0.0122  0.2853  0.1724
  497TMC3    O1 7397   1.504   1.464  16.079  0.1987  0.1556  0.1372
  497TMC3    O2 7398   1.169   1.538  15.579  0.1861 -0.2678  0.6434
  498MPD2     C 7399   3.306   1.881   9.220  0.5596  0.0887 -0.5792
  498MPD2    C1 7400   3.329   1.830   9.345  0.9413  0.1039 -0.2597
  498MPD2    C2 7401   3.243   1.745   9.402 -0.9196  0.6473 -0.1129
  498MPD2    C3 7402   3.129   1.704   9.335 -0.5833 -0.5738  0.0217
  498MPD2    C4 7403   3.100   1.756   9.211  0.1845 -0.5894 -1.4382
  498MPD2    C5 7404   3.189   1.836   9.149  0.6049  0.5317 -0.1387
  498MPD2     H 7405   3.272   1.693   9.493 -0.5869  1.4629  0.2476
  498MPD2    H1 7406   3.006   1.728   9.163 -0.0714  0.2830 -1.4548
  498MPD2    H2 7407   3.374   1.946   9.166 -0.9093  2.6292  0.6388
  498MPD2    H3 7408   3.160   1.888   9.059  0.8513 -2.0809 -1.7257
  498MPD2     N 7409   3.049   1.617   9.405 -0.3504 -0.0838 -0.0662
  498MPD2    H5 7410   3.070   1.603   9.503  1.2353 -0.5911 -0.4863
  498MPD2    N1 7411   3.442   1.873   9.421 -0.1523  0.4833  0.1210
  498MPD2    H7 7412   3.457   1.820   9.506  1.4224 -1.4460 -1.3464
  499TMC3    C1 7413   3.616   2.012   9.495  0.0621 -0.1868  0.6141
  499TMC3    C2 7414   3.712   1.925   9.519 -0.5762 -0.4361 -0.5478
  499TMC3    C3 7415   3.823   1.980   9.580  0.2107  0.4532 -0.7051
  499TMC3    C4 7416   3.629   2.148   9.521 -0.3036  0.2366 -0.7456
  499TMC3    C5 7417   3.741   2.198   9.584  0.0573 -0.3782 -0.0702
  499TMC3    C6 7418   3.843   2.114   9.618 -0.7442  0.2005  0.1395
  499TMC3     C 7419   3.515   1.988   9.395 -0.6146 -0.2586 -0.6076
  499TMC3     O 7420   3.504   2.071   9.305  0.0360 -0.0544 -0.1784
  499TMC3     H 7421   3.696   1.819   9.504 -0.6374 -0.2668 -1.7136
  499TMC3    H1 7422   3.549   2.218   9.503 -0.4159  0.0444 -0.9856
  499TMC3    H2 7423   3.934   2.148   9.665 -0.8640 -0.4240  0.8192
  499TMC3    C7 7424   3.747   2.338   9.610 -0.0562 -0.3480 -0.7717
  499TMC3    C8 7425   3.930   1.888   9.629  0.2958 -0.5859 -0.3037
  499TMC3    O1 7426   3.663   2.403   9.554  0.0771 -0.2208  0.5137
  499TMC3    O2 7427   3.992   1.927   9.727 -0.4847 -0.0088  0.0501
  500MPD2     C 7428   4.659   3.571  10.448  0.0322 -0.9650 -0.1064
  500MPD2    C1 7429   0.010   3.635  10.348 -0.6462  0.7079  0.0656
  500MPD2    C2 7430   4.668   3.663  10.224 -0.5146 -0.2503 -0.2233
  500MPD2    C3 7431   4.528   3.651  10.212  0.1934  0.1751 -0.3408
  500MPD2    C4 7432   4.458   3.596  10.315 -0.2155  0.2436  0.3510
  500MPD2    C5 7433   4.522   3.553  10.430 -0.1910 -0.2765  0.2405
  500MPD2     H 7434   0.004   3.715  10.146 -0.5812  0.6642  0.3425
  500MPD2    H1 7435   4.351   3.580  10.309  0.2237 -1.6957 -2.7583
  500MPD2    H2 7436   4.703   3.555  10.546 -1.9836 -1.2245  0.7629
  500MPD2    H3 7437   4.467   3.515  10.515  0.1449 -2.0367 -0.3324
  500MPD2     N 7438   4.435   3.694  10.113 -0.6917 -0.4471  0.6253
  500MPD2    H5 7439   4.334   3.696  10.120 -0.7512  0.3419 -0.5645
  500MPD2    N1 7440   0.150   3.673  10.373  0.4696 -0.3361 -0.3947
  500MPD2    H7 7441   0.187   3.737  10.303  2.8807 -1.2349  0.0861
  501TMC3    C1 7442   0.360   3.686  10.471 -0.1729  0.2607  0.3875
  501TMC3    C2 7443   0.364   3.813  10.427  0.3564  0.3892  0.1697
  501TMC3    C3 7444   0.485   3.876  10.432  0.6871 -0.0388 -0.3257
  501TMC3    C4 7445   0.470   3.619  10.513 -0.4680 -0.1365  0.0653
  501TMC3    C5 7446   0.591   3.681  10.500  0.0730 -0.2569  0.1640
  501TMC3    C6 7447   0.603   3.814  10.457 -0.0770 -0.1253 -0.4067
  501TMC3     C 7448   0.233   3.613  10.461  0.0961  0.1313  0.3587
  501TMC3     O 7449   0.227   3.503  10.518 -0.0583  0.3194 -0.5051
  501TMC3     H 7450   0.272   3.871  10.424 -1.0405 -1.7699  1.1619
  501TMC3    H1 7451   0.475   3.513  10.535 -1.4381  0.0879  1.3293
  501TMC3    H2 7452   0.694   3.872  10.455  0.7933 -1.5125 -0.7888
  501TMC3    C7 7453   0.702   3.642  10.580 -0.6559  0.0968  0.3713
  501TMC3    C8 7454   0.490   4.024  10.460  0.3094  0.1968 -0.0810
  501TMC3    O1 7455   0.684   3.555  10.663  0.1588 -0.5895  0.3441
  501TMC3    O2 7456   0.594   4.068  10.505 -0.2951 -0.8284  0.0835
  502TMC3    C1 7457   4.339   2.546  14.979  0.5871 -0.1237  0.7429
  502TMC3    C2 7458   4.275   2.643  14.904 -0.3703  0.4442  0.1269
  502TMC3    C3 7459   4.141   2.646  14.890  0.2443 -0.6374 -0.2107
  502TMC3    C4 7460   4.274   2.427  15.005  0.1092  0.6819  0.1336
  502TMC3    C5 7461   4.140   2.424  14.990  0.1955  0.2072  0.2508
  502TMC3    C6 7462   4.074   2.533  14.931  0.4654 -0.0792 -0.1181
  502TMC3     C 7463   4.459   2.579  15.058  0.3636  0.8461  0.4907
  502TMC3     O 7464   4.546   2.657  15.016  0.1076  0.5326  0.3911
  502TMC3     H 7465   4.334   2.732  14.885  1.0834 -0.5583 -0.0376
  502TMC3    H1 7466   4.319   2.346  15.061  1.1384 -0.9866 -3.0905
  502TMC3    H2 7467   3.965   2.528  14.930  0.4910 -0.5776 -0.3620
  502TMC3    C7 7468   4.078   2.317  15.051  0.2422  0.3202 -0.1190
  502TMC3    C8 7469   4.086   2.780  14.912 -0.3550 -0.0073  0.8557
  502TMC3    O1 7470   4.137   2.210  15.066 -0.4373  0.3394  0.2824
  502TMC3    O2 7471   4.155   2.874  14.949 -0.1757 -1.1298  0.1027
  503MPD2     C 7472   1.751   3.736  16.753 -0.5955  0.2262  0.6032
  503MPD2    C1 7473   1.748   3.717  16.890 -0.2675 -0.2612 -0.0058
  503MPD2    C2 7474   1.782   3.592  16.940  0.1617 -0.4552  0.0620
  503MPD2    C3 7475   1.822   3.488  16.858 -0.1334  0.4462 -0.2054
  503MPD2    C4 7476   1.819   3.514  16.720 -0.9204  0.0699  0.1045
  503MPD2    C5 7477   1.790   3.634  16.670 -0.4288 -0.1957  0.0094
  503MPD2     H 7478   1.786   3.581  17.048  1.6337  2.8286  0.3388
  503MPD2    H1 7479   1.844   3.437  16.648 -1.9251 -0.9059  0.7903
  503MPD2    H2 7480   1.737   3.834  16.708  1.7971  0.8060  1.0785
  503MPD2    H3 7481   1.796   3.656  16.564 -0.5039 -1.2539 -0.2149
  503MPD2     N 7482   1.843   3.356  16.910  0.3777 -0.0676 -0.3815
  503MPD2    H5 7483   1.857   3.362  17.010  2.5344 -0.2778 -0.6636
  503MPD2    N1 7484   1.702   3.814  16.977 -0.7448 -0.0903  0.6496
  503MPD2    H7 7485   1.700   3.795  17.077 -1.7158  2.6052  1.1504
  504TMC3    C1 7486   1.935   3.145  16.938  0.0882  0.7752  0.6004
  504TMC3    C2 7487   1.889   3.138  17.067  0.1023  0.5332 -0.2120
  504TMC3    C3 7488   1.962   3.077  17.163 -0.4215  0.1279  0.7835
  504TMC3    C4 7489   2.053   3.085  16.906  0.0577  0.7359 -0.2206
  504TMC3    C5 7490   2.126   3.037  17.014  0.0662  0.3748  1.0226
  504TMC3    C6 7491   2.089   3.032  17.146  0.1243  0.3830 -0.2973
  504TMC3     C 7492   1.886   3.245  16.847 -0.2756 -0.8605  0.2716
  504TMC3     O 7493   1.881   3.219  16.726  0.0838 -0.4583  0.2044
  504TMC3     H 7494   1.793   3.178  17.098  0.0363 -0.8842  1.4518
  504TMC3    H1 7495   2.097   3.095  16.807  0.5528  0.3898 -0.0363
  504TMC3    H2 7496   2.155   2.990  17.220  1.7954  0.4747 -1.7199
  504TMC3    C7 7497   2.257   2.984  16.983  0.5076 -0.4802 -0.2598
  504TMC3    C8 7498   1.886   3.005  17.265  0.1160  0.3483  0.1911
  504TMC3    O1 7499   2.302   3.010  16.874  0.1056  0.0224  0.5121
  504TMC3    O2 7500   1.770   2.973  17.231 -0.3025  0.1457  0.2282
  505MPD2     C 7501   1.989   1.397  10.009  0.2687  0.0785 -0.2264
  505MPD2    C1 7502   2.005   1.284  10.074  0.0608 -0.1859 -0.3653
  505MPD2    C2 7503   2.063   1.284  10.200  0.5767  0.4420 -0.5348
  505MPD2    C3 7504   2.113   1.406  10.254 -0.2020  0.0096  0.3347
  505MPD2    C4 7505   2.092   1.525  10.177  0.6645  0.0909 -0.3880
  505MPD2    C5 7506   2.024   1.517  10.061 -0.3648 -0.2166 -0.1484
  505MPD2     H 7507   2.079   1.193  10.257 -0.8190 -0.3589 -1.4450
  505MPD2    H1 7508   2.131   1.620  10.213 -1.1928  0.5409  0.4650
  505MPD2    H2 7509   1.949   1.395   9.908 -1.1300  2.8171  0.2862
  505MPD2    H3 7510   2.021   1.609  10.003 -1.1723  0.0188  0.2622
  505MPD2     N 7511   2.192   1.419  10.379 -0.3252  0.4342  0.9267
  505MPD2    H5 7512   2.221   1.513  10.404 -0.3869  0.8728 -0.6420
  505MPD2    N1 7513   1.960   1.161  10.013  0.3286 -0.2429 -1.0390
  505MPD2    H7 7514   1.918   1.156   9.920 -0.7597 -1.4711 -0.4904
  506TMC3    C1 7515   1.902   0.928   9.999  0.1230  0.1536  0.1618
  506TMC3    C2 7516   1.976   0.922   9.879 -0.4360  0.1377  0.0882
  506TMC3    C3 7517   2.022   0.794   9.846  0.5931  0.0220  0.0952
  506TMC3    C4 7518   1.884   0.825  10.082 -0.1015  0.2723  0.4541
  506TMC3    C5 7519   1.950   0.701  10.054  0.1868 -0.1790  0.0853
  506TMC3    C6 7520   2.009   0.682   9.928  0.7351  0.1526 -0.5593
  506TMC3     C 7521   1.929   1.045  10.080  0.0261  0.3523  0.3739
  506TMC3     O 7522   1.942   1.027  10.199  0.4420 -0.2637  0.1108
  506TMC3     H 7523   2.002   1.011   9.824  1.5196 -2.0668 -2.5700
  506TMC3    H1 7524   1.813   0.823  10.164 -1.1411  0.2376 -0.4646
  506TMC3    H2 7525   2.057   0.591   9.894  1.1097  0.2088 -0.1892
  506TMC3    C7 7526   2.020   0.640  10.165 -0.1943  0.3108 -1.7058
  506TMC3    C8 7527   2.102   0.772   9.730 -0.0860  0.4893 -0.2487
  506TMC3    O1 7528   2.074   0.531  10.133  0.2072 -0.2090  0.1488
  506TMC3    O2 7529   2.119   0.657   9.695 -0.3583 -0.7120 -0.0999
  507TMC3    C1 7530   2.728   2.570  14.737 -0.2636  0.5746 -0.4325
  507TMC3    C2 7531   2.765   2.485  14.632  0.5058 -0.5823 -0.9535
  507TMC3    C3 7532   2.869   2.519  14.550  0.2649 -0.2324 -0.6674
  507TMC3    C4 7533   2.776   2.699  14.751 -0.6352  0.5742  0.3472
  507TMC3    C5 7534   2.885   2.722  14.670 -0.1560 -0.3130  0.1002
  507TMC3    C6 7535   2.934   2.630  14.577  0.0324 -0.6516 -0.2833
  507TMC3     C 7536   2.584   2.576  14.768 -0.6122  0.1931 -0.3537
  507TMC3     O 7537   2.545   2.647  14.862  0.2282 -0.3881 -0.0870
  507TMC3     H 7538   2.714   2.389  14.625  1.0776 -0.9584 -0.0283
  507TMC3    H1 7539   2.739   2.763  14.830  1.4647  1.7319  0.3821
  507TMC3    H2 7540   3.024   2.651  14.521  0.4558 -2.6761 -0.3574
  507TMC3    C7 7541   2.904   2.861  14.618 -0.0122  0.2055 -0.2015
  507TMC3    C8 7542   2.814   2.509  14.417 -0.0409  0.4053  0.0269
  507TMC3    O1 7543   2.908   2.851  14.498  0.7044  0.3231 -0.8385
  507TMC3    O2 7544   2.730   2.421  14.404 -0.3216  0.0039  0.2163
  508MPD2     C 7545   4.212   0.391  16.270 -0.3373  0.8520 -0.7639
  508MPD2    C1 7546   4.108   0.480  16.313  0.0225 -0.3047 -0.1782
  508MPD2    C2 7547   4.005   0.515  16.228  0.0676  0.6524  0.1187
  508MPD2    C3 7548   4.000   0.468  16.101  0.2153  0.7469  0.4256
  508MPD2    C4 7549   4.102   0.385  16.054  0.8268  0.4356  0.0810
  508MPD2    C5 7550   4.206   0.352  16.136 -0.7993  0.3112  0.6744
  508MPD2     H 7551   3.930   0.587  16.258 -0.8220  0.7459 -2.3266
  508MPD2    H1 7552   4.111   0.342  15.955  1.9839 -2.6360  1.5009
  508MPD2    H2 7553   4.291   0.349  16.331 -0.8593 -1.0718 -1.4137
  508MPD2    H3 7554   4.283   0.284  16.101 -2.4597 -1.6669  0.8829
  508MPD2     N 7555   3.878   0.494  16.023  0.2896 -0.2160  0.3510
  508MPD2    H5 7556   3.810   0.552  16.070 -0.2153 -0.5309  0.0162
  508MPD2    N1 7557   4.113   0.515  16.451  0.1971 -0.3354 -0.3502
  508MPD2    H7 7558   4.189   0.469  16.501  1.1258  0.9835 -0.5552
  509TMC3    C1 7559   3.547   0.637  15.830  0.2714 -0.0397 -0.6219
  509TMC3    C2 7560   3.531   0.626  15.698 -0.2587  0.3007 -0.4986
  509TMC3    C3 7561   3.643   0.592  15.634  0.0260  0.0164  0.0599
  509TMC3    C4 7562   3.645   0.565  15.894 -0.3031 -0.2368  0.8706
  509TMC3    C5 7563   3.743   0.511  15.822 -0.0152 -0.3303 -0.1207
  509TMC3    C6 7564   3.746   0.518  15.688 -0.6061  0.3635 -0.1003
  509TMC3     C 7565   3.476   0.750  15.898 -0.1879 -0.1231  0.3044
  509TMC3     O 7566   3.454   0.756  16.017  0.0421 -1.2155  0.4401
  509TMC3     H 7567   3.445   0.667  15.647  1.5154  0.3831 -3.4519
  509TMC3    H1 7568   3.649   0.579  16.001 -1.7363 -2.8372  1.2554
  509TMC3    H2 7569   3.844   0.505  15.643 -0.5992 -0.2969  0.1089
  509TMC3    C7 7570   3.864   0.472  15.886  0.0275 -0.6528 -0.2749
  509TMC3    C8 7571   3.686   0.713  15.561 -0.2764 -0.2936  0.5706
  509TMC3    O1 7572   3.938   0.397  15.825 -0.5362 -0.2380  0.1130
  509TMC3    O2 7573   3.598   0.807  15.555 -0.2917  0.1638  0.1844
  510MPD2     C 7574   1.593   2.177  14.232  0.0848  0.2836 -0.0063
  510MPD2    C1 7575   1.651   2.112  14.342 -0.5385 -0.6802 -0.3530
  510MPD2    C2 7576   1.788   2.075  14.333 -0.0954 -0.7146  1.1413
  510MPD2    C3 7577   1.859   2.103  14.217 -0.1580 -0.4607 -0.5951
  510MPD2    C4 7578   1.800   2.170  14.114  0.1373 -0.1497  0.5972
  510MPD2    C5 7579   1.667   2.207  14.121  0.1458 -0.0297 -0.3477
  510MPD2     H 7580   1.828   2.009  14.409  0.3817 -1.6368  0.0940
  510MPD2    H1 7581   1.850   2.173  14.018 -1.1769 -0.4900 -0.0844
  510MPD2    H2 7582   1.492   2.214  14.228  0.6706  1.6442 -2.0511
  510MPD2    H3 7583   1.617   2.267  14.045  2.1641  1.9082 -0.1266
  510MPD2     N 7584   1.991   2.058  14.209  0.5650 -0.5780 -0.2213
  510MPD2    H5 7585   2.027   2.000  14.284 -0.3359 -0.0610  0.6136
  510MPD2    N1 7586   1.564   2.085  14.456  0.5785  0.2294 -0.0766
  510MPD2    H7 7587   1.466   2.110  14.450  0.8527  1.2557 -0.2806
  511TMC3    C1 7588   1.503   1.994  14.663  0.6111  0.5665  0.1185
  511TMC3    C2 7589   1.471   2.041  14.791 -0.3911 -0.8755  0.0207
  511TMC3    C3 7590   1.366   1.977  14.858 -0.4078  0.2452 -0.0293
  511TMC3    C4 7591   1.429   1.899  14.599 -0.3107  0.2220  0.0304
  511TMC3    C5 7592   1.326   1.841  14.668 -1.1291 -0.9858 -0.0518
  511TMC3    C6 7593   1.296   1.875  14.796 -0.1800 -0.0924 -1.0268
  511TMC3     C 7594   1.610   2.044  14.576 -0.0935  0.1950 -0.1946
  511TMC3     O 7595   1.720   2.050  14.632  0.2385 -0.0095  0.4840
  511TMC3     H 7596   1.527   2.117  14.843 -0.7569 -0.9786  0.5626
  511TMC3    H1 7597   1.470   1.850  14.511 -1.5209 -0.9301  0.0899
  511TMC3    H2 7598   1.200   1.837  14.831  0.2798 -0.4772 -0.1855
  511TMC3    C7 7599   1.290   1.713  14.616 -0.3825 -0.0112  0.3347
  511TMC3    C8 7600   1.327   2.024  14.984 -0.0324  0.3120 -0.0587
  511TMC3    O1 7601   1.328   1.681  14.504  0.1954 -0.1376 -0.5246
  511TMC3    O2 7602   1.373   2.134  15.021  0.1832  0.1477 -0.0319
  512TMC3    C1 7603   0.337   1.610  12.984  0.0218  0.3278  0.1880
  512TMC3    C2 7604   0.293   1.534  13.088 -0.3990 -0.1358  0.3219
  512TMC3    C3 7605   0.305   1.392  13.082  0.1633  0.2292  0.1351
  512TMC3    C4 7606   0.383   1.554  12.867  0.2452  0.0686  0.4640
  512TMC3    C5 7607   0.393   1.417  12.857 -0.1627 -0.1975 -0.9661
  512TMC3    C6 7608   0.354   1.335  12.964 -0.2104  0.2385  0.3562
  512TMC3     C 7609   0.341   1.750  12.985 -0.0329  0.6434 -0.2523
  512TMC3     O 7610   0.448   1.802  12.951 -0.1896  0.5156 -0.3908
  512TMC3     H 7611   0.256   1.580  13.179 -0.1033 -0.5288  0.6415
  512TMC3    H1 7612   0.420   1.615  12.786 -1.9731 -0.5744 -1.0094
  512TMC3    H2 7613   0.373   1.229  12.959 -1.9285 -0.0765  0.4499
  512TMC3    C7 7614   0.464   1.357  12.750 -0.9908 -0.1773 -0.4325
  512TMC3    C8 7615   0.312   1.316  13.199 -0.2332  0.0311 -0.1032
  512TMC3    O1 7616   0.473   1.425  12.648  0.4519 -0.4664 -0.0239
  512TMC3    O2 7617   0.336   1.198  13.192  0.7879 -0.7203 -0.1385
  513MPD2     C 7618   2.001   0.859  13.319 -0.1774 -0.4692 -0.6942
  513MPD2    C1 7619   2.039   0.989  13.348 -0.0797  0.1333  1.2220
  513MPD2    C2 7620   2.026   1.033  13.481  0.1853  0.3465 -0.5139
  513MPD2    C3 7621   1.976   0.952  13.574 -0.7262  0.7850 -0.6801
  513MPD2    C4 7622   1.933   0.824  13.543 -0.5348 -0.5047 -0.6336
  513MPD2    C5 7623   1.954   0.772  13.415 -0.2604 -0.3691  0.0190
  513MPD2     H 7624   2.060   1.132  13.508 -1.2171  0.3183  1.3430
  513MPD2    H1 7625   1.895   0.763  13.624  1.0664 -0.7691 -0.0873
  513MPD2    H2 7626   2.027   0.821  13.220 -0.8947 -1.7827 -0.3672
  513MPD2    H3 7627   1.924   0.671  13.390 -1.4089 -0.1687  0.5866
  513MPD2     N 7628   1.961   1.005  13.712 -0.0111 -0.5598  0.4128
  513MPD2    H5 7629   1.996   1.101  13.720 -1.4667 -0.2330  2.8771
  513MPD2    N1 7630   2.083   1.068  13.249 -0.0778 -0.3031  0.4392
  513MPD2    H7 7631   2.083   1.036  13.153 -1.3198 -2.9465  1.3140
  514TMC3    C1 7632   2.107   1.285  13.147  0.1601  0.2112  0.8081
  514TMC3    C2 7633   2.000   1.262  13.066  0.1590 -0.2694  0.2564
  514TMC3    C3 7634   1.964   1.361  12.988  0.2451  0.1443 -0.5151
  514TMC3    C4 7635   2.149   1.410  13.186 -0.1477 -0.8690 -0.1524
  514TMC3    C5 7636   2.077   1.510  13.132 -0.0889  0.3428 -0.1623
  514TMC3    C6 7637   1.986   1.492  13.027  0.1574  0.2007 -0.3033
  514TMC3     C 7638   2.107   1.204  13.268  0.5400  0.3420 -0.4651
  514TMC3     O 7639   2.134   1.270  13.367  0.7376 -0.5168  0.0227
  514TMC3     H 7640   1.965   1.163  13.037  2.3949 -0.4476 -1.8301
  514TMC3    H1 7641   2.230   1.429  13.254  0.3268 -0.1488 -0.9212
  514TMC3    H2 7642   1.924   1.571  12.985 -1.0253 -0.5658  0.0061
  514TMC3    C7 7643   2.010   1.584  13.234 -0.3744  0.2653 -0.0217
  514TMC3    C8 7644   1.951   1.327  12.850 -0.1711 -0.2104 -0.0686
  514TMC3    O1 7645   1.947   1.684  13.198  0.5442  0.2854  0.4249
  514TMC3    O2 7646   1.889   1.221  12.826  0.2298  0.0854  0.2887
  515MPD2     C 7647   0.862   2.810  14.466  1.4757  0.1890  0.0374
  515MPD2    C1 7648   0.754   2.884  14.479  0.3087  0.1392 -0.3105
  515MPD2    C2 7649   0.755   3.018  14.509  0.7064  0.4663  0.0823
  515MPD2    C3 7650   0.878   3.073  14.554 -0.2068  0.2698  0.3903
  515MPD2    C4 7651   0.991   2.991  14.548 -0.5746  0.2207  0.5464
  515MPD2    C5 7652   0.985   2.866  14.501 -0.1913 -0.2475  0.5416
  515MPD2     H 7653   0.667   3.081  14.502 -0.1702 -0.9118 -1.3160
  515MPD2    H1 7654   1.091   3.030  14.561 -0.3902  0.0334 -0.2850
  515MPD2    H2 7655   0.860   2.704  14.442 -1.5821  0.2492  0.0280
  515MPD2    H3 7656   1.074   2.806  14.488 -1.0384 -1.7440  1.5341
  515MPD2     N 7657   0.888   3.210  14.608 -0.9638 -0.2778 -0.2106
  515MPD2    H5 7658   0.979   3.243  14.637 -0.7146 -0.4134 -0.8256
  515MPD2    N1 7659   0.624   2.837  14.434  0.3937  0.4526 -0.4561
  515MPD2    H7 7660   0.558   2.907  14.402 -1.1628 -0.4424  0.7954
  516TMC3    C1 7661   0.448   2.694  14.391  0.5600 -0.6558  0.5526
  516TMC3    C2 7662   0.378   2.800  14.329 -0.5242 -0.8187  0.3138
  516TMC3    C3 7663   0.248   2.808  14.349  0.3116  0.1808  0.3284
  516TMC3    C4 7664   0.381   2.597  14.463  0.0916  0.6724  0.2115
  516TMC3    C5 7665   0.247   2.611  14.475 -0.4185  0.4553  0.2104
  516TMC3    C6 7666   0.172   2.720  14.423 -0.0458 -0.1946 -0.1481
  516TMC3     C 7667   0.587   2.708  14.424 -0.6362  0.1002 -0.8491
  516TMC3     O 7668   0.645   2.610  14.470 -0.0156 -0.1427  0.5060
  516TMC3     H 7669   0.423   2.866  14.256  0.2823 -1.6899  0.0131
  516TMC3    H1 7670   0.439   2.513  14.502 -0.1314  0.2314 -0.4110
  516TMC3    H2 7671   0.065   2.732  14.407  0.2940  0.2751 -2.0525
  516TMC3    C7 7672   0.196   2.510  14.566 -0.2626  0.1923 -0.3083
  516TMC3    C8 7673   0.175   2.869  14.247  0.3276 -0.2256 -0.5234
  516TMC3    O1 7674   0.273   2.442  14.631  0.2431 -0.5829  0.6878
  516TMC3    O2 7675   0.223   2.880  14.136  0.5487 -0.7300 -0.4044
  517MPD2     C 7676   0.183   4.341   0.411 -0.0011  0.6551  0.0724
  517MPD2    C1 7677   0.296   4.395   0.355  0.3733 -0.5374  0.4476
  517MPD2    C2 7678   0.373   4.490   0.424  0.3336 -1.0732  0.2953
  517MPD2    C3 7679   0.339   4.524   0.551  0.1862  0.1578 -0.6820
  517MPD2    C4 7680   0.226   4.469   0.606 -0.6047  0.5237 -0.1662
  517MPD2    C5 7681   0.147   4.376   0.537 -0.2108 -1.3102 -0.2162
  517MPD2     H 7682   0.471   4.519   0.390 -0.2355 -1.2698 -1.4807
  517MPD2    H1 7683   0.204   4.491   0.710 -1.4257 -0.3412 -0.1629
  517MPD2    H2 7684   0.130   4.255   0.373 -0.5269  1.4331 -0.9579
  517MPD2    H3 7685   0.062   4.327   0.583 -2.3939  3.4421  0.7099
  517MPD2     N 7686   0.428   4.594   0.630  0.0491 -0.1537 -0.1176
  517MPD2    H5 7687   0.413   4.606   0.730 -0.9858 -2.0791 -0.0292
  517MPD2    N1 7688   0.342   4.353   0.237  1.0030 -0.7310 -0.6862
  517MPD2    H7 7689   0.422   4.404   0.200  0.8263  0.1069  0.1071
  518TMC3    C1 7690   0.370   4.236   0.036  0.1610 -0.0635 -0.0159
  518TMC3    C2 7691   0.362   4.113  17.658 -0.0935 -0.3734  0.5356
  518TMC3    C3 7692   0.460   4.079  17.570  0.4248  0.2863  0.5294
  518TMC3    C4 7693   0.463   4.328  17.675  0.4870 -0.1890  0.7246
  518TMC3    C5 7694   0.562   4.294  17.586  0.0600 -0.6183 -0.5821
  518TMC3    C6 7695   0.555   4.168  17.535  0.2810 -0.1988  0.1098
  518TMC3     C 7696   0.294   4.256   0.158 -0.5880 -0.7015 -0.1828
  518TMC3     O 7697   0.198   4.185   0.171 -0.2665  0.0863  0.3893
  518TMC3     H 7698   0.292   4.042   0.020  0.9485 -0.2997  2.3608
  518TMC3    H1 7699   0.466   4.426   0.040  0.2994 -1.5833  3.6886
  518TMC3    H2 7700   0.640   4.126  17.483 -0.5067 -0.5056 -0.9178
  518TMC3    C7 7701   0.686   4.370  17.569  0.2419  0.0901 -0.1981
  518TMC3    C8 7702   0.495   3.941  17.566 -0.2295  0.0728 -0.0505
  518TMC3    O1 7703   0.694   4.463  17.653  0.1332 -0.5489  0.0701
  518TMC3    O2 7704   0.536   3.884  17.463  0.0280 -0.0773  0.2706
  519MPD2     C 7705   1.586   3.084  14.359 -0.3166  0.2711 -1.1044
  519MPD2    C1 7706   1.617   3.081  14.225 -0.4398 -0.0847 -0.1018
  519MPD2    C2 7707   1.683   2.978  14.174  0.4038 -0.3984  0.2944
  519MPD2    C3 7708   1.727   2.869  14.251  0.0846  0.7840 -0.2054
  519MPD2    C4 7709   1.712   2.885  14.386 -0.4824  0.0033 -0.4661
  519MPD2    C5 7710   1.647   2.988  14.440 -0.5565  0.3412 -0.6831
  519MPD2     H 7711   1.693   2.971  14.066  5.0436  2.0996  0.5914
  519MPD2    H1 7712   1.777   2.821  14.446 -1.0929  0.7203  0.9515
  519MPD2    H2 7713   1.542   3.174  14.400 -0.2800 -0.8212  1.3161
  519MPD2    H3 7714   1.647   3.000  14.547  3.0913  0.1126 -0.6611
  519MPD2     N 7715   1.799   2.757  14.194 -0.6065  0.0733 -0.3826
  519MPD2    H5 7716   1.855   2.697  14.254 -2.1507  0.6588  1.6138
  519MPD2    N1 7717   1.571   3.193  14.147 -0.0310 -0.3136 -0.0556
  519MPD2    H7 7718   1.513   3.263  14.191  0.2772 -1.7472  2.5694
  520TMC3    C1 7719   1.863   2.600  14.015 -0.2315 -0.1804 -0.6731
  520TMC3    C2 7720   1.838   2.557  13.886  1.1755  0.5321 -0.0503
  520TMC3    C3 7721   1.904   2.445  13.836  0.0773 -0.1085  0.1592
  520TMC3    C4 7722   1.950   2.530  14.095  0.1452 -0.4072  0.0592
  520TMC3    C5 7723   2.025   2.441  14.034  0.6138  0.2107  0.5744
  520TMC3    C6 7724   2.008   2.395  13.903 -0.4552  0.1906 -0.8862
  520TMC3     C 7725   1.786   2.721  14.060 -0.5263  0.0702  0.6688
  520TMC3     O 7726   1.709   2.762  13.974 -0.1165 -0.6784 -0.2302
  520TMC3     H 7727   1.765   2.612  13.829  0.9555  0.5777  0.2734
  520TMC3    H1 7728   1.975   2.575  14.190  4.5811  0.6782 -1.6159
  520TMC3    H2 7729   2.060   2.314  13.853  0.1199  0.5568 -0.8850
  520TMC3    C7 7730   2.152   2.412  14.087 -0.1842  0.0717 -0.2712
  520TMC3    C8 7731   1.903   2.418  13.696  0.0697 -0.7949  0.0774
  520TMC3    O1 7732   2.169   2.429  14.204 -0.2867  0.2525 -0.6465
  520TMC3    O2 7733   1.921   2.305  13.648  0.0028  0.0078 -0.1365
  521MPD2     C 7734   2.822   1.586  17.571  0.2328 -0.8335  0.3348
  521MPD2    C1 7735   2.812   1.477  17.482  0.4538  0.6356  0.1207
  521MPD2    C2 7736   2.897   1.470  17.369  0.2227 -0.6887 -0.0387
  521MPD2    C3 7737   3.002   1.561  17.351  0.2662  0.0144 -0.1221
  521MPD2    C4 7738   3.017   1.662  17.441  0.6730 -0.0816  0.3352
  521MPD2    C5 7739   2.923   1.678  17.542  0.4607 -0.3483  0.1765
  521MPD2     H 7740   2.900   1.400  17.287  2.8814 -1.3045  0.5874
  521MPD2    H1 7741   3.097   1.734  17.433  0.3705  0.0541 -1.5088
  521MPD2    H2 7742   2.752   1.593  17.653 -1.0023 -1.4112 -0.6735
  521MPD2    H3 7743   2.945   1.762  17.608 -1.2935  0.1566  0.1105
  521MPD2     N 7744   3.090   1.533  17.246 -0.1133 -0.0193 -0.1508
  521MPD2    H5 7745   3.075   1.456  17.182  1.7823 -0.6265  0.1204
  521MPD2    N1 7746   2.721   1.377  17.510  0.2371  0.5476 -0.3252
  521MPD2    H7 7747   2.664   1.391  17.592 -0.9758  1.7853 -1.3793
  522TMC3    C1 7748   3.264   1.545  17.093  0.2885 -0.0784 -0.1934
  522TMC3    C2 7749   3.399   1.568  17.070 -0.0715 -0.1353  0.4714
  522TMC3    C3 7750   3.469   1.501  16.974  0.0186 -0.1850 -0.0054
  522TMC3    C4 7751   3.185   1.465  16.999 -0.1630 -0.0212 -0.1867
  522TMC3    C5 7752   3.264   1.402  16.904  0.6154 -0.4736  0.2192
  522TMC3    C6 7753   3.404   1.416  16.892  0.0637 -0.5000  0.2712
  522TMC3     C 7754   3.205   1.593  17.215  0.4717 -0.2145  0.1379
  522TMC3     O 7755   3.273   1.663  17.286  0.0174  0.4997  0.2285
  522TMC3     H 7756   3.457   1.612  17.150  1.7626 -1.4808 -0.1216
  522TMC3    H1 7757   3.078   1.451  17.010 -0.3913  1.8316 -0.0840
  522TMC3    H2 7758   3.448   1.364  16.808  0.6219  0.2126  0.1259
  522TMC3    C7 7759   3.212   1.306  16.814 -0.4170  0.2006 -0.3091
  522TMC3    C8 7760   3.616   1.501  16.978  0.9825  0.4304  0.6955
  522TMC3    O1 7761   3.283   1.213  16.770  0.1804 -0.2775  0.2248
  522TMC3    O2 7762   3.662   1.595  17.041  0.5933 -0.1742 -0.1962
  523MPD2     C 7763   1.146   0.383  10.450 -0.2806 -0.3648  0.3462
  523MPD2    C1 7764   1.012   0.379  10.403 -0.6352 -0.1404  0.1928
  523MPD2    C2 7765   0.949   0.498  10.379  0.0403 -0.2017  0.3587
  523MPD2    C3 7766   1.006   0.618  10.413  0.2845 -0.5808  0.1997
  523MPD2    C4 7767   1.130   0.621  10.473  0.3664 -0.3143  0.1615
  523MPD2    C5 7768   1.200   0.503  10.491 -0.3935 -0.2060  0.5919
  523MPD2     H 7769   0.856   0.491  10.324 -0.2216 -0.5488  0.8450
  523MPD2    H1 7770   1.176   0.717  10.493 -1.6435  1.2253 -2.6182
  523MPD2    H2 7771   1.208   0.297  10.469  0.7467  0.4818  0.8436
  523MPD2    H3 7772   1.299   0.512  10.534 -0.2103 -0.8933  0.3191
  523MPD2     N 7773   0.951   0.740  10.380 -0.1425 -0.7822 -0.3399
  523MPD2    H5 7774   0.996   0.822  10.420 -0.7163 -1.4817  1.7298
  523MPD2    N1 7775   0.959   0.254  10.372  0.1863  0.1664  0.0690
  523MPD2    H7 7776   1.024   0.182  10.401  0.9735  0.8150 -0.0826
  524TMC3    C1 7777   0.818   0.910  10.287 -0.1495 -0.1131  0.1880
  524TMC3    C2 7778   0.921   0.996  10.327 -0.6950  0.1341 -0.0583
  524TMC3    C3 7779   0.897   1.125  10.334 -0.5671  0.4236  0.0823
  524TMC3    C4 7780   0.689   0.955  10.281  0.4216 -0.1305  0.2093
  524TMC3    C5 7781   0.665   1.087  10.297  0.0909  0.5000  0.3917
  524TMC3    C6 7782   0.769   1.174  10.326 -0.5226  0.4453 -0.2068
  524TMC3     C 7783   0.839   0.770  10.311  0.8861 -0.8100  0.1397
  524TMC3     O 7784   0.752   0.689  10.280  0.3168 -0.0973  0.2074
  524TMC3     H 7785   1.025   0.983  10.300 -0.9886 -0.1680 -1.0416
  524TMC3    H1 7786   0.608   0.885  10.264  0.8221 -0.2255 -1.3264
  524TMC3    H2 7787   0.756   1.282  10.328 -0.0592  0.4692  1.3026
  524TMC3    C7 7788   0.530   1.134  10.259  0.2225  0.0008 -0.6657
  524TMC3    C8 7789   1.005   1.224  10.362 -0.5981 -0.1906 -0.4354
  524TMC3    O1 7790   0.430   1.065  10.257 -0.0690 -0.2456  0.2819
  524TMC3    O2 7791   0.987   1.341  10.334 -0.6325  0.1986 -0.3059
  525MPD2     C 7792   3.054   2.193  14.472 -0.2353  0.3160 -1.4793
  525MPD2    C1 7793   3.141   2.232  14.574  0.2032  0.1274 -0.4059
  525MPD2    C2 7794   3.223   2.338  14.549 -1.3465  0.5451 -0.5050
  525MPD2    C3 7795   3.214   2.399  14.419 -0.4002  0.7067  0.0499
  525MPD2    C4 7796   3.117   2.353  14.325 -0.6208 -0.2988 -0.2590
  525MPD2    C5 7797   3.034   2.252  14.354  0.0728  0.5496 -0.3659
  525MPD2     H 7798   3.296   2.376  14.619  0.6958 -0.4848 -2.0653
  525MPD2    H1 7799   3.118   2.395  14.224 -1.4294  0.4802  0.0530
  525MPD2    H2 7800   2.982   2.112  14.481  0.0135  0.1307 -1.1179
  525MPD2    H3 7801   2.962   2.225  14.278 -1.5236  0.0811  1.3036
  525MPD2     N 7802   3.291   2.504  14.372  0.4163 -0.3355  0.3743
  525MPD2    H5 7803   3.254   2.558  14.293 -1.2391  1.0289  2.0723
  525MPD2    N1 7804   3.144   2.166  14.706 -0.0513  0.0169 -0.6882
  525MPD2    H7 7805   3.218   2.191  14.770 -0.0283 -1.4804 -0.1307
  526TMC3    C1 7806   3.051   2.023  14.880  0.5376  0.1735  0.0778
  526TMC3    C2 7807   2.933   1.969  14.937 -0.2241 -0.1396 -0.6712
  526TMC3    C3 7808   2.939   1.906  15.056 -0.0926  0.9718 -0.2628
  526TMC3    C4 7809   3.169   2.013  14.955 -0.5985 -0.5652  0.4426
  526TMC3    C5 7810   3.168   1.954  15.078  0.1414 -0.7701 -0.3675
  526TMC3    C6 7811   3.055   1.900  15.122  0.0167 -0.4627  0.2415
  526TMC3     C 7812   3.038   2.087  14.751 -0.1855  0.0867 -0.2211
  526TMC3     O 7813   2.927   2.102  14.707  0.7760  0.5823  0.7678
  526TMC3     H 7814   2.840   1.981  14.882 -0.3049 -0.6566 -0.6480
  526TMC3    H1 7815   3.257   2.070  14.928 -0.6931 -0.8339 -0.4387
  526TMC3    H2 7816   3.057   1.831  15.206 -1.5062 -1.7103 -0.7574
  526TMC3    C7 7817   3.288   1.894  15.124 -0.3885  0.2619 -0.1570
  526TMC3    C8 7818   2.826   1.912  15.139  0.1464 -0.7653  0.3149
  526TMC3    O1 7819   3.309   1.878  15.241 -0.0796 -0.1716  0.0604
  526TMC3    O2 7820   2.742   1.819  15.149 -0.8243 -0.3486 -0.1157
  527MPD2     C 7821   2.763   4.551   1.366  0.3647  0.4542  0.1680
  527MPD2    C1 7822   2.854   4.642   1.415  0.1657 -0.2695 -0.5428
  527MPD2    C2 7823   2.872   0.045   1.347  0.3329  0.6060 -0.0750
  527MPD2    C3 7824   2.801   0.073   1.232  0.8714  0.6441  0.3539
  527MPD2    C4 7825   2.702   4.703   1.188 -0.4871 -0.1741  0.4580
  527MPD2    C5 7826   2.688   4.587   1.257  0.0008  0.3304 -0.6807
  527MPD2     H 7827   2.944   0.115   1.387  1.3555 -0.8572  0.6658
  527MPD2    H1 7828   2.652   4.713   1.093  0.8530 -0.2113 -0.2459
  527MPD2    H2 7829   2.741   4.464   1.427  1.0100  1.1002  1.3120
  527MPD2    H3 7830   2.618   4.516   1.214 -0.5868  0.5749 -0.1386
  527MPD2     N 7831   2.829   0.196   1.167 -0.0994  0.3245 -0.2524
  527MPD2    H5 7832   2.888   0.263   1.215  1.4899 -0.4194 -1.1481
  527MPD2    N1 7833   2.930   4.613   1.530 -0.1555  0.0459 -0.5500
  527MPD2    H7 7834   2.958   4.692   1.588 -1.9129  1.6261 -1.8700
  528TMC3    C1 7835   3.024   4.491   1.698 -0.4268 -0.0928  1.1065
  528TMC3    C2 7836   3.018   4.608   1.763 -0.0215  0.1186 -0.0208
  528TMC3    C3 7837   3.119   4.630   1.846  0.2217  0.1670  0.8284
  528TMC3    C4 7838   3.115   4.392   1.729 -0.0629 -0.6537 -0.4889
  528TMC3    C5 7839   3.219   4.426   1.809  0.3028 -0.1201 -0.1192
  528TMC3    C6 7840   3.233   4.556   1.856  0.3087 -0.6933  0.2627
  528TMC3     C 7841   2.972   4.484   1.566  0.1026  0.0922  0.0710
  528TMC3     O 7842   2.980   4.380   1.499 -0.3308  0.1039  0.0174
  528TMC3     H 7843   2.929   4.670   1.763  0.8648  1.4026 -3.3952
  528TMC3    H1 7844   3.119   4.305   1.664  0.8047 -0.1892 -1.0497
  528TMC3    H2 7845   3.327   4.576   1.906 -0.0941  1.5091  0.1093
  528TMC3    C7 7846   3.327   4.331   1.822  0.0959  0.1599  0.0210
  528TMC3    C8 7847   3.120   0.038   1.890  0.0868  0.4383 -0.2160
  528TMC3    O1 7848   3.437   4.369   1.856 -0.0278  0.0429  0.1501
  528TMC3    O2 7849   3.089   0.122   1.809  0.1742  0.3607  0.2689
  529MPD2     C 7850   4.230   3.815   1.108  1.2897  0.0862 -0.7936
  529MPD2    C1 7851   4.345   3.754   1.058  0.3422 -0.0377  0.2594
  529MPD2    C2 7852   4.371   3.773   0.924 -0.2651 -0.2075  0.3527
  529MPD2    C3 7853   4.270   3.822   0.841  0.4618  0.2931  0.3255
  529MPD2    C4 7854   4.144   3.868   0.893  0.2518  0.1052 -0.3601
  529MPD2    C5 7855   4.132   3.867   1.027  0.3523 -0.1494 -0.3061
  529MPD2     H 7856   4.462   3.725   0.889 -0.5579  0.0110 -0.7129
  529MPD2    H1 7857   4.066   3.922   0.840  0.6122  2.9855  2.0677
  529MPD2    H2 7858   4.203   3.824   1.212  0.3234  0.7187 -1.0930
  529MPD2    H3 7859   4.045   3.914   1.070 -1.0534 -1.7094 -1.4579
  529MPD2     N 7860   4.275   3.825   0.698 -0.1472 -0.9071 -0.4159
  529MPD2    H5 7861   4.190   3.854   0.651  0.0396 -1.5519 -1.1469
  529MPD2    N1 7862   4.444   3.682   1.136 -0.8508 -0.3197  0.2884
  529MPD2    H7 7863   4.533   3.670   1.087 -1.4270  1.3182 -1.1871
  530TMC3    C1 7864   4.528   3.522   1.304  1.2084  0.4993 -1.0365
  530TMC3    C2 7865   4.653   3.530   1.253  0.6261 -0.2273 -0.2854
  530TMC3    C3 7866   0.019   3.425   1.278  0.3424 -0.2936  0.6338
  530TMC3    C4 7867   4.488   3.419   1.381 -0.3678 -0.7785 -0.1728
  530TMC3    C5 7868   4.577   3.333   1.428  0.1159  0.5602 -0.4161
  530TMC3    C6 7869   4.701   3.338   1.377  0.0400 -0.3040  0.0274
  530TMC3     C 7870   4.423   3.610   1.251 -0.2217 -0.1457  0.0097
  530TMC3     O 7871   4.317   3.606   1.320  0.5308 -0.4899  0.7255
  530TMC3     H 7872   4.684   3.619   1.200  0.3094 -1.1613 -2.0539
  530TMC3    H1 7873   4.392   3.433   1.430 -0.1145  2.9883 -0.8100
  530TMC3    H2 7874   0.043   3.259   1.419 -1.2040 -1.2262  0.1204
  530TMC3    C7 7875   4.564   3.288   1.566 -0.0504  0.3610  0.3686
  530TMC3    C8 7876   0.158   3.459   1.267  0.8404 -0.4666 -0.4498
  530TMC3    O1 7877   4.671   3.275   1.625 -0.3149 -0.0020  0.7428
  530TMC3    O2 7878   0.181   3.575   1.244 -0.0650 -0.2988 -0.0777
  531MPD2     C 7879   1.815   1.607  13.712 -0.4773 -0.5152  0.2634
  531MPD2    C1 7880   1.908   1.500  13.704  0.2065  0.4323  0.2887
  531MPD2    C2 7881   1.958   1.473  13.579 -0.5407  0.4376  0.0832
  531MPD2    C3 7882   1.951   1.554  13.476 -0.5126  0.1783  0.5753
  531MPD2    C4 7883   1.875   1.668  13.485  0.8125 -0.5313  0.1726
  531MPD2    C5 7884   1.813   1.693  13.605  0.4158 -0.3051  0.0531
  531MPD2     H 7885   2.000   1.376  13.553 -0.5252 -0.1140  2.1660
  531MPD2    H1 7886   1.856   1.738  13.404  1.4307 -2.8228 -1.9692
  531MPD2    H2 7887   1.767   1.644  13.803 -2.2922  0.4030 -1.0617
  531MPD2    H3 7888   1.760   1.785  13.625  0.2746 -0.9788  2.8443
  531MPD2     N 7889   2.024   1.522  13.359  0.5275  0.7545  0.7170
  531MPD2    H5 7890   2.074   1.434  13.366 -1.7030 -0.4445  1.7704
  531MPD2    N1 7891   1.923   1.421  13.818  0.0734 -0.6334 -0.6065
  531MPD2    H7 7892   1.878   1.458  13.902  0.8882  2.1947 -1.4197
  532TMC3    C1 7893   1.998   1.247  13.953 -0.0068  0.4528  0.3680
  532TMC3    C2 7894   1.917   1.148  13.907 -0.3123 -0.6546  0.9910
  532TMC3    C3 7895   1.945   1.018  13.934  0.4948 -0.7385  0.1430
  532TMC3    C4 7896   2.110   1.224  14.012  0.2116  0.0832  0.0832
  532TMC3    C5 7897   2.147   1.092  14.035 -0.1447 -0.5213  0.0378
  532TMC3    C6 7898   2.056   0.991  14.015  0.3713  0.2853  0.1893
  532TMC3     C 7899   2.020   1.321  13.830 -0.3173 -0.0758 -0.0193
  532TMC3     O 7900   2.076   1.258  13.744  0.6723 -0.1015 -0.0613
  532TMC3     H 7901   1.833   1.178  13.846  0.9116  0.4540 -0.1519
  532TMC3    H1 7902   2.181   1.305  14.023  0.2485 -0.2985  2.7621
  532TMC3    H2 7903   2.077   0.886  14.032 -2.7596 -0.5979 -1.3751
  532TMC3    C7 7904   2.266   1.063  14.110 -0.6123 -0.4545 -0.0510
  532TMC3    C8 7905   1.925   0.937  13.821  0.0568 -0.5352  0.6494
  532TMC3    O1 7906   2.261   1.007  14.220  0.5213  0.6810  0.0370
  532TMC3    O2 7907   1.915   0.815  13.839  0.0156  0.0421 -0.2724
  533TMC3    C1 7908   3.412   2.696  14.407  0.5242  0.0603  0.3608
  533TMC3    C2 7909   3.536   2.747  14.434 -1.3527  0.5850  0.1267
  533TMC3    C3 7910   3.544   2.874  14.493 -0.2338 -0.5548 -0.2732
  533TMC3    C4 7911   3.308   2.761  14.461 -0.6118 -0.4808 -0.1207
  533TMC3    C5 7912   3.325   2.869  14.543 -0.3086  0.3295 -0.5026
  533TMC3    C6 7913   3.437   2.942  14.551  0.8320  0.1894  0.0408
  533TMC3     C 7914   3.400   2.555  14.433 -1.0454  0.5720 -0.6719
  533TMC3     O 7915   3.485   2.509  14.508  0.0235 -0.4239  0.1348
  533TMC3     H 7916   3.628   2.695  14.412 -0.2760  2.0366  1.1725
  533TMC3    H1 7917   3.217   2.703  14.473 -0.9321 -0.2883 -1.5328
  533TMC3    H2 7918   3.442   3.024  14.622  0.0883  0.0553  0.2493
  533TMC3    C7 7919   3.258   2.848  14.670 -0.1689  0.0054 -0.0437
  533TMC3    C8 7920   3.673   2.940  14.519 -0.0021 -0.2102 -0.3755
  533TMC3    O1 7921   3.229   2.733  14.694  0.1182 -0.1425  0.2307
  533TMC3    O2 7922   3.672   3.041  14.584 -0.2501  0.7357  0.3424
  534MPD2     C 7923   2.470   3.532   1.308  0.0172  0.0266  0.1272
  534MPD2    C1 7924   2.435   3.669   1.291  0.1148 -0.3226 -0.4890
  534MPD2    C2 7925   2.325   3.700   1.218 -0.3672  0.5449  0.3910
  534MPD2    C3 7926   2.251   3.603   1.157 -0.5739 -0.7663 -0.1471
  534MPD2    C4 7927   2.284   3.470   1.191 -0.1858 -0.1771 -0.6771
  534MPD2    C5 7928   2.394   3.436   1.265 -0.2133  0.1803 -0.0180
  534MPD2     H 7929   2.305   3.806   1.201 -5.0506 -0.7026 -2.0893
  534MPD2    H1 7930   2.223   3.388   1.156 -1.0202  0.4337 -0.6563
  534MPD2    H2 7931   2.566   3.504   1.351 -0.3132 -0.7318  0.3617
  534MPD2    H3 7932   2.436   3.335   1.265 -0.4534  0.0815  0.5401
  534MPD2     N 7933   2.148   3.625   1.072 -0.7036 -0.3139  0.0079
  534MPD2    H5 7934   2.090   3.542   1.063 -1.8504  0.5061 -0.0589
  534MPD2    N1 7935   2.513   3.775   1.345 -1.0545  0.3284  0.2398
  534MPD2    H7 7936   2.471   3.867   1.331 -0.8595  0.5266  0.9036
  535TMC3    C1 7937   1.973   3.735   0.953  0.1758 -1.0960 -0.6504
  535TMC3    C2 7938   1.890   3.632   0.995 -0.0093 -0.1956  0.3831
  535TMC3    C3 7939   1.769   3.627   0.926 -0.1803 -0.5695 -0.1357
  535TMC3    C4 7940   1.948   3.820   0.847  0.0958 -0.1542 -0.3278
  535TMC3    C5 7941   1.826   3.814   0.791  0.0190  0.5301 -0.3774
  535TMC3    C6 7942   1.737   3.716   0.830  0.2934  0.3629  0.0167
  535TMC3     C 7943   2.114   3.737   1.004 -0.8575  0.1520 -0.0530
  535TMC3     O 7944   2.169   3.846   1.000 -0.1315  0.2193  0.2894
  535TMC3     H 7945   1.898   3.586   1.093  2.3686  1.7824  1.1025
  535TMC3    H1 7946   2.022   3.894   0.820  0.9127 -0.9487 -0.2517
  535TMC3    H2 7947   1.631   3.720   0.807  0.0362 -1.5460  0.9082
  535TMC3    C7 7948   1.797   3.853   0.654 -0.3191  0.6754  0.1689
  535TMC3    C8 7949   1.684   3.514   0.955 -0.1416  0.4343  0.0125
  535TMC3    O1 7950   1.717   3.790   0.587  0.2881 -0.3710  0.3130
  535TMC3    O2 7951   1.571   3.528   0.917  0.5505 -0.3591  0.0949
  536MPD2     C 7952   0.331   2.310  16.316 -0.5927 -0.3758 -0.2472
  536MPD2    C1 7953   0.219   2.241  16.351 -0.5114  0.1921 -0.0914
  536MPD2    C2 7954   0.117   2.238  16.262  0.3318  0.3475  0.1737
  536MPD2    C3 7955   0.127   2.309  16.139 -0.2313 -0.7273  0.1833
  536MPD2    C4 7956   0.243   2.386  16.117  0.2294  0.1371  0.2420
  536MPD2    C5 7957   0.349   2.375  16.202  0.0469 -0.7970  0.1374
  536MPD2     H 7958   0.027   2.183  16.289 -1.3226  3.5005  1.1343
  536MPD2    H1 7959   0.260   2.429  16.018 -0.1485  0.6824  0.4145
  536MPD2    H2 7960   0.418   2.313  16.381  2.1750  0.0377 -3.9965
  536MPD2    H3 7961   0.445   2.422  16.184  1.1309 -3.0363  0.0408
  536MPD2     N 7962   0.015   2.326  16.059 -0.0373 -0.3532 -0.5098
  536MPD2    H5 7963   0.021   2.401  15.990  1.0866  1.5384  1.6422
  536MPD2    N1 7964   0.192   2.182  16.481 -0.0128  0.8305  0.2940
  536MPD2    H7 7965   0.110   2.123  16.491  1.3543 -1.5821 -2.4621
  537TMC3    C1 7966   0.210   2.155  16.708  0.5942  0.6638 -0.0701
  537TMC3    C2 7967   0.225   2.221  16.828  0.0225  0.6601 -1.0100
  537TMC3    C3 7968   0.166   2.162  16.940  0.0217 -0.6939 -0.5628
  537TMC3    C4 7969   0.178   2.022  16.709 -0.4412 -0.5072 -0.1148
  537TMC3    C5 7970   0.127   1.958  16.820  0.1810  0.5937  0.6362
  537TMC3    C6 7971   0.115   2.034  16.931 -0.1426  0.4577 -0.0820
  537TMC3     C 7972   0.269   2.216  16.588 -0.3735  0.0150  0.0390
  537TMC3     O 7973   0.338   2.317  16.602 -0.2728  0.0207  0.3558
  537TMC3     H 7974   0.277   2.316  16.836  0.8296  0.1807 -0.4987
  537TMC3    H1 7975   0.179   1.975  16.611 -0.1196  0.7379 -0.7103
  537TMC3    H2 7976   0.060   1.993  17.015  3.1888 -2.2545  0.8197
  537TMC3    C7 7977   0.020   1.864  16.785 -0.1945 -0.4332  0.0319
  537TMC3    C8 7978   0.175   2.219  17.074  0.3767  0.2413 -0.3335
  537TMC3    O1 7979   4.690   1.876  16.673 -0.4816 -0.2573  0.0411
  537TMC3    O2 7980   0.120   2.164  17.168 -0.9040 -0.0992 -0.0748
  538TMC3    C1 7981   1.654   0.662  10.769  0.2646  0.2184 -0.1064
  538TMC3    C2 7982   1.628   0.611  10.645  0.1204  0.0150 -0.7796
  538TMC3    C3 7983   1.521   0.666  10.571  0.3054  0.4135 -0.1979
  538TMC3    C4 7984   1.566   0.758  10.818 -0.0451  1.3328  0.4870
  538TMC3    C5 7985   1.478   0.826  10.743  0.3219 -0.0521  0.6130
  538TMC3    C6 7986   1.456   0.782  10.611  0.1054 -0.2905  0.2705
  538TMC3     C 7987   1.744   0.581  10.850  0.3432  0.0463  0.5618
  538TMC3     O 7988   1.758   0.462  10.817 -0.1326  0.0354 -0.0257
  538TMC3     H 7989   1.684   0.524  10.612  2.0748  1.2694 -0.7098
  538TMC3    H1 7990   1.545   0.753  10.925  1.7283  0.1323  0.7738
  538TMC3    H2 7991   1.366   0.813  10.558 -0.6689  0.3186  1.9122
  538TMC3    C7 7992   1.372   0.902  10.813 -0.0844 -0.2989  0.0472
  538TMC3    C8 7993   1.520   0.645  10.424  0.0446 -0.5844  0.1844
  538TMC3    O1 7994   1.265   0.910  10.756  0.2190 -0.4254 -0.4943
  538TMC3    O2 7995   1.566   0.545  10.372  0.2525 -0.6399 -0.0041
  539MPD2     C 7996   0.845   0.056  12.074  0.5630 -0.1296 -0.2230
  539MPD2    C1 7997   0.868   0.043  11.939 -0.3686  0.6801 -0.2675
  539MPD2    C2 7998   0.860   0.152  11.856 -0.6719 -0.1092  0.1498
  539MPD2    C3 7999   0.838   0.282  11.906  0.3330  0.3801 -0.3971
  539MPD2    C4 8000   0.818   0.292  12.041 -0.6837 -0.2222 -0.2050
  539MPD2    C5 8001   0.826   0.182  12.116 -0.3580 -0.1610  0.0584
  539MPD2     H 8002   0.879   0.135  11.750  0.0430  0.2503  0.2142
  539MPD2    H1 8003   0.802   0.386  12.093 -0.7203  0.1232 -0.8422
  539MPD2    H2 8004   0.835   4.697  12.148 -3.1637  0.4624 -0.1237
  539MPD2    H3 8005   0.814   0.188  12.224 -1.6100  0.7702 -0.1434
  539MPD2     N 8006   0.832   0.402  11.835 -0.0383  0.1251 -0.5042
  539MPD2    H5 8007   0.809   0.484  11.891  0.2768  0.1284 -0.3773
  539MPD2    N1 8008   0.879   4.638  11.878 -0.3201  0.6461 -0.6069
  539MPD2    H7 8009   0.886   4.641  11.776  2.4637  0.9175 -0.4047
  540TMC3    C1 8010   0.870   0.556  11.650  0.4345 -0.4507 -0.8440
  540TMC3    C2 8011   0.944   0.584  11.537  0.0660  0.2191  0.2787
  540TMC3    C3 8012   0.936   0.707  11.484 -0.6068 -0.0013 -0.2146
  540TMC3    C4 8013   0.793   0.653  11.712  0.2880 -0.4661  0.2136
  540TMC3    C5 8014   0.784   0.772  11.646 -0.3721 -0.5855  0.1781
  540TMC3    C6 8015   0.861   0.803  11.538  0.4483 -0.7237  0.2807
  540TMC3     C 8016   0.874   0.416  11.707 -0.0613 -0.5181 -1.0100
  540TMC3     O 8017   0.930   0.335  11.632  0.3469  0.0668  0.6247
  540TMC3     H 8018   1.000   0.505  11.486 -1.6992  0.4111 -1.9841
  540TMC3    H1 8019   0.713   0.627  11.780  0.2545  0.2106  0.4316
  540TMC3    H2 8020   0.852   0.894  11.481 -1.3267  0.0494  1.7696
  540TMC3    C7 8021   0.711   0.879  11.721 -0.0003 -0.0190  0.4012
  540TMC3    C8 8022   0.960   0.714  11.341 -0.4209  0.1767  0.2141
  540TMC3    O1 8023   0.652   0.842  11.823 -0.1658 -0.4312 -0.5093
  540TMC3    O2 8024   0.983   0.821  11.299 -0.1608  0.2242  0.0571
  541MPD2     C 8025   3.990   1.583  13.247 -0.2720  0.6398  0.5926
  541MPD2    C1 8026   3.985   1.518  13.127 -0.4705  0.1646 -0.5548
  541MPD2    C2 8027   3.961   1.580  13.004  0.1759  0.3038  0.3693
  541MPD2    C3 8028   3.960   1.718  13.009 -0.6720  0.4363 -1.1561
  541MPD2    C4 8029   3.964   1.784  13.125  0.9437 -0.2701 -0.0076
  541MPD2    C5 8030   3.974   1.719  13.247 -0.0395  0.0801 -0.0824
  541MPD2     H 8031   3.949   1.529  12.910 -0.2995 -1.1459  1.2186
  541MPD2    H1 8032   3.962   1.892  13.131 -0.0635 -0.3278  0.5516
  541MPD2    H2 8033   4.012   1.531  13.339 -4.2629 -2.6223 -0.2927
  541MPD2    H3 8034   3.992   1.785  13.331  1.3804  0.6387 -0.8181
  541MPD2     N 8035   3.954   1.794  12.896  0.0615 -0.0766  0.1792
  541MPD2    H5 8036   3.937   1.894  12.900 -1.2768 -0.2975  0.0550
  541MPD2    N1 8037   4.024   1.382  13.132 -0.2219 -0.4374  0.5543
  541MPD2    H7 8038   4.061   1.344  13.218 -2.1013  0.8735  1.9460
  542TMC3    C1 8039   3.989   1.839  12.667  0.0733  0.9629 -0.6864
  542TMC3    C2 8040   4.072   1.825  12.561 -0.3021 -0.4711 -0.1454
  542TMC3    C3 8041   4.040   1.913  12.455  0.0399 -0.0031 -0.8149
  542TMC3    C4 8042   3.880   1.924  12.685 -0.0558 -0.0066 -0.3682
  542TMC3    C5 8043   3.851   2.002  12.575 -0.1959  0.4618 -0.4525
  542TMC3    C6 8044   3.927   1.988  12.460  0.2599  0.2903 -0.6775
  542TMC3     C 8045   4.010   1.749  12.780 -0.5595 -0.2118 -0.3705
  542TMC3     O 8046   4.074   1.650  12.747  0.0063  0.0332 -0.2771
  542TMC3     H 8047   4.169   1.777  12.562  0.3239  0.7646 -0.9409
  542TMC3    H1 8048   3.821   1.937  12.775 -1.4928 -2.3053 -0.9630
  542TMC3    H2 8049   3.919   2.054  12.374  2.8624  1.6171  0.0986
  542TMC3    C7 8050   3.730   2.081  12.579 -0.7783  0.9927  0.0231
  542TMC3    C8 8051   4.083   1.876  12.316  0.1585  0.1819 -0.6696
  542TMC3    O1 8052   3.680   2.086  12.694 -0.2202 -0.7967  0.9400
  542TMC3    O2 8053   4.003   1.901  12.223 -0.1091 -0.1150  0.0571
  543TMC3    C1 8054   3.893   3.332  17.433 -0.2441  0.1180 -0.0110
  543TMC3    C2 8055   3.767   3.293  17.391  0.0614  0.6962 -0.4752
  543TMC3    C3 8056   3.676   3.266  17.489  0.3105  0.2716  0.5219
  543TMC3    C4 8057   3.929   3.335  17.564 -0.2133 -0.7819 -0.9868
  543TMC3    C5 8058   3.832   3.314  17.662 -0.2062  0.0245 -0.3390
  543TMC3    C6 8059   3.708   3.276  17.620  0.0565  0.4998 -0.4574
  543TMC3     C 8060   3.996   3.289  17.339  0.5537  0.1450  1.2446
  543TMC3     O 8061   4.030   3.174  17.356  0.0027 -0.0174 -0.3916
  543TMC3     H 8062   3.735   3.275  17.290  0.3500 -2.5839  0.0067
  543TMC3    H1 8063   4.033   3.346  17.591 -0.9981 -0.8262  1.9845
  543TMC3    H2 8064   3.644   3.245   0.021  0.2785  0.3635 -0.3367
  543TMC3    C7 8065   3.858   3.341   0.123  0.1046 -0.1860  0.2680
  543TMC3    C8 8066   3.559   3.191  17.448 -0.4690  0.7963  0.3393
  543TMC3    O1 8067   3.769   3.312   0.197  0.5510 -0.1873  0.5932
  543TMC3    O2 8068   3.558   3.128  17.343 -0.0601 -0.1292 -0.6702
  544MPD2     C 8069   3.115   2.959  17.518  0.7357  0.4230 -0.0905
  544MPD2    C1 8070   3.232   2.899  17.475  0.2768 -0.2283 -0.5082
  544MPD2    C2 8071   3.345   2.983  17.470  0.4829 -0.0836 -0.0244
  544MPD2    C3 8072   3.347   3.104  17.536  0.0133 -0.3367  0.3825
  544MPD2    C4 8073   3.237   3.146  17.602  0.9263 -0.0390  0.1392
  544MPD2    C5 8074   3.122   3.073  17.588  0.3638 -0.6337  0.0185
  544MPD2     H 8075   3.442   2.949  17.436  0.2013 -1.3473  0.4294
  544MPD2    H1 8076   3.230   3.240  17.656 -0.0650 -0.9507  1.5896
  544MPD2    H2 8077   3.023   2.904  17.508  0.4629  0.7216  0.8225
  544MPD2    H3 8078   3.034   3.119  17.631  1.1898  0.7864  0.2150
  544MPD2     N 8079   3.460   3.192  17.539  0.1545  0.4380 -0.1301
  544MPD2    H5 8080   3.458   3.273  17.600  1.2965  0.0452  0.4364
  544MPD2    N1 8081   3.237   2.771  17.421 -0.0147  0.0488  0.1527
  544MPD2    H7 8082   3.152   2.716  17.419 -0.3978  0.6289  0.4483
  545TMC3    C1 8083   3.322   2.574  17.336 -0.4948  0.1478  0.9124
  545TMC3    C2 8084   3.388   2.518  17.233 -0.6199  0.2570  1.0263
  545TMC3    C3 8085   3.375   2.386  17.220 -0.2010  0.7086  0.2244
  545TMC3    C4 8086   3.231   2.507  17.419 -0.9695  0.1367  0.0554
  545TMC3    C5 8087   3.219   2.367  17.395 -0.0889 -0.0950 -0.1674
  545TMC3    C6 8088   3.297   2.304  17.297 -0.1002  0.0993  0.1125
  545TMC3     C 8089   3.339   2.718  17.350  0.4497 -0.0001 -0.0468
  545TMC3     O 8090   3.431   2.773  17.296 -0.0514 -0.6139 -0.3393
  545TMC3     H 8091   3.446   2.580  17.166 -2.2340  0.0568 -0.5380
  545TMC3    H1 8092   3.172   2.552  17.497 -1.0813  2.2776 -1.2702
  545TMC3    H2 8093   3.292   2.197  17.279  2.5687 -0.3511  1.9253
  545TMC3    C7 8094   3.129   2.295  17.481  0.5384 -0.3103 -0.4553
  545TMC3    C8 8095   3.470   2.312  17.137  0.7910 -0.4838  0.7123
  545TMC3    O1 8096   3.031   2.356  17.525  0.1093  0.4403 -0.0955
  545TMC3    O2 8097   3.513   2.201  17.168 -0.1329  0.1081 -0.4421
  546MPD2     C 8098   0.020   2.634   0.361 -0.3541 -0.2210 -0.5173
  546MPD2    C1 8099   0.002   2.622   0.227  0.0131 -0.5881  0.2985
  546MPD2    C2 8100   0.091   2.686   0.139 -0.8428  0.1453 -0.3079
  546MPD2    C3 8101   0.200   2.763   0.178  0.5823  0.0709 -0.0967
  546MPD2    C4 8102   0.213   2.773   0.318  0.0458  0.6361  0.3789
  546MPD2    C5 8103   0.126   2.703   0.404  0.0888  0.2320 -0.5964
  546MPD2     H 8104   0.077   2.681   0.032  1.1360 -1.2242 -0.5022
  546MPD2    H1 8105   0.307   2.804   0.361 -0.0812  0.6021  0.6821
  546MPD2    H2 8106   4.675   2.587   0.434 -0.2961  2.0785  1.0200
  546MPD2    H3 8107   0.148   2.690   0.509  2.9346  0.6482 -1.1181
  546MPD2     N 8108   0.294   2.839   0.101  0.1117 -0.5190  0.4660
  546MPD2    H5 8109   0.362   2.885   0.160  1.6667 -0.5442 -1.2928
  546MPD2    N1 8110   4.627   2.526   0.184  0.4569 -0.2535  0.4355
  546MPD2    H7 8111   4.582   2.478   0.262 -1.9326  0.1417 -0.7123
  547TMC3    C1 8112   4.506   2.383   0.040 -0.2820  0.7600 -1.2211
  547TMC3    C2 8113   4.489   2.334  17.599  0.5687 -0.0538  0.6173
  547TMC3    C3 8114   4.365   2.295  17.559  0.5466 -0.6397 -0.1671
  547TMC3    C4 8115   4.404   2.377   0.130 -0.0047  0.1362 -0.0441
  547TMC3    C5 8116   4.287   2.319   0.103  0.3213 -0.7523  0.2701
  547TMC3    C6 8117   4.265   2.283  17.646  0.4604 -1.0689  0.5212
  547TMC3     C 8118   4.605   2.491   0.052  0.0013 -0.7543 -0.2747
  547TMC3     O 8119   4.669   2.518  17.632  0.2664  0.3877  0.1549
  547TMC3     H 8120   4.563   2.343  17.521  0.3466  2.2628  0.6868
  547TMC3    H1 8121   4.416   2.407   0.233  0.7939  0.3956 -0.2140
  547TMC3    H2 8122   4.165   2.249  17.620  0.0613  1.0223 -0.6603
  547TMC3    C7 8123   4.210   2.262   0.210  0.2032  0.5409  0.2547
  547TMC3    C8 8124   4.320   2.277  17.424 -0.4560  0.7801 -0.0074
  547TMC3    O1 8125   4.231   2.291   0.327  0.2032  0.1264 -0.3379
  547TMC3    O2 8126   4.201   2.305  17.405  0.0554  0.0582  0.0036
  548MPD2     C 8127   4.549   3.522  12.826  0.3199 -0.4765  0.2646
  548MPD2    C1 8128   4.455   3.418  12.828 -0.5821  0.4886  0.6662
  548MPD2    C2 8129   4.494   3.285  12.844 -0.3952 -0.2064 -0.1109
  548MPD2    C3 8130   4.624   3.254  12.873  0.3139  0.7561  0.5614
  548MPD2    C4 8131   4.718   3.356  12.867 -0.2986  0.3610  0.1299
  548MPD2    C5 8132   4.676   3.486  12.851  0.6096 -0.4473 -0.5816
  548MPD2     H 8133   4.414   3.213  12.833 -0.0657 -0.6784  0.6351
  548MPD2    H1 8134   0.104   3.330  12.860 -0.3310  0.3136 -0.1918
  548MPD2    H2 8135   4.510   3.619  12.797  0.3624 -0.3371  0.6746
  548MPD2    H3 8136   0.037   3.556  12.831 -0.2668  0.4176 -1.1013
  548MPD2     N 8137   4.658   3.122  12.899  0.0537 -0.3186  0.1977
  548MPD2    H5 8138   4.595   3.049  12.867  2.7387 -1.1658 -3.1815
  548MPD2    N1 8139   4.323   3.451  12.801  0.2730  0.0287  0.1268
  548MPD2    H7 8140   4.297   3.548  12.783  0.1368 -0.3302 -1.5884
  549TMC3    C1 8141   4.084   3.427  12.758  0.3723  0.3311  0.3676
  549TMC3    C2 8142   4.084   3.540  12.680  0.0715  0.5870 -0.2528
  549TMC3    C3 8143   3.981   3.574  12.604 -0.6330 -0.8394  0.0866
  549TMC3    C4 8144   3.972   3.353  12.772 -0.6917  0.1041  0.3179
  549TMC3    C5 8145   3.861   3.386  12.695 -0.5758 -0.0236  0.1029
  549TMC3    C6 8146   3.863   3.495  12.609 -0.5613 -0.2196 -0.5031
  549TMC3     C 8147   4.211   3.366  12.811  0.8828 -0.3244 -1.5052
  549TMC3     O 8148   4.202   3.248  12.844  0.0764 -0.1557  0.2451
  549TMC3     H 8149   4.179   3.582  12.649  0.1087  0.7011  0.0134
  549TMC3    H1 8150   3.974   3.279  12.850  1.1557 -0.4121 -0.2246
  549TMC3    H2 8151   3.773   3.517  12.553  0.5101  0.9180 -1.7813
  549TMC3    C7 8152   3.750   3.295  12.689 -0.8139  0.0473  0.3273
  549TMC3    C8 8153   3.994   3.661  12.493 -0.6299 -0.1547 -0.0019
  549TMC3    O1 8154   3.646   3.351  12.648  0.2267  0.8067 -0.2189
  549TMC3    O2 8155   3.887   3.687  12.442  0.2373  0.0320  0.2155
  550TMC3    C1 8156   3.246   1.297  12.929 -0.1564 -1.0508 -0.0727
  550TMC3    C2 8157   3.279   1.374  13.037  0.4855 -0.2371  0.0543
  550TMC3    C3 8158   3.322   1.503  13.022 -0.5839  0.8858 -0.3200
  550TMC3    C4 8159   3.254   1.351  12.802 -0.2980 -0.3502 -0.1802
  550TMC3    C5 8160   3.285   1.484  12.787 -0.9011  0.2065 -0.3331
  550TMC3    C6 8161   3.324   1.560  12.892  0.0145  0.1242 -0.7465
  550TMC3     C 8162   3.113   1.232  12.949 -0.1348  0.2907  0.4474
  550TMC3     O 8163   3.073   1.193  13.056  0.3663 -0.0328 -0.0225
  550TMC3     H 8164   3.264   1.330  13.135 -2.6979  0.4176 -0.1499
  550TMC3    H1 8165   3.242   1.294  12.711 -1.9073 -0.6750  0.2438
  550TMC3    H2 8166   3.367   1.658  12.874 -2.8573  1.2412 -1.6176
  550TMC3    C7 8167   3.214   1.546  12.679  0.6887 -0.3209 -0.9627
  550TMC3    C8 8168   3.307   1.591  13.135 -0.4159  0.5290  0.6458
  550TMC3    O1 8169   3.131   1.472  12.627 -0.5788 -0.0668  0.1543
  550TMC3    O2 8170   3.323   1.708  13.096  0.3674  0.1693  0.0371
  551TMC3    C1 8171   0.921   3.807  13.323  0.2154 -0.8809  0.0876
  551TMC3    C2 8172   1.005   3.881  13.246 -0.6637 -0.3549  0.1573
  551TMC3    C3 8173   1.056   3.996  13.298 -0.7396 -0.4018 -0.3061
  551TMC3    C4 8174   0.892   3.853  13.450  0.0447  0.1112 -0.4075
  551TMC3    C5 8175   0.945   3.970  13.500 -0.3253  0.1978 -0.3363
  551TMC3    C6 8176   1.031   4.036  13.427 -0.6362  0.3327  0.2805
  551TMC3     C 8177   0.814   3.760  13.242  0.2289 -0.6075 -0.2097
  551TMC3     O 8178   0.796   3.812  13.129  0.1043 -0.2656  0.4323
  551TMC3     H 8179   1.041   3.840  13.152 -1.3026 -0.2294 -0.1446
  551TMC3    H1 8180   0.822   3.800  13.514  0.1442  1.0558  0.4811
  551TMC3    H2 8181   1.077   4.126  13.466  0.3959 -0.3026  0.5260
  551TMC3    C7 8182   0.915   4.019  13.634 -1.2163  0.3021 -0.2908
  551TMC3    C8 8183   1.161   4.070  13.230 -0.1704  0.5114  0.3352
  551TMC3    O1 8184   0.867   3.940  13.714 -0.1566 -0.4571  0.5849
  551TMC3    O2 8185   1.205   4.173  13.274 -0.1643  0.3529  0.1850
  552MPD2     C 8186   2.416   0.703  14.186 -0.1098 -0.4398  0.7957
  552MPD2    C1 8187   2.510   0.711  14.072 -0.2029  0.0783 -0.2463
  552MPD2    C2 8188   2.646   0.734  14.098  0.1494  0.3059  0.0808
  552MPD2    C3 8189   2.691   0.729  14.231 -0.5361  0.1035 -0.0282
  552MPD2    C4 8190   2.602   0.714  14.338 -0.2526  0.1152 -0.0496
  552MPD2    C5 8191   2.466   0.707  14.309  0.9077  0.2859  0.1659
  552MPD2     H 8192   2.714   0.756  14.017 -0.2161  0.2508 -0.2428
  552MPD2    H1 8193   2.637   0.703  14.440 -1.6242  1.7597  0.6031
  552MPD2    H2 8194   2.310   0.701  14.164  0.1643  2.7454 -0.8204
  552MPD2    H3 8195   2.392   0.692  14.387  2.2058 -3.1581  0.7402
  552MPD2     N 8196   2.826   0.748  14.266 -0.2690  0.1717  0.2082
  552MPD2    H5 8197   2.843   0.760  14.365 -1.0558  0.4760  0.3108
  552MPD2    N1 8198   2.484   0.710  13.938  0.2360 -0.0479  0.7286
  552MPD2    H7 8199   2.565   0.717  13.878 -2.0537 -0.7799 -2.4207
  553TMC3    C1 8200   2.374   0.719  13.736 -0.3905 -0.1805 -0.9022
  553TMC3    C2 8201   2.301   0.811  13.662 -0.1470  0.2385 -0.3482
  553TMC3    C3 8202   2.307   0.817  13.525  0.0480  0.4446  0.2797
  553TMC3    C4 8203   2.473   0.642  13.682  1.4698  0.7972 -0.6047
  553TMC3    C5 8204   2.477   0.654  13.544 -0.2129 -0.1047  0.7973
  553TMC3    C6 8205   2.384   0.722  13.467 -0.8921  0.3329  0.9984
  553TMC3     C 8206   2.359   0.712  13.878  0.1558  0.3402 -0.4715
  553TMC3     O 8207   2.244   0.721  13.925  0.1370  0.9259  0.7190
  553TMC3     H 8208   2.232   0.874  13.718  0.9859  1.6480 -0.5438
  553TMC3    H1 8209   2.507   0.551  13.729 -2.9465 -0.4517  0.2083
  553TMC3    H2 8210   2.399   0.719  13.360 -3.9462 -1.3905  0.6037
  553TMC3    C7 8211   2.542   0.539  13.481 -0.0033  0.2298 -0.2419
  553TMC3    C8 8212   2.363   0.942  13.490  0.4421  0.1454 -0.5542
  553TMC3    O1 8213   2.481   0.463  13.403  0.3079 -0.0766  0.3200
  553TMC3    O2 8214   2.402   1.009  13.587 -0.0154 -0.7681 -0.4480
  554TMC3    C1 8215   4.545   0.393  11.631  0.1245  0.0338 -0.0665
  554TMC3    C2 8216   4.427   0.457  11.590  0.1532  0.0663 -0.0219
  554TMC3    C3 8217   4.433   0.592  11.570 -0.3514 -0.8081  0.3670
  554TMC3    C4 8218   4.664   0.459  11.660  0.3343  0.7321 -0.3475
  554TMC3    C5 8219   4.654   0.597  11.659  0.5303  0.0832 -0.2660
  554TMC3    C6 8220   4.551   0.668  11.610 -0.0921  0.6843  0.8049
  554TMC3     C 8221   4.531   0.252  11.656  0.0699  0.2220  0.3348
  554TMC3     O 8222   4.437   0.210  11.589 -0.4621  0.4246 -0.1493
  554TMC3     H 8223   4.336   0.401  11.572 -1.1004  1.7836  0.9609
  554TMC3    H1 8224   0.037   0.409  11.685  0.8301  1.6436 -0.3493
  554TMC3    H2 8225   4.557   0.769  11.572 -0.8074 -0.1827 -1.5869
  554TMC3    C7 8226   0.063   0.659  11.651 -0.3064  0.0207 -0.4406
  554TMC3    C8 8227   4.380   0.634  11.444  0.0031  0.8297  0.5980
  554TMC3    O1 8228   0.159   0.591  11.621 -0.2124  0.0937 -0.0072
  554TMC3    O2 8229   4.457   0.704  11.377 -0.1421 -0.0409 -0.0597
  555TMC3    C1 8230   3.473   4.414  15.256 -0.2331  0.5119  0.4512
  555TMC3    C2 8231   3.519   4.527  15.318 -0.0118 -0.0608 -0.2945
  555TMC3    C3 8232   3.587   4.512  15.437  0.0275 -0.4978 -0.2983
  555TMC3    C4 8233   3.513   4.285  15.290  0.9097  0.7403  0.2367
  555TMC3    C5 8234   3.588   4.282  15.405  0.4671 -0.5346 -0.7104
  555TMC3    C6 8235   3.623   4.391  15.485  0.3098  0.1650  0.0802
  555TMC3     C 8236   3.398   4.419  15.131  0.4806  0.0027 -0.2386
  555TMC3     O 8237   3.328   4.323  15.102  0.4511  0.1056  0.1172
  555TMC3     H 8238   3.477   4.619  15.280 -0.2816  0.1381  0.5028
  555TMC3    H1 8239   3.474   4.201  15.233  1.4975  0.1754  0.6705
  555TMC3    H2 8240   3.672   4.378  15.580 -1.5333  1.6181  1.2485
  555TMC3    C7 8241   3.608   4.146  15.452 -0.8130 -0.6052 -0.0714
  555TMC3    C8 8242   3.564   4.622  15.523  0.8524 -0.6304  0.3253
  555TMC3    O1 8243   3.532   4.061  15.413  0.2523 -0.1163 -0.5134
  555TMC3    O2 8244   3.502   4.716  15.482 -0.0872 -1.0330  0.3724
  556MPD2     C 8245   1.543   1.839  10.512 -0.1588  0.1410 -0.3989
  556MPD2    C1 8246   1.647   1.745  10.524 -0.0567 -0.7600 -0.2654
  556MPD2    C2 8247   1.705   1.694  10.404  0.9480 -0.4304 -0.7337
  556MPD2    C3 8248   1.650   1.716  10.280 -1.1663  0.3916 -0.0556
  556MPD2    C4 8249   1.547   1.811  10.273 -0.4428  0.0435 -0.6976
  556MPD2    C5 8250   1.499   1.865  10.386  0.4847 -0.9155  0.3765
  556MPD2     H 8251   1.780   1.616  10.412 -0.1605 -1.2329  1.8267
  556MPD2    H1 8252   1.496   1.834  10.180  0.9582  1.4494 -1.1315
  556MPD2    H2 8253   1.499   1.885  10.600 -1.3589  0.4020 -1.1392
  556MPD2    H3 8254   1.403   1.914  10.379  0.2488 -1.2595  1.3178
  556MPD2     N 8255   1.695   1.648  10.171  0.0243 -0.1173  0.2461
  556MPD2    H5 8256   1.737   1.556  10.180 -2.5197 -1.1124  1.8715
  556MPD2    N1 8257   1.685   1.693  10.650 -0.7127  0.0877 -0.0405
  556MPD2    H7 8258   1.782   1.662  10.652 -0.4870  0.9670  1.9956
  557TMC3    C1 8259   1.647   1.543   9.969 -0.5993  0.5137  0.3894
  557TMC3    C2 8260   1.577   1.557   9.853 -0.1622  0.4954  0.0732
  557TMC3    C3 8261   1.494   1.457   9.812 -0.1652 -0.2665  0.0739
  557TMC3    C4 8262   1.637   1.428  10.048  0.0085 -0.2708  0.6691
  557TMC3    C5 8263   1.552   1.329   9.994  0.1314  0.0898  0.0477
  557TMC3    C6 8264   1.481   1.338   9.878  0.5221  0.1378 -0.3099
  557TMC3     C 8265   1.653   1.669  10.044  0.7987 -0.0940 -0.1219
  557TMC3     O 8266   1.602   1.771   9.999 -0.6896 -0.1382  0.3215
  557TMC3     H 8267   1.572   1.653   9.802  2.1072  0.4704 -0.2006
  557TMC3    H1 8268   1.697   1.412  10.137  0.4530  0.4810  0.5035
  557TMC3    H2 8269   1.433   1.249   9.838 -1.6298  1.4260 -0.6016
  557TMC3    C7 8270   1.574   1.202  10.062  0.0529  0.8016 -0.5359
  557TMC3    C8 8271   1.377   1.495   9.739 -0.5112  0.0695 -1.1838
  557TMC3    O1 8272   1.587   1.212  10.184 -0.0721 -0.5282 -0.5498
  557TMC3    O2 8273   1.386   1.602   9.684 -0.2308 -0.4137  0.3220
  558TMC3    C1 8274   4.382   3.800   9.912  0.5078 -0.5809  0.4346
  558TMC3    C2 8275   4.327   3.905   9.988  0.3836 -0.1789 -0.3202
  558TMC3    C3 8276   4.253   4.003   9.922 -0.5544 -0.4936  0.1778
  558TMC3    C4 8277   4.390   3.810   9.777 -0.4959 -0.5880  0.2931
  558TMC3    C5 8278   4.339   3.921   9.721  0.1231 -0.5395  0.4265
  558TMC3    C6 8279   4.255   4.009   9.784  0.5907 -0.4572  0.1889
  558TMC3     C 8280   4.481   3.731   9.989  0.7669  0.1137  0.2262
  558TMC3     O 8281   4.589   3.719   9.931  0.2852 -0.6385  0.3731
  558TMC3     H 8282   4.343   3.906  10.095  0.3682 -3.8585 -0.2946
  558TMC3    H1 8283   4.450   3.738   9.722  0.1390 -0.9482  1.4550
  558TMC3    H2 8284   4.205   4.094   9.737  2.0275  0.3302  0.0861
  558TMC3    C7 8285   4.302   3.914   9.586 -0.4876 -0.3131  0.4539
  558TMC3    C8 8286   4.157   4.088   9.996 -0.0613  0.1349  0.5750
  558TMC3    O1 8287   4.310   4.019   9.521 -0.2763 -0.1089 -0.0197
  558TMC3    O2 8288   4.111   4.195   9.953 -0.1737  0.0304 -0.1677
  559MPD2     C 8289   4.397   0.244  10.627  0.1750 -0.4889  0.1501
  559MPD2    C1 8290   4.346   0.118  10.648  0.7324  0.0139  0.1702
  559MPD2    C2 8291   4.422   0.029  10.714 -0.2105 -0.0999  0.0802
  559MPD2    C3 8292   4.540   0.067  10.775  0.3444 -0.1962  1.1228
  559MPD2    C4 8293   4.586   0.195  10.758 -0.1163  0.1660 -0.3908
  559MPD2    C5 8294   4.519   0.288  10.684  0.6797 -0.7031 -0.2362
  559MPD2     H 8295   4.385   4.650  10.742 -1.2068 -0.0327 -0.9855
  559MPD2    H1 8296   4.677   0.234  10.802 -0.5563  1.0095 -0.2219
  559MPD2    H2 8297   4.345   0.328  10.584  1.2980  0.6994  1.1047
  559MPD2    H3 8298   4.551   0.390  10.665  2.5512 -1.2205  0.2184
  559MPD2     N 8299   4.603   4.695  10.859 -0.2517 -0.8677 -0.3354
  559MPD2    H5 8300   4.567   4.600  10.863 -2.0286 -0.0756  2.0846
  559MPD2    N1 8301   4.217   0.102  10.600  0.1336  0.0763 -0.2329
  559MPD2    H7 8302   4.174   0.181  10.553 -0.0130 -1.5759 -2.8686
  560TMC3    C1 8303   0.020   4.599  11.019 -0.2827 -0.0941  0.9035
  560TMC3    C2 8304   4.648   4.498  11.026 -0.3401 -0.3267 -0.2670
  560TMC3    C3 8305   4.681   4.402  11.111  0.5693  0.5603  0.2150
  560TMC3    C4 8306   0.136   4.609  11.099  0.4867  0.3096 -0.1979
  560TMC3    C5 8307   0.165   4.496  11.175  0.2764  0.0833  0.1502
  560TMC3    C6 8308   0.077   4.397  11.183 -0.0844  0.2279 -0.2820
  560TMC3     C 8309   4.710   4.716  10.940 -1.1371  0.2300  0.1017
  560TMC3     O 8310   0.063   0.094  10.951 -0.3115  0.6927  0.0663
  560TMC3     H 8311   4.548   4.499  10.983 -1.1149  2.6486  1.6397
  560TMC3    H1 8312   0.195   4.699  11.104  1.7235 -0.4894 -0.4040
  560TMC3    H2 8313   0.100   4.322  11.259  0.1902  1.8901  1.2688
  560TMC3    C7 8314   0.239   4.516  11.303 -0.4512 -0.5466 -0.1177
  560TMC3    C8 8315   4.601   4.281  11.104 -0.4415 -0.4773 -0.3720
  560TMC3    O1 8316   0.206   4.447  11.398  0.0774  0.2549  0.2772
  560TMC3    O2 8317   4.485   4.290  11.062  0.1228  0.3260  0.5910
  561TMC3    C1 8318   2.422   3.383  11.102 -0.2116 -0.2013  0.7181
  561TMC3    C2 8319   2.344   3.307  11.190  0.0718  0.7479 -0.5126
  561TMC3    C3 8320   2.269   3.366  11.282 -0.0953 -0.8130 -0.4383
  561TMC3    C4 8321   2.416   3.521  11.105 -0.2459 -0.0674 -0.9061
  561TMC3    C5 8322   2.341   3.576  11.208  0.4876  0.5379 -0.1572
  561TMC3    C6 8323   2.273   3.504  11.297 -0.0994  0.1010 -0.2225
  561TMC3     C 8324   2.489   3.326  10.986 -0.3606  0.1464 -0.6302
  561TMC3     O 8325   2.421   3.250  10.915  0.0764  0.4056 -0.2343
  561TMC3     H 8326   2.360   3.201  11.205  1.9409  1.3955  2.2856
  561TMC3    H1 8327   2.471   3.581  11.034  1.1763 -1.5084 -1.0354
  561TMC3    H2 8328   2.226   3.565  11.372  0.4159  0.4320 -0.1681
  561TMC3    C7 8329   2.364   3.714  11.243  0.5010 -0.1115 -0.3520
  561TMC3    C8 8330   2.245   3.286  11.400  0.7106 -0.2428 -0.2711
  561TMC3    O1 8331   2.303   3.758  11.336  0.0684  0.7447  0.0717
  561TMC3    O2 8332   2.275   3.170  11.396  0.0839  0.6465 -0.3356
  562TMC3    C1 8333   3.273   0.051  16.074  0.4319 -0.3398  0.3929
  562TMC3    C2 8334   3.199   0.156  16.066  0.3414 -0.6492  0.2042
  562TMC3    C3 8335   3.121   0.197  16.174 -0.3761 -0.1304  0.0554
  562TMC3    C4 8336   3.264   4.693  16.186  0.0480 -0.5910  0.1561
  562TMC3    C5 8337   3.202   0.022  16.296  0.1779 -0.0911  0.5143
  562TMC3    C6 8338   3.126   0.132  16.291 -0.0720 -0.0569 -0.4147
  562TMC3     C 8339   3.287   4.698  15.953 -0.4061  0.2462  0.0205
  562TMC3     O 8340   3.203   0.013  15.876 -0.1660  0.2099  0.1691
  562TMC3     H 8341   3.207   0.215  15.975  0.5179  0.7761  1.1426
  562TMC3    H1 8342   3.305   4.593  16.185 -1.9277 -1.3787 -1.0849
  562TMC3    H2 8343   3.060   0.144  16.376  1.9766  1.8327  0.9070
  562TMC3    C7 8344   3.137   4.640  16.380 -0.1320 -0.7530 -0.4833
  562TMC3    C8 8345   2.999   0.259  16.138 -0.1441 -0.3622 -0.2827
  562TMC3    O1 8346   3.014   4.642  16.385 -0.4669 -0.6021  0.0443
  562TMC3    O2 8347   2.948   0.327  16.227 -0.5496  0.0208 -0.5874
  563MPD2     C 8348   0.836   1.336  15.696 -0.8062  0.3094 -0.2126
  563MPD2    C1 8349   0.848   1.392  15.821 -0.6532  0.6400  0.1949
  563MPD2    C2 8350   0.960   1.368  15.899  0.0612  0.5865 -0.1200
  563MPD2    C3 8351   1.059   1.286  15.862  0.4824 -0.6481 -0.9723
  563MPD2    C4 8352   1.044   1.230  15.732 -0.6936 -0.0259  0.0537
  563MPD2    C5 8353   0.934   1.252  15.653 -0.3787 -0.4883 -0.2230
  563MPD2     H 8354   0.981   1.415  15.995  0.6987 -0.7348  0.3946
  563MPD2    H1 8355   1.116   1.155  15.702 -0.8526 -0.2863  0.3225
  563MPD2    H2 8356   0.752   1.360  15.632 -0.3286  0.0707 -0.9319
  563MPD2    H3 8357   0.937   1.216  15.551  2.3142 -1.7109  0.2862
  563MPD2     N 8358   1.169   1.268  15.943 -0.0550  0.2158  0.2934
  563MPD2    H5 8359   1.162   1.307  16.037  2.9913 -1.2103  1.1072
  563MPD2    N1 8360   0.755   1.490  15.851 -0.8792 -0.2848  0.2794
  563MPD2    H7 8361   0.688   1.516  15.779  0.2249  3.6997  0.7316
  564TMC3    C1 8362   0.707   1.431  16.077  0.0360  0.9440 -0.8137
  564TMC3    C2 8363   0.620   1.329  16.040  0.4913  0.2826  0.2325
  564TMC3    C3 8364   0.593   1.219  16.125 -0.2192 -0.6656  0.1034
  564TMC3    C4 8365   0.783   1.418  16.189  0.4517 -0.0675  0.6620
  564TMC3    C5 8366   0.770   1.306  16.266 -0.2478  0.6979 -0.0832
  564TMC3    C6 8367   0.672   1.213  16.241 -0.0942 -0.5641 -0.2089
  564TMC3     C 8368   0.731   1.539  15.982  0.3226 -0.1464 -0.5982
  564TMC3     O 8369   0.654   1.633  16.010 -0.0760 -0.0126 -0.0479
  564TMC3     H 8370   0.564   1.335  15.947 -0.0292 -1.3202  0.4293
  564TMC3    H1 8371   0.849   1.502  16.206 -0.4258  0.5578  0.9786
  564TMC3    H2 8372   0.667   1.119  16.295  1.6846  0.6250  2.0163
  564TMC3    C7 8373   0.892   1.233  16.283  0.7861 -0.7409  0.2849
  564TMC3    C8 8374   0.546   1.091  16.074  0.0391 -0.1320 -0.0695
  564TMC3    O1 8375   0.988   1.297  16.334  0.4560  0.0644  0.0140
  564TMC3    O2 8376   0.501   1.002  16.144 -0.3610 -0.1301 -0.0792
  565TMC3    C1 8377   1.604   3.322  10.144  0.1899 -0.6090  0.2535
  565TMC3    C2 8378   1.617   3.305  10.278 -0.3751  0.3398 -0.1571
  565TMC3    C3 8379   1.507   3.249  10.338  0.1193  0.7996 -0.1610
  565TMC3    C4 8380   1.488   3.291  10.074  1.3136 -0.7014 -0.7085
  565TMC3    C5 8381   1.389   3.226  10.146  0.4933 -0.3292  0.1681
  565TMC3    C6 8382   1.391   3.213  10.280  0.3647 -0.3090  0.6127
  565TMC3     C 8383   1.689   3.416  10.080  0.5572 -0.0139  0.3610
  565TMC3     O 8384   1.752   3.492  10.150  0.3923 -0.6564  0.2168
  565TMC3     H 8385   1.706   3.333  10.333  0.5954  0.0370 -1.5818
  565TMC3    H1 8386   1.472   3.327   9.973  0.6615  0.2972 -0.2564
  565TMC3    H2 8387   1.313   3.167  10.338 -0.3720  2.0171  1.4900
  565TMC3    C7 8388   1.301   3.136  10.062  0.4057 -0.4499  0.3087
  565TMC3    C8 8389   1.524   3.209  10.475  0.3357 -0.2188 -0.0973
  565TMC3    O1 8390   1.341   3.116   9.951  0.3387  0.2414  0.0080
  565TMC3    O2 8391   1.444   3.125  10.518 -0.1118 -0.3581  0.3349
  566MPD2     C 8392   3.384   0.011  14.316 -0.7791 -0.0139  0.3222
  566MPD2    C1 8393   3.382   4.600  14.365  0.4864 -0.7257 -0.0590
  566MPD2    C2 8394   3.299   4.511  14.301  0.7595 -0.3756 -0.1951
  566MPD2    C3 8395   3.214   4.559  14.200  0.5892  0.3718  0.2386
  566MPD2    C4 8396   3.211   4.690  14.163  0.5596  0.4876  0.1353
  566MPD2    C5 8397   3.292   0.059  14.229  0.6828  0.4032 -0.0215
  566MPD2     H 8398   3.317   4.405  14.317 -2.7217 -0.8184  0.6198
  566MPD2    H1 8399   3.143   0.000  14.084 -0.9281  0.0542  1.2762
  566MPD2    H2 8400   3.447   0.081  14.370 -0.2641 -0.0559 -0.2260
  566MPD2    H3 8401   3.287   0.166  14.211 -0.0456  0.4862  0.6639
  566MPD2     N 8402   3.126   4.475  14.129 -0.2914 -0.2329 -0.1964
  566MPD2    H5 8403   3.084   4.528  14.053  2.0551  0.0859 -1.2862
  566MPD2    N1 8404   3.492   4.542  14.432 -0.1736  0.3543  0.1900
  566MPD2    H7 8405   3.498   4.442  14.447  0.5118  0.4201  0.3545
  567TMC3    C1 8406   3.721   4.511  14.448  0.3261 -0.3201  0.0207
  567TMC3    C2 8407   3.825   4.540  14.362  1.2089  0.2902  0.5440
  567TMC3    C3 8408   3.914   4.444  14.315 -0.0134 -0.2524 -0.4644
  567TMC3    C4 8409   3.718   4.388  14.503 -0.4826 -0.4747 -0.6856
  567TMC3    C5 8410   3.803   4.293  14.450  0.9608  0.0840  0.2655
  567TMC3    C6 8411   3.905   4.317  14.366  0.7641 -0.2851  0.7282
  567TMC3     C 8412   3.613   4.609  14.453  0.0703 -0.7549  0.0116
  567TMC3     O 8413   3.642   0.010  14.439  0.3470 -0.5432  0.7587
  567TMC3     H 8414   3.838   4.637  14.315  1.0370  1.2894  2.5639
  567TMC3    H1 8415   3.628   4.362  14.558  0.8705 -0.9159  1.2939
  567TMC3    H2 8416   3.973   4.236  14.344  0.4721 -0.0113 -1.1677
  567TMC3    C7 8417   3.794   4.152  14.490 -0.0950  1.1507  0.0630
  567TMC3    C8 8418   3.943   4.461  14.175  0.1237 -0.0501 -1.1962
  567TMC3    O1 8419   3.846   4.074  14.411  0.1590 -0.0757  0.4544
  567TMC3    O2 8420   3.889   4.555  14.117  0.2465  0.4545  0.2009
  568MPD2     C 8421   0.663   4.391  16.484  0.5148 -0.6274 -0.2927
  568MPD2    C1 8422   0.722   4.490  16.560  1.4317  0.4518  0.4129
  568MPD2    C2 8423   0.737   4.617  16.506 -0.1288 -0.4026  0.2932
  568MPD2    C3 8424   0.688   4.648  16.379  0.3848  0.2123  0.8123
  568MPD2    C4 8425   0.625   4.547  16.310  0.0301 -0.3290  0.1214
  568MPD2    C5 8426   0.614   4.419  16.360  0.0963  0.2534  0.3291
  568MPD2     H 8427   0.775   4.704  16.560 -2.9018  2.1937 -1.9022
  568MPD2    H1 8428   0.595   4.565  16.208 -0.4522 -0.0147  0.3217
  568MPD2    H2 8429   0.662   4.287  16.513 -3.3899 -0.7158 -0.8592
  568MPD2    H3 8430   0.575   4.342  16.294  0.4176 -0.0153  0.4567
  568MPD2     N 8431   0.704   0.056  16.320 -0.3942 -0.3023  0.2829
  568MPD2    H5 8432   0.752   0.124  16.379 -0.6193  1.5847 -1.7247
  568MPD2    N1 8433   0.756   4.457  16.693  0.3562  0.0165  0.3115
  568MPD2    H7 8434   0.743   4.364  16.730  0.5398  0.3117  1.1377
  569TMC3    C1 8435   0.700   0.239  16.187  0.4881 -0.3578  0.1243
  569TMC3    C2 8436   0.734   0.310  16.299  0.0093  0.1347 -0.5148
  569TMC3    C3 8437   0.795   0.435  16.291 -0.2964  0.0326 -0.2227
  569TMC3    C4 8438   0.726   0.288  16.057 -0.3351 -0.0732  0.2853
  569TMC3    C5 8439   0.780   0.413  16.051 -0.6069 -0.1067  0.2552
  569TMC3    C6 8440   0.815   0.489  16.162  0.2612 -0.2638  0.3347
  569TMC3     C 8441   0.649   0.106  16.209  0.3378  0.4836 -0.3614
  569TMC3     O 8442   0.594   0.044  16.118 -0.1810  0.3227  0.2269
  569TMC3     H 8443   0.702   0.284  16.400 -0.5070 -0.3970 -0.8092
  569TMC3    H1 8444   0.706   0.225  15.972  0.2280  0.4906 -0.2681
  569TMC3    H2 8445   0.863   0.587  16.158  1.8896 -1.1284 -1.8036
  569TMC3    C7 8446   0.752   0.486  15.931 -0.1179  0.7501  0.4038
  569TMC3    C8 8447   0.767   0.539  16.388 -0.4524 -0.2479 -1.0067
  569TMC3    O1 8448   0.749   0.436  15.819  0.0030  0.1880  0.1949
  569TMC3    O2 8449   0.672   0.525  16.465 -0.7120  0.1949  0.1760
  570TMC3    C1 8450   4.635   3.522  16.627 -0.6394 -0.5795  0.0034
  570TMC3    C2 8451   4.687   3.529  16.500 -0.4005 -0.4567  0.1035
  570TMC3    C3 8452   4.719   3.650  16.448 -0.5565 -0.2085  0.1948
  570TMC3    C4 8453   4.593   3.634  16.699  0.5653 -0.3026 -0.3715
  570TMC3    C5 8454   4.620   3.758  16.640  0.0374 -0.4237 -0.4084
  570TMC3    C6 8455   4.688   3.765  16.518  0.0012  0.3641 -0.0514
  570TMC3     C 8456   4.606   3.391  16.672  0.0534  0.6901 -0.1758
  570TMC3     O 8457   4.564   3.314  16.586 -0.1683  0.1482  0.4614
  570TMC3     H 8458   0.009   3.439  16.456  2.6234  0.2233  1.5948
  570TMC3    H1 8459   4.555   3.631  16.800  0.6163  2.5069 -0.2866
  570TMC3    H2 8460   4.716   3.863  16.481  2.3102  0.2599  1.4182
  570TMC3    C7 8461   4.602   3.869  16.733  1.1537 -0.3653 -0.3191
  570TMC3    C8 8462   0.083   3.670  16.336 -0.3855  0.0125  0.3073
  570TMC3    O1 8463   4.608   3.831  16.847 -0.5477 -0.7150 -0.3792
  570TMC3    O2 8464   0.127   3.783  16.321 -0.2806 -0.0195 -0.1928
  571MPD2     C 8465   2.776   0.715  17.507 -0.3984  0.2001 -0.3269
  571MPD2    C1 8466   2.804   0.636  17.617 -0.5912 -0.2183 -0.3850
  571MPD2    C2 8467   2.843   0.699   0.054  0.7917 -0.0466  0.4615
  571MPD2    C3 8468   2.862   0.835   0.057 -0.1163  1.1186 -0.0759
  571MPD2    C4 8469   2.835   0.908  17.621 -0.2214  0.6388 -0.4723
  571MPD2    C5 8470   2.790   0.851  17.507  0.2083 -0.5372  0.3994
  571MPD2     H 8471   2.870   0.635   0.137  0.2133 -0.0972  0.6112
  571MPD2    H1 8472   2.864   1.012  17.608  0.3208  0.3458 -1.6377
  571MPD2    H2 8473   2.746   0.674  17.411 -0.2978 -0.4750 -0.0729
  571MPD2    H3 8474   2.777   0.916  17.422  1.8567 -0.1798  0.4159
  571MPD2     N 8475   2.882   0.908   0.177  0.2446 -0.0017 -0.0837
  571MPD2    H5 8476   2.869   1.008   0.176 -0.5255 -0.0955  0.8074
  571MPD2    N1 8477   2.790   0.496  17.622  0.1948  0.5882 -0.2287
  571MPD2    H7 8478   2.805   0.453   0.032  2.2735 -2.6194 -2.0852
  572TMC3    C1 8479   2.938   0.951   0.409  0.3262  0.5334  0.5657
  572TMC3    C2 8480   2.981   0.911   0.531 -0.0780  0.5830  0.2295
  572TMC3    C3 8481   2.969   1.002   0.637 -0.1690 -0.1086  0.5914
  572TMC3    C4 8482   2.900   1.088   0.379 -0.8788 -0.0947  0.6224
  572TMC3    C5 8483   2.899   1.176   0.487  0.5793 -0.1811  0.0282
  572TMC3    C6 8484   2.933   1.133   0.614 -0.9647 -0.3090 -0.4847
  572TMC3     C 8485   2.927   0.858   0.298 -0.1325  0.4982  0.0314
  572TMC3     O 8486   2.971   0.744   0.318  0.3844  0.2331 -0.7897
  572TMC3     H 8487   2.995   0.804   0.541 -2.2642  0.0796 -2.0640
  572TMC3    H1 8488   2.871   1.133   0.285  1.3073  0.2354  0.1154
  572TMC3    H2 8489   2.905   1.198   0.696  0.0046 -0.3550 -0.1158
  572TMC3    C7 8490   2.865   1.314   0.455  0.3919 -0.0524  0.1917
  572TMC3    C8 8491   3.008   0.955   0.768  0.1561  0.5313  0.4257
  572TMC3    O1 8492   2.806   1.337   0.355 -0.1551 -0.3285  0.5360
  572TMC3    O2 8493   2.951   1.012   0.864 -0.4438  0.3220 -0.0209
  573MPD2     C 8494   3.497   0.814   0.546  0.0963  0.3040  0.4864
  573MPD2    C1 8495   3.449   0.925   0.615 -0.6431  0.3226  0.5265
  573MPD2    C2 8496   3.382   1.031   0.541  0.3064  0.1749 -0.3216
  573MPD2    C3 8497   3.346   1.012   0.406 -0.1717 -0.1997  0.0798
  573MPD2    C4 8498   3.386   0.895   0.347 -0.3245  0.1078 -0.0838
  573MPD2    C5 8499   3.459   0.801   0.415  0.0241 -0.0793  0.4554
  573MPD2     H 8500   3.375   1.128   0.588 -0.6913  0.1759 -0.4662
  573MPD2    H1 8501   3.363   0.868   0.244  1.1022 -0.2930 -0.3011
  573MPD2    H2 8502   3.551   0.737   0.599  1.3264 -0.2534 -1.5639
  573MPD2    H3 8503   3.487   0.710   0.363  2.2058 -0.1034  1.6618
  573MPD2     N 8504   3.278   1.105   0.326  0.2992  0.0953 -0.4220
  573MPD2    H5 8505   3.269   1.079   0.228 -1.2271  0.1922 -0.3055
  573MPD2    N1 8506   3.507   0.961   0.733 -0.7226  0.2942  0.0562
  573MPD2    H7 8507   3.588   0.910   0.766  0.1880  1.3171 -0.5955
  574TMC3    C1 8508   3.206   1.310   0.258  0.4039  1.0613  0.6501
  574TMC3    C2 8509   3.215   1.446   0.276 -0.5309  0.8013  0.2553
  574TMC3    C3 8510   3.196   1.529   0.166  0.0679 -0.1784 -0.9161
  574TMC3    C4 8511   3.141   1.267   0.143 -0.3991  0.1188  0.3030
  574TMC3    C5 8512   3.112   1.348   0.047 -0.3691 -0.6844 -0.1286
  574TMC3    C6 8513   3.133   1.480   0.050  0.3185  0.0482  0.2447
  574TMC3     C 8514   3.245   1.232   0.368  0.1333 -0.2810 -0.1092
  574TMC3     O 8515   3.230   1.278   0.482  0.2499  0.8149 -0.1552
  574TMC3     H 8516   3.254   1.492   0.366 -0.8579  1.5432  0.0175
  574TMC3    H1 8517   3.120   1.163   0.122  0.1540  0.3340 -1.3415
  574TMC3    H2 8518   3.089   1.544  17.655  1.2280  0.6637  0.2350
  574TMC3    C7 8519   3.083   1.289  17.602  0.2057  0.5601  0.2750
  574TMC3    C8 8520   3.193   1.670   0.185  0.6159 -0.3022  1.2838
  574TMC3    O1 8521   2.999   1.199  17.605 -0.3784  0.2931 -0.1851
  574TMC3    O2 8522   3.197   1.703   0.304 -0.5818  0.3959 -0.0189
  575TMC3    C1 8523   1.469   2.606  11.075 -0.5500  0.5337 -0.1310
  575TMC3    C2 8524   1.460   2.642  11.203 -0.2706  0.2302 -0.2364
  575TMC3    C3 8525   1.510   2.766  11.235  0.0157 -0.3789 -0.2715
  575TMC3    C4 8526   1.527   2.681  10.975 -0.3725  0.7209  0.0191
  575TMC3    C5 8527   1.580   2.804  11.015 -0.3917  0.0368  0.5274
  575TMC3    C6 8528   1.570   2.850  11.145  0.0546 -0.0024 -0.3933
  575TMC3     C 8529   1.444   2.465  11.054 -0.2563 -0.4714  0.4614
  575TMC3     O 8530   1.443   2.392  11.151 -0.6672 -0.4330 -0.0364
  575TMC3     H 8531   1.406   2.581  11.275  0.2422 -0.2683 -0.2700
  575TMC3    H1 8532   1.547   2.649  10.874 -1.8054  0.3328 -0.1421
  575TMC3    H2 8533   1.610   2.944  11.182  1.3918 -0.6474 -0.1981
  575TMC3    C7 8534   1.603   2.903  10.908  0.6726 -0.2302 -0.1338
  575TMC3    C8 8535   1.486   2.829  11.364  0.6196  0.1614 -0.2204
  575TMC3    O1 8536   1.563   2.885  10.794 -0.2141 -0.0838 -0.1650
  575TMC3    O2 8537   1.566   2.916  11.407  0.0785  0.1761 -0.2361
  576MPD2     C 8538   1.407   3.472  12.598  0.2186  0.1134  0.0681
  576MPD2    C1 8539   1.427   3.590  12.531 -0.9136 -0.4869  0.0487
  576MPD2    C2 8540   1.358   3.709  12.569  0.3288 -0.0613  0.3131
  576MPD2    C3 8541   1.280   3.711  12.684 -0.4681 -0.6849 -0.3128
  576MPD2    C4 8542   1.279   3.594  12.760 -0.0065 -0.2701 -0.0574
  576MPD2    C5 8543   1.336   3.480  12.710 -0.1372 -0.7546  0.0835
  576MPD2     H 8544   1.355   3.799  12.508  0.5849 -0.8482 -0.8721
  576MPD2    H1 8545   1.226   3.589  12.855  0.1455 -2.1231 -0.0707
  576MPD2    H2 8546   1.429   3.374  12.558 -0.0355  0.3578 -0.6840
  576MPD2    H3 8547   1.321   3.391  12.770 -0.3111  0.2744  1.5614
  576MPD2     N 8548   1.213   3.832  12.719 -0.2653  0.4032  0.0519
  576MPD2    H5 8549   1.218   3.905  12.649  0.9505  1.0219  0.7913
  576MPD2    N1 8550   1.486   3.590  12.400 -0.4873  0.0622  0.2363
  576MPD2    H7 8551   1.478   3.680  12.352  2.0763  0.6847  0.9900
  577TMC3    C1 8552   1.631   3.525  12.236  1.2499 -0.1005 -0.3906
  577TMC3    C2 8553   1.758   3.479  12.205 -0.5513 -0.4807 -0.6178
  577TMC3    C3 8554   1.804   3.499  12.077 -0.0555  0.2916 -0.0527
  577TMC3    C4 8555   1.553   3.580  12.146 -0.7038 -0.1208  0.1668
  577TMC3    C5 8556   1.606   3.598  12.020  0.6047 -0.1616  0.1804
  577TMC3    C6 8557   1.733   3.559  11.981  1.0013 -0.2228  0.5818
  577TMC3     C 8558   1.584   3.493  12.369  0.2882 -0.1177  0.9325
  577TMC3     O 8559   1.625   3.398  12.436 -0.0154 -0.4672  0.1934
  577TMC3     H 8560   1.822   3.430  12.278  1.2776  0.1952 -1.7780
  577TMC3    H1 8561   1.449   3.603  12.168 -0.1913 -0.4378  2.8198
  577TMC3    H2 8562   1.762   3.565  11.877 -2.7569 -2.0017 -0.5607
  577TMC3    C7 8563   1.523   3.642  11.912 -0.5327  0.3452  0.3848
  577TMC3    C8 8564   1.904   3.395  12.039 -0.9018  0.2955 -0.1968
  577TMC3    O1 8565   1.546   3.603  11.800  0.7505  0.1546  0.5083
  577TMC3    O2 8566   1.925   3.300  12.118 -0.4421  0.3213 -0.0829
  578MPD2     C 8567   0.655   3.830   1.115  0.2178  0.6168  0.6493
  578MPD2    C1 8568   0.579   3.724   1.058  0.0341 -0.6837  0.0134
  578MPD2    C2 8569   0.637   3.596   1.066  0.6207  0.1237 -0.3963
  578MPD2    C3 8570   0.758   3.574   1.133  0.8058  0.4934 -0.2366
  578MPD2    C4 8571   0.816   3.680   1.201  0.0823  0.7042 -0.0862
  578MPD2    C5 8572   0.764   3.804   1.189  0.3118  0.0424  0.1357
  578MPD2     H 8573   0.591   3.521   1.004  0.0972  0.4622 -0.4218
  578MPD2    H1 8574   0.914   3.669   1.247 -0.4938 -0.4459  0.8801
  578MPD2    H2 8575   0.625   3.933   1.103  0.2345  0.5190 -0.2687
  578MPD2    H3 8576   0.822   3.882   1.236 -0.4145  0.5920  0.1160
  578MPD2     N 8577   0.808   3.443   1.134  0.1415 -0.9967 -0.0115
  578MPD2    H5 8578   0.775   3.369   1.073 -1.2074 -0.7921  0.4615
  578MPD2    N1 8579   0.454   3.744   1.006 -0.3361 -0.0851  0.3801
  578MPD2    H7 8580   0.424   3.839   0.986  0.0277  0.4462  2.3792
  579TMC3    C1 8581   0.961   3.265   1.153  0.5335 -0.5744  0.3162
  579TMC3    C2 8582   1.093   3.238   1.151 -0.2252  0.0466 -0.1114
  579TMC3    C3 8583   1.127   3.104   1.138  0.7507 -0.0093 -0.5940
  579TMC3    C4 8584   0.861   3.176   1.150 -0.4933  0.1720 -0.2517
  579TMC3    C5 8585   0.902   3.049   1.134 -0.2501  0.5877 -0.4859
  579TMC3    C6 8586   1.033   3.006   1.133  0.7549 -0.6681 -0.4705
  579TMC3     C 8587   0.927   3.405   1.200  0.1475 -0.4121 -0.6046
  579TMC3     O 8588   1.019   3.465   1.254 -0.1058 -0.4243  0.2100
  579TMC3     H 8589   1.170   3.313   1.159 -0.6107  0.1289  2.8726
  579TMC3    H1 8590   0.756   3.204   1.160  0.3770  2.5570  1.9772
  579TMC3    H2 8591   1.057   2.901   1.122  3.3658 -0.0426 -0.8371
  579TMC3    C7 8592   0.810   2.943   1.104 -0.2290  0.2777 -0.2716
  579TMC3    C8 8593   1.262   3.059   1.133  0.2915 -0.3085 -0.4775
  579TMC3    O1 8594   0.857   2.827   1.101 -0.6043  0.3388  0.1925
  579TMC3    O2 8595   1.283   2.941   1.153  0.1785 -0.1789 -0.3348
  580TMC3    C1 8596   3.976   3.357  12.241 -0.5448 -0.0211  0.2089
  580TMC3    C2 8597   4.096   3.398  12.191 -0.3535 -0.2017 -0.1403
  580TMC3    C3 8598   4.175   3.301  12.138 -0.5994  0.4244 -0.5674
  580TMC3    C4 8599   3.949   3.228  12.265 -0.5106  0.0662  0.3072
  580TMC3    C5 8600   4.023   3.131  12.196  0.0490  0.5189 -0.4739
  580TMC3    C6 8601   4.139   3.167  12.129 -0.0770  1.3451  0.7887
  580TMC3     C 8602   3.877   3.419  12.162 -0.0291 -0.3255  0.7126
  580TMC3     O 8603   3.771   3.369  12.172 -0.2459 -0.5843 -0.5362
  580TMC3     H 8604   4.121   3.503  12.194  0.1077 -0.2735 -1.3028
  580TMC3    H1 8605   3.855   3.207  12.315  0.2978  0.8571  2.1864
  580TMC3    H2 8606   4.208   3.090  12.095 -1.2615  0.5544  0.1760
  580TMC3    C7 8607   3.998   2.990  12.221  0.2827  0.4951  0.7230
  580TMC3    C8 8608   4.275   3.355  12.050 -0.4396  0.2672 -0.2013
  580TMC3    O1 8609   3.956   2.974  12.334  0.2355  0.2733 -0.2203
  580TMC3    O2 8610   4.271   3.480  12.042 -0.0643 -0.6060  0.5779
  581MPD2     C 8611   1.612   2.495  14.597 -0.2346  0.7736 -0.6886
  581MPD2    C1 8612   1.515   2.569  14.654 -0.4005  0.0197 -0.0575
  581MPD2    C2 8613   1.441   2.666  14.581  0.0682 -0.0773  0.2141
  581MPD2    C3 8614   1.464   2.669  14.441 -0.6019 -0.7238 -0.0678
  581MPD2    C4 8615   1.548   2.578  14.383 -0.5837 -0.0268  0.1724
  581MPD2    C5 8616   1.623   2.493  14.459 -0.9600 -0.4197 -0.4259
  581MPD2     H 8617   1.373   2.742  14.618 -0.0930  0.8547 -2.0025
  581MPD2    H1 8618   1.578   2.582  14.279 -2.0922 -1.0759 -0.3091
  581MPD2    H2 8619   1.672   2.428  14.659 -1.2737 -1.2725 -1.8887
  581MPD2    H3 8620   1.690   2.427  14.404 -0.2750 -2.7428  3.1401
  581MPD2     N 8621   1.383   2.769  14.371 -0.0167 -0.3199  0.5940
  581MPD2    H5 8622   1.338   2.839  14.429  2.1023  2.2100 -0.7833
  581MPD2    N1 8623   1.506   2.564  14.791  0.5169  0.1937  0.0624
  581MPD2    H7 8624   1.575   2.510  14.842 -1.5596 -1.5656  0.9732
  582TMC3    C1 8625   1.441   2.589  15.009 -0.3604 -0.5469 -0.1742
  582TMC3    C2 8626   1.471   2.459  15.031  0.2733 -0.4279  0.4270
  582TMC3    C3 8627   1.440   2.400  15.152  0.2884 -0.4809 -0.5911
  582TMC3    C4 8628   1.388   2.670  15.104  0.2717 -0.8338  0.3176
  582TMC3    C5 8629   1.344   2.602  15.217  0.5785 -1.1148 -0.3309
  582TMC3    C6 8630   1.362   2.471  15.239 -0.3104  0.0178 -0.1310
  582TMC3     C 8631   1.417   2.635  14.870  0.5779  0.1943 -0.7458
  582TMC3     O 8632   1.327   2.716  14.844 -0.0014  0.1591 -0.2894
  582TMC3     H 8633   1.528   2.405  14.956  0.2545  1.5924 -1.0310
  582TMC3    H1 8634   1.353   2.767  15.070  0.3820 -1.3509 -1.2694
  582TMC3    H2 8635   1.326   2.434  15.334 -0.5281 -1.3711 -0.7600
  582TMC3    C7 8636   1.342   2.682  15.334  0.4931 -0.0188  0.2251
  582TMC3    C8 8637   1.556   2.360  15.220 -0.7520 -0.3417 -0.7267
  582TMC3    O1 8638   1.360   2.622  15.439 -0.1775 -0.0417 -0.3096
  582TMC3    O2 8639   1.638   2.292  15.158 -0.6106  0.2330  1.2503
  583MPD2     C 8640   1.975   4.225  16.831 -0.0386 -0.9228 -0.1944
  583MPD2    C1 8641   1.970   4.350  16.776  0.8431 -0.6875  0.1418
  583MPD2    C2 8642   1.967   4.463  16.860  0.0950  0.3613  0.3779
  583MPD2    C3 8643   1.961   4.442  16.999 -0.2544  0.4818 -1.2239
  583MPD2    C4 8644   1.973   4.313  17.049  0.4465 -0.4706 -0.1739
  583MPD2    C5 8645   1.984   4.202  16.965 -0.5766  0.2697  0.1427
  583MPD2     H 8646   1.974   4.564  16.823 -0.1854  0.7361  1.3396
  583MPD2    H1 8647   1.993   4.289  17.152 -1.1625 -0.3474  0.1707
  583MPD2    H2 8648   1.984   4.138  16.767  2.5061 -2.3089  2.0627
  583MPD2    H3 8649   2.004   4.103  17.005  0.1892  0.2003 -0.3973
  583MPD2     N 8650   1.940   4.551  17.084 -0.3952  0.1325  0.3419
  583MPD2    H5 8651   1.949   4.639  17.036 -0.4075 -0.0655 -0.0229
  583MPD2    N1 8652   1.968   4.374  16.633  1.0308 -0.0119  0.0219
  583MPD2    H7 8653   1.970   4.473  16.611  2.1378 -0.0240  0.0507
  584TMC3    C1 8654   1.894   4.683  17.273 -0.2356  0.3626  0.6975
  584TMC3    C2 8655   1.943   0.073  17.206  0.3930 -0.2124  0.5312
  584TMC3    C3 8656   1.990   0.180  17.280  0.1282  0.3783  0.5351
  584TMC3    C4 8657   1.899   4.678  17.412  0.6300  0.2113  0.5767
  584TMC3    C5 8658   1.923   0.072  17.480  0.2622 -0.4294  0.1032
  584TMC3    C6 8659   1.973   0.180  17.419 -0.3510 -0.0780 -0.8518
  584TMC3     C 8660   1.906   4.550  17.214  0.7063  0.9515  0.9021
  584TMC3     O 8661   1.903   4.449  17.281  0.1703  0.3775 -0.6848
  584TMC3     H 8662   1.938   0.085  17.099  0.9891 -0.4452  0.4768
  584TMC3    H1 8663   1.871   4.592  17.472  1.0657  0.9359  1.8056
  584TMC3    H2 8664   2.028   0.255  17.475  0.8428 -2.0374  0.5902
  584TMC3    C7 8665   1.918   0.069  17.627 -0.0368 -0.2485 -0.0553
  584TMC3    C8 8666   2.004   0.309  17.210 -0.6919 -0.0355  0.6165
  584TMC3    O1 8667   1.932   4.673  17.670 -0.6094 -0.1610 -0.4217
  584TMC3    O2 8668   1.949   0.321  17.104  0.3136 -0.1668  0.0201
  585MPD2     C 8669   1.472   3.367   0.361 -0.5167 -0.1237  0.1093
  585MPD2    C1 8670   1.469   3.394   0.222 -0.0760 -1.1015 -0.5034
  585MPD2    C2 8671   1.394   3.309   0.138  0.4017 -0.4415  0.6901
  585MPD2    C3 8672   1.313   3.203   0.184  0.4102 -0.0354 -0.2104
  585MPD2    C4 8673   1.317   3.180   0.321  0.0656 -0.1628 -0.6268
  585MPD2    C5 8674   1.392   3.266   0.406 -0.3080  0.1525 -0.5526
  585MPD2     H 8675   1.395   3.335   0.033 -0.8194  0.8228  0.9951
  585MPD2    H1 8676   1.281   3.090   0.369 -0.2534 -0.5207 -1.5249
  585MPD2    H2 8677   1.532   3.430   0.425 -1.0388 -0.4202  0.8873
  585MPD2    H3 8678   1.396   3.243   0.512  0.9617  0.1557 -0.6031
  585MPD2     N 8679   1.222   3.133   0.106  0.3943  0.2650 -0.1697
  585MPD2    H5 8680   1.175   3.062   0.161  0.0301  0.8134  0.2225
  585MPD2    N1 8681   1.554   3.503   0.183  0.0893  0.1368  0.1383
  585MPD2    H7 8682   1.605   3.556   0.253  2.1409  0.0607 -1.2961
  586TMC3    C1 8683   1.093   3.081  17.599 -0.0962  0.2352  0.1862
  586TMC3    C2 8684   1.086   3.069  17.459  0.3198  0.8235  0.7653
  586TMC3    C3 8685   0.962   3.056  17.402 -0.7206  0.2867 -0.2719
  586TMC3    C4 8686   0.987   3.056  17.679 -0.3387 -0.0430  0.0033
  586TMC3    C5 8687   0.865   3.044  17.617  0.1687  0.0808  0.3539
  586TMC3    C6 8688   0.850   3.049  17.480  0.2039 -0.0692 -0.1198
  586TMC3     C 8689   1.213   3.144  17.651 -0.5576 -0.1586  0.2715
  586TMC3     O 8690   1.293   3.187  17.572 -0.1071  0.2464 -0.3715
  586TMC3     H 8691   1.169   3.083  17.391 -0.1121 -0.8580 -0.1193
  586TMC3    H1 8692   1.002   3.048   0.105 -1.4756 -0.9089  0.0956
  586TMC3    H2 8693   0.754   3.022  17.437  0.0612 -1.7295  1.2149
  586TMC3    C7 8694   0.764   2.975   0.013 -0.3215 -0.4766  0.4778
  586TMC3    C8 8695   0.963   2.962  17.295 -0.1322 -0.2018  0.2635
  586TMC3    O1 8696   0.694   2.898  17.629  0.9086 -0.2651 -0.6278
  586TMC3    O2 8697   0.884   2.870  17.306  0.4766  0.0285  0.2267
  587TMC3    C1 8698   3.231   1.911  16.633 -0.0992  0.7697 -0.4522
  587TMC3    C2 8699   3.268   2.028  16.568  0.6991 -0.0851 -0.3106
  587TMC3    C3 8700   3.392   2.025  16.503  0.0361 -0.4914 -0.2646
  587TMC3    C4 8701   3.312   1.799  16.644  0.6959 -0.1231  0.0290
  587TMC3    C5 8702   3.436   1.801  16.580  0.1143  0.5664 -1.2092
  587TMC3    C6 8703   3.470   1.910  16.502  0.0907 -0.7856 -0.6901
  587TMC3     C 8704   3.116   1.904  16.718 -0.4909  0.1344 -0.3972
  587TMC3     O 8705   3.121   1.834  16.818  0.4846 -0.2665 -0.2897
  587TMC3     H 8706   3.198   2.108  16.548 -1.3986 -1.7287  0.4796
  587TMC3    H1 8707   3.270   1.713  16.694  2.3674  0.1396  1.8618
  587TMC3    H2 8708   3.563   1.908  16.447  0.7242  0.5741  0.3494
  587TMC3    C7 8709   3.521   1.682  16.590 -0.3167  0.7581 -0.3270
  587TMC3    C8 8710   3.436   2.129  16.413 -0.3396  0.2845  0.0642
  587TMC3    O1 8711   3.465   1.577  16.614 -0.0404  0.5222 -0.9062
  587TMC3    O2 8712   3.487   2.089  16.309 -0.5886 -0.2656 -0.2335
  588TMC3    C1 8713   1.145   4.202   9.735 -0.7003 -0.0603  0.3306
  588TMC3    C2 8714   1.116   4.070   9.733 -0.2357 -0.0483 -0.4666
  588TMC3    C3 8715   1.170   3.992   9.827 -0.7420 -0.6841  0.2295
  588TMC3    C4 8716   1.224   4.258   9.830 -0.1458  1.4049  0.0932
  588TMC3    C5 8717   1.278   4.174   9.921 -0.1231  0.7387  0.3770
  588TMC3    C6 8718   1.265   4.040   9.914 -0.2135 -0.6228  0.2931
  588TMC3     C 8719   1.048   4.292   9.672  0.1147  0.2055 -0.0957
  588TMC3     O 8720   0.935   4.248   9.668 -0.4573 -0.0948 -0.2284
  588TMC3     H 8721   1.049   4.024   9.661  1.5047 -0.3798 -1.8763
  588TMC3    H1 8722   1.219   4.365   9.849  0.3000  1.5547 -0.6254
  588TMC3    H2 8723   1.305   3.965   9.980 -0.8045 -1.5618 -0.4149
  588TMC3    C7 8724   1.362   4.232  10.021  0.2284 -0.3237 -0.5154
  588TMC3    C8 8725   1.099   3.864   9.846 -0.6124  0.3694  0.7552
  588TMC3    O1 8726   1.384   4.176  10.127  0.1326  0.2600 -0.3958
  588TMC3    O2 8727   0.989   3.856   9.795 -0.5257  0.0366  0.0838
  589TMC3    C1 8728   0.008   1.565   0.996  0.0775 -0.3298 -0.4977
  589TMC3    C2 8729   0.110   1.543   1.089 -0.4471  0.2073 -0.1373
  589TMC3    C3 8730   0.182   1.425   1.078 -0.3170 -0.3860 -0.0038
  589TMC3    C4 8731   4.701   1.479   0.892  0.7063 -0.0993 -0.4175
  589TMC3    C5 8732   0.045   1.363   0.893 -0.5215 -0.2750  0.3211
  589TMC3    C6 8733   0.144   1.335   0.982 -0.2886 -0.3420  0.1265
  589TMC3     C 8734   4.627   1.662   1.033  0.3221 -0.2372 -0.7465
  589TMC3     O 8735   4.531   1.675   0.959  0.0691  0.3467  0.2564
  589TMC3     H 8736   0.142   1.614   1.164 -3.4187  0.8711  0.4791
  589TMC3    H1 8737   4.611   1.492   0.833  1.2418  0.6641 -1.0816
  589TMC3    H2 8738   0.182   1.234   0.991 -1.1243 -0.8410 -1.7655
  589TMC3    C7 8739   0.006   1.252   0.802  0.2385  0.7018  0.5743
  589TMC3    C8 8740   0.253   1.367   1.188  0.0084 -0.1609  0.8189
  589TMC3    O1 8741   0.045   1.144   0.835 -0.2552  0.4401  0.0261
  589TMC3    O2 8742   0.223   1.425   1.291  0.1451 -0.0750  0.5969
  590MPD2     C 8743   4.579   0.429  16.801 -0.6001  0.3771  0.7838
  590MPD2    C1 8744   4.560   0.562  16.769 -0.3905  0.1690  0.0408
  590MPD2    C2 8745   4.671   0.641  16.725 -0.9174  0.4270 -0.5167
  590MPD2    C3 8746   0.080   0.575  16.709  0.4860  0.0832  0.1731
  590MPD2    C4 8747   0.092   0.444  16.735  0.3754  0.2012 -0.0175
  590MPD2    C5 8748   4.703   0.369  16.779 -0.0235 -0.2857  0.4402
  590MPD2     H 8749   4.660   0.745  16.696 -2.4516  0.0391 -1.3593
  590MPD2    H1 8750   0.191   0.402  16.724  0.0158 -1.2436  2.2330
  590MPD2    H2 8751   4.508   0.374  16.863 -0.5451  2.4212  2.6661
  590MPD2    H3 8752   0.003   0.266  16.806  2.1595  0.1881  0.6722
  590MPD2     N 8753   0.178   0.655  16.642 -0.5816 -0.1419 -0.2565
  590MPD2    H5 8754   0.152   0.750  16.621 -2.0320 -0.0920  1.7160
  590MPD2    N1 8755   4.429   0.609  16.787  0.2283 -0.1636  1.1241
  590MPD2    H7 8756   4.349   0.548  16.803 -0.6812  0.7919  0.2079
  591TMC3    C1 8757   0.365   0.684  16.488  0.6357  0.2002  0.4645
  591TMC3    C2 8758   0.382   0.613  16.374  0.3179  0.1596 -0.0404
  591TMC3    C3 8759   0.357   0.666  16.253 -0.3039 -0.0648  0.2399
  591TMC3    C4 8760   0.313   0.814  16.471  0.1111  0.2564 -0.3490
  591TMC3    C5 8761   0.300   0.873  16.353  0.0224 -0.7532 -0.3080
  591TMC3    C6 8762   0.327   0.797  16.235  0.9658  0.4459 -0.1355
  591TMC3     C 8763   0.304   0.608  16.595 -0.0153 -0.4447 -0.4785
  591TMC3     O 8764   0.358   0.505  16.613  0.0509 -0.4930  0.3041
  591TMC3     H 8765   0.417   0.510  16.376  0.2021  0.0763 -2.2403
  591TMC3    H1 8766   0.274   0.869  16.556 -2.0632 -2.3831  0.3625
  591TMC3    H2 8767   0.317   0.849  16.141 -0.1823 -0.9415 -0.7792
  591TMC3    C7 8768   0.188   0.965  16.346  0.2868 -0.0106  0.2728
  591TMC3    C8 8769   0.377   0.580  16.138  0.0176 -0.5936 -0.1849
  591TMC3    O1 8770   0.093   0.946  16.421 -0.4366 -0.3684  0.0903
  591TMC3    O2 8771   0.454   0.485  16.131  0.0053 -0.4608  0.1943
  592MPD2     C 8772   0.017   2.949  11.697  0.1383  0.1628  0.3351
  592MPD2    C1 8773   0.038   2.938  11.832 -0.0441  0.3297 -0.1629
  592MPD2    C2 8774   4.681   2.850  11.912  0.9131  0.4219 -0.1863
  592MPD2    C3 8775   4.582   2.787  11.848 -0.0982 -0.3392 -1.2555
  592MPD2    C4 8776   4.556   2.795  11.711  0.4075 -0.3697 -0.8218
  592MPD2    C5 8777   4.634   2.877  11.639 -0.3631 -0.2848  0.3331
  592MPD2     H 8778   4.709   2.839  12.016  0.0229  1.2465  0.1473
  592MPD2    H1 8779   4.474   2.747  11.659 -0.2323  1.0650 -1.1437
  592MPD2    H2 8780   0.075   3.005  11.625 -0.0030 -0.7815 -0.5110
  592MPD2    H3 8781   4.615   2.877  11.533  0.9576 -1.6095  0.0976
  592MPD2     N 8782   4.502   2.698  11.926 -0.2307 -0.2679 -0.0796
  592MPD2    H5 8783   4.534   2.674  12.019  0.5674  1.8030  0.1978
  592MPD2    N1 8784   0.143   3.013  11.891 -0.2339 -0.0936  0.4398
  592MPD2    H7 8785   0.193   3.068  11.822  3.5168  0.2059  3.4089
  593TMC3    C1 8786   0.315   3.079  12.041  0.2123 -0.0832  0.8120
  593TMC3    C2 8787   0.347   3.138  12.156  0.2747  0.2700 -0.1921
  593TMC3    C3 8788   0.478   3.166  12.183 -0.7101 -0.4836 -0.2518
  593TMC3    C4 8789   0.410   3.063  11.939 -0.2463 -0.4368  0.3716
  593TMC3    C5 8790   0.531   3.115  11.963  0.3957  0.0713 -0.3764
  593TMC3    C6 8791   0.576   3.153  12.087  0.1944 -0.3997 -0.2199
  593TMC3     C 8792   0.183   3.022  12.025  0.2807 -0.3298 -0.0165
  593TMC3     O 8793   0.125   2.965  12.117  0.2471 -0.0031 -0.0582
  593TMC3     H 8794   0.280   3.128  12.241 -0.6750  2.3481 -0.6768
  593TMC3    H1 8795   0.378   3.026  11.843 -0.3773  2.0653 -0.5593
  593TMC3    H2 8796   0.683   3.170  12.100  0.5514 -0.7719 -2.7185
  593TMC3    C7 8797   0.626   3.133  11.853 -0.3391  0.0633  0.1446
  593TMC3    C8 8798   0.514   3.165  12.322  0.5343 -0.1067  0.6563
  593TMC3    O1 8799   0.721   3.211  11.860 -0.6644 -0.2806 -0.4350
  593TMC3    O2 8800   0.429   3.126  12.407 -0.1254  0.3114 -0.7798
  594MPD2     C 8801   3.396   1.138  13.988  0.7736  0.1282 -0.1879
  594MPD2    C1 8802   3.424   1.096  14.115 -0.2470 -0.0693 -0.7974
  594MPD2    C2 8803   3.496   1.181  14.198  0.4663  0.2340 -0.0362
  594MPD2    C3 8804   3.564   1.290  14.148  0.4160  0.0258 -0.1306
  594MPD2    C4 8805   3.556   1.316  14.015 -0.1825 -0.4255  0.0194
  594MPD2    C5 8806   3.461   1.252  13.941 -0.4074  0.3372 -0.1932
  594MPD2     H 8807   3.496   1.156  14.304  1.8168  0.3966  0.0003
  594MPD2    H1 8808   3.609   1.397  13.968  0.0499 -0.6712 -0.1463
  594MPD2    H2 8809   3.336   1.077  13.922 -0.6329  2.1316 -0.7492
  594MPD2    H3 8810   3.441   1.283  13.839 -2.0827  1.0065  0.3388
  594MPD2     N 8811   3.626   1.378  14.236  0.1219 -0.2749  0.4803
  594MPD2    H5 8812   3.632   1.346  14.332  1.0735 -0.8423  0.2370
  594MPD2    N1 8813   3.358   0.984  14.156  0.2039  0.6062  0.1886
  594MPD2    H7 8814   3.307   0.935  14.083 -1.4318 -0.3090  1.9432
  595TMC3    C1 8815   3.922   1.708  14.408 -0.3676 -0.1499 -0.2888
  595TMC3    C2 8816   3.871   1.629  14.307  0.1042 -0.8723  0.6824
  595TMC3    C3 8817   3.753   1.565  14.314  0.3164  0.1581 -0.1436
  595TMC3    C4 8818   3.844   1.733  14.515  0.3450  0.2022  0.1565
  595TMC3    C5 8819   3.717   1.681  14.511 -0.2624 -0.7569 -0.5837
  595TMC3    C6 8820   3.670   1.593  14.417  0.0465 -0.1502  0.4549
  595TMC3     C 8821   4.035   1.794  14.396 -0.5832 -0.7451 -0.1577
  595TMC3     O 8822   4.070   1.859  14.493  0.6172  0.1052 -0.4739
  595TMC3     H 8823   3.939   1.613  14.224 -0.6287 -1.8272  0.2696
  595TMC3    H1 8824   3.878   1.796  14.595  0.5158  0.5109 -0.1576
  595TMC3    H2 8825   3.567   1.562  14.406 -0.4006  1.5984 -0.4450
  595TMC3    C7 8826   3.636   1.688  14.637  0.2746  0.4459 -0.2613
  595TMC3    C8 8827   3.695   1.492  14.198 -0.3748 -0.3563 -0.4080
  595TMC3    O1 8828   3.516   1.679  14.624  0.1048 -0.3168  0.3103
  595TMC3    O2 8829   3.705   1.555  14.092 -0.0520 -0.1824  0.4792
  596MPD2     C 8830   2.686   3.986  16.649 -1.2533  0.7998  0.2335
  596MPD2    C1 8831   2.700   4.115  16.605 -0.1098  0.4042 -0.2531
  596MPD2    C2 8832   2.710   4.147  16.468 -0.4712 -0.0882  1.0186
  596MPD2    C3 8833   2.683   4.046  16.380 -0.1231 -0.2608  0.5116
  596MPD2    C4 8834   2.655   3.916  16.423 -0.3047 -0.2097  0.3856
  596MPD2    C5 8835   2.663   3.894  16.562  0.2486 -0.1479 -0.1526
  596MPD2     H 8836   2.744   4.243  16.429 -0.2445 -0.8104 -0.5805
  596MPD2    H1 8837   2.625   3.840  16.352 -1.1233  0.0928  0.4056
  596MPD2    H2 8838   2.687   3.953  16.752  1.0249  1.5743  0.4696
  596MPD2    H3 8839   2.641   3.799  16.610 -1.7477  0.2039 -0.3627
  596MPD2     N 8840   2.681   4.058  16.235 -0.0940 -0.5195  0.4441
  596MPD2    H5 8841   2.672   3.974  16.180  0.0671  0.0420 -0.4442
  596MPD2    N1 8842   2.721   4.216  16.694  0.0995 -0.0442 -0.7557
  596MPD2    H7 8843   2.739   4.307  16.651 -0.0690  0.4920  0.3024
  597TMC3    C1 8844   2.759   4.335  16.891  0.2834 -0.6821 -0.2020
  597TMC3    C2 8845   2.855   4.400  16.821 -0.2411 -0.2438  0.3992
  597TMC3    C3 8846   2.864   4.535  16.825  0.5045  0.0574 -0.2042
  597TMC3    C4 8847   2.673   4.403  16.969  0.5286  0.0373  0.5230
  597TMC3    C5 8848   2.684   4.537  16.977 -0.4635  0.3917  0.3296
  597TMC3    C6 8849   2.778   4.607  16.910 -0.3415  0.4566 -0.0656
  597TMC3     C 8850   2.713   4.211  16.836  0.0342  0.8574  0.0058
  597TMC3     O 8851   2.667   4.123  16.909  0.6879  0.3515  0.3073
  597TMC3     H 8852   2.934   4.342  16.773  0.5922  1.0692  0.1848
  597TMC3    H1 8853   2.594   4.352  17.023  0.0799  0.5324  0.3314
  597TMC3    H2 8854   2.790   4.714  16.918  0.0924  0.4388 -0.5282
  597TMC3    C7 8855   2.588   4.609  17.059 -0.1514  0.2053 -0.0751
  597TMC3    C8 8856   2.984   4.611  16.795  0.4552  0.2990 -0.5519
  597TMC3    O1 8857   2.512   4.540  17.123  0.0162 -0.0653 -0.9640
  597TMC3    O2 8858   2.961   0.006  16.766  0.1968  0.4555 -0.4038
  598TMC3    C1 8859   0.927   0.996  15.218  0.1902 -0.6903  0.7696
  598TMC3    C2 8860   0.797   0.941  15.234  0.9087 -0.4740 -0.3810
  598TMC3    C3 8861   0.710   0.960  15.125  0.6437  0.0125 -0.0833
  598TMC3    C4 8862   0.968   1.070  15.109 -0.3495 -0.7089  0.3750
  598TMC3    C5 8863   0.884   1.070  15.001 -0.2108 -0.2864 -0.5261
  598TMC3    C6 8864   0.759   1.022  15.008 -0.0114  0.1001  0.2036
  598TMC3     C 8865   1.025   0.983  15.324  0.8174  0.1437 -0.0904
  598TMC3     O 8866   1.117   1.062  15.325  0.4220  0.6381 -0.1296
  598TMC3     H 8867   0.772   0.878  15.319  0.2783  2.4337  1.5831
  598TMC3    H1 8868   1.071   1.104  15.105 -0.9159  0.6751 -2.7188
  598TMC3    H2 8869   0.693   1.023  14.921 -1.0360  2.4567  1.0225
  598TMC3    C7 8870   0.926   1.130  14.873  0.7908 -0.4546  0.0280
  598TMC3    C8 8871   0.584   0.894  15.107  0.0660 -1.1915  0.5398
  598TMC3    O1 8872   0.856   1.096  14.779 -0.2704 -0.7415 -0.3288
  598TMC3    O2 8873   0.547   0.862  14.994 -0.1428  0.3331 -0.0041
  599MPD2     C 8874   0.936   3.632  15.973 -0.0949  0.0965  0.3941
  599MPD2    C1 8875   0.906   3.510  16.021  0.0858 -0.0510  0.6644
  599MPD2    C2 8876   0.800   3.491  16.102  0.5134 -0.8492 -0.0092
  599MPD2    C3 8877   0.727   3.595  16.155  0.2951  0.3496  0.0731
  599MPD2    C4 8878   0.769   3.720  16.113 -0.1377 -0.9687 -0.1934
  599MPD2    C5 8879   0.870   3.738  16.023  0.3979 -0.7399 -0.1908
  599MPD2     H 8880   0.771   3.389  16.125 -2.0681 -0.6311 -2.2960
  599MPD2    H1 8881   0.729   3.813  16.151  3.9567  0.1025  1.4558
  599MPD2    H2 8882   1.016   3.641  15.901 -1.2691  0.0890 -0.9194
  599MPD2    H3 8883   0.898   3.834  15.981  0.2204  0.7443  3.1008
  599MPD2     N 8884   0.629   3.583  16.252  0.1042  0.0138 -0.1281
  599MPD2    H5 8885   0.582   3.669  16.278 -2.3962 -0.8715 -1.7695
  599MPD2    N1 8886   0.971   3.412  15.949  0.3900  0.3950 -0.0296
  599MPD2    H7 8887   1.028   3.444  15.871 -0.9261 -0.7773 -1.4767
  600TMC3    C1 8888   0.459   3.480  16.381  0.2365  0.5170  0.0043
  600TMC3    C2 8889   0.386   3.360  16.391 -0.1355  0.7025 -0.0493
  600TMC3    C3 8890   0.297   3.347  16.494 -0.5279  0.0377 -0.1478
  600TMC3    C4 8891   0.426   3.584  16.454 -0.1953  0.8327  0.4236
  600TMC3    C5 8892   0.321   3.570  16.548 -0.2329 -0.6551  0.6023
  600TMC3    C6 8893   0.262   3.448  16.576 -0.4664  0.0515  0.9895
  600TMC3     C 8894   0.581   3.464  16.301  0.4839 -0.7729  0.1822
  600TMC3     O 8895   0.617   3.345  16.280 -0.0187  0.2749 -0.7218
  600TMC3     H 8896   0.391   3.278  16.320  1.7001  0.0749  0.8020
  600TMC3    H1 8897   0.489   3.672  16.455  0.5331  0.3013  0.8181
  600TMC3    H2 8898   0.185   3.439  16.652 -0.2957  0.2019  1.1819
  600TMC3    C7 8899   0.303   3.682  16.637  0.5889 -0.1918 -0.1138
  600TMC3    C8 8900   0.282   3.212  16.540 -0.9123 -0.7872  0.0036
  600TMC3    O1 8901   0.251   3.662  16.745  0.0544  0.4684 -0.4128
  600TMC3    O2 8902   0.255   3.129  16.454 -0.0129 -0.0481  0.3595
  601MPD2     C 8903   2.961   1.810   0.506 -0.7230 -0.2031 -0.1419
  601MPD2    C1 8904   2.880   1.744   0.415  0.6071  0.4043  0.0946
  601MPD2    C2 8905   2.857   1.609   0.440  0.0505  0.1594 -0.1488
  601MPD2    C3 8906   2.933   1.539   0.533 -0.6268  0.0432  0.4458
  601MPD2    C4 8907   3.019   1.608   0.612 -0.3325 -0.0485 -0.8815
  601MPD2    C5 8908   3.030   1.743   0.604  0.1104  0.0765 -0.2969
  601MPD2     H 8909   2.791   1.553   0.374  1.0671 -1.1041 -0.1009
  601MPD2    H1 8910   3.082   1.552   0.681  0.4487 -0.9558 -2.3383
  601MPD2    H2 8911   2.979   1.916   0.491  0.0148 -0.2899  0.1341
  601MPD2    H3 8912   3.094   1.793   0.677 -0.9585  0.5449  0.3168
  601MPD2     N 8913   2.927   1.397   0.545 -0.4035 -0.1955 -0.4673
  601MPD2    H5 8914   2.985   1.354   0.617 -1.2980  0.5076  0.6566
  601MPD2    N1 8915   2.808   1.805   0.312 -0.3244  0.0297  0.6328
  601MPD2    H7 8916   2.773   1.741   0.242  0.8406 -1.2992  1.2774
  602TMC3    C1 8917   2.728   1.983   0.167  1.2358 -0.2331 -0.6418
  602TMC3    C2 8918   2.736   2.113   0.143  0.1366  0.3565  0.7490
  602TMC3    C3 8919   2.669   2.164   0.032 -0.0838  0.4905  0.7291
  602TMC3    C4 8920   2.650   1.901   0.099 -0.2485 -0.0513  0.0036
  602TMC3    C5 8921   2.577   1.959  17.673 -0.6361 -0.1944  0.1754
  602TMC3    C6 8922   2.582   2.089  17.639  0.0070  0.3451  0.2754
  602TMC3     C 8923   2.794   1.941   0.293  0.4697  0.0889 -0.3506
  602TMC3     O 8924   2.832   2.030   0.366  0.7857 -0.1719  0.5080
  602TMC3     H 8925   2.804   2.177   0.198  1.6067 -1.6195  1.2022
  602TMC3    H1 8926   2.639   1.795   0.118 -0.2970 -0.1556 -0.5856
  602TMC3    H2 8927   2.530   2.135  17.556  1.1606 -1.3367 -1.3962
  602TMC3    C7 8928   2.473   1.880  17.607 -0.1324 -0.0686 -0.4020
  602TMC3    C8 8929   2.668   2.310   0.021  0.0506 -0.1393 -0.1742
  602TMC3    O1 8930   2.481   1.764  17.572  0.1907  0.0557  0.0866
  602TMC3    O2 8931   2.759   2.380   0.063 -0.5189  0.5182  0.1151
  603TMC3    C1 8932   0.986   2.092  10.984  0.2568 -0.0114 -0.2968
  603TMC3    C2 8933   1.062   2.073  11.101 -0.2359  0.7494 -0.0110
  603TMC3    C3 8934   1.117   2.187  11.152 -0.1363 -0.0852  0.3742
  603TMC3    C4 8935   0.975   2.221  10.928  0.1111 -0.2932  0.0420
  603TMC3    C5 8936   1.042   2.327  10.981  0.9874 -0.5340 -0.8739
  603TMC3    C6 8937   1.110   2.309  11.097 -0.0353  0.0926 -0.2809
  603TMC3     C 8938   0.962   1.977  10.903 -0.2297 -0.0323  0.4650
  603TMC3     O 8939   0.880   1.992  10.811 -0.6083 -0.2216 -0.2561
  603TMC3     H 8940   1.067   1.975  11.147  0.8703 -0.0795 -1.9057
  603TMC3    H1 8941   0.931   2.221  10.829 -0.4427  2.1951  0.2816
  603TMC3    H2 8942   1.148   2.396  11.150 -0.7668 -0.0027  0.4066
  603TMC3    C7 8943   1.034   2.464  10.922 -0.0464 -0.2521  0.0804
  603TMC3    C8 8944   1.151   2.166  11.288 -0.0843  0.0961 -0.2415
  603TMC3    O1 8945   1.093   2.553  10.977 -1.0760 -0.1140 -0.1676
  603TMC3    O2 8946   1.084   2.084  11.347  0.2574  0.0175 -0.5849
  604MPD2     C 8947   1.918   0.886  15.964 -0.3569  0.5566  0.1746
  604MPD2    C1 8948   1.849   0.776  16.015  0.2931  0.2017  0.1673
  604MPD2    C2 8949   1.856   0.660  15.947  0.0368 -0.1056 -0.1399
  604MPD2    C3 8950   1.933   0.655  15.830 -0.5762 -0.2637 -0.6364
  604MPD2    C4 8951   2.012   0.760  15.788  0.3515 -0.8419  0.3788
  604MPD2    C5 8952   2.001   0.872  15.857 -0.6136 -0.3290 -0.5277
  604MPD2     H 8953   1.821   0.569  15.995 -0.3808 -0.3666 -0.9417
  604MPD2    H1 8954   2.081   0.760  15.704  1.9120 -1.1439  1.6531
  604MPD2    H2 8955   1.917   0.979  16.019  0.3300 -0.2422  1.5471
  604MPD2    H3 8956   2.052   0.961  15.822  0.8668 -1.7988 -2.1031
  604MPD2     N 8957   1.931   0.523  15.775 -0.5394 -0.3583  0.0438
  604MPD2    H5 8958   1.864   0.451  15.802  0.1519 -1.0612 -0.0992
  604MPD2    N1 8959   1.798   0.793  16.141 -0.5970 -0.4214  0.7758
  604MPD2    H7 8960   1.810   0.884  16.184 -0.6888 -1.1965  2.4526
  605TMC3    C1 8961   1.665   0.773  16.318  0.1117 -0.2191  0.3398
  605TMC3    C2 8962   1.741   0.855  16.394  0.3347 -0.1243  1.0005
  605TMC3    C3 8963   1.674   0.934  16.486 -0.8058  0.0437  0.6583
  605TMC3    C4 8964   1.529   0.763  16.321 -0.3749  0.4080  0.0691
  605TMC3    C5 8965   1.469   0.853  16.403 -0.3150 -0.5243 -0.2105
  605TMC3    C6 8966   1.538   0.934  16.495  0.5600 -0.0145  0.0595
  605TMC3     C 8967   1.729   0.703  16.208  0.5372 -0.3870 -0.5287
  605TMC3     O 8968   1.666   0.613  16.156 -0.1865 -0.5630 -0.0775
  605TMC3     H 8969   1.850   0.857  16.399  0.3083 -1.4058  2.0465
  605TMC3    H1 8970   1.471   0.701  16.255 -0.2610  0.6111 -0.2224
  605TMC3    H2 8971   1.477   0.992  16.562  0.2028  0.1922 -0.4453
  605TMC3    C7 8972   1.327   0.876  16.378 -0.2820  0.6140  0.0967
  605TMC3    C8 8973   1.744   1.036  16.557 -0.0919  0.3494 -0.9143
  605TMC3    O1 8974   1.258   0.920  16.469 -0.2249 -0.0005 -0.1749
  605TMC3    O2 8975   1.867   1.021  16.558  0.0337 -0.6748  0.4582
  606TMC3    C1 8976   3.798   4.056  17.291  0.7455 -0.5406  0.4339
  606TMC3    C2 8977   3.738   4.049  17.414  0.0645 -0.1596 -0.3240
  606TMC3    C3 8978   3.624   3.977  17.424 -0.3548 -0.5074 -0.2287
  606TMC3    C4 8979   3.737   3.999  17.184 -0.8207  0.9457  0.1879
  606TMC3    C5 8980   3.628   3.923  17.205  0.1801 -0.0728 -0.7482
  606TMC3    C6 8981   3.567   3.911  17.320  0.5341  0.4918 -0.5332
  606TMC3     C 8982   3.896   4.158  17.267 -0.3711 -0.2922 -0.2507
  606TMC3     O 8983   3.948   4.152  17.155 -0.3478 -0.9443  0.1692
  606TMC3     H 8984   3.768   4.111  17.498 -2.6599 -0.7905  1.0955
  606TMC3    H1 8985   3.769   4.024  17.083 -2.4047  3.0712  0.2191
  606TMC3    H2 8986   3.503   3.829  17.351  1.7166 -0.2331 -0.0063
  606TMC3    C7 8987   3.585   3.862  17.083  0.1357 -0.7202  0.9706
  606TMC3    C8 8988   3.584   3.924  17.555  0.1424  0.1020 -0.3647
  606TMC3    O1 8989   3.639   3.882  16.978  0.4345 -0.5682  0.2280
  606TMC3    O2 8990   3.480   3.872  17.591  0.6062  0.7202  0.0838
  607MPD2     C 8991   0.102   2.113  12.062 -0.1341  0.5163  0.8968
  607MPD2    C1 8992   0.135   2.191  12.172 -0.1101 -0.5680 -0.0042
  607MPD2    C2 8993   0.142   2.129  12.299  0.0875 -0.0648  0.1801
  607MPD2    C3 8994   0.128   1.991  12.314 -0.3602 -0.7434  0.3089
  607MPD2    C4 8995   0.108   1.915  12.198  0.2202  0.3037  0.4369
  607MPD2    C5 8996   0.103   1.976  12.074 -0.4118 -1.1815  0.9087
  607MPD2     H 8997   0.161   2.181  12.392  1.1374 -1.6848  0.8741
  607MPD2    H1 8998   0.106   1.807  12.202  0.8809  0.3461  2.2926
  607MPD2    H2 8999   0.095   2.152  11.961  0.7150  0.3775  0.7766
  607MPD2    H3 9000   0.089   1.907  11.991  0.4256 -1.7672  1.2606
  607MPD2     N 9001   0.148   1.935  12.436 -0.5382 -0.5275 -0.7018
  607MPD2    H5 9002   0.188   2.002  12.502  0.6003 -1.4535 -0.4444
  607MPD2    N1 9003   0.148   2.328  12.154  0.3731  0.3291  0.3445
  607MPD2    H7 9004   0.121   2.375  12.069  0.5496 -0.3506 -0.0908
  608TMC3    C1 9005   0.179   2.551  12.223  0.0943  0.1820  0.2422
  608TMC3    C2 9006   0.148   2.631  12.333  0.1084  0.1681  0.5606
  608TMC3    C3 9007   0.231   2.731  12.365 -0.7711  0.5129  0.2928
  608TMC3    C4 9008   0.281   2.585  12.141  0.1019 -0.0948  0.2958
  608TMC3    C5 9009   0.359   2.692  12.172  0.6729 -0.1628 -0.3014
  608TMC3    C6 9010   0.329   2.769  12.281 -0.3363 -0.4750 -0.2657
  608TMC3     C 9011   0.165   2.417  12.260 -0.5330 -0.3408 -0.3873
  608TMC3     O 9012   0.147   2.399  12.377  0.5450  0.2502  0.2244
  608TMC3     H 9013   0.072   2.591  12.399 -0.9213  1.4629  0.1444
  608TMC3    H1 9014   0.297   2.522  12.054  3.3514  1.9578 -0.5905
  608TMC3    H2 9015   0.386   2.857  12.310  0.2082 -0.5570 -1.0931
  608TMC3    C7 9016   0.477   2.726  12.090 -0.1804 -0.2430 -0.2921
  608TMC3    C8 9017   0.277   2.735  12.497 -0.8585 -0.1795 -0.3934
  608TMC3    O1 9018   0.482   2.680  11.977  0.3425 -0.1448 -0.0061
  608TMC3    O2 9019   0.353   2.828  12.531  0.1299 -0.1520  0.2101
  609TMC3    C1 9020   4.539   0.805   8.847  0.8260  1.3898  0.6151
  609TMC3    C2 9021   4.609   0.790   8.726  0.4319  0.2247  0.2553
  609TMC3    C3 9022   0.029   0.799   8.742 -0.9718 -0.0797 -0.1541
  609TMC3    C4 9023   4.597   0.836   8.966 -0.2477  0.3921 -0.0793
  609TMC3    C5 9024   0.017   0.830   8.974 -0.1212  0.2631  0.4008
  609TMC3    C6 9025   0.093   0.820   8.861  0.1614 -0.0174  0.4130
  609TMC3     C 9026   4.394   0.809   8.853 -0.7939 -0.2990  0.2473
  609TMC3     O 9027   4.338   0.872   8.941  0.5407  0.2550 -0.6911
  609TMC3     H 9028   4.566   0.789   8.627 -3.4139  2.0518  1.9343
  609TMC3    H1 9029   4.553   0.844   9.065 -0.2767  0.7411 -0.1197
  609TMC3    H2 9030   0.200   0.833   8.869  0.4607 -1.4481 -1.4027
  609TMC3    C7 9031   0.070   0.782   9.095  0.4333 -0.3352  0.0737
  609TMC3    C8 9032   0.109   0.795   8.621 -0.7039  0.6071  0.0893
  609TMC3    O1 9033   0.022   0.842   9.192  0.2558  0.0399  0.6181
  609TMC3    O2 9034   0.217   0.851   8.628 -0.1864 -0.0143  0.2413
  610TMC3    C1 9035   1.186   2.240  12.377  0.2009  0.1582  0.2772
  610TMC3    C2 9036   1.286   2.263  12.296  0.0968 -0.1801 -0.0181
  610TMC3    C3 9037   1.393   2.177  12.286 -0.1084 -0.9477  0.5819
  610TMC3    C4 9038   1.187   2.113  12.432 -0.5870  0.4957  0.0075
  610TMC3    C5 9039   1.296   2.025  12.417  0.0327  0.1944  0.0867
  610TMC3    C6 9040   1.405   2.062  12.353  0.3049  0.5427  0.7941
  610TMC3     C 9041   1.059   2.311  12.367  0.0617  0.0860 -0.1480
  610TMC3     O 9042   1.076   2.428  12.330 -0.3373  0.4188  0.1907
  610TMC3     H 9043   1.286   2.360  12.248  2.1856  0.0433  0.4345
  610TMC3    H1 9044   1.108   2.106  12.506  2.0277 -2.1949  2.5334
  610TMC3    H2 9045   1.487   1.995  12.329  1.5875  2.0653  0.8732
  610TMC3    C7 9046   1.292   1.883  12.460  0.1941  0.1316  0.1052
  610TMC3    C8 9047   1.516   2.220  12.210 -0.0779 -1.4139 -0.2111
  610TMC3    O1 9048   1.391   1.815  12.437 -0.3644  0.4000 -0.0159
  610TMC3    O2 9049   1.601   2.134  12.184  0.1111  0.1499  0.0432
  611MPD2     C 9050   0.275   1.988  10.320 -0.0145  0.1307  0.1165
  611MPD2    C1 9051   0.197   2.099  10.293 -0.4128 -0.8737  0.9116
  611MPD2    C2 9052   0.255   2.212  10.242  0.1875 -0.0268  0.5429
  611MPD2    C3 9053   0.394   2.223  10.238 -0.4804 -0.0258  0.4575
  611MPD2    C4 9054   0.471   2.112  10.273  0.4218  0.4399  0.4857
  611MPD2    C5 9055   0.414   1.993  10.313  0.0428  0.5152 -0.2673
  611MPD2     H 9056   0.198   2.300  10.212 -3.1698 -2.3250  0.2438
  611MPD2    H1 9057   0.579   2.121  10.273  0.5824 -1.3003  0.5946
  611MPD2    H2 9058   0.226   1.898  10.354 -1.8250  2.4106  3.5591
  611MPD2    H3 9059   0.474   1.907  10.340  0.2916  0.6388 -0.4266
  611MPD2     N 9060   0.449   2.349  10.203 -0.2747  0.5647 -0.5453
  611MPD2    H5 9061   0.549   2.350  10.223 -0.0616  0.2314 -1.6096
  611MPD2    N1 9062   0.057   2.083  10.316  0.9400 -0.2763 -0.5967
  611MPD2    H7 9063   0.029   1.989  10.341 -2.0114  1.4167  2.4277
  612TMC3    C1 9064   0.455   2.575  10.143 -0.2752  0.9119  0.0901
  612TMC3    C2 9065   0.554   2.600  10.230  0.3340  0.0440  0.0672
  612TMC3    C3 9066   0.591   2.729  10.245  0.1795  0.2824 -0.3257
  612TMC3    C4 9067   0.408   2.673  10.057 -0.0419 -0.2469 -0.2146
  612TMC3    C5 9068   0.451   2.802  10.065 -0.1734  0.0789 -0.7991
  612TMC3    C6 9069   0.523   2.830  10.173 -0.4104 -0.1757 -1.1290
  612TMC3     C 9070   0.386   2.449  10.134 -0.2425  0.2793 -0.4909
  612TMC3     O 9071   0.295   2.442  10.057  0.4794  0.9281 -0.0990
  612TMC3     H 9072   0.610   2.521  10.280 -1.6683 -2.4240 -1.5781
  612TMC3    H1 9073   0.333   2.644   9.984 -1.8549 -0.4342  1.7244
  612TMC3    H2 9074   0.529   2.931  10.213 -0.6849 -0.8256  0.5441
  612TMC3    C7 9075   0.377   2.921  10.020 -0.1354 -0.3381 -0.4932
  612TMC3    C8 9076   0.692   2.772  10.345 -0.7560 -0.3450  0.4271
  612TMC3    O1 9077   0.414   3.027  10.068  0.4114  0.3368  0.5270
  612TMC3    O2 9078   0.702   2.895  10.366 -0.4513  0.4170 -0.9147
  613MPD2     C 9079   3.948   0.005  16.820  0.5949 -0.0979 -0.0324
  613MPD2    C1 9080   3.966   4.630  16.718 -0.2961  0.1650 -0.6278
  613MPD2    C2 9081   3.944   4.496  16.739  0.2182  0.3096 -0.5220
  613MPD2    C3 9082   3.877   4.448  16.854  0.3245  0.3090 -0.4984
  613MPD2    C4 9083   3.843   4.546  16.950 -0.6076 -0.2489  0.4953
  613MPD2    C5 9084   3.877   4.681  16.927  0.7225  0.5250  0.8669
  613MPD2     H 9085   3.982   4.427  16.665  0.1409 -0.1157 -0.1652
  613MPD2    H1 9086   3.802   4.520  17.047  1.1347  0.0575  1.3071
  613MPD2    H2 9087   3.991   0.104  16.825  0.1658  0.1371 -1.0362
  613MPD2    H3 9088   3.845   0.030  17.005 -0.4736  0.9998 -0.0318
  613MPD2     N 9089   3.819   4.319  16.865  0.1060  0.1976  0.7131
  613MPD2    H5 9090   3.751   4.299  16.938 -1.8015  1.1872 -0.7881
  613MPD2    N1 9091   4.028   4.664  16.600  0.0214  0.3330  0.1076
  613MPD2    H7 9092   4.076   4.590  16.550  2.5627  1.2804  1.1341
  614TMC3    C1 9093   4.106   0.059  16.420 -0.0412  0.3708 -0.4368
  614TMC3    C2 9094   4.171   4.663  16.398  0.5559 -0.2724 -0.1110
  614TMC3    C3 9095   4.150   4.587  16.287  0.3133 -0.4314  0.1095
  614TMC3    C4 9096   4.024   0.116  16.324  0.0230  0.0551  0.8358
  614TMC3    C5 9097   4.005   0.040  16.215 -0.2085 -0.1473  0.2449
  614TMC3    C6 9098   4.068   4.637  16.184  0.3218  0.4325  0.2183
  614TMC3     C 9099   4.054   0.063  16.552  0.5878 -0.5793 -0.2112
  614TMC3     O 9100   3.983   0.166  16.571  0.6581  0.4152  0.2020
  614TMC3     H 9101   4.246   4.635  16.470 -0.1262 -1.4133  0.1579
  614TMC3    H1 9102   3.978   0.213  16.340  0.2721 -0.1064  2.5562
  614TMC3    H2 9103   4.031   4.580  16.100  1.1265 -0.4787  0.4875
  614TMC3    C7 9104   3.875   0.070  16.157 -0.3231  0.2252 -0.0306
  614TMC3    C8 9105   4.119   4.453  16.314  0.1161 -0.1212 -0.2668
  614TMC3    O1 9106   3.789   0.121  16.230 -0.2722  0.0647  0.0947
  614TMC3    O2 9107   4.114   4.428  16.432 -0.3083  0.2706  0.5604
  615MPD2     C 9108   3.494   1.081  16.443 -0.7150  0.1014 -0.3086
  615MPD2    C1 9109   3.406   1.126  16.358  0.4079 -0.2857 -0.0198
  615MPD2    C2 9110   3.317   1.041  16.308  0.2550  0.6415 -0.2847
  615MPD2    C3 9111   3.310   0.910  16.342 -0.5059 -0.8135 -0.1846
  615MPD2    C4 9112   3.397   0.863  16.427  1.0983 -0.2730 -0.4717
  615MPD2    C5 9113   3.483   0.952  16.485 -0.1603  0.8553  0.1238
  615MPD2     H 9114   3.256   1.078  16.226  0.1516 -2.4363 -1.5993
  615MPD2    H1 9115   3.393   0.760  16.462  2.1720 -0.8938 -2.1559
  615MPD2    H2 9116   3.570   1.141  16.492 -0.9068  0.5412 -0.5475
  615MPD2    H3 9117   3.560   0.917  16.552  0.8830 -0.4010 -1.7441
  615MPD2     N 9118   3.215   0.814  16.296 -0.7256  0.1645 -0.0256
  615MPD2    H5 9119   3.241   0.721  16.325  1.4634 -0.2305 -3.2527
  615MPD2    N1 9120   3.404   1.260  16.312 -0.5111 -0.0322 -0.1866
  615MPD2    H7 9121   3.320   1.291  16.265 -0.8852 -0.4062  0.2323
  616TMC3    C1 9122   3.499   1.483  16.279 -0.0925 -0.3697  0.7899
  616TMC3    C2 9123   3.610   1.543  16.224 -0.0604  0.0681  0.2694
  616TMC3    C3 9124   3.600   1.675  16.185 -0.1928  0.0357  0.1145
  616TMC3    C4 9125   3.374   1.546  16.279  0.6195 -0.0440  0.0613
  616TMC3    C5 9126   3.372   1.675  16.236  0.2686  0.0162 -0.3495
  616TMC3    C6 9127   3.482   1.746  16.191  0.0707  0.1176  0.0942
  616TMC3     C 9128   3.519   1.341  16.314 -0.2597  0.5137 -0.1021
  616TMC3     O 9129   3.634   1.305  16.317  0.1803 -0.4651 -0.3604
  616TMC3     H 9130   3.702   1.489  16.206  0.1164  0.2401  0.6848
  616TMC3    H1 9131   3.290   1.505  16.334 -0.6866  1.2839 -0.9343
  616TMC3    H2 9132   3.491   1.851  16.167  0.9757 -0.0384 -0.2692
  616TMC3    C7 9133   3.255   1.756  16.281  0.4197 -0.6999 -0.7799
  616TMC3    C8 9134   3.716   1.741  16.115  0.3249 -0.4480 -0.7410
  616TMC3    O1 9135   3.167   1.713  16.357  0.0579  0.2918 -0.7868
  616TMC3    O2 9136   3.685   1.834  16.044  0.5171 -0.3243 -0.2625
  617MPD2     C 9137   1.862   4.237  13.775  0.1005  0.0390  0.2244
  617MPD2    C1 9138   1.831   4.119  13.842 -0.1228 -0.0941  0.4709
  617MPD2    C2 9139   1.710   4.050  13.823 -0.3814 -0.0288 -0.3459
  617MPD2    C3 9140   1.631   4.087  13.717 -0.3273 -0.0002 -0.6227
  617MPD2    C4 9141   1.677   4.184  13.627  0.1589 -0.0364 -0.1166
  617MPD2    C5 9142   1.787   4.254  13.656  0.1119  0.2156 -0.5026
  617MPD2     H 9143   1.676   3.989  13.906  0.8301 -1.1248 -0.6436
  617MPD2    H1 9144   1.615   4.221  13.547  0.5286  1.6765  0.3770
  617MPD2    H2 9145   1.943   4.307  13.796 -0.9852  1.4397 -0.2524
  617MPD2    H3 9146   1.814   4.337  13.592 -2.2308  0.4254 -1.2131
  617MPD2     N 9147   1.507   4.030  13.695 -0.0269  0.2221 -0.3213
  617MPD2    H5 9148   1.457   4.048  13.609  2.7232  2.6076 -1.4248
  617MPD2    N1 9149   1.917   4.090  13.941  0.5462  0.2466  0.2196
  617MPD2    H7 9150   2.004   4.140  13.927 -0.0151  1.3162  0.5848
  618TMC3    C1 9151   2.028   3.986  14.115 -0.4075  0.5818 -0.7797
  618TMC3    C2 9152   2.113   3.876  14.130  0.4019 -0.0254 -0.6147
  618TMC3    C3 9153   2.238   3.894  14.176  0.4223 -0.2751 -0.2115
  618TMC3    C4 9154   2.059   4.099  14.167 -0.3110  0.0405  0.3565
  618TMC3    C5 9155   2.189   4.117  14.217 -0.3492  0.3497  0.2437
  618TMC3    C6 9156   2.276   4.014  14.238  0.0975  0.3363  0.8411
  618TMC3     C 9157   1.929   3.972  14.015  1.0186  0.0374 -0.2730
  618TMC3     O 9158   1.867   3.871  14.011  0.0961 -0.2512  0.1493
  618TMC3     H 9159   2.084   3.792  14.068  2.1374 -1.6657  0.7823
  618TMC3    H1 9160   1.992   4.182  14.146 -1.5919 -1.2301 -0.5876
  618TMC3    H2 9161   2.370   4.017  14.291  1.6460 -1.9746 -1.7482
  618TMC3    C7 9162   2.219   4.248  14.275  0.0742  0.3970 -0.7606
  618TMC3    C8 9163   2.343   3.813  14.114  0.5972 -0.2853 -0.1622
  618TMC3    O1 9164   2.126   4.277  14.345 -0.2358 -0.0792 -0.4259
  618TMC3    O2 9165   2.300   3.721  14.047  0.4795  0.3932  0.4166
  619MPD2     C 9166   3.241   0.759  13.477  0.1891  0.0631  1.1753
  619MPD2    C1 9167   3.112   0.811  13.456 -0.4009  0.4272 -0.5484
  619MPD2    C2 9168   3.023   0.740  13.381  0.6935  0.4141 -0.2415
  619MPD2    C3 9169   3.052   0.614  13.329 -0.5850 -0.6468  0.1444
  619MPD2    C4 9170   3.173   0.559  13.363  0.1196  0.3479  0.5683
  619MPD2    C5 9171   3.271   0.636  13.423  0.1561  0.1182 -0.0620
  619MPD2     H 9172   2.923   0.781  13.370 -0.3564 -1.8038  1.0395
  619MPD2    H1 9173   3.192   0.458  13.329  1.9904  1.2978 -1.2403
  619MPD2    H2 9174   3.318   0.815  13.529  1.5520  0.3555 -1.1784
  619MPD2    H3 9175   3.375   0.606  13.419  0.3457  0.6990  0.4904
  619MPD2     N 9176   2.966   0.532  13.248  0.6995  0.7514  0.3930
  619MPD2    H5 9177   3.013   0.462  13.191 -0.2858  0.0494  0.4440
  619MPD2    N1 9178   3.067   0.940  13.494 -0.4779 -0.0417  0.3884
  619MPD2    H7 9179   2.982   0.976  13.451  0.0446 -1.2238 -1.6364
  620TMC3    C1 9180   3.077   1.137  13.619 -0.7870 -0.8314  1.1129
  620TMC3    C2 9181   2.982   1.185  13.537  0.4654  0.1367 -0.3565
  620TMC3    C3 9182   2.892   1.263  13.594  0.4181 -0.6365  0.1399
  620TMC3    C4 9183   3.092   1.161  13.751 -0.3881 -0.5645  0.3541
  620TMC3    C5 9184   3.005   1.253  13.806  0.6742 -0.5084 -0.0042
  620TMC3    C6 9185   2.903   1.307  13.723 -0.3719  0.1373 -0.2036
  620TMC3     C 9186   3.142   1.022  13.580 -0.4141 -0.3977 -0.1599
  620TMC3     O 9187   3.251   1.000  13.635  0.3802 -0.2154 -0.2966
  620TMC3     H 9188   2.982   1.165  13.431  2.7417 -1.2338 -0.1071
  620TMC3    H1 9189   3.150   1.096  13.815 -1.0684  0.8599  2.4407
  620TMC3    H2 9190   2.831   1.378  13.761  0.2223  0.8374 -0.3813
  620TMC3    C7 9191   2.956   1.215  13.933  0.5723 -0.1283  0.3559
  620TMC3    C8 9192   2.758   1.257  13.554 -0.2214  0.2664 -0.0522
  620TMC3    O1 9193   3.030   1.163  14.018  0.2046  0.3570  0.2946
  620TMC3    O2 9194   2.668   1.235  13.638 -0.2853 -0.1474 -0.2531
  621MPD2     C 9195   3.717   0.446  10.527 -0.2703 -0.7949  0.2810
  621MPD2    C1 9196   3.629   0.471  10.423  0.9061  0.1544 -0.6568
  621MPD2    C2 9197   3.612   0.595  10.368  0.7511 -0.6343 -0.3889
  621MPD2    C3 9198   3.703   0.695  10.394 -0.8237 -0.5867  0.5183
  621MPD2    C4 9199   3.795   0.672  10.499 -0.1431 -0.8894  0.0996
  621MPD2    C5 9200   3.802   0.549  10.568 -0.7900 -0.3347 -0.3445
  621MPD2     H 9201   3.537   0.601  10.290  1.1167 -2.0336 -0.8346
  621MPD2    H1 9202   3.859   0.749  10.539  0.1979 -0.5632 -1.0961
  621MPD2    H2 9203   3.737   0.342  10.549  0.9409 -1.0364 -1.9905
  621MPD2    H3 9204   3.879   0.533  10.642 -1.4881  0.3712  0.5231
  621MPD2     N 9205   3.691   0.809  10.319  0.3858  0.3714 -0.2968
  621MPD2    H5 9206   3.624   0.809  10.243 -0.2728  2.2801  0.2767
  621MPD2    N1 9207   3.530   0.370  10.391 -0.5937 -0.3852  0.2162
  621MPD2    H7 9208   3.463   0.399  10.320  0.1270  1.4820  0.2954
  622TMC3    C1 9209   3.391   0.188  10.408 -0.6186 -0.9785 -0.4160
  622TMC3    C2 9210   3.282   0.270  10.401 -0.3352 -0.1293 -0.6328
  622TMC3    C3 9211   3.159   0.201  10.414 -0.0061  0.6253  0.0850
  622TMC3    C4 9212   3.390   0.051  10.420 -0.8395  0.0074  0.0399
  622TMC3    C5 9213   3.269   4.708  10.421  0.4650  0.7689  0.1311
  622TMC3    C6 9214   3.154   0.068  10.421  0.7371 -0.2712 -0.1109
  622TMC3     C 9215   3.519   0.243  10.440  0.5615 -0.2646 -0.5034
  622TMC3     O 9216   3.590   0.181  10.518  0.5322 -0.4203  0.1789
  622TMC3     H 9217   3.293   0.378  10.410  0.2749 -0.2825  0.4683
  622TMC3    H1 9218   3.482   4.714  10.426  0.5280  2.2981  0.5266
  622TMC3    H2 9219   3.054   0.027  10.418 -0.3470  2.4472 -0.9928
  622TMC3    C7 9220   3.268   4.604  10.321 -0.2252  0.4467 -0.1890
  622TMC3    C8 9221   3.039   0.261  10.366  0.4320  0.2055  0.0357
  622TMC3    O1 9222   3.361   4.602  10.240 -0.1780  0.0573  0.2796
  622TMC3    O2 9223   2.932   0.222  10.412  0.0808  0.1201  0.1643
  623MPD2     C 9224   1.942   1.418  15.934  0.3252  0.3109  0.7850
  623MPD2    C1 9225   1.893   1.350  16.041  0.5267 -0.2139  0.2040
  623MPD2    C2 9226   1.959   1.358  16.158 -0.0596 -0.9852  0.3869
  623MPD2    C3 9227   2.074   1.432  16.176 -1.0858 -0.3469  0.4834
  623MPD2    C4 9228   2.107   1.520  16.078 -0.8895  0.1314  0.4297
  623MPD2    C5 9229   2.039   1.505  15.960  0.4949  0.0361 -0.3001
  623MPD2     H 9230   1.943   1.287  16.238  2.3136 -0.9348  0.9156
  623MPD2    H1 9231   2.188   1.592  16.086 -0.2563 -0.2974 -1.9994
  623MPD2    H2 9232   1.915   1.394  15.831  1.0229  0.0278  0.6692
  623MPD2    H3 9233   2.075   1.564  15.877  0.1920  2.7195  1.4976
  623MPD2     N 9234   2.144   1.427  16.298 -0.0012 -0.6190 -0.4268
  623MPD2    H5 9235   2.110   1.374  16.378  0.8445  1.7090  1.4850
  623MPD2    N1 9236   1.787   1.265  16.022  0.2934  0.3748 -0.8720
  623MPD2    H7 9237   1.743   1.288  15.933 -0.7860 -2.4481 -1.0681
  624TMC3    C1 9238   2.445   1.353  16.609  0.2546  0.6966 -0.8400
  624TMC3    C2 9239   2.348   1.354  16.709 -0.4305 -0.5559 -0.0349
  624TMC3    C3 9240   2.232   1.420  16.680 -0.4049  0.3997 -0.1627
  624TMC3    C4 9241   2.423   1.411  16.486 -0.4935 -0.1685  0.2853
  624TMC3    C5 9242   2.301   1.459  16.460 -0.0234 -0.1021  0.2796
  624TMC3    C6 9243   2.204   1.464  16.555  0.0695  0.1793 -1.0665
  624TMC3     C 9244   2.583   1.336  16.657  0.4370 -0.3834 -0.0229
  624TMC3     O 9245   2.608   1.348  16.777 -0.6774 -0.3713 -0.1778
  624TMC3     H 9246   2.384   1.337  16.810 -2.9557  1.8986  1.2581
  624TMC3    H1 9247   2.503   1.426  16.414 -1.3181 -3.0148 -1.2358
  624TMC3    H2 9248   2.108   1.512  16.538 -0.2897 -0.5075 -0.9881
  624TMC3    C7 9249   2.271   1.473  16.322  0.2871  0.5517 -0.2539
  624TMC3    C8 9250   2.117   1.353  16.743  0.0367 -0.3057  0.1966
  624TMC3    O1 9251   2.355   1.519  16.243 -0.0348  0.4407  1.1226
  624TMC3    O2 9252   2.136   1.238  16.784 -0.0735  0.5263 -0.1034
  625MPD2     C 9253   2.761   2.957   0.529 -0.1231 -0.3038  0.2412
  625MPD2    C1 9254   2.695   2.849   0.579  0.0970  0.1860 -0.8394
  625MPD2    C2 9255   2.760   2.759   0.649 -0.3313 -0.3312 -0.8076
  625MPD2    C3 9256   2.893   2.769   0.683 -0.2969  0.2238  0.1914
  625MPD2    C4 9257   2.963   2.880   0.635  0.9038 -0.8345 -0.3875
  625MPD2    C5 9258   2.897   2.974   0.554  0.6528  0.0093  0.0339
  625MPD2     H 9259   2.704   2.669   0.675 -2.2114  0.7091 -1.2827
  625MPD2    H1 9260   3.067   2.893   0.661  0.6179 -0.6408  0.6558
  625MPD2    H2 9261   2.715   3.040   0.477  0.8006  0.6378  0.9151
  625MPD2    H3 9262   2.946   3.062   0.513 -1.8503  1.2470 -0.3185
  625MPD2     N 9263   2.950   2.658   0.760 -0.1767  0.6821  0.3573
  625MPD2    H5 9264   2.896   2.583   0.801 -0.7628  0.4196 -0.8838
  625MPD2    N1 9265   2.553   2.837   0.559 -0.3948  0.3201 -0.7561
  625MPD2    H7 9266   2.507   2.764   0.613 -0.3174 -0.4708 -1.7480
  626TMC3    C1 9267   2.352   2.861   0.458 -0.1620  0.2067  0.1064
  626TMC3    C2 9268   2.286   2.881   0.337 -0.5110 -1.0437  0.5746
  626TMC3    C3 9269   2.167   2.818   0.304 -0.2935  0.6165 -0.4493
  626TMC3    C4 9270   2.297   2.773   0.544 -0.4032  0.0528  0.1270
  626TMC3    C5 9271   2.176   2.719   0.511  0.1399  0.2841  0.6915
  626TMC3    C6 9272   2.106   2.735   0.393 -0.2606  0.1963  0.3859
  626TMC3     C 9273   2.477   2.924   0.489  0.4703 -0.4580 -0.3496
  626TMC3     O 9274   2.504   3.015   0.415 -0.5383 -0.3410  0.4843
  626TMC3     H 9275   2.335   2.943   0.262 -0.3436  0.3758  1.8668
  626TMC3    H1 9276   2.335   2.769   0.646 -0.0510 -2.3968 -0.0909
  626TMC3    H2 9277   2.005   2.700   0.378 -0.7967  1.9773 -0.1518
  626TMC3    C7 9278   2.123   2.628   0.605 -0.2159 -0.2520  0.3961
  626TMC3    C8 9279   2.093   2.871   0.185 -0.3993 -0.2507  0.7048
  626TMC3    O1 9280   2.208   2.582   0.679 -0.2059  0.0997  0.6775
  626TMC3    O2 9281   2.108   2.986   0.149 -0.0452  0.0450  0.1581
  627MPD2     C 9282   0.679   2.751  14.038 -0.2428  0.0845 -0.4982
  627MPD2    C1 9283   0.786   2.686  14.095 -0.5944  0.0309 -0.2920
  627MPD2    C2 9284   0.771   2.562  14.154  0.4825 -0.6441  0.1160
  627MPD2    C3 9285   0.647   2.506  14.149 -0.0076  0.0576 -0.1744
  627MPD2    C4 9286   0.540   2.558  14.080  0.2933  0.4446  0.6593
  627MPD2    C5 9287   0.561   2.683  14.022  0.9148 -0.3271 -0.5718
  627MPD2     H 9288   0.850   2.518  14.213  0.2266  0.4935  1.2998
  627MPD2    H1 9289   0.439   2.519  14.089  0.7786 -0.6997  1.0644
  627MPD2    H2 9290   0.686   2.844  13.982  0.6704 -0.9460 -2.0759
  627MPD2    H3 9291   0.484   2.715  13.953 -1.2173 -1.1922  1.4278
  627MPD2     N 9292   0.630   2.396  14.233 -0.7399 -1.0434 -0.4667
  627MPD2    H5 9293   0.711   2.377  14.291  0.3051 -0.1371 -1.6442
  627MPD2    N1 9294   0.912   2.751  14.102  0.2232  0.8446  0.1830
  627MPD2    H7 9295   0.973   2.712  14.174 -1.0707 -0.6846  0.4378
  628TMC3    C1 9296   1.052   2.914  14.111 -0.2924 -0.6342  0.5745
  628TMC3    C2 9297   1.164   2.840  14.121 -0.8720  0.0677 -0.1047
  628TMC3    C3 9298   1.255   2.882  14.205  0.5152 -0.3110  0.0090
  628TMC3    C4 9299   1.040   3.031  14.180  0.2665  0.3543 -0.5478
  628TMC3    C5 9300   1.145   3.080  14.257 -0.2305 -0.7439  0.4859
  628TMC3    C6 9301   1.251   2.994  14.282 -0.5577 -0.0772 -0.1360
  628TMC3     C 9302   0.946   2.868  14.042 -0.2216  0.2517 -0.0711
  628TMC3     O 9303   0.869   2.954  13.990  0.3609  0.3004 -0.1448
  628TMC3     H 9304   1.178   2.754  14.056  1.3174 -0.8645  1.5827
  628TMC3    H1 9305   0.949   3.089  14.170 -0.4890 -1.2729 -3.1348
  628TMC3    H2 9306   1.332   3.040  14.338  0.7953 -1.1586 -1.1977
  628TMC3    C7 9307   1.151   3.217  14.297  0.3287  0.0708  0.5503
  628TMC3    C8 9308   1.366   2.788  14.237  0.6729  0.2979 -0.2794
  628TMC3    O1 9309   1.236   3.238  14.382  0.1221  0.8495 -0.1240
  628TMC3    O2 9310   1.390   2.713  14.143  0.1212 -0.0696  0.4763
  629MPD2     C 9311   4.205   1.912  16.164 -0.4424  0.4966 -0.5371
  629MPD2    C1 9312   4.198   1.783  16.215  0.1181  0.5690  0.2027
  629MPD2    C2 9313   4.078   1.717  16.216 -0.1576 -0.3097 -0.4441
  629MPD2    C3 9314   3.965   1.771  16.165  0.4235 -0.0608  0.6009
  629MPD2    C4 9315   3.973   1.900  16.118 -0.6241 -0.7275  0.3900
  629MPD2    C5 9316   4.093   1.968  16.119 -0.9140  0.8273  0.3044
  629MPD2     H 9317   4.086   1.616  16.254 -0.2488 -1.1499 -2.6992
  629MPD2    H1 9318   3.882   1.946  16.082  1.5746  3.0063 -0.3448
  629MPD2    H2 9319   4.304   1.957  16.159 -2.0774  3.9620 -1.1207
  629MPD2    H3 9320   4.095   2.072  16.088 -1.6622  1.3590  1.9907
  629MPD2     N 9321   3.840   1.704  16.171  0.4408 -0.3752 -0.4398
  629MPD2    H5 9322   3.842   1.617  16.224  0.1023  0.7051  1.3419
  629MPD2    N1 9323   4.320   1.733  16.251 -0.8437  0.6905  0.3221
  629MPD2    H7 9324   4.400   1.795  16.252  0.0714 -0.4853 -1.9438
  630TMC3    C1 9325   4.485   1.576  16.320 -0.5658  0.1616  0.4393
  630TMC3    C2 9326   4.579   1.633  16.245  0.0028  0.2683  0.3097
  630TMC3    C3 9327   4.710   1.584  16.266  0.0210 -0.1399  0.3276
  630TMC3    C4 9328   4.514   1.468  16.398 -0.1985 -0.4255 -0.2041
  630TMC3    C5 9329   4.643   1.432  16.427  0.8420 -0.1308 -0.2322
  630TMC3    C6 9330   0.026   1.505  16.370 -0.0725 -0.0108 -0.7466
  630TMC3     C 9331   4.349   1.605  16.297 -0.1241  0.1216 -0.0319
  630TMC3     O 9332   4.276   1.512  16.331  0.2905  0.6584 -0.4400
  630TMC3     H 9333   4.550   1.704  16.168 -2.2980  0.6313  1.5025
  630TMC3    H1 9334   4.443   1.435  16.473  0.5828 -0.0917  0.6723
  630TMC3    H2 9335   0.131   1.478  16.378  0.3162  1.9285  0.7831
  630TMC3    C7 9336   4.667   1.366  16.549 -0.2317  0.3071  0.6454
  630TMC3    C8 9337   0.102   1.660  16.205 -0.4480 -0.1484  0.2399
  630TMC3    O1 9338   4.573   1.304  16.602 -0.2075 -0.3186  0.3342
  630TMC3    O2 9339   0.206   1.657  16.268  0.1645 -0.4507 -0.4451
  631MPD2     C 9340   2.371   0.844  15.672 -0.2025  0.5539  0.1230
  631MPD2    C1 9341   2.494   0.884  15.627 -0.2767  0.1551  0.1887
  631MPD2    C2 9342   2.613   0.838  15.682  0.0456  0.0958  0.3638
  631MPD2    C3 9343   2.605   0.759  15.789  0.1403 -0.5601  0.1561
  631MPD2    C4 9344   2.489   0.706  15.820 -0.1665  0.1229 -0.0915
  631MPD2    C5 9345   2.371   0.741  15.763 -0.2190  0.1261  0.1271
  631MPD2     H 9346   2.711   0.870  15.649 -0.3789 -0.0111 -1.0011
  631MPD2    H1 9347   2.490   0.619  15.884 -0.5704  2.9626  3.7555
  631MPD2    H2 9348   2.280   0.893  15.637  1.5548  1.7294 -2.8131
  631MPD2    H3 9349   2.280   0.694  15.797  0.3647 -0.0344  1.4347
  631MPD2     N 9350   2.726   0.726  15.858 -0.4252  0.0624  0.0862
  631MPD2    H5 9351   2.809   0.768  15.818 -0.9281  0.3277 -0.6944
  631MPD2    N1 9352   2.494   0.984  15.529 -0.4568 -0.3811 -0.3472
  631MPD2    H7 9353   2.400   1.010  15.502  0.5581  3.0850 -0.4820
  632TMC3    C1 9354   2.545   1.165  15.393 -0.0777 -0.4176  0.3370
  632TMC3    C2 9355   2.434   1.228  15.428 -0.7427  0.1002 -0.0257
  632TMC3    C3 9356   2.394   1.336  15.354  0.0599  0.0933  0.0137
  632TMC3    C4 9357   2.607   1.185  15.272  0.9432  0.5626  0.4535
  632TMC3    C5 9358   2.573   1.301  15.205 -0.0930  0.8403  0.1067
  632TMC3    C6 9359   2.461   1.371  15.239 -0.0298  0.0304 -0.2991
  632TMC3     C 9360   2.596   1.062  15.480  0.1461  0.4277 -0.4191
  632TMC3     O 9361   2.716   1.033  15.480  0.8484 -0.4151  0.5073
  632TMC3     H 9362   2.395   1.211  15.528  0.4633 -0.2649  0.3831
  632TMC3    H1 9363   2.692   1.126  15.240 -0.0355  0.4755 -2.0182
  632TMC3    H2 9364   2.411   1.433  15.166  1.7605 -0.4976 -1.9947
  632TMC3    C7 9365   2.607   1.324  15.065  0.2975 -0.3305  0.1112
  632TMC3    C8 9366   2.264   1.386  15.391  0.3154 -0.2340 -0.4127
  632TMC3    O1 9367   2.524   1.354  14.983  0.2652  0.3007 -0.9100
  632TMC3    O2 9368   2.204   1.323  15.477  0.1958 -0.2070  0.2509
  633MPD2     C 9369   2.275   3.975  17.356  0.2194 -0.2157 -0.2788
  633MPD2    C1 9370   2.363   3.951  17.254 -0.6114 -0.1224  0.9065
  633MPD2    C2 9371   2.454   3.849  17.269 -0.1429 -0.2826 -0.3530
  633MPD2    C3 9372   2.448   3.759  17.369 -0.1873  0.4372 -0.0970
  633MPD2    C4 9373   2.348   3.773  17.466  0.3409 -0.3204 -0.1612
  633MPD2    C5 9374   2.267   3.882  17.453 -0.4370 -0.2295 -0.1309
  633MPD2     H 9375   2.531   3.829  17.196  0.3435 -0.5529  0.2295
  633MPD2    H1 9376   2.339   3.700  17.545  0.6592 -1.1465 -0.8798
  633MPD2    H2 9377   2.197   4.050  17.347 -1.7851 -2.3348 -0.6643
  633MPD2    H3 9378   2.191   3.900  17.529 -0.7117 -2.2879  0.0743
  633MPD2     N 9379   2.529   3.648  17.374  0.6416 -0.0460  0.0213
  633MPD2    H5 9380   2.497   3.567  17.427 -1.1243  0.9947  0.5132
  633MPD2    N1 9381   2.371   4.031  17.141  0.1955 -0.5066  0.7337
  633MPD2    H7 9382   2.434   3.998  17.068 -0.1336  0.9228 -0.2014
  634TMC3    C1 9383   2.338   4.212  16.982  0.1221 -0.2240 -0.8808
  634TMC3    C2 9384   2.363   4.127  16.877  0.8308 -0.4332  0.1274
  634TMC3    C3 9385   2.349   4.174  16.743  0.2886  0.6034 -0.2177
  634TMC3    C4 9386   2.321   4.347  16.950  0.4135 -0.1017  0.5658
  634TMC3    C5 9387   2.312   4.394  16.819 -0.1693 -0.6227 -0.2184
  634TMC3    C6 9388   2.329   4.305  16.711 -0.6256  0.2902  0.5422
  634TMC3     C 9389   2.305   4.158  17.117  0.4609 -0.0217 -0.1225
  634TMC3     O 9390   2.236   4.226  17.193 -0.0163  0.0200 -0.1446
  634TMC3     H 9391   2.351   4.020  16.887 -1.8616 -0.1735 -0.2705
  634TMC3    H1 9392   2.302   4.419  17.029  1.5930 -0.0148  0.7711
  634TMC3    H2 9393   2.317   4.341  16.609 -0.1324  2.1534  1.1352
  634TMC3    C7 9394   2.280   4.528  16.778 -0.4365  0.3832 -0.0088
  634TMC3    C8 9395   2.330   4.075  16.636  0.2276 -0.2366 -0.5723
  634TMC3    O1 9396   2.251   4.556  16.663 -0.4887 -1.1873  0.6153
  634TMC3    O2 9397   2.351   3.954  16.661 -0.4412  0.0913  0.4370
  635TMC3    C1 9398   2.758   0.282  17.543  0.6365 -0.4445  0.0742
  635TMC3    C2 9399   2.813   0.189  17.459  1.2144  0.0759  0.3366
  635TMC3    C3 9400   2.773   0.058  17.468  0.7503  0.0321  0.1877
  635TMC3    C4 9401   2.700   0.251  17.662 -0.8291 -0.0828 -0.5071
  635TMC3    C5 9402   2.678   0.114  17.675  0.1140  0.1495  0.3920
  635TMC3    C6 9403   2.710   0.016  17.580  1.3178 -0.7609  0.0749
  635TMC3     C 9404   2.785   0.421  17.516  0.2266  0.3898 -0.4937
  635TMC3     O 9405   2.789   0.443  17.399  0.0540 -0.0019  0.1458
  635TMC3     H 9406   2.864   0.212  17.366  0.0567 -2.6738 -0.9985
  635TMC3    H1 9407   2.649   0.324   0.043 -0.8729 -0.7836  0.2817
  635TMC3    H2 9408   2.693   4.631  17.602 -1.1813 -0.7029 -1.6093
  635TMC3    C7 9409   2.629   0.060   0.122 -0.3459 -0.0015 -0.3326
  635TMC3    C8 9410   2.860   4.685  17.392  0.0122 -0.2840  0.5796
  635TMC3    O1 9411   2.572   4.673   0.110 -0.0950  0.5544 -0.0733
  635TMC3    O2 9412   2.962   0.015  17.336  0.0458 -0.0531 -0.6340
  636MPD2     C 9413   3.080   4.354  16.449  0.2034 -0.3396 -0.3587
  636MPD2    C1 9414   3.203   4.421  16.479 -0.4080 -0.1664 -0.2991
  636MPD2    C2 9415   3.301   4.353  16.543 -0.8370  0.7384  0.6481
  636MPD2    C3 9416   3.298   4.219  16.577  0.2988 -0.2266 -0.3721
  636MPD2    C4 9417   3.179   4.154  16.538 -0.1568 -0.3994  0.1772
  636MPD2    C5 9418   3.067   4.220  16.486  0.1739 -0.3234 -0.1518
  636MPD2     H 9419   3.395   4.408  16.547 -0.7026  0.4889  0.9923
  636MPD2    H1 9420   3.174   4.045  16.536 -0.9195 -0.3568 -0.4660
  636MPD2    H2 9421   3.010   4.397  16.378 -2.9588  0.8727  3.5221
  636MPD2    H3 9422   2.983   4.157  16.461  0.8835 -1.7477  1.0370
  636MPD2     N 9423   3.406   4.157  16.633  0.3077 -0.1094 -0.6537
  636MPD2    H5 9424   3.479   4.223  16.658  1.2094 -1.4272  0.2363
  636MPD2    N1 9425   3.233   4.554  16.425 -0.1048  0.0573  0.1584
  636MPD2    H7 9426   3.329   4.584  16.412  0.0991 -0.7406 -0.1872
  637TMC3    C1 9427   3.566   4.008  16.704 -0.0874 -0.5485 -0.3032
  637TMC3    C2 9428   3.638   4.118  16.761 -0.5423  0.1414  0.7783
  637TMC3    C3 9429   3.778   4.103  16.767  0.3763  0.1035  0.3258
  637TMC3    C4 9430   3.636   3.903  16.652  0.0017 -0.0522  0.2791
  637TMC3    C5 9431   3.775   3.899  16.644 -0.1519  0.0987 -0.0419
  637TMC3    C6 9432   3.844   3.995  16.711  0.4129  0.1482  0.5860
  637TMC3     C 9433   3.429   4.026  16.656 -0.2898 -1.0541 -0.2274
  637TMC3     O 9434   3.355   3.929  16.634  0.2806  0.2860 -0.1153
  637TMC3     H 9435   3.579   4.197  16.807 -2.7940 -0.3245 -1.3215
  637TMC3    H1 9436   3.577   3.840  16.586 -1.2436  0.0720  1.2930
  637TMC3    H2 9437   3.952   3.987  16.721  0.5910 -0.1901 -1.6432
  637TMC3    C7 9438   3.828   3.893  16.511 -0.5689 -0.0730  0.6042
  637TMC3    C8 9439   3.861   4.219  16.780  0.4957  0.3793  0.3712
  637TMC3    O1 9440   3.767   3.831  16.426  0.1690 -0.0890 -0.2870
  637TMC3    O2 9441   3.953   4.213  16.698  0.2867  0.2608 -0.7712
  638MPD2     C 9442   3.280   3.073  14.946 -0.2227  0.3976 -0.0156
  638MPD2    C1 9443   3.251   2.954  14.888  0.9288 -0.3455 -0.1109
  638MPD2    C2 9444   3.230   2.839  14.965  0.2913 -0.2511 -0.4014
  638MPD2    C3 9445   3.258   2.845  15.099 -0.0574 -0.3280 -0.4868
  638MPD2    C4 9446   3.299   2.963  15.153 -0.3626  0.5162 -0.6432
  638MPD2    C5 9447   3.300   3.076  15.081 -0.0076 -0.4009 -0.6450
  638MPD2     H 9448   3.194   2.745  14.924 -1.2948 -0.4489  1.4527
  638MPD2    H1 9449   3.319   2.975  15.259 -0.7338 -1.2348 -0.3782
  638MPD2    H2 9450   3.303   3.169  14.900  1.9568 -0.1500 -0.0728
  638MPD2    H3 9451   3.332   3.168  15.129  2.0455 -0.0228 -2.7460
  638MPD2     N 9452   3.252   2.727  15.165  0.2154 -0.0340 -0.5714
  638MPD2    H5 9453   3.243   2.639  15.115  0.6872  0.5803 -1.7507
  638MPD2    N1 9454   3.245   2.964  14.746 -0.4191  0.0079 -0.6125
  638MPD2    H7 9455   3.245   3.058  14.706 -0.7259 -0.2683 -1.2603
  639TMC3    C1 9456   3.241   2.572  15.328  0.0512 -0.5623 -0.7617
  639TMC3    C2 9457   3.127   2.524  15.277  0.6042 -0.4222  0.5022
  639TMC3    C3 9458   3.105   2.388  15.286 -0.3579 -0.0819  0.1052
  639TMC3    C4 9459   3.341   2.499  15.389  0.5899  0.0809 -0.0682
  639TMC3    C5 9460   3.320   2.365  15.394  0.1989  0.4541  0.2877
  639TMC3    C6 9461   3.202   2.308  15.345  0.3642  0.0699  0.1227
  639TMC3     C 9462   3.253   2.712  15.303  0.8854  0.2388 -0.2374
  639TMC3     O 9463   3.280   2.785  15.395  0.2747 -0.8648 -0.2521
  639TMC3     H 9464   3.051   2.594  15.244  2.2750  0.6242 -1.1474
  639TMC3    H1 9465   3.436   2.546  15.414  0.4364 -0.1446  0.9509
  639TMC3    H2 9466   3.206   2.203  15.319 -3.4689  0.1893 -0.8979
  639TMC3    C7 9467   3.431   2.272  15.387 -0.2264  0.1374 -0.2610
  639TMC3    C8 9468   3.011   2.322  15.202 -0.8762  0.5499  0.5452
  639TMC3    O1 9469   3.405   2.155  15.406  0.0415  0.7847 -0.7364
  639TMC3    O2 9470   3.027   2.204  15.177 -0.0632 -0.3810  0.5590
  640MPD2     C 9471   4.594   2.150   9.977  0.2565  0.4526  0.3070
  640MPD2    C1 9472   4.588   2.021   9.930  0.8555 -0.1936 -0.4559
  640MPD2    C2 9473   4.474   1.942   9.951  0.0602  0.1979 -0.7635
  640MPD2    C3 9474   4.372   1.992  10.028  0.0561  0.4878 -0.3723
  640MPD2    C4 9475   4.377   2.131  10.067 -0.2675 -0.4168  0.0479
  640MPD2    C5 9476   4.487   2.201  10.040  0.2600  0.2815 -0.2724
  640MPD2     H 9477   4.475   1.841   9.912 -0.1312  0.0957 -0.5065
  640MPD2    H1 9478   4.294   2.181  10.114  0.1770  0.7168 -0.3716
  640MPD2    H2 9479   4.680   2.212   9.956  0.1957  0.4759  0.1285
  640MPD2    H3 9480   4.502   2.302  10.077  1.2567  0.3454 -0.8263
  640MPD2     N 9481   4.253   1.923  10.066 -0.5505 -0.0468  0.0088
  640MPD2    H5 9482   4.174   1.979  10.098 -0.0229  0.5317  0.3031
  640MPD2    N1 9483   4.693   1.990   9.842 -0.3606 -0.1727  0.2448
  640MPD2    H7 9484   0.041   2.060   9.813  0.5183 -1.7372 -1.4798
  641TMC3    C1 9485   0.098   1.865   9.695  0.0491  0.3102  0.6704
  641TMC3    C2 9486   0.189   1.762   9.707  0.7424 -0.3377  0.0865
  641TMC3    C3 9487   0.309   1.778   9.637  0.3724  0.4108  0.3230
  641TMC3    C4 9488   0.106   1.962   9.609 -0.5566 -0.1768 -0.1130
  641TMC3    C5 9489   0.223   1.961   9.526 -0.1454  0.2077 -0.6481
  641TMC3    C6 9490   0.327   1.874   9.547 -0.1185  0.2799  0.1396
  641TMC3     C 9491   0.000   1.859   9.806  0.6793 -0.6663  0.3172
  641TMC3     O 9492   4.671   1.754   9.847 -0.3731  0.0210  0.9069
  641TMC3     H 9493   0.180   1.703   9.798  1.0715 -0.1051  0.2686
  641TMC3    H1 9494   0.041   2.049   9.618  0.5228  0.5274  0.9629
  641TMC3    H2 9495   0.426   1.886   9.505 -0.9709  2.5641 -1.2154
  641TMC3    C7 9496   0.244   2.083   9.448  0.2365  0.1431  0.0174
  641TMC3    C8 9497   0.425   1.694   9.674  0.1965 -0.1868 -0.9253
  641TMC3    O1 9498   0.357   2.099   9.414  0.4443  0.0599  0.0372
  641TMC3    O2 9499   0.533   1.739   9.639 -0.1894 -0.1888 -0.1869
  642TMC3    C1 9500   0.078   2.944  12.948  0.5118 -0.7268  0.1896
  642TMC3    C2 9501   0.148   2.891  13.057  0.5954 -0.4036  0.0700
  642TMC3    C3 9502   0.164   2.753  13.060  0.1755  0.2679  0.0371
  642TMC3    C4 9503   0.037   2.874  12.840 -0.0818  0.7658 -0.3806
  642TMC3    C5 9504   0.054   2.736  12.851 -0.5143  0.7540 -0.8730
  642TMC3    C6 9505   0.122   2.676  12.953  0.2295  1.0620 -0.3048
  642TMC3     C 9506   0.056   3.088  12.955  0.0523  0.1405  0.1694
  642TMC3     O 9507   0.129   3.162  13.016 -0.0564 -0.0560  0.0712
  642TMC3     H 9508   0.169   2.959  13.138 -1.8567  0.3759  0.0600
  642TMC3    H1 9509   4.696   2.916  12.761  0.1755 -0.4996 -1.2587
  642TMC3    H2 9510   0.150   2.571  12.954  1.1211  1.2920 -0.9723
  642TMC3    C7 9511   4.715   2.664  12.737 -0.9683  0.1244  0.6592
  642TMC3    C8 9512   0.256   2.689  13.155  1.0425 -0.3778  0.4122
  642TMC3    O1 9513   4.682   2.724  12.636 -0.0641 -0.0872 -0.0221
  642TMC3    O2 9514   0.305   2.577  13.125 -0.0516  0.0421 -0.1618
  643TMC3    C1 9515   3.817   2.396   0.870 -0.8445  0.0932  0.5679
  643TMC3    C2 9516   3.699   2.440   0.819  0.0412 -0.5595  0.0848
  643TMC3    C3 9517   3.642   2.362   0.724  0.3029  0.4414  0.7362
  643TMC3    C4 9518   3.889   2.288   0.826  0.2428  0.2928 -0.2823
  643TMC3    C5 9519   3.825   2.216   0.732  0.5678 -0.3772  0.1663
  643TMC3    C6 9520   3.697   2.245   0.678 -0.2721  0.4503  0.2779
  643TMC3     C 9521   3.891   2.496   0.943 -0.0880  0.1950 -0.4079
  643TMC3     O 9522   3.894   2.607   0.891 -0.5359  0.0016  0.3509
  643TMC3     H 9523   3.644   2.528   0.849 -1.8284 -1.8809  0.5282
  643TMC3    H1 9524   3.995   2.279   0.847  0.9023  0.7827 -3.3052
  643TMC3    H2 9525   3.663   2.204   0.584  3.0929 -2.2348  0.2512
  643TMC3    C7 9526   3.920   2.150   0.652  0.5096  0.9938  0.4041
  643TMC3    C8 9527   3.616   2.446   0.608 -0.4252  0.7041  0.0698
  643TMC3    O1 9528   4.039   2.180   0.665  0.0552  0.0898 -0.4133
  643TMC3    O2 9529   3.546   2.398   0.520 -0.1305 -0.8606  0.3300
  644MPD2     C 9530   0.394   2.535   9.702  0.7355  0.0559  0.6252
  644MPD2    C1 9531   0.312   2.427   9.709 -0.3269  0.0250  0.2100
  644MPD2    C2 9532   0.183   2.435   9.664 -0.1589  0.1836 -0.4245
  644MPD2    C3 9533   0.132   2.550   9.612 -0.3130  0.3898 -0.6232
  644MPD2    C4 9534   0.219   2.662   9.604 -0.2650  0.1264  0.3711
  644MPD2    C5 9535   0.350   2.652   9.650  0.7230 -0.0800 -0.1782
  644MPD2     H 9536   0.127   2.342   9.659  1.2433 -0.5827 -1.9225
  644MPD2    H1 9537   0.194   2.757   9.560 -3.0936 -1.2804 -1.0346
  644MPD2    H2 9538   0.498   2.535   9.733  0.6437 -3.1382  0.9374
  644MPD2    H3 9539   0.414   2.740   9.655  1.0823 -0.2402 -2.1493
  644MPD2     N 9540   4.713   2.554   9.572 -0.0679  0.1634  0.1750
  644MPD2    H5 9541   4.660   2.469   9.590 -0.7907  0.4719 -0.4783
  644MPD2    N1 9542   0.362   2.308   9.773  0.3514  0.1177  0.0666
  644MPD2    H7 9543   0.460   2.315   9.800  0.3970  1.2805 -0.4097
  645TMC3    C1 9544   4.503   2.642   9.488  0.2916 -0.6303 -0.2553
  645TMC3    C2 9545   4.445   2.517   9.492  0.0131  0.5510 -0.6769
  645TMC3    C3 9546   4.315   2.496   9.481 -0.9887 -0.4289 -0.3250
  645TMC3    C4 9547   4.423   2.751   9.470 -0.0246  0.2756  0.3222
  645TMC3    C5 9548   4.290   2.731   9.491  0.3029 -0.2274 -0.2927
  645TMC3    C6 9549   4.230   2.604   9.491  0.3507 -0.2847  0.1805
  645TMC3     C 9550   4.643   2.661   9.513  0.1015  0.4759 -0.0152
  645TMC3     O 9551   4.678   2.777   9.488 -0.0599  0.2639  0.8348
  645TMC3     H 9552   4.505   2.427   9.489 -1.1991 -0.2743  0.0680
  645TMC3    H1 9553   4.467   2.849   9.452  0.5068 -0.2502 -1.2858
  645TMC3    H2 9554   4.122   2.599   9.499  0.3966  0.8715  1.6145
  645TMC3    C7 9555   4.204   2.841   9.454 -0.4212 -0.0188  0.3713
  645TMC3    C8 9556   4.274   2.364   9.463 -0.1370  0.0028  0.0113
  645TMC3    O1 9557   4.126   2.823   9.363 -0.0893  0.0938  0.0252
  645TMC3    O2 9558   4.346   2.275   9.508 -0.0258  0.7803 -0.2328
  646MPD2     C 9559   3.235   1.533  14.761 -0.1920 -0.2311 -0.5563
  646MPD2    C1 9560   3.166   1.555  14.875 -0.9673  0.0695 -0.0253
  646MPD2    C2 9561   3.046   1.623  14.855 -0.3032  0.4350  0.3632
  646MPD2    C3 9562   3.000   1.651  14.725  0.5208  0.2799 -0.6871
  646MPD2    C4 9563   3.081   1.625  14.620  1.0201  0.3863  0.0995
  646MPD2    C5 9564   3.197   1.556  14.639 -0.7132 -0.1006  0.5712
  646MPD2     H 9565   2.982   1.646  14.940  0.9768  3.0148  0.6300
  646MPD2    H1 9566   3.059   1.654  14.517 -0.6237 -3.2945 -0.5763
  646MPD2    H2 9567   3.331   1.484  14.772 -0.3646 -0.3515  0.4356
  646MPD2    H3 9568   3.251   1.534  14.548 -0.9224  1.4875  0.0608
  646MPD2     N 9569   2.872   1.707  14.710  0.4971  0.0895 -0.2123
  646MPD2    H5 9570   2.814   1.726  14.791  0.6708 -0.1129 -0.0403
  646MPD2    N1 9571   3.233   1.526  14.997 -0.1862 -0.2230  0.0050
  646MPD2    H7 9572   3.331   1.507  14.982  0.4493  2.5340  0.6822
  647TMC3    C1 9573   3.279   1.492  15.222 -0.4238  0.4434  0.3296
  647TMC3    C2 9574   3.225   1.449  15.342  0.5562  0.0844  0.2530
  647TMC3    C3 9575   3.308   1.418  15.449  0.1695 -0.0489 -0.0601
  647TMC3    C4 9576   3.415   1.495  15.208  0.5077 -0.0509  0.0611
  647TMC3    C5 9577   3.495   1.463  15.312  0.2591  0.0797 -0.1976
  647TMC3    C6 9578   3.446   1.420  15.436 -0.0177 -0.0812  0.0493
  647TMC3     C 9579   3.184   1.529  15.118 -0.6414 -0.2119 -0.2922
  647TMC3     O 9580   3.067   1.541  15.151  0.3055 -0.3503  0.2817
  647TMC3     H 9581   3.119   1.451  15.365  0.6370 -2.0608  0.8235
  647TMC3    H1 9582   3.456   1.538  15.118  0.9695 -0.2682  0.1659
  647TMC3    H2 9583   3.501   1.409  15.528 -0.1233 -1.4439 -0.0455
  647TMC3    C7 9584   3.642   1.460  15.289 -0.5437 -0.6861  0.6692
  647TMC3    C8 9585   3.248   1.361  15.566  0.4398 -0.4244  0.4669
  647TMC3    O1 9586   3.708   1.475  15.390  0.0575 -0.3895  0.2331
  647TMC3    O2 9587   3.133   1.399  15.604  0.2994 -0.4637 -0.0942
  648TMC3    C1 9588   2.668   4.176  16.035  0.8901 -0.3135 -0.6922
  648TMC3    C2 9589   2.718   4.068  15.964 -0.0404  0.5050 -0.0425
  648TMC3    C3 9590   2.678   4.055  15.830  0.4910  0.0963  0.1138
  648TMC3    C4 9591   2.610   4.277  15.970  0.0924 -0.6617  0.1415
  648TMC3    C5 9592   2.574   4.262  15.837  0.9108  0.6291 -0.0354
  648TMC3    C6 9593   2.609   4.152  15.763 -0.4904  0.2304  0.0455
  648TMC3     C 9594   2.676   4.182  16.181 -0.3953 -0.0503  0.0394
  648TMC3     O 9595   2.686   4.295  16.221  0.0732 -0.1359  0.3672
  648TMC3     H 9596   2.781   3.996  16.014 -0.6571 -0.3034 -0.4209
  648TMC3    H1 9597   2.560   4.354  16.028  0.8025  0.6226 -0.9578
  648TMC3    H2 9598   2.586   4.142  15.658 -4.3954 -1.4209  1.0320
  648TMC3    C7 9599   2.470   4.345  15.778 -0.3143 -0.1564 -0.4439
  648TMC3    C8 9600   2.720   3.937  15.759  0.1841  0.2088 -0.2440
  648TMC3    O1 9601   2.396   4.282  15.702  0.2633  0.4200  0.2708
  648TMC3    O2 9602   2.652   3.912  15.661 -0.0671 -0.0267 -0.2769
  649TMC3    C1 9603   1.905   0.382  12.625 -0.3773 -0.6028 -0.4139
  649TMC3    C2 9604   2.040   0.375  12.612 -0.3239  0.0651  0.5961
  649TMC3    C3 9605   2.108   0.305  12.712  0.1463  0.2818 -0.2458
  649TMC3    C4 9606   1.832   0.335  12.732  0.0906  0.0327 -0.0066
  649TMC3    C5 9607   1.910   0.288  12.833  0.0636  0.2576  0.1753
  649TMC3    C6 9608   2.048   0.260  12.826 -0.5446  0.3211 -0.1042
  649TMC3     C 9609   1.823   0.450  12.527 -0.5140 -0.3835  0.7985
  649TMC3     O 9610   1.702   0.454  12.558  0.2584  0.1672  0.3121
  649TMC3     H 9611   2.093   0.386  12.519 -0.8808  0.9130  0.3752
  649TMC3    H1 9612   1.725   0.340  12.750  0.1271 -1.9411  0.7249
  649TMC3    H2 9613   2.108   0.217  12.905 -2.6165 -0.4883  1.0348
  649TMC3    C7 9614   1.839   0.217  12.943  0.7176  0.0102  0.1936
  649TMC3    C8 9615   2.249   0.279  12.694 -0.5326  0.3360  0.0752
  649TMC3    O1 9616   1.716   0.236  12.954 -0.2355 -0.8050 -0.1546
  649TMC3    O2 9617   2.282   0.171  12.751 -0.6902  0.9033 -0.1475
  650TMC3    C1 9618   4.100   2.352  12.691 -0.2125 -0.0518  1.0022
  650TMC3    C2 9619   4.033   2.454  12.748 -0.4933 -0.0024 -0.2823
  650TMC3    C3 9620   3.919   2.504  12.686  0.3357  0.1656 -0.5922
  650TMC3    C4 9621   4.062   2.303  12.568 -0.1002  0.4092 -0.1651
  650TMC3    C5 9622   3.949   2.348  12.505  0.4458  0.7249 -0.0392
  650TMC3    C6 9623   3.875   2.456  12.561  0.4989  0.5822 -0.3247
  650TMC3     C 9624   4.183   2.276  12.784 -0.1318 -0.3170  0.0201
  650TMC3     O 9625   4.188   2.306  12.903  0.6610 -0.2378  0.9421
  650TMC3     H 9626   4.052   2.491  12.848 -2.5057  1.8692 -0.6038
  650TMC3    H1 9627   4.123   2.229  12.517 -1.1361 -0.3662 -0.2866
  650TMC3    H2 9628   3.804   2.515  12.504  2.2090  0.9144 -2.1100
  650TMC3    C7 9629   3.962   2.368  12.363 -0.0395 -0.1596 -0.0594
  650TMC3    C8 9630   3.882   2.640  12.718 -0.4908 -0.2868  0.7563
  650TMC3    O1 9631   3.902   2.294  12.287  0.0098  0.1688  0.6821
  650TMC3    O2 9632   3.974   2.709  12.752 -0.3295 -0.3487  0.0501
  651MPD2     C 9633   3.310   4.215  10.398 -0.4213 -0.0888 -0.4463
  651MPD2    C1 9634   3.343   4.297  10.505  0.1815 -0.1401 -0.3737
  651MPD2    C2 9635   3.460   4.369  10.491  0.1151 -0.7041  0.2431
  651MPD2    C3 9636   3.548   4.358  10.382  0.4877 -0.3178 -0.7037
  651MPD2    C4 9637   3.511   4.279  10.276  0.5693  0.1305  0.4773
  651MPD2    C5 9638   3.392   4.210  10.286 -0.0896 -0.2081 -0.9203
  651MPD2     H 9639   3.479   4.452  10.558 -2.1276  0.8493 -1.0244
  651MPD2    H1 9640   3.562   4.276  10.181 -1.5875  3.0388 -0.7520
  651MPD2    H2 9641   3.219   4.156  10.401 -1.4795  1.5804 -0.1773
  651MPD2    H3 9642   3.370   4.138  10.209  1.4761 -1.1546 -0.4667
  651MPD2     N 9643   3.668   4.436  10.385  0.0613  0.3483  0.1048
  651MPD2    H5 9644   3.722   4.436  10.299  1.7568 -0.4340  1.1659
  651MPD2    N1 9645   3.255   4.315  10.606 -0.5426 -0.1615  0.2932
  651MPD2    H7 9646   3.269   4.380  10.683 -0.2568 -1.2113  1.1333
  652TMC3    C1 9647   4.006   4.714  10.543 -0.4581 -0.1950  0.1669
  652TMC3    C2 9648   3.920   4.613  10.555 -0.3948 -0.2040 -0.5895
  652TMC3    C3 9649   3.825   4.592  10.464 -0.9663 -0.3656  0.2383
  652TMC3    C4 9650   3.995   0.082  10.433  0.0995  0.4782 -0.1921
  652TMC3    C5 9651   3.888   0.061  10.344  0.0199 -0.4767  0.6755
  652TMC3    C6 9652   3.805   4.669  10.352 -0.4915 -0.5405  0.4863
  652TMC3     C 9653   4.137   4.705  10.609 -0.4478 -0.0185  1.0810
  652TMC3     O 9654   4.164   4.598  10.664  0.0947 -0.0078  0.7132
  652TMC3     H 9655   3.935   4.537  10.631 -1.1933  1.0893  0.8489
  652TMC3    H1 9656   4.083   0.140  10.409  0.8576 -0.3044  0.6864
  652TMC3    H2 9657   3.724   4.642  10.285 -2.2716  0.5965  2.2070
  652TMC3    C7 9658   3.844   0.163  10.240 -0.6260  0.1044  0.2980
  652TMC3    C8 9659   3.725   4.494  10.497 -0.2220 -0.4100 -0.3809
  652TMC3    O1 9660   3.761   0.131  10.158  0.0433 -0.0116 -0.8812
  652TMC3    O2 9661   3.696   4.464  10.613 -0.2232 -0.5130 -0.7642
  653MPD2     C 9662   2.136   4.217   0.089 -0.7154 -0.1782  0.2260
  653MPD2    C1 9663   2.118   4.331   0.006  0.2569 -0.2859  0.3206
  653MPD2    C2 9664   2.039   4.312  17.571 -0.2535 -0.6356  0.7841
  653MPD2    C3 9665   1.994   4.184  17.538  0.1551  0.4854  0.2108
  653MPD2    C4 9666   2.023   4.078  17.623 -0.8029 -0.0175 -0.3821
  653MPD2    C5 9667   2.098   4.092   0.053 -1.0173  0.2379 -0.1867
  653MPD2     H 9668   2.020   4.390  17.498 -0.1261 -0.0751  1.3597
  653MPD2    H1 9669   1.989   3.978  17.601 -0.8836 -0.1284  0.2475
  653MPD2    H2 9670   2.182   4.237   0.185  0.7690  1.0377 -0.7382
  653MPD2    H3 9671   2.134   4.006   0.109  1.5110  2.0287  0.9050
  653MPD2     N 9672   1.921   4.181  17.421  0.2180 -0.0493 -0.1418
  653MPD2    H5 9673   1.904   4.271  17.377 -1.2731 -1.0260 -1.5784
  653MPD2    N1 9674   2.171   4.461   0.029 -0.4615  0.3423 -0.0641
  653MPD2    H7 9675   2.138   4.534  17.647  1.7158 -0.2839 -1.9054
  654TMC3    C1 9676   1.799   4.098  17.243  0.3687  0.0011 -0.1744
  654TMC3    C2 9677   1.723   4.210  17.243 -0.5238  0.1738 -0.0240
  654TMC3    C3 9678   1.632   4.230  17.146 -0.1723  0.2538 -0.8650
  654TMC3    C4 9679   1.769   3.996  17.158  0.7498  0.0957  0.7927
  654TMC3    C5 9680   1.677   4.020  17.060  1.0516  0.5222  0.2643
  654TMC3    C6 9681   1.611   4.137  17.048  0.4184 -0.2509  0.2099
  654TMC3     C 9682   1.883   4.062  17.356 -0.3253 -0.3190  0.2716
  654TMC3     O 9683   1.924   3.949  17.356  0.2009 -0.7924 -0.1666
  654TMC3     H 9684   1.737   4.287  17.318  2.1043  1.0498 -1.3854
  654TMC3    H1 9685   1.839   3.914  17.146 -1.1940 -1.4176 -0.1750
  654TMC3    H2 9686   1.540   4.143  16.966  1.8560 -1.0805 -1.1025
  654TMC3    C7 9687   1.680   3.942  16.942  0.3391  0.3140 -0.3545
  654TMC3    C8 9688   1.535   4.337  17.144  0.0586  0.4480  0.2306
  654TMC3    O1 9689   1.636   3.984  16.835  0.1622  0.1844 -0.1765
  654TMC3    O2 9690   1.440   4.310  17.076 -0.5120 -0.5416 -0.0960
  655MPD2     C 9691   3.120   4.001  15.845  0.2684 -0.0754  0.0114
  655MPD2    C1 9692   3.080   4.102  15.757 -0.7570  0.0921  0.8616
  655MPD2    C2 9693   3.091   4.067  15.619 -0.0362  0.6195 -0.1997
  655MPD2    C3 9694   3.149   3.951  15.578  0.5125  0.2288 -0.0125
  655MPD2    C4 9695   3.207   3.869  15.674  0.3903  0.3632  0.1122
  655MPD2    C5 9696   3.196   3.898  15.808 -0.7604 -0.2895  0.1103
  655MPD2     H 9697   3.057   4.143  15.550  1.0071 -0.0108 -1.4071
  655MPD2    H1 9698   3.250   3.772  15.655  1.6564  0.5639  1.9789
  655MPD2    H2 9699   3.102   4.017  15.951  0.0844 -1.0892  0.1282
  655MPD2    H3 9700   3.241   3.832  15.881  2.4603  1.3343 -0.4145
  655MPD2     N 9701   3.175   3.929  15.438 -0.0951  0.0764 -0.2798
  655MPD2    H5 9702   3.241   3.856  15.417  0.1169  1.1369 -3.2651
  655MPD2    N1 9703   3.025   4.226  15.779  0.0860  0.0228 -0.3009
  655MPD2    H7 9704   2.990   4.273  15.696 -1.1472 -1.3002 -0.5328
  656TMC3    C1 9705   2.947   4.420  15.898 -0.3768 -1.1030  0.9280
  656TMC3    C2 9706   2.927   4.475  16.019  0.2925  0.4484  0.3180
  656TMC3    C3 9707   2.871   4.601  16.019  0.8953  0.3245 -0.4040
  656TMC3    C4 9708   2.958   4.494  15.785  0.1698 -0.3584 -0.2189
  656TMC3    C5 9709   2.911   4.617  15.786  0.3408 -0.0697 -0.3392
  656TMC3    C6 9710   2.851   4.665  15.901  0.1085 -0.7975  0.2602
  656TMC3     C 9711   3.005   4.282  15.902  0.6973  0.2366 -0.6952
  656TMC3     O 9712   3.028   4.236  16.010  0.0439 -0.4533 -0.6586
  656TMC3     H 9713   2.913   4.411  16.105 -0.3835 -0.8371 -0.7482
  656TMC3    H1 9714   2.995   4.455  15.691 -1.8652 -1.6393 -0.4824
  656TMC3    H2 9715   2.795   0.039  15.899  0.7485 -0.4029  0.8348
  656TMC3    C7 9716   2.865   4.659  15.651  0.0891 -0.3357 -0.5485
  656TMC3    C8 9717   2.741   4.598  16.079  0.4345 -0.4035  0.1377
  656TMC3    O1 9718   2.937   4.647  15.557  0.0807 -0.3680 -0.1297
  656TMC3    O2 9719   2.643   4.596  16.003 -0.4520  0.1697 -0.1606
  657TMC3    C1 9720   2.145   3.544  14.775 -0.5207  0.3065  0.4216
  657TMC3    C2 9721   2.163   3.538  14.913  0.6965  0.3621 -0.2756
  657TMC3    C3 9722   2.144   3.655  14.974  0.5428 -0.4689  0.0777
  657TMC3    C4 9723   2.100   3.653  14.706  0.4799 -0.2659 -0.3245
  657TMC3    C5 9724   2.058   3.761  14.778  0.2300 -0.2272 -0.2334
  657TMC3    C6 9725   2.089   3.766  14.910 -0.5198 -0.2200  0.1412
  657TMC3     C 9726   2.200   3.435  14.697 -0.2568  0.0271 -0.1911
  657TMC3     O 9727   2.239   3.468  14.585  0.1855 -0.0102 -0.0381
  657TMC3     H 9728   2.207   3.448  14.953  0.3778  0.9409  1.3566
  657TMC3    H1 9729   2.105   3.654  14.598  1.7500 -0.2479 -0.2610
  657TMC3    H2 9730   2.031   3.840  14.965  0.5472 -0.1099  1.1405
  657TMC3    C7 9731   1.998   3.883  14.719 -0.1131 -0.0157  0.1256
  657TMC3    C8 9732   2.172   3.668  15.122 -0.2074 -0.1670 -0.5457
  657TMC3    O1 9733   1.988   3.986  14.786  0.7796 -0.0267 -0.1943
  657TMC3    O2 9734   2.158   3.782  15.157 -0.0075  1.0215 -0.5200
  658MPD2     C 9735   3.602   3.728  14.726  0.2319  0.2309 -0.7600
  658MPD2    C1 9736   3.551   3.838  14.788 -0.2710  0.1831 -0.1595
  658MPD2    C2 9737   3.587   3.969  14.735 -0.7233 -0.0918 -0.5105
  658MPD2    C3 9738   3.676   3.992  14.635  0.0843  0.0320 -0.0002
  658MPD2    C4 9739   3.728   3.878  14.584  0.1708 -0.5592 -0.6026
  658MPD2    C5 9740   3.689   3.753  14.629  0.3389 -0.7688 -0.0160
  658MPD2     H 9741   3.535   4.056  14.773 -0.6109 -0.9515  1.6138
  658MPD2    H1 9742   3.793   3.874  14.498  0.9702  0.3769 -0.0461
  658MPD2    H2 9743   3.584   3.622  14.741 -3.2405  1.2125  1.7055
  658MPD2    H3 9744   3.730   3.661  14.588  3.5504  0.6900 -0.0775
  658MPD2     N 9745   3.705   4.128  14.587 -0.1256 -0.4757 -0.4683
  658MPD2    H5 9746   3.678   4.206  14.646  0.4799 -0.0978 -0.7007
  658MPD2    N1 9747   3.465   3.822  14.900  0.1807 -0.5329  0.4616
  658MPD2    H7 9748   3.420   3.732  14.909 -0.2256 -0.3866 -0.1479
  659TMC3    C1 9749   3.284   3.877  15.045  0.7552  0.2011 -0.3997
  659TMC3    C2 9750   3.267   3.929  15.170 -0.1900  0.6750 -0.0163
  659TMC3    C3 9751   3.139   3.934  15.210 -0.5541  0.2294  0.1964
  659TMC3    C4 9752   3.183   3.849  14.961 -0.0454  0.2165  0.1355
  659TMC3    C5 9753   3.056   3.880  15.004  0.9270  0.1614 -0.1128
  659TMC3    C6 9754   3.036   3.920  15.128  0.1930 -0.0716 -1.1384
  659TMC3     C 9755   3.407   3.920  14.977  0.1440  0.7150 -0.9680
  659TMC3     O 9756   3.457   4.031  15.003  0.4107 -0.3708 -0.0922
  659TMC3     H 9757   3.343   3.980  15.228  1.0410  0.0295 -1.0408
  659TMC3    H1 9758   3.200   3.822  14.857 -1.7223 -0.4790  0.0446
  659TMC3    H2 9759   2.936   3.916  15.171  0.3431 -0.4862 -0.8325
  659TMC3    C7 9760   2.932   3.850  14.928  0.3357  0.4999  0.3940
  659TMC3    C8 9761   3.113   3.997  15.340 -0.1319  1.1217 -0.1147
  659TMC3    O1 9762   2.827   3.890  14.978  0.0534 -0.1060 -0.5564
  659TMC3    O2 9763   3.011   4.060  15.345  0.2826  0.2873  0.4670
  660MPD2     C 9764   1.728   2.575  12.779  0.1954 -0.2656 -0.1994
  660MPD2    C1 9765   1.599   2.628  12.798  0.4119 -0.1150  0.4973
  660MPD2    C2 9766   1.505   2.551  12.870 -0.0041 -0.3526  0.7291
  660MPD2    C3 9767   1.540   2.433  12.931 -0.2168  0.1302  0.3397
  660MPD2    C4 9768   1.664   2.395  12.914 -0.1030 -0.6897 -0.3877
  660MPD2    C5 9769   1.763   2.464  12.849  0.1043 -0.1821 -0.5260
  660MPD2     H 9770   1.407   2.589  12.894  1.0190  3.2478 -0.7626
  660MPD2    H1 9771   1.712   2.306  12.955  0.3303 -0.1228  0.3372
  660MPD2    H2 9772   1.804   2.624  12.719  1.4052 -2.6542 -0.6083
  660MPD2    H3 9773   1.865   2.431  12.839 -0.9081 -2.5879 -2.7398
  660MPD2     N 9774   1.458   2.358  13.015 -0.0406  0.3281 -0.8830
  660MPD2    H5 9775   1.494   2.266  13.036 -0.0212  0.2663 -1.1987
  660MPD2    N1 9776   1.574   2.756  12.741  0.4372 -0.0285  0.3295
  660MPD2    H7 9777   1.648   2.788  12.680  0.6634 -2.5116 -0.7324
  661TMC3    C1 9778   1.468   2.960  12.720 -0.6931 -0.5831  0.4905
  661TMC3    C2 9779   1.526   2.988  12.598 -0.1709 -0.1076 -0.2806
  661TMC3    C3 9780   1.457   3.075  12.516 -0.3178 -0.1781  0.0709
  661TMC3    C4 9781   1.357   3.027  12.759  0.1113 -0.2933  0.3693
  661TMC3    C5 9782   1.289   3.111  12.681 -0.5500 -0.4125 -0.6792
  661TMC3    C6 9783   1.334   3.138  12.552  0.1847  0.0627  0.6601
  661TMC3     C 9784   1.460   2.822  12.762  0.4567 -0.4389 -0.9927
  661TMC3     O 9785   1.365   2.790  12.832  0.0499 -0.0479  0.1699
  661TMC3     H 9786   1.602   2.918  12.564  1.1794  0.7221  1.0792
  661TMC3    H1 9787   1.306   2.996  12.850  0.5850 -1.0617  0.3731
  661TMC3    H2 9788   1.291   3.223  12.500  0.0502 -1.3000 -1.4644
  661TMC3    C7 9789   1.150   3.140  12.713 -0.5556  0.2961  0.1387
  661TMC3    C8 9790   1.517   3.101  12.385 -0.2988 -0.5605  0.1625
  661TMC3    O1 9791   1.121   3.116  12.829 -0.3703 -0.3540 -0.3511
  661TMC3    O2 9792   1.632   3.059  12.366  0.0463 -0.1182  0.2360
  662MPD2     C 9793   1.235   2.682  16.973 -0.9168 -0.3758 -0.1769
  662MPD2    C1 9794   1.159   2.647  17.084 -0.0251 -0.6960 -0.1411
  662MPD2    C2 9795   1.091   2.750  17.149  1.0458  0.1870 -0.5707
  662MPD2    C3 9796   1.095   2.884  17.107  0.7811 -0.2770 -0.2601
  662MPD2    C4 9797   1.166   2.917  16.996  0.2352  0.6009 -0.3598
  662MPD2    C5 9798   1.230   2.814  16.927  0.8726  0.2393  0.1387
  662MPD2     H 9799   1.041   2.725  17.243  2.1206  0.7749  0.1572
  662MPD2    H1 9800   1.179   3.019  16.960  1.1159  0.2968 -0.9207
  662MPD2    H2 9801   1.291   2.609  16.916  0.8078  0.9263 -0.1554
  662MPD2    H3 9802   1.288   2.834  16.838  0.4511 -1.9265 -0.6188
  662MPD2     N 9803   1.050   2.985  17.194 -0.3573 -0.1569  0.1113
  662MPD2    H5 9804   1.074   3.082  17.173 -3.3976  0.5540 -0.0013
  662MPD2    N1 9805   1.172   2.521  17.153 -0.1207 -0.2592 -0.6829
  662MPD2    H7 9806   1.127   2.520  17.244  2.0390  0.4813  0.4132
  663TMC3    C1 9807   1.248   2.308  17.198  0.2553 -0.0225 -0.2406
  663TMC3    C2 9808   1.226   2.339  17.331 -0.1048 -0.4461 -0.2005
  663TMC3    C3 9809   1.255   2.236  17.417  0.4146 -0.2598  0.0142
  663TMC3    C4 9810   1.303   2.190  17.151 -0.0074  0.0203  0.4801
  663TMC3    C5 9811   1.327   2.089  17.241 -0.1394 -0.5535  0.4077
  663TMC3    C6 9812   1.307   2.117  17.371  0.5712  0.0510  0.1234
  663TMC3     C 9813   1.248   2.414  17.108 -0.1991 -0.7662  0.2004
  663TMC3     O 9814   1.304   2.390  16.997  0.2275 -0.5692  0.9753
  663TMC3     H 9815   1.226   2.439  17.372 -0.2362 -1.4500  2.2870
  663TMC3    H1 9816   1.300   2.172  17.044 -0.0718  2.1452  0.1098
  663TMC3    H2 9817   1.363   2.059  17.443  3.1072 -0.3688 -2.1927
  663TMC3    C7 9818   1.429   1.988  17.212 -0.1031  0.0441  1.2477
  663TMC3    C8 9819   1.311   2.275  17.547 -0.1952 -0.3595  0.1011
  663TMC3    O1 9820   1.501   2.011  17.116  0.5369 -0.2249  0.4465
  663TMC3    O2 9821   1.397   2.360  17.549  0.2672 -0.1743  0.1232
  664MPD2     C 9822   3.961   1.145  17.243  0.3758 -0.1141  0.0493
  664MPD2    C1 9823   4.055   1.114  17.337 -0.1114  0.4747 -0.1286
  664MPD2    C2 9824   4.015   1.104  17.472  1.0308 -0.0776 -0.4190
  664MPD2    C3 9825   3.878   1.120  17.512 -0.3188 -0.0056 -0.2462
  664MPD2    C4 9826   3.781   1.150  17.412 -0.6045  0.2852  0.4260
  664MPD2    C5 9827   3.824   1.157  17.281 -0.2347 -0.5535 -0.1557
  664MPD2     H 9828   4.091   1.077  17.544 -0.1157  1.8620  1.5285
  664MPD2    H1 9829   3.676   1.170  17.428 -1.0669 -1.0165 -1.0256
  664MPD2    H2 9830   3.990   1.166  17.141  0.4291  2.6504  0.6330
  664MPD2    H3 9831   3.749   1.184  17.207 -1.8540 -1.1313  1.2970
  664MPD2     N 9832   3.849   1.106  17.650  0.4073 -0.3623 -0.1547
  664MPD2    H5 9833   3.924   1.099   0.038  0.4190  0.3652 -0.0984
  664MPD2    N1 9834   4.196   1.100  17.315  0.1056 -0.3830  0.6564
  664MPD2    H7 9835   4.257   1.096  17.396 -1.7594 -1.2720  2.0198
  665TMC3    C1 9836   3.730   1.108   0.167 -0.3385 -0.1269  0.2382
  665TMC3    C2 9837   3.793   1.004   0.224 -0.8992  0.0033  0.2399
  665TMC3    C3 9838   3.773   0.992   0.358 -0.2036  0.4494 -0.5924
  665TMC3    C4 9839   3.662   1.209   0.239  0.7986  0.5274 -0.4635
  665TMC3    C5 9840   3.668   1.204   0.373  0.7114  0.7560 -0.3579
  665TMC3    C6 9841   3.707   1.086   0.438 -0.5137 -0.0035  0.3708
  665TMC3     C 9842   3.723   1.116   0.021 -0.1875 -0.2494 -0.9590
  665TMC3     O 9843   3.621   1.154  17.644 -0.4180  0.0876 -0.5041
  665TMC3     H 9844   3.836   0.937   0.151  0.7721 -1.2973  2.3962
  665TMC3    H1 9845   3.629   1.300   0.190  1.9293  1.9172  1.3738
  665TMC3    H2 9846   3.697   1.077   0.546  0.1713 -1.3584  0.3186
  665TMC3    C7 9847   3.619   1.317   0.443  0.1842 -0.0373 -0.6472
  665TMC3    C8 9848   3.810   0.872   0.430  0.2615  0.3212  0.5947
  665TMC3    O1 9849   3.557   1.411   0.389  0.3689  0.5465  0.5675
  665TMC3    O2 9850   3.801   0.871   0.552  0.1961 -0.0968  0.3497
  666TMC3    C1 9851   3.705   1.031  10.251  0.8264 -0.1117 -0.1946
  666TMC3    C2 9852   3.669   0.992  10.121 -0.0441  0.0146 -0.6555
  666TMC3    C3 9853   3.598   1.079  10.042 -0.9283 -0.2151 -0.4516
  666TMC3    C4 9854   3.675   1.160  10.296  1.0436  0.5315 -0.2303
  666TMC3    C5 9855   3.612   1.246  10.201 -0.1794 -0.7939  0.2320
  666TMC3    C6 9856   3.579   1.210  10.072 -0.1910  0.3201  0.3179
  666TMC3     C 9857   3.744   0.934  10.352 -0.5274 -0.9356  0.2459
  666TMC3     O 9858   3.809   0.967  10.451 -0.4534 -0.1152  0.2453
  666TMC3     H 9859   3.695   0.892  10.088  1.1047  0.2495 -0.4682
  666TMC3    H1 9860   3.667   1.186  10.402  0.5523 -2.3424  0.4166
  666TMC3    H2 9861   3.513   1.269  10.009  0.2277  1.3313  0.8258
  666TMC3    C7 9862   3.561   1.378  10.240  0.0477 -0.8305 -0.3257
  666TMC3    C8 9863   3.588   1.025   9.909  0.1137 -0.6510  0.3265
  666TMC3    O1 9864   3.534   1.392  10.358 -0.5102  0.4333  0.3230
  666TMC3    O2 9865   3.568   0.905   9.895 -0.0056 -0.3022 -0.1603
  667MPD2     C 9866   0.167   0.993  14.862  0.6908 -0.1037 -0.4099
  667MPD2    C1 9867   0.116   1.105  14.927 -0.2647  0.4985 -0.0561
  667MPD2    C2 9868   4.696   1.130  14.917  0.2316 -1.0192  0.1384
  667MPD2    C3 9869   4.615   1.042  14.840 -0.5221  0.4418 -0.5328
  667MPD2    C4 9870   4.674   0.951  14.767  1.0858  0.2217 -0.3387
  667MPD2    C5 9871   0.090   0.925  14.773  0.3832  0.2616 -0.5689
  667MPD2     H 9872   4.651   1.203  14.983  1.6165  1.6157 -1.8296
  667MPD2    H1 9873   4.619   0.884  14.701 -0.1232  1.1092 -0.2231
  667MPD2    H2 9874   0.272   0.969  14.852  0.9459  1.6648 -1.8476
  667MPD2    H3 9875   0.141   0.874  14.693 -0.5328 -0.0276 -0.9647
  667MPD2     N 9876   4.475   1.058  14.833  0.6630 -0.0916 -0.2057
  667MPD2    H5 9877   4.433   0.999  14.762  1.0640  1.0615 -1.3960
  667MPD2    N1 9878   0.203   1.187  15.001  0.1645 -0.2272  0.1072
  667MPD2    H7 9879   0.168   1.267  15.053  0.1628 -0.5637  0.6296
  668TMC3    C1 9880   0.391   1.264  15.101  0.0883 -0.1004 -0.2983
  668TMC3    C2 9881   0.508   1.322  15.054  0.5893 -0.1128 -0.1728
  668TMC3    C3 9882   0.611   1.329  15.146  0.5838 -0.4110 -0.2831
  668TMC3    C4 9883   0.388   1.209  15.222  0.5262  0.1912 -0.0616
  668TMC3    C5 9884   0.495   1.214  15.306  0.3486  0.4405  0.6411
  668TMC3    C6 9885   0.611   1.275  15.273  0.4810  0.5952  0.0397
  668TMC3     C 9886   0.337   1.182  14.993  0.2184  0.3554  0.1458
  668TMC3     O 9887   0.416   1.137  14.914  0.2342  0.0052  0.1249
  668TMC3     H 9888   0.509   1.346  14.948  2.1080 -0.8003 -0.3099
  668TMC3    H1 9889   0.303   1.151  15.255  1.3916 -0.9882  0.1180
  668TMC3    H2 9890   0.696   1.277  15.341 -0.3653  3.7087  1.0323
  668TMC3    C7 9891   0.476   1.165  15.448  0.4692  0.5648  0.0802
  668TMC3    C8 9892   0.705   1.435  15.123  0.0528 -0.0004  1.1274
  668TMC3    O1 9893   0.564   1.090  15.489  0.4310  0.1413 -0.2638
  668TMC3    O2 9894   0.749   1.497  15.219  0.4230 -0.1175 -0.2192
  669TMC3    C1 9895   3.160   0.705  14.471 -0.7977 -1.1085  0.6482
  669TMC3    C2 9896   3.050   0.686  14.391 -0.2453 -0.8595  0.6593
  669TMC3    C3 9897   3.054   0.746  14.268 -0.3358 -0.5222 -0.3346
  669TMC3    C4 9898   3.270   0.773  14.430  0.0320 -0.2148 -0.0768
  669TMC3    C5 9899   3.263   0.825  14.304  0.4984 -0.2812 -0.5892
  669TMC3    C6 9900   3.157   0.821  14.221 -0.5285 -0.9485 -0.7718
  669TMC3     C 9901   3.137   0.654  14.608 -0.6097  0.1589  0.0637
  669TMC3     O 9902   3.025   0.608  14.634 -0.1012 -0.0826  0.2288
  669TMC3     H 9903   2.968   0.622  14.424  0.4453 -3.2977 -2.3776
  669TMC3    H1 9904   3.358   0.795  14.489 -0.2215  1.2012 -0.2401
  669TMC3    H2 9905   3.157   0.852  14.117 -1.1063  2.3020  0.1894
  669TMC3    C7 9906   3.367   0.929  14.279  0.1448 -1.1237  0.6119
  669TMC3    C8 9907   2.932   0.746  14.182  0.5734 -0.6960 -0.1989
  669TMC3    O1 9908   3.453   0.950  14.363  0.5590  0.2353 -0.1687
  669TMC3    O2 9909   2.945   0.751  14.060  0.2226 -0.1261  0.1975
  670MPD2     C 9910   1.873   3.800  13.395  0.5699  0.1459  0.8213
  670MPD2    C1 9911   1.921   3.789  13.523 -0.8350  0.2216  0.3128
  670MPD2    C2 9912   1.849   3.717  13.617 -0.5100  0.0198 -0.1994
  670MPD2    C3 9913   1.727   3.664  13.584 -0.1668  0.2974  0.1698
  670MPD2    C4 9914   1.678   3.686  13.460 -0.6065  0.0511  0.0037
  670MPD2    C5 9915   1.755   3.739  13.360 -0.7877 -0.2146  0.5950
  670MPD2     H 9916   1.896   3.696  13.713 -0.1858 -2.1210 -0.8278
  670MPD2    H1 9917   1.583   3.639  13.434 -0.4881 -0.8076  1.1080
  670MPD2    H2 9918   1.917   3.864  13.320 -1.2126 -0.1358 -0.4848
  670MPD2    H3 9919   1.714   3.751  13.260  1.9765  0.8556 -0.4157
  670MPD2     N 9920   1.647   3.609  13.685  0.1759  0.0027 -0.1278
  670MPD2    H5 9921   1.665   3.626  13.783 -0.1095  0.9023 -0.2311
  670MPD2    N1 9922   2.048   3.834  13.557  0.1727 -0.4137 -0.2139
  670MPD2    H7 9923   2.073   3.827  13.655 -2.0056 -0.3219  0.3645
  671TMC3    C1 9924   1.492   3.476  13.792 -0.5052 -0.0086 -0.5207
  671TMC3    C2 9925   1.581   3.423  13.885 -0.7049  0.5648 -0.4820
  671TMC3    C3 9926   1.523   3.333  13.972  0.5703 -0.1547 -0.0723
  671TMC3    C4 9927   1.358   3.440  13.782  0.0196  0.0073 -0.5029
  671TMC3    C5 9928   1.306   3.347  13.866 -0.3886 -0.3189 -0.0124
  671TMC3    C6 9929   1.394   3.294  13.962 -0.2089  0.6226  0.5983
  671TMC3     C 9930   1.550   3.515  13.667 -1.2407 -0.3863  0.8583
  671TMC3     O 9931   1.514   3.458  13.568 -0.0394 -0.0007  0.2024
  671TMC3     H 9932   1.688   3.429  13.868 -1.1344  0.3943 -3.2026
  671TMC3    H1 9933   1.303   3.473  13.694 -0.3998  0.1823 -0.1723
  671TMC3    H2 9934   1.364   3.205  14.015  1.6002  0.1670  0.8605
  671TMC3    C7 9935   1.217   3.251  13.809 -0.1701 -0.3363 -0.7501
  671TMC3    C8 9936   1.613   3.226  14.023 -0.3003  0.1923 -0.9231
  671TMC3    O1 9937   1.229   3.132  13.835  0.0785 -0.0635  0.4658
  671TMC3    O2 9938   1.695   3.176  13.949  1.0715  0.5201  0.7702
  672MPD2     C 9939   2.734   4.102   1.178 -0.0192  0.1840 -0.1170
  672MPD2    C1 9940   2.815   4.024   1.098  0.2582 -0.2091  0.1099
  672MPD2    C2 9941   2.950   4.059   1.077 -0.0887  0.1131 -0.0555
  672MPD2    C3 9942   2.992   4.182   1.122  0.4597 -0.8314  0.2011
  672MPD2    C4 9943   2.909   4.266   1.188 -0.2569  0.0284  0.0590
  672MPD2    C5 9944   2.785   4.223   1.226 -0.9795  0.0832  0.0612
  672MPD2     H 9945   3.005   3.992   1.012  0.4390  1.2025 -0.7161
  672MPD2    H1 9946   2.941   4.368   1.204  0.4223 -0.0702 -0.6782
  672MPD2    H2 9947   2.632   4.078   1.207 -0.0788 -0.1083 -0.5466
  672MPD2    H3 9948   2.730   4.296   1.284 -2.1148  0.4718 -1.4763
  672MPD2     N 9949   3.118   4.240   1.097 -0.5260 -0.3293 -0.4849
  672MPD2    H5 9950   3.132   4.340   1.110  3.3785 -1.3597  3.3350
  672MPD2    N1 9951   2.763   3.914   1.036 -0.5499  0.3281  0.1229
  672MPD2    H7 9952   2.834   3.863   0.985  0.4280  0.1722  1.6541
  673TMC3    C1 9953   2.608   3.751   0.947  0.1897  0.8402  0.1059
  673TMC3    C2 9954   2.709   3.665   0.909  0.3540  0.7117  0.8104
  673TMC3    C3 9955   2.672   3.550   0.826 -0.2780  0.0667 -0.8434
  673TMC3    C4 9956   2.477   3.739   0.905 -0.2473 -0.3190  0.0148
  673TMC3    C5 9957   2.452   3.633   0.822  0.2211 -0.0734  0.4348
  673TMC3    C6 9958   2.543   3.531   0.786 -0.6548  0.2266 -0.5094
  673TMC3     C 9959   2.632   3.870   1.031 -0.8143  1.0612 -0.4047
  673TMC3     O 9960   2.536   3.938   1.068 -0.3583 -0.0513 -0.1829
  673TMC3     H 9961   2.805   3.677   0.956  0.8859 -0.0275 -0.0883
  673TMC3    H1 9962   2.398   3.803   0.943  0.8139  0.0957  1.5410
  673TMC3    H2 9963   2.512   3.451   0.719 -0.2112  0.5099 -1.0613
  673TMC3    C7 9964   2.352   3.660   0.718 -0.1107  0.8609  0.0596
  673TMC3    C8 9965   2.763   3.441   0.794  0.4795  0.0237 -0.8256
  673TMC3    O1 9966   2.326   3.570   0.643  0.3961  0.0261 -0.0224
  673TMC3    O2 9967   2.731   3.351   0.723  0.5324 -0.4977  0.1681
  674MPD2     C 9968   1.470   3.270  17.102  0.2635 -0.3379 -0.2171
  674MPD2    C1 9969   1.477   3.242  17.236  0.4318  0.6821 -0.4828
  674MPD2    C2 9970   1.518   3.341  17.320  0.3223 -0.5655 -0.3672
  674MPD2    C3 9971   1.557   3.468  17.275 -0.1762 -0.4400 -0.9058
  674MPD2    C4 9972   1.543   3.497  17.140 -0.3256 -0.1034  0.8191
  674MPD2    C5 9973   1.517   3.393  17.050 -0.3915  0.0853 -0.1956
  674MPD2     H 9974   1.519   3.319  17.427 -0.0529 -2.3455 -0.7178
  674MPD2    H1 9975   1.567   3.594  17.100  0.8540 -0.2195  1.2408
  674MPD2    H2 9976   1.440   3.201  17.024 -0.4526 -1.8923  1.4362
  674MPD2    H3 9977   1.512   3.416  16.944 -1.2820 -0.9854 -0.3788
  674MPD2     N 9978   1.622   3.539  17.376 -0.1578 -0.7718  0.1017
  674MPD2    H5 9979   1.607   3.508  17.471  1.7752  2.1872  1.3797
  674MPD2    N1 9980   1.419   3.132  17.296  0.2567  0.3779 -0.5253
  674MPD2    H7 9981   1.427   3.130  17.397 -3.0205 -0.3917 -0.2597
  675TMC3    C1 9982   1.457   2.912  17.348  0.0241  0.4058  0.3220
  675TMC3    C2 9983   1.357   2.828  17.382  0.1003 -0.0650  0.3753
  675TMC3    C3 9984   1.352   2.798  17.512  0.2964 -0.0747  0.6153
  675TMC3    C4 9985   1.535   2.979  17.435 -0.3612 -0.5305  0.7531
  675TMC3    C5 9986   1.512   2.953  17.570  0.7337 -0.3912 -0.6415
  675TMC3    C6 9987   1.419   2.862  17.614  1.0397  0.2874  0.4255
  675TMC3     C 9988   1.419   3.005  17.245  0.5123 -0.0743  0.0497
  675TMC3     O 9989   1.430   2.969  17.130 -0.2066  0.0574  0.2619
  675TMC3     H 9990   1.301   2.775  17.306  0.2857 -0.0549  0.2311
  675TMC3    H1 9991   1.619   3.043  17.408 -0.2976 -0.8999  0.0883
  675TMC3    H2 9992   1.389   2.860   0.038  2.3053  2.1264  0.8182
  675TMC3    C7 9993   1.593   3.021  17.675  0.8332  0.5190  0.5593
  675TMC3    C8 9994   1.227   2.732  17.544  0.1308  0.5261  0.6628
  675TMC3    O1 9995   1.661   3.115  17.638 -0.1488 -0.5985  0.0988
  675TMC3    O2 9996   1.139   2.730  17.457 -0.3629  0.9819 -0.1689
  676MPD2     C 9997   4.207   2.088  10.808  0.8582  0.1267  0.0998
  676MPD2    C1 9998   4.109   2.014  10.872  0.3277  0.6322 -0.6229
  676MPD2    C2 9999   4.121   1.877  10.880  0.5529  0.5535  0.2967
  676MPD2    C310000   4.229   1.807  10.829 -0.6223 -0.5224  0.2575
  676MPD2    C410001   4.303   1.881  10.742  0.3846  0.1012 -0.4859
  676MPD2    C510002   4.298   2.016  10.745 -0.1563 -0.5995 -0.2348
  676MPD2     H10003   4.046   1.819  10.932  0.9771  0.2413  0.5644
  676MPD2    H110004   4.385   1.834  10.689  1.6027  0.5288  1.0090
  676MPD2    H210005   4.204   2.196  10.816 -0.5497  0.0063  1.3845
  676MPD2    H310006   4.381   2.058  10.689 -0.8607 -0.4318 -1.1501
  676MPD2     N10007   4.248   1.671  10.844 -0.0809 -0.0847  0.1293
  676MPD2    H510008   4.318   1.630  10.783 -0.6734 -1.1459  0.1570
  676MPD2    N110009   4.002   2.060  10.949 -0.5629  0.1555 -0.3229
  676MPD2    H710010   3.938   1.988  10.980 -0.2362  0.9901  2.3047
  677TMC3    C110011   3.863   2.201  11.080  0.6512 -0.7189 -0.5118
  677TMC3    C210012   3.860   2.110  11.175  0.4820 -0.7053 -0.5559
  677TMC3    C310013   3.807   2.141  11.296 -0.1534 -0.1773 -0.6433
  677TMC3    C410014   3.813   2.324  11.078  0.5252 -0.7642 -0.2100
  677TMC3    C510015   3.732   2.344  11.192  0.2811 -0.0240 -0.0600
  677TMC3    C610016   3.730   2.256  11.299 -0.4500 -0.0120 -0.0594
  677TMC3     C10017   3.971   2.187  10.989  0.8382 -0.4481  0.1402
  677TMC3     O10018   4.040   2.287  10.978  0.4581  0.0989  0.8315
  677TMC3     H10019   3.925   2.023  11.172 -0.6272 -1.4858 -1.7762
  677TMC3    H110020   3.825   2.394  10.996 -1.7930  1.7127  1.5718
  677TMC3    H210021   3.675   2.291  11.385  0.3877  2.7516 -0.6541
  677TMC3    C710022   3.711   2.480  11.234 -0.9038 -0.4274 -0.2804
  677TMC3    C810023   3.873   2.119  11.423 -0.0755 -0.2078 -0.4691
  677TMC3    O110024   3.628   2.493  11.324 -0.5175  0.0902 -0.4031
  677TMC3    O210025   3.827   2.178  11.518 -0.3907 -0.2173 -0.3004
  678MPD2     C10026   0.600   1.073   1.402 -0.3923 -0.4423  0.1858
  678MPD2    C110027   0.661   1.126   1.289  0.5982  0.2091  0.0425
  678MPD2    C210028   0.586   1.209   1.209  0.5315  0.5424 -0.4683
  678MPD2    C310029   0.456   1.243   1.243  0.4122 -0.3968  0.4398
  678MPD2    C410030   0.398   1.178   1.350 -0.0568  0.2596  0.0770
  678MPD2    C510031   0.473   1.102   1.436  0.1407 -0.1939  0.1137
  678MPD2     H10032   0.634   1.255   1.124  0.6422  0.5654 -0.3927
  678MPD2    H110033   0.291   1.179   1.369 -0.5382 -0.9461 -2.5029
  678MPD2    H210034   0.658   1.011   1.469 -0.7182 -0.5477  0.3725
  678MPD2    H310035   0.429   1.048   1.519 -1.1956 -1.9171 -1.7195
  678MPD2     N10036   0.368   1.303   1.148 -0.1688  0.2516  0.4217
  678MPD2    H510037   0.392   1.306   1.049  3.0798  2.1604  1.2717
  678MPD2    N110038   0.795   1.101   1.255  0.4791  0.4064 -0.5965
  678MPD2    H710039   0.834   1.155   1.178  2.2761 -0.0630 -0.0120
  679TMC3    C110040   1.249   0.999   1.280  0.4998 -0.1620 -0.5765
  679TMC3    C210041   1.128   0.963   1.336 -0.4627 -0.5101 -0.6695
  679TMC3    C310042   1.029   1.056   1.301  0.4173  0.4136  0.2328
  679TMC3    C410043   1.279   1.120   1.215  0.4283  0.1450  0.0333
  679TMC3    C510044   1.176   1.205   1.197 -0.7111 -0.0666  0.6957
  679TMC3    C610045   1.052   1.176   1.244 -0.1983  0.4452  0.2157
  679TMC3     C10046   1.359   0.908   1.305  1.3804  0.2637  0.2661
  679TMC3     O10047   1.453   0.905   1.230  0.5600  0.4000  0.2613
  679TMC3     H10048   1.107   0.866   1.380 -1.0289  0.1244  0.4361
  679TMC3    H110049   1.366   1.135   1.152  0.0286 -0.8507 -0.7594
  679TMC3    H210050   0.974   1.251   1.238 -1.1899 -0.3073  3.3123
  679TMC3    C710051   1.180   1.326   1.118 -0.2827  0.1182 -0.6471
  679TMC3    C810052   0.885   1.018   1.321 -0.0214 -0.4839 -0.5015
  679TMC3    O110053   1.076   1.354   1.065  0.3608 -0.4222 -0.6638
  679TMC3    O210054   0.860   0.943   1.415  0.1726  0.0658  0.2156
  680MPD2     C10055   1.134   0.351  13.438  0.4365 -0.0266 -0.8873
  680MPD2    C110056   1.252   0.305  13.496  0.1308 -0.2819  0.2783
  680MPD2    C210057   1.352   0.395  13.531 -0.7559  0.9458 -0.1801
  680MPD2    C310058   1.329   0.531  13.509 -0.5101 -0.1881  0.2147
  680MPD2    C410059   1.220   0.577  13.441  0.1700 -0.0719  0.1780
  680MPD2    C510060   1.119   0.483  13.417  0.5742  0.1691  0.0826
  680MPD2     H10061   1.433   0.348  13.585 -1.9953 -2.0282 -0.8686
  680MPD2    H110062   1.199   0.680  13.415 -0.2537  0.2580  1.8063
  680MPD2    H210063   1.046   0.289  13.426  0.5459  0.0666 -2.2021
  680MPD2    H310064   1.023   0.510  13.376 -0.4336 -3.1773  0.1891
  680MPD2     N10065   1.427   0.627  13.548 -0.3773 -0.1439  0.0539
  680MPD2    H510066   1.417   0.723  13.517 -0.2442  0.2947  1.4087
  680MPD2    N110067   1.282   0.171  13.517  0.0020 -0.2625  0.0397
  680MPD2    H710068   1.380   0.152  13.536  0.5404 -1.9683 -4.3000
  681TMC3    C110069   1.260   4.659  13.518 -0.1422 -0.8100 -0.2457
  681TMC3    C210070   1.188   4.553  13.570 -0.2634 -0.4060 -0.9074
  681TMC3    C310071   1.241   4.425  13.552 -0.2542  0.8188  0.7574
  681TMC3    C410072   1.368   4.639  13.428  0.2733 -0.1383 -0.0764
  681TMC3    C510073   1.403   4.510  13.407  0.3797 -0.5662  0.2217
  681TMC3    C610074   1.339   4.409  13.463 -0.1787 -0.2760 -0.0285
  681TMC3     C10075   1.193   0.067  13.514  0.0598  0.6790  0.3645
  681TMC3     O10076   1.075   0.071  13.534  0.1362 -0.2259 -0.1298
  681TMC3     H10077   1.104   4.575  13.635 -1.3183 -0.7299 -2.1605
  681TMC3    H110078   1.431   0.004  13.402  0.5522 -0.2348  0.2866
  681TMC3    H210079   1.383   4.310  13.465 -0.0884 -0.2092  1.5758
  681TMC3    C710080   1.529   4.482  13.333 -0.3850  0.3348 -0.2567
  681TMC3    C810081   1.251   4.341  13.670  0.0827 -0.2814 -0.8618
  681TMC3    O110082   1.577   4.370  13.337 -0.2852  0.0162  0.2723
  681TMC3    O210083   1.272   4.225  13.651 -0.1627  0.3988 -0.0027
  682MPD2     C10084   3.118   2.515  10.870 -0.2648  0.4033  0.2680
  682MPD2    C110085   3.078   2.386  10.898  0.2743  0.3336 -0.1690
  682MPD2    C210086   3.036   2.363  11.027 -0.4724 -0.9943  0.4137
  682MPD2    C310087   3.028   2.458  11.128 -0.1440 -0.3617 -0.0531
  682MPD2    C410088   3.068   2.588  11.093 -0.2976  0.4924  0.2729
  682MPD2    C510089   3.102   2.613  10.967  1.2365  0.2077 -0.4679
  682MPD2     H10090   3.001   2.265  11.059 -1.9261 -0.7094 -0.2927
  682MPD2    H110091   3.074   2.671  11.162  0.7943  0.2298  0.5025
  682MPD2    H210092   3.156   2.543  10.773 -1.7022  1.2828 -0.0423
  682MPD2    H310093   3.143   2.713  10.955 -0.4625  1.1516  1.4736
  682MPD2     N10094   3.000   2.428  11.266 -0.2363  0.4928  0.0977
  682MPD2    H510095   3.026   2.499  11.334  1.6313 -0.4100  0.3422
  682MPD2    N110096   3.081   2.281  10.811  0.3290 -0.7000 -0.9382
  682MPD2    H710097   3.061   2.193  10.856 -0.5948  0.2930  0.5749
  683TMC3    C110098   3.014   2.229  11.640  0.1937 -0.7441 -0.4153
  683TMC3    C210099   2.940   2.115  11.657  0.1938 -0.2444  0.5255
  683TMC3    C310100   2.835   2.091  11.574 -0.8763  0.6127 -0.8657
  683TMC3    C410101   3.001   2.313  11.530  0.0053  0.5932 -0.1914
  683TMC3    C510102   2.901   2.282  11.445 -0.4839 -1.0869  0.0086
  683TMC3    C610103   2.820   2.178  11.464 -0.2471  0.5921 -0.0875
  683TMC3     C10104   3.157   2.222  11.678 -0.6156 -0.2598  0.5604
  683TMC3     O10105   3.208   2.110  11.681  0.3661  0.1936 -0.2835
  683TMC3     H10106   2.971   2.055  11.742  3.5060  1.5588  0.5723
  683TMC3    H110107   3.078   2.382  11.498  0.7418 -0.0623  0.1951
  683TMC3    H210108   2.735   2.157  11.402  1.0132 -2.1711 -0.8796
  683TMC3    C710109   2.924   2.315  11.305  0.7183 -0.0921 -0.1409
  683TMC3    C810110   2.802   1.958  11.540  0.1375  0.2771  0.0575
  683TMC3    O110111   2.855   2.243  11.231  0.5696 -0.0907  0.5689
  683TMC3    O210112   2.762   1.928  11.430  0.5399  0.3006 -0.1617
  684MPD2     C10113   1.344   1.502  16.532  0.2175 -0.1381 -0.5374
  684MPD2    C110114   1.374   1.509  16.398 -0.0084  0.9644 -0.2738
  684MPD2    C210115   1.413   1.626  16.345  0.3289 -0.5154  0.5120
  684MPD2    C310116   1.420   1.743  16.419 -0.6969  0.2463  0.4068
  684MPD2    C410117   1.372   1.741  16.550 -0.5735  0.1216 -0.4593
  684MPD2    C510118   1.350   1.619  16.610  0.3182 -0.4212 -0.2102
  684MPD2     H10119   1.440   1.625  16.240  0.0702 -1.1843  0.4573
  684MPD2    H110120   1.364   1.830  16.612  1.9715 -0.8216  1.2088
  684MPD2    H210121   1.324   1.411  16.587  2.2250 -0.3997 -0.2337
  684MPD2    H310122   1.327   1.628  16.716  0.7174 -1.8410 -0.0037
  684MPD2     N10123   1.469   1.867  16.374  0.4972  0.3175  0.3956
  684MPD2    H510124   1.493   1.934  16.446 -0.8270 -1.6029  2.6356
  684MPD2    N110125   1.365   1.397  16.320  0.0661  0.4715  0.7641
  684MPD2    H710126   1.364   1.407  16.219  1.0198 -0.2628  0.6864
  685TMC3    C110127   1.417   1.190  16.256  0.3873 -0.1086  0.1055
  685TMC3    C210128   1.334   1.222  16.154 -0.5809 -0.2305 -0.2710
  685TMC3    C310129   1.381   1.203  16.030 -0.3500  0.1379 -0.1131
  685TMC3    C410130   1.547   1.169  16.246  0.0563  0.2364  0.9301
  685TMC3    C510131   1.594   1.163  16.120  0.2800  0.1759 -0.9729
  685TMC3    C610132   1.510   1.173  16.005  0.3377  0.0171  0.8443
  685TMC3     C10133   1.374   1.271  16.372  0.1753  0.3042  0.2456
  685TMC3     O10134   1.415   1.229  16.478 -0.5465 -0.4952 -0.9501
  685TMC3     H10135   1.230   1.223  16.183 -0.4268 -0.9879  0.3176
  685TMC3    H110136   1.613   1.191  16.329  0.9734  1.6028 -0.1520
  685TMC3    H210137   1.543   1.162  15.903 -2.2330  1.4557 -0.1333
  685TMC3    C710138   1.741   1.174  16.118  0.7266  0.4341  0.3023
  685TMC3    C810139   1.286   1.207  15.915 -0.4966 -0.6300 -0.2643
  685TMC3    O110140   1.791   1.118  16.216  0.5142 -0.0378  0.2933
  685TMC3    O210141   1.325   1.152  15.817  0.1439  0.7789 -0.1953
  686MPD2     C10142   2.987   0.823  15.493  0.0344  0.2227  0.4358
  686MPD2    C110143   3.014   0.858  15.619  0.5952 -0.5135  0.1250
  686MPD2    C210144   3.090   0.781  15.707  0.2359  0.1626 -0.5837
  686MPD2    C310145   3.137   0.658  15.661 -0.1819 -0.9657  0.3460
  686MPD2    C410146   3.115   0.631  15.526 -0.0577 -0.0976 -0.6928
  686MPD2    C510147   3.046   0.711  15.444 -0.9827  0.0632 -0.2724
  686MPD2     H10148   3.112   0.816  15.807 -1.4491 -0.2239 -0.0635
  686MPD2    H110149   3.158   0.540  15.487 -0.1510  0.1639 -1.3980
  686MPD2    H210150   2.920   0.880  15.430 -1.1249 -1.2703  0.3164
  686MPD2    H310151   3.033   0.684  15.340  1.0025  1.5771 -0.8973
  686MPD2     N10152   3.191   0.556  15.741  0.5927 -0.0881  0.1719
  686MPD2    H510153   3.238   0.481  15.690 -0.0092 -1.7703  2.1184
  686MPD2    N110154   2.941   0.975  15.668  0.5059  0.2283  0.7598
  686MPD2    H710155   2.887   1.026  15.598  0.6123  0.8024  1.1044
  687TMC3    C110156   3.099   0.610  15.955  0.0203  0.7015 -0.1833
  687TMC3    C210157   2.967   0.604  15.921  0.2449  0.1495 -0.3023
  687TMC3    C310158   2.872   0.639  16.013  0.4064 -0.0224 -0.6776
  687TMC3    C410159   3.137   0.649  16.073 -0.3164 -0.6686 -0.2887
  687TMC3    C510160   3.052   0.698  16.162 -0.1243 -0.4355 -0.3679
  687TMC3    C610161   2.916   0.687  16.134 -0.0545  0.6706  0.1479
  687TMC3     C10162   3.197   0.543  15.874 -0.1647  0.1748 -0.0339
  687TMC3     O10163   3.268   0.470  15.940 -0.2236  0.0604  0.5063
  687TMC3     H10164   2.939   0.556  15.828 -1.1091 -0.9574  0.6638
  687TMC3    H110165   3.243   0.653  16.094 -0.9323  0.0661  2.7344
  687TMC3    H210166   2.852   0.738  16.205 -1.0117 -2.2014  1.3774
  687TMC3    C710167   3.097   0.826  16.223  0.1859 -0.2703  0.3930
  687TMC3    C810168   2.739   0.661  15.979  0.3015  0.8616  0.1849
  687TMC3    O110169   3.040   0.933  16.200  0.0896 -0.3520 -0.9091
  687TMC3    O210170   2.658   0.668  16.070  0.2110  0.0943  0.2578
  688MPD2     C10171   2.429   0.312  17.322  0.6137  0.7969 -0.3429
  688MPD2    C110172   2.422   0.176  17.355  0.2571  0.4602  0.0980
  688MPD2    C210173   2.483   0.083  17.266 -0.6609  0.0210  0.8012
  688MPD2    C310174   2.550   0.118  17.152  0.0399 -0.4705 -0.1603
  688MPD2    C410175   2.553   0.249  17.119 -0.0472 -0.7307  0.0129
  688MPD2    C510176   2.492   0.343  17.205  0.4251  0.3676  0.7447
  688MPD2     H10177   2.478   4.695  17.280  2.0171 -0.3493 -1.0516
  688MPD2    H110178   2.592   0.278  17.023  0.7525 -1.3436  0.1522
  688MPD2    H210179   2.380   0.390  17.378 -2.6371 -0.3161 -1.6644
  688MPD2    H310180   2.488   0.449  17.181 -2.2454  0.3354  1.1365
  688MPD2     N10181   2.609   0.029  17.061  0.1162 -0.1952 -0.0623
  688MPD2    H510182   2.684   0.078  17.012 -0.7414  0.5517 -0.6238
  688MPD2    N110183   2.356   0.118  17.470 -0.6198 -0.1710  0.2851
  688MPD2    H710184   2.389   0.023  17.485 -1.0860 -0.9258 -3.4015
  689TMC3    C110185   2.254   0.116   0.009  0.8485 -0.5473  0.2428
  689TMC3    C210186   2.292   0.191   0.110 -0.0555  0.7312  0.2592
  689TMC3    C310187   2.307   0.134   0.232 -0.2919 -0.1224  0.0651
  689TMC3    C410188   2.256   4.701   0.014 -0.4428  0.1232 -0.0429
  689TMC3    C510189   2.264   4.640   0.139  0.3276 -0.6577 -0.4118
  689TMC3    C610190   2.288   0.000   0.247  0.3881 -0.7920 -0.2790
  689TMC3     C10191   2.281   0.188  17.560  0.6701  0.0636  0.8973
  689TMC3     O10192   2.243   0.304  17.552 -1.1557  0.7621  0.0470
  689TMC3     H10193   2.298   0.298   0.094 -0.3270  0.9549  1.6467
  689TMC3    H110194   2.229   4.650  17.603  0.3264 -0.0212 -0.1844
  689TMC3    H210195   2.289   4.669   0.343  0.2820 -0.7470 -0.2541
  689TMC3    C710196   2.235   4.497   0.144  0.3549  0.2575  0.7922
  689TMC3    C810197   2.362   0.215   0.345 -0.2629  0.1093 -0.3176
  689TMC3    O110198   2.274   4.430   0.236  0.0775  0.5044  0.5270
  689TMC3    O210199   2.358   0.177   0.464  0.6460 -0.6742  0.3584
  690MPD2     C10200   4.300   1.874  15.856 -0.1301 -0.3543 -0.3907
  690MPD2    C110201   4.263   1.861  15.724  0.4844  0.8794 -0.5377
  690MPD2    C210202   4.332   1.921  15.622 -0.3596  0.5160  0.5838
  690MPD2    C310203   4.435   2.010  15.656  0.4406 -0.0731  0.0478
  690MPD2    C410204   4.459   2.036  15.789  0.3542  0.5621 -0.6398
  690MPD2    C510205   4.394   1.959  15.887 -0.0097 -0.0617 -0.0563
  690MPD2     H10206   4.302   1.909  15.519 -1.1852 -1.0729  1.0152
  690MPD2    H110207   4.533   2.109  15.821  1.8627 -0.4682 -1.7855
  690MPD2    H210208   4.263   1.813  15.937 -0.1454  1.2845  0.8346
  690MPD2    H310209   4.426   1.971  15.990 -0.2552 -1.8971  0.2360
  690MPD2     N10210   4.503   2.074  15.546 -0.3410  0.7728  0.0187
  690MPD2    H510211   4.484   2.054  15.448 -0.6094 -1.8579  0.6114
  690MPD2    N110212   4.160   1.767  15.694 -0.4414 -0.1169  0.3165
  690MPD2    H710213   4.137   1.772  15.595  1.4970  0.1076 -0.1149
  691TMC3    C110214   3.978   1.626  15.710  0.6544 -0.0322  0.5186
  691TMC3    C210215   3.862   1.621  15.782 -0.2089 -0.3588 -0.0689
  691TMC3    C310216   3.786   1.512  15.765  0.0887  0.9035  0.1314
  691TMC3    C410217   4.022   1.527  15.635  0.3969 -0.2537  0.4902
  691TMC3    C510218   3.943   1.417  15.619  0.2323  0.0161  0.2350
  691TMC3    C610219   3.819   1.413  15.678  0.2774  0.4281  0.8788
  691TMC3     C10220   4.082   1.696  15.780  0.0247 -0.2598 -0.7245
  691TMC3     O10221   4.097   1.652  15.891  0.5700  0.1868 -0.4559
  691TMC3     H10222   3.836   1.705  15.845 -0.7288  1.4579 -2.6920
  691TMC3    H110223   4.126   1.534  15.605  0.6213 -0.0325  1.3356
  691TMC3    H210224   3.759   1.323  15.685 -0.4569  0.6992 -2.2378
  691TMC3    C710225   3.999   1.302  15.563 -1.1225 -0.0297 -0.1538
  691TMC3    C810226   3.644   1.520  15.792  0.5909 -0.4991  0.2819
  691TMC3    O110227   4.103   1.311  15.495 -0.0360 -0.0447  0.0835
  691TMC3    O210228   3.583   1.416  15.793 -0.2324  0.4931  0.6422
  692TMC3    C110229   1.080   3.209  15.919 -0.4577 -0.2378 -0.1913
  692TMC3    C210230   1.197   3.273  15.901  0.5337  0.0443 -0.2459
  692TMC3    C310231   1.314   3.207  15.933 -0.3799  0.0374  0.6236
  692TMC3    C410232   1.081   3.074  15.936 -0.3201 -0.8538 -0.6432
  692TMC3    C510233   1.195   3.001  15.952  0.1067  0.1013 -0.2163
  692TMC3    C610234   1.312   3.068  15.964  0.2234 -0.6261  0.6889
  692TMC3     C10235   0.979   3.283  15.992 -0.5135  0.1681  0.0175
  692TMC3     O10236   0.915   3.224  16.077 -0.8482 -0.3649  0.0185
  692TMC3     H10237   1.211   3.378  15.880 -0.5196  0.1408 -0.4219
  692TMC3    H110238   0.983   3.026  15.940 -0.8389  0.2139 -0.6360
  692TMC3    H210239   1.408   3.023  15.944 -0.3805 -0.7725 -1.8154
  692TMC3    C710240   1.211   2.877  15.880 -0.2058  0.4146 -0.3106
  692TMC3    C810241   1.370   3.287  16.042  0.3199  0.1044 -0.4158
  692TMC3    O110242   1.118   2.841  15.815  0.0049 -0.0951  0.4871
  692TMC3    O210243   1.352   3.409  16.038 -0.0983  0.0305 -0.6187
  693MPD2     C10244   1.164   1.177  11.188  0.1014  0.0893 -0.4942
  693MPD2    C110245   1.102   1.102  11.091 -0.3928  0.1648 -0.1322
  693MPD2    C210246   1.187   1.038  10.999 -0.0717 -0.1798  0.6805
  693MPD2    C310247   1.330   1.030  11.019 -0.2412 -0.3391  0.0322
  693MPD2    C410248   1.388   1.102  11.128 -0.0728  0.4365 -0.1625
  693MPD2    C510249   1.299   1.173  11.214  0.2067 -0.1101  0.0539
  693MPD2     H10250   1.140   0.981  10.920  2.0372 -3.0419  1.4859
  693MPD2    H110251   1.492   1.101  11.158 -0.1530 -1.5539  0.0670
  693MPD2    H210252   1.104   1.227  11.263  0.1816 -2.7417  1.4492
  693MPD2    H310253   1.349   1.224  11.295 -0.4958  0.3725  0.1850
  693MPD2     N10254   1.417   0.956  10.932  0.3376 -0.3606 -0.0989
  693MPD2    H510255   1.513   0.959  10.964 -0.1424 -0.7613  1.3970
  693MPD2    N110256   0.965   1.088  11.093  0.5204 -0.1194  0.1658
  693MPD2    H710257   0.917   1.128  11.173 -1.3845 -0.5350 -0.7783
  694TMC3    C110258   0.759   0.983  11.044  0.0186  0.7051  0.1179
  694TMC3    C210259   0.677   0.946  10.942  0.4663 -0.0525  0.1788
  694TMC3    C310260   0.566   0.876  10.979 -0.0858  0.1995 -0.7668
  694TMC3    C410261   0.737   0.964  11.175  0.3786 -0.7274 -0.0629
  694TMC3    C510262   0.629   0.882  11.208 -0.2444 -0.6165  0.6895
  694TMC3    C610263   0.540   0.846  11.109  0.5562  0.4880 -0.2853
  694TMC3     C10264   0.895   1.013  11.001 -0.7516  0.3847  0.1801
  694TMC3     O10265   0.929   0.961  10.893  0.3086 -0.1700  0.0571
  694TMC3     H10266   0.701   0.983  10.843 -2.0160  2.1716  0.4083
  694TMC3    H110267   0.802   0.991  11.257  1.7322 -1.6444 -0.8464
  694TMC3    H210268   0.472   0.767  11.138 -0.4032  1.4820  0.1777
  694TMC3    C710269   0.563   0.932  11.325  0.0884 -0.4932  0.4897
  694TMC3    C810270   0.446   0.870  10.890  0.3950 -0.1390 -0.6047
  694TMC3    O110271   0.617   1.031  11.380 -0.5734  0.1286 -0.7527
  694TMC3    O210272   0.337   0.855  10.952  0.1777  0.9778  0.0493
  695MPD2     C10273   1.877   2.440  13.410 -0.0730 -0.0649 -0.5459
  695MPD2    C110274   1.840   2.538  13.496 -0.2701  0.1483  0.3500
  695MPD2    C210275   1.764   2.641  13.456 -1.0357  0.0293  0.1518
  695MPD2    C310276   1.735   2.660  13.324 -0.0797  0.0702 -0.0272
  695MPD2    C410277   1.789   2.570  13.232  0.6879 -0.0036  0.4390
  695MPD2    C510278   1.851   2.454  13.275  0.4187  0.2488  0.3130
  695MPD2     H10279   1.735   2.720  13.526  0.3981  0.7645 -0.0839
  695MPD2    H110280   1.777   2.600  13.128  1.0237 -1.6802 -0.0776
  695MPD2    H210281   1.932   2.348  13.426 -0.7274 -0.5568 -1.1315
  695MPD2    H310282   1.893   2.373  13.216  0.8005  0.4765  0.2760
  695MPD2     N10283   1.641   2.756  13.291 -0.1732  0.3659 -0.1498
  695MPD2    H510284   1.589   2.799  13.367 -0.4634  2.2750 -1.4300
  695MPD2    N110285   1.871   2.528  13.628 -0.6271  0.2420 -0.0466
  695MPD2    H710286   1.861   2.603  13.695  0.1954  0.0607  0.2776
  696TMC3    C110287   1.505   2.896  13.169  0.4476 -0.0455  0.4009
  696TMC3    C210288   1.408   2.886  13.265  0.5505  0.2682 -0.0116
  696TMC3    C310289   1.302   2.973  13.256  0.2070  0.2687  0.2797
  696TMC3    C410290   1.504   2.997  13.075 -0.3672  0.7714 -0.8555
  696TMC3    C510291   1.404   3.091  13.077  0.0965  0.3508  0.1930
  696TMC3    C610292   1.298   3.083  13.171 -0.5633  0.6912  0.0106
  696TMC3     C10293   1.625   2.818  13.176 -1.1049 -0.5375 -0.3955
  696TMC3     O10294   1.705   2.828  13.081 -0.1913  0.0627 -0.2027
  696TMC3     H10295   1.406   2.796  13.326 -3.0354 -0.3227 -0.9706
  696TMC3    H110296   1.586   2.999  13.003 -0.2599  2.9275 -0.6701
  696TMC3    H210297   1.217   3.155  13.179 -1.4236 -0.3688  0.9067
  696TMC3    C710298   1.458   3.218  13.034  0.8811  0.1798 -0.5471
  696TMC3    C810299   1.224   2.967  13.375  0.3188 -0.2169 -0.1186
  696TMC3    O110300   1.544   3.227  12.949 -0.6363  0.2187  0.0689
  696TMC3    O210301   1.269   2.914  13.476 -0.4316  0.8397 -0.2644
  697MPD2     C10302   0.898   4.503  16.073  1.2838 -0.1179  0.0389
  697MPD2    C110303   0.887   4.444  15.952 -1.0869  0.4069 -0.3774
  697MPD2    C210304   0.942   4.506  15.841 -0.3225 -0.3704 -0.2416
  697MPD2    C310305   0.984   4.637  15.852  0.1764 -0.0151 -0.2960
  697MPD2    C410306   0.992   4.702  15.974 -0.7999  0.1459  0.2864
  697MPD2    C510307   0.955   4.630  16.085  0.1142  0.3979  0.1288
  697MPD2     H10308   0.946   4.456  15.745  0.8576  0.3713 -0.5885
  697MPD2    H110309   1.027   0.083  15.994  0.5565 -0.5428  1.3444
  697MPD2    H210310   0.836   4.466  16.154 -1.0969  1.4766 -1.0671
  697MPD2    H310311   0.961   4.675  16.183 -1.7540 -0.3662  0.5909
  697MPD2     N10312   1.004   4.708  15.737  0.2379  0.0602 -0.1668
  697MPD2    H510313   1.008   4.653  15.651  1.8472 -0.6777  0.3780
  697MPD2    N110314   0.831   4.322  15.919 -0.2831 -0.0396 -0.3028
  697MPD2    H710315   0.831   4.302  15.819  2.0628  5.0543 -1.3430
  698TMC3    C110316   1.032   0.169  15.585  0.2654 -0.7626  0.2114
  698TMC3    C210317   0.991   0.296  15.566 -0.2055 -0.0741 -0.5477
  698TMC3    C310318   1.030   0.355  15.444 -0.3331 -0.1293 -0.7629
  698TMC3    C410319   1.117   0.106  15.490  0.4290 -0.2270 -0.5344
  698TMC3    C510320   1.155   0.173  15.381 -0.3858 -0.5360 -0.0096
  698TMC3    C610321   1.113   0.299  15.356  0.1314 -0.1215  0.3131
  698TMC3     C10322   1.007   0.127  15.724  0.7905 -0.0009  0.2072
  698TMC3     O10323   0.982   0.214  15.806  0.2783  0.0131  0.1608
  698TMC3     H10324   0.912   0.350  15.617  0.9321  1.6806 -0.6366
  698TMC3    H110325   1.157   0.007  15.507 -0.4190 -0.1297  2.0756
  698TMC3    H210326   1.150   0.341  15.263 -1.9937 -0.0453 -0.4793
  698TMC3    C710327   1.220   0.105  15.273  0.0317  0.1321 -0.1332
  698TMC3    C810328   0.931   0.446  15.389  0.3546 -0.4527  0.3165
  698TMC3    O110329   1.304   0.021  15.296 -0.3971  0.4126  0.0968
  698TMC3    O210330   0.814   0.413  15.384 -0.0595 -0.3587  0.1918
  699TMC3    C110331   1.272   2.269  13.117  0.5351 -0.5295  0.3160
  699TMC3    C210332   1.349   2.197  13.202 -0.1635  0.0448  0.2053
  699TMC3    C310333   1.286   2.108  13.287 -0.3311 -0.1921  0.3254
  699TMC3    C410334   1.131   2.250  13.112  0.0363 -0.2432  0.9310
  699TMC3    C510335   1.084   2.140  13.176  0.4591 -0.1830  0.4350
  699TMC3    C610336   1.159   2.070  13.263 -0.0719 -0.1661  0.3161
  699TMC3     C10337   1.320   2.378  13.038  0.3595 -0.2637 -0.6308
  699TMC3     O10338   1.242   2.467  13.017  0.0961 -0.4257  0.4404
  699TMC3     H10339   1.449   2.230  13.229 -0.5875 -0.0549  1.9399
  699TMC3    H110340   1.073   2.301  13.036  0.5485  1.2285  1.5313
  699TMC3    H210341   1.098   2.028  13.343  2.5480 -1.9731  1.3768
  699TMC3    C710342   0.940   2.123  13.201  0.0240  0.0290  0.2711
  699TMC3    C810343   1.345   2.088  13.423  0.0686  0.4605 -0.0183
  699TMC3    O110344   0.880   2.223  13.217 -0.3942  0.1167  0.1932
  699TMC3    O210345   1.433   2.166  13.460 -0.0740 -0.3607 -0.0048
  700TMC3    C110346   0.111   0.398  17.507 -0.2585  0.1031  0.1071
  700TMC3    C210347   0.091   0.266  17.529 -0.0693  0.3751 -0.1015
  700TMC3    C310348   0.121   0.214  17.647  0.5198  0.4139 -0.4587
  700TMC3    C410349   0.187   0.478  17.590  0.1263 -0.2921 -0.6529
  700TMC3    C510350   0.224   0.415   0.033 -0.7598  0.4465 -0.1812
  700TMC3    C610351   0.198   0.281   0.068  0.0512  0.2095 -0.9504
  700TMC3     C10352   0.054   0.455  17.380 -0.3687  0.3234  0.1585
  700TMC3     O10353   4.673   0.407  17.330 -0.1490 -0.6571  0.1197
  700TMC3     H10354   0.047   0.213  17.446 -0.2859  0.4308 -0.0228
  700TMC3    H110355   0.194   0.585  17.577 -0.1158 -0.1429  0.4611
  700TMC3    H210356   0.232   0.226   0.154  0.5156 -0.3601 -1.5014
  700TMC3    C710357   0.277   0.502   0.133 -0.3197  0.0370  0.5163
  700TMC3    C810358   0.134   0.069  17.645  0.5930 -0.3538  0.4619
  700TMC3    O110359   0.278   0.621   0.102  0.1243 -0.4137  0.0096
  700TMC3    O210360   0.123   0.001   0.066  0.4254  0.1594 -0.4515
  701TMC3    C110361   0.109   3.777  15.693  0.4809 -1.3127  0.2332
  701TMC3    C210362   0.112   3.717  15.566  1.0097 -0.1954 -0.4105
  701TMC3    C310363   0.204   3.765  15.479 -0.3782  0.1975  0.3505
  701TMC3    C410364   0.199   3.870  15.737  0.2092 -0.4632 -0.0212
  701TMC3    C510365   0.293   3.916  15.645 -0.7888  0.5719 -0.7710
  701TMC3    C610366   0.296   3.863  15.516  0.3004  0.0226  0.4960
  701TMC3     C10367   0.020   3.709  15.786  0.6277  0.2357  0.7815
  701TMC3     O10368   4.707   3.593  15.760  0.0827 -0.2433  0.4998
  701TMC3     H10369   0.055   3.627  15.545  2.3830 -1.1075 -0.1956
  701TMC3    H110370   0.199   3.893  15.842  0.0223 -2.8865  0.5201
  701TMC3    H210371   0.367   3.907  15.447 -0.2113 -1.7835 -1.1818
  701TMC3    C710372   0.361   4.040  15.674 -0.1614 -0.0029 -0.3069
  701TMC3    C810373   0.228   3.686  15.358 -0.5439 -0.4397  0.1009
  701TMC3    O110374   0.456   4.065  15.603 -0.1709  0.2158 -0.2827
  701TMC3    O210375   0.331   3.711  15.299  0.3063 -0.2874 -0.2620
  702MPD2     C10376   3.945   1.545  10.462 -0.5880  0.1833 -0.1568
  702MPD2    C110377   4.075   1.544  10.513 -0.3320 -0.4039 -0.7931
  702MPD2    C210378   4.159   1.652  10.490  0.0761  0.4281 -0.0724
  702MPD2    C310379   4.113   1.757  10.414  0.3018 -0.7625  0.2496
  702MPD2    C410380   3.982   1.750  10.349  0.0124 -0.7557 -0.2036
  702MPD2    C510381   3.900   1.653  10.387 -0.7134 -0.4593  0.3462
  702MPD2     H10382   4.262   1.652  10.521  0.0383 -0.7823  0.0738
  702MPD2    H110383   3.952   1.831  10.285 -1.3364 -0.8040  0.3810
  702MPD2    H210384   3.878   1.461  10.477  0.1000 -0.0161  1.8175
  702MPD2    H310385   3.796   1.653  10.354 -0.3426  1.0914 -0.7888
  702MPD2     N10386   4.197   1.863  10.383 -0.1982  0.0557 -0.5363
  702MPD2    H510387   4.161   1.942  10.330 -3.6055 -0.0225  1.6451
  702MPD2    N110388   4.123   1.448  10.607  0.1425  0.3868 -0.2928
  702MPD2    H710389   4.211   1.469  10.653  0.8393 -2.1869 -0.4902
  703TMC3    C110390   4.383   2.007  10.411 -0.1881 -0.8472  0.2947
  703TMC3    C210391   4.295   2.105  10.436  0.4869 -0.0185 -0.3967
  703TMC3    C310392   4.343   2.230  10.429  0.4590  0.1601  0.8070
  703TMC3    C410393   4.508   2.024  10.368  0.4220  0.1285 -0.2470
  703TMC3    C510394   4.560   2.151  10.373  0.6809  0.3231  0.0129
  703TMC3    C610395   4.472   2.253  10.388  0.0616 -0.4437  0.0803
  703TMC3     C10396   4.331   1.871  10.414  0.2179  0.2790  0.1830
  703TMC3     O10397   4.417   1.784  10.428  0.2079  0.1717  0.1578
  703TMC3     H10398   4.200   2.085  10.483  1.0170  1.3872  1.2661
  703TMC3    H110399   4.575   1.938  10.369  0.4607  0.1412 -1.7366
  703TMC3    H210400   4.503   2.357  10.385 -2.1852  0.2483  0.9308
  703TMC3    C710401   4.687   2.184  10.317 -0.4247 -0.0300 -0.1372
  703TMC3    C810402   4.259   2.347  10.462  0.1008 -0.6460  0.5720
  703TMC3    O110403   4.708   2.303  10.298  0.1252 -0.0086 -0.2466
  703TMC3    O210404   4.295   2.453  10.412 -0.4100 -0.4163  0.3942
  704TMC3    C110405   1.992   4.466  12.256 -0.0239 -0.4629 -0.4134
  704TMC3    C210406   2.128   4.469  12.233  0.3014  1.1971  0.0284
  704TMC3    C310407   2.215   4.407  12.322  0.1107 -0.3690  0.5448
  704TMC3    C410408   1.936   4.408  12.367 -0.5997  0.0067 -0.1796
  704TMC3    C510409   2.021   4.325  12.439 -0.4656  0.0395  1.0220
  704TMC3    C610410   2.160   4.338  12.427 -0.4728  0.1946 -0.1578
  704TMC3     C10411   1.897   4.504  12.150 -0.8848 -0.1805  0.3447
  704TMC3     O10412   1.779   4.497  12.183 -0.7145 -0.1269 -0.5907
  704TMC3     H10413   2.169   4.528  12.152  1.2468  0.3235 -0.1277
  704TMC3    H110414   1.830   4.397  12.384 -0.5694 -3.1444 -1.8161
  704TMC3    H210415   2.223   4.264  12.475 -2.2359  0.3843  2.4209
  704TMC3    C710416   2.006   4.188  12.449 -0.4543 -0.4433 -0.3272
  704TMC3    C810417   2.349   4.378  12.278  0.2115 -0.4404  0.5212
  704TMC3    O110418   2.079   4.127  12.374  0.0743 -0.5268  0.3196
  704TMC3    O210419   2.373   4.346  12.163 -0.4042 -0.0314 -0.3193
  705MPD2     C10420   1.746   2.580  16.635 -0.0339  0.6423 -0.5438
  705MPD2    C110421   1.658   2.564  16.529 -0.5673  0.3070 -0.0011
  705MPD2    C210422   1.535   2.509  16.551  0.3473  0.2207 -0.2675
  705MPD2    C310423   1.492   2.476  16.678  0.7777 -0.6132 -0.6959
  705MPD2    C410424   1.583   2.484  16.783 -0.5746 -0.0730 -0.1569
  705MPD2    C510425   1.709   2.533  16.759 -0.7151  0.3829 -0.1724
  705MPD2     H10426   1.461   2.499  16.472  1.0673 -1.4420 -0.7315
  705MPD2    H110427   1.556   2.469  16.887  0.2343 -0.5212 -0.0174
  705MPD2    H210428   1.843   2.626  16.623 -0.4563  1.6909  0.0355
  705MPD2    H310429   1.778   2.545  16.842 -0.0062 -1.7053 -0.4502
  705MPD2     N10430   1.360   2.441  16.719  0.1521  0.6097  0.1554
  705MPD2    H510431   1.352   2.436  16.820 -0.2101  4.1970  0.3368
  705MPD2    N110432   1.691   2.598  16.397 -0.0573  0.0484  0.3128
  705MPD2    H710433   1.624   2.582  16.323 -1.2579 -0.8134  1.5751
  706TMC3    C110434   1.736   2.630  15.995  0.4499 -0.2051 -0.4203
  706TMC3    C210435   1.715   2.755  15.951 -0.1401 -0.5448 -0.1235
  706TMC3    C310436   1.735   2.856  16.036  0.0569 -0.4440  0.2729
  706TMC3    C410437   1.766   2.600  16.125 -0.0872 -0.1372  0.5867
  706TMC3    C510438   1.782   2.702  16.215  0.3135 -0.9696  0.0914
  706TMC3    C610439   1.770   2.831  16.168  0.2367 -0.0555 -0.1317
  706TMC3     C10440   1.769   2.525  15.903  0.4414  0.0778  0.1178
  706TMC3     O10441   1.840   2.433  15.939  0.0264 -0.3524  0.7036
  706TMC3     H10442   1.692   2.768  15.846  0.2486 -1.3897 -0.3135
  706TMC3    H110443   1.796   2.498  16.149  2.4735  0.3050 -0.7348
  706TMC3    H210444   1.784   2.902  16.249 -0.0094 -0.5007  0.2986
  706TMC3    C710445   1.800   2.673  16.357 -0.2576  0.6066  0.3246
  706TMC3    C810446   1.717   2.993  15.987  0.1253  0.4737 -0.0591
  706TMC3    O110447   1.900   2.712  16.412  0.7849 -0.3483 -0.2511
  706TMC3    O210448   1.642   3.006  15.891  0.1177  0.5408 -0.2670
  707TMC3    C110449   3.597   0.779   1.853 -0.5674  0.1625  0.3457
  707TMC3    C210450   3.619   0.648   1.822 -0.5788 -0.4036 -0.3525
  707TMC3    C310451   3.656   0.555   1.921  0.4859  0.4850 -0.2532
  707TMC3    C410452   3.589   0.820   1.984  0.1211 -0.1096 -0.8371
  707TMC3    C510453   3.613   0.725   2.084 -0.3306 -0.3960 -0.5567
  707TMC3    C610454   3.650   0.591   2.050  0.3446  0.2977  0.3395
  707TMC3     C10455   3.567   0.855   1.738  0.2010 -1.0841  0.2860
  707TMC3     O10456   3.602   0.811   1.631 -0.1848  0.1866 -0.2107
  707TMC3     H10457   3.599   0.607   1.724  1.0101 -1.2579 -0.3239
  707TMC3    H110458   3.583   0.921   2.020  0.9000 -0.9173  1.5392
  707TMC3    H210459   3.694   0.523   2.123 -0.4136  0.2437  0.7446
  707TMC3    C710460   3.633   0.776   2.220 -0.5870 -0.2337 -0.9571
  707TMC3    C810461   3.716   0.430   1.882  0.4740 -0.7783  0.0475
  707TMC3    O110462   3.628   0.900   2.236  0.1713  0.2942  0.2886
  707TMC3    O210463   3.765   0.364   1.974 -0.0805  0.2531 -0.1456
  708MPD2     C10464   0.362   0.765  13.847 -0.7161  0.9882 -0.1327
  708MPD2    C110465   0.256   0.851  13.825 -0.0588  0.7244 -0.6628
  708MPD2    C210466   0.163   0.876  13.932  0.1548  0.6815  0.5376
  708MPD2    C310467   0.177   0.802  14.050  0.1875 -0.1128 -0.4944
  708MPD2    C410468   0.278   0.713  14.060 -0.8181  0.0623 -0.0358
  708MPD2    C510469   0.372   0.693  13.964 -0.5707  0.8402  0.1980
  708MPD2     H10470   0.085   0.950  13.926 -1.1446 -0.8951 -2.0026
  708MPD2    H110471   0.293   0.657  14.152 -1.2282 -0.5916 -0.3620
  708MPD2    H210472   0.426   0.738  13.764  0.8167 -0.7601  1.6513
  708MPD2    H310473   0.454   0.626  13.989 -1.3138 -0.9783 -2.1843
  708MPD2     N10474   0.074   0.816  14.150 -0.4450  0.1630 -0.0660
  708MPD2    H510475   0.099   0.783  14.243 -0.8910 -2.2090 -0.7794
  708MPD2    N110476   0.243   0.919  13.702  0.7320 -0.1194  0.1411
  708MPD2    H710477   0.305   0.892  13.626 -0.3584 -2.1603 -0.0165
  709TMC3    C110478   0.168   1.094  13.548 -0.1419 -0.2700  0.3332
  709TMC3    C210479   0.153   1.003  13.445  0.2362  0.1059 -0.6934
  709TMC3    C310480   0.082   1.044  13.336  0.1447  0.5517  0.6342
  709TMC3    C410481   0.105   1.213  13.552 -0.0796  0.7444  0.0690
  709TMC3    C510482   0.016   1.234  13.453  0.0374  0.6693  0.3459
  709TMC3    C610483   0.016   1.164  13.334  0.0024 -0.6767 -0.2102
  709TMC3     C10484   0.159   1.033  13.681 -0.4402 -0.2899 -0.7382
  709TMC3     O10485   0.087   1.092  13.760 -0.5039  0.2229  0.1039
  709TMC3     H10486   0.217   0.915  13.438  0.4028  0.1357  0.4938
  709TMC3    H110487   0.112   1.284  13.634  3.9820 -0.4142  0.7224
  709TMC3    H210488   4.670   1.193  13.252 -2.5860  0.3390  2.2169
  709TMC3    C710489   4.595   1.261  13.507  0.1210 -0.6632  0.1840
  709TMC3    C810490   0.108   0.978  13.211  0.8118 -0.7071  0.5307
  709TMC3    O110491   4.513   1.276  13.418  0.8865 -0.0043 -0.3099
  709TMC3    O210492   0.150   0.861  13.214  0.3415 -0.5340  0.3792
  710TMC3    C110493   0.764   1.920   0.667 -0.1803  0.5787  0.1193
  710TMC3    C210494   0.814   1.986   0.559  0.2841 -0.1181  0.7166
  710TMC3    C310495   0.941   1.953   0.518  0.3270  0.1007 -0.3380
  710TMC3    C410496   0.840   1.841   0.747 -0.8910 -1.0574  0.0252
  710TMC3    C510497   0.969   1.815   0.706  0.1962 -0.3901  1.2751
  710TMC3    C610498   1.015   1.862   0.589  0.0639 -0.1890  0.3441
  710TMC3     C10499   0.642   1.976   0.738 -0.2969  0.2920 -0.0291
  710TMC3     O10500   0.573   1.901   0.807 -0.0041  1.1348 -0.0079
  710TMC3     H10501   0.755   2.052   0.497 -1.2088 -1.1946  0.9995
  710TMC3    H110502   0.809   1.797   0.841 -1.4986  0.9223  0.7572
  710TMC3    H210503   1.108   1.827   0.545  0.1419  1.0672 -0.5063
  710TMC3    C710504   1.038   1.728   0.800  0.4877 -0.0921 -0.6615
  710TMC3    C810505   1.006   2.016   0.401 -0.1174  0.1642 -0.4290
  710TMC3    O110506   0.971   1.651   0.867 -0.5540  1.2619  0.2315
  710TMC3    O210507   0.941   2.064   0.312  0.4626  0.3355 -0.5706
  711TMC3    C110508   0.806   3.414  14.709  0.0053  0.3787  0.0691
  711TMC3    C210509   0.730   3.441  14.819  0.4143  0.0153 -0.7527
  711TMC3    C310510   0.766   3.538  14.911  1.3164  0.8200 -0.1954
  711TMC3    C410511   0.916   3.490  14.683 -0.0653 -0.6511  0.9288
  711TMC3    C510512   0.945   3.590  14.764  0.8843  0.1299  0.4758
  711TMC3    C610513   0.868   3.622  14.874 -0.2482  1.1349  0.1830
  711TMC3     C10514   0.778   3.287  14.642  0.3633 -0.7412 -0.7997
  711TMC3     O10515   0.661   3.260  14.647  0.1428  0.0439  0.1293
  711TMC3     H10516   0.649   3.374  14.845 -1.3653  2.1224 -0.9425
  711TMC3    H110517   0.990   3.462  14.609  0.4362  0.2236  1.0979
  711TMC3    H210518   0.893   3.696  14.949  1.2132  2.3671 -1.5338
  711TMC3    C710519   1.067   3.664  14.746 -0.1985 -0.7208  0.6848
  711TMC3    C810520   0.743   3.494  15.049  0.8240  0.5268  0.8682
  711TMC3    O110521   1.172   3.605  14.722  0.1348  0.3386  0.1155
  711TMC3    O210522   0.660   3.408  15.079 -0.5247 -0.0018 -0.3888
  712MPD2     C10523   2.915   4.386  13.248  0.0745  0.2251  0.2090
  712MPD2    C110524   2.794   4.447  13.278 -0.3362 -0.0196 -0.3179
  712MPD2    C210525   2.773   4.580  13.238  0.0062 -0.0668  0.5309
  712MPD2    C310526   2.871   4.648  13.174 -0.6523 -0.4451 -0.0061
  712MPD2    C410527   2.996   4.589  13.142 -0.3668  0.2109 -0.4342
  712MPD2    C510528   3.010   4.457  13.178 -0.2902 -0.1783 -0.2711
  712MPD2     H10529   2.675   4.621  13.260 -0.5199 -0.5229 -1.0498
  712MPD2    H110530   3.072   4.637  13.082 -0.0879 -0.4183 -0.5783
  712MPD2    H210531   2.942   4.283  13.266  0.0360  0.3615  1.0286
  712MPD2    H310532   3.090   4.404  13.128  1.2087  1.4471  0.4017
  712MPD2     N10533   2.849   0.061  13.136  0.2083  0.0888  0.2762
  712MPD2    H510534   2.932   0.118  13.124  0.2851 -0.2324 -0.7202
  712MPD2    N110535   2.688   4.381  13.342  0.3846 -0.7437  0.1155
  712MPD2    H710536   2.600   4.430  13.353  1.6781  1.6259  0.1158
  713TMC3    C110537   2.718   0.256  13.064 -0.2842 -0.5926  0.8992
  713TMC3    C210538   2.805   0.343  13.131  0.2093 -0.2490 -0.0856
  713TMC3    C310539   2.760   0.470  13.155  0.3820  0.2042 -0.2744
  713TMC3    C410540   2.597   0.301  13.020 -0.1409  0.5973  0.0451
  713TMC3    C510541   2.550   0.424  13.063 -0.0413 -0.0361  0.3332
  713TMC3    C610542   2.634   0.510  13.117  0.0252  0.0903 -0.1048
  713TMC3     C10543   2.721   0.114  13.102  0.7105 -0.5575  0.2625
  713TMC3     O10544   2.609   0.063  13.099 -0.3743  0.6175  0.5712
  713TMC3     H10545   2.895   0.313  13.184  0.7356  2.1450  0.3850
  713TMC3    H110546   2.531   0.233  12.966 -1.0442 -0.2798  2.2259
  713TMC3    H210547   2.591   0.605  13.145  1.8371  0.3766  1.7850
  713TMC3    C710548   2.409   0.425  13.111  0.0754  0.2745  1.1658
  713TMC3    C810549   2.837   0.568  13.220  0.0653  0.4847  0.0700
  713TMC3    O110550   2.327   0.514  13.090 -0.8559  0.3954 -0.3680
  713TMC3    O210551   2.775   0.667  13.252  0.0403  0.3184 -0.2935
  714MPD2     C10552   0.640   3.335   1.438  0.4966 -0.1326 -0.5370
  714MPD2    C110553   0.564   3.220   1.442  0.1986 -0.0088  0.3463
  714MPD2    C210554   0.428   3.236   1.401 -0.0992 -0.0777 -0.0393
  714MPD2    C310555   0.373   3.359   1.359  0.2689 -0.4494 -0.2120
  714MPD2    C410556   0.450   3.466   1.366 -0.3014 -0.0118 -0.3402
  714MPD2    C510557   0.582   3.455   1.402 -0.1829 -0.4872  0.7028
  714MPD2     H10558   0.367   3.150   1.375 -0.7075  0.2704  0.2422
  714MPD2    H110559   0.417   3.563   1.334  0.8899 -0.4813 -3.0265
  714MPD2    H210560   0.745   3.328   1.465  0.6539  1.0406 -0.8696
  714MPD2    H310561   0.649   3.539   1.390 -1.0079  0.3711  2.0986
  714MPD2     N10562   0.240   3.358   1.316 -0.1045  0.4175 -0.6275
  714MPD2    H510563   0.192   3.269   1.312 -0.0457  0.3585 -0.0080
  714MPD2    N110564   0.623   3.097   1.470  0.3709 -0.6099 -0.6009
  714MPD2    H710565   0.724   3.106   1.483  0.2675 -3.4021  1.9783
  715TMC3    C110566   0.643   2.870   1.517 -0.3417  0.5081 -0.3764
  715TMC3    C210567   0.571   2.750   1.539 -0.6723  0.5913  0.6980
  715TMC3    C310568   0.625   2.636   1.491  0.1682 -0.0715  0.6116
  715TMC3    C410569   0.768   2.880   1.463  0.2954  0.2562 -0.1057
  715TMC3    C510570   0.813   2.755   1.421 -0.1367 -0.0811 -0.0418
  715TMC3    C610571   0.743   2.637   1.425 -0.4186  0.0078 -0.5070
  715TMC3     C10572   0.558   2.987   1.509 -0.1840 -0.3412  0.2488
  715TMC3     O10573   0.439   2.965   1.527  0.3153 -0.6263  0.0407
  715TMC3     H10574   0.476   2.742   1.590 -0.1935  4.0719  2.1725
  715TMC3    H110575   0.813   2.970   1.424  0.2601  0.5124  0.4426
  715TMC3    H210576   0.785   2.542   1.395  0.1888 -0.6945  2.6049
  715TMC3    C710577   0.954   2.752   1.408  0.1459  0.4710  0.3316
  715TMC3    C810578   0.538   2.526   1.474 -0.9493 -0.5561  0.4160
  715TMC3    O110579   1.014   2.856   1.390 -0.4655 -0.6149 -0.0071
  715TMC3    O210580   0.440   2.518   1.552  0.5339 -0.6107  0.5990
  716MPD2     C10581   0.609   1.502   9.823  0.3814  0.5526 -0.2919
  716MPD2    C110582   0.478   1.467   9.781 -0.1887  0.3223 -0.3482
  716MPD2    C210583   0.425   1.341   9.799 -0.1957  0.3339 -0.3419
  716MPD2    C310584   0.509   1.238   9.850  0.3374  0.1766 -0.0431
  716MPD2    C410585   0.632   1.268   9.901  0.2721 -0.2953  0.6521
  716MPD2    C510586   0.683   1.393   9.882  0.0269  0.6685  0.1062
  716MPD2     H10587   0.324   1.309   9.780  0.7054 -2.9060  0.3129
  716MPD2    H110588   0.699   1.187   9.926  0.5357 -0.7022 -1.3807
  716MPD2    H210589   0.655   1.599   9.813 -0.6319  1.0229 -0.3473
  716MPD2    H310590   0.787   1.399   9.912  0.4506  1.6904 -1.5517
  716MPD2     N10591   0.458   1.107   9.833  0.0668 -0.1456 -0.1741
  716MPD2    H510592   0.365   1.086   9.799 -0.0932 -0.5114  0.4886
  716MPD2    N110593   0.390   1.572   9.733 -0.1117  0.2177 -0.4287
  716MPD2    H710594   0.297   1.546   9.704 -0.5308  1.2026  0.0190
  717TMC3    C110595   0.431   0.880   9.867  0.0797 -0.3290 -0.3262
  717TMC3    C210596   0.361   0.875   9.748  0.0762 -0.1315  0.6400
  717TMC3    C310597   0.275   0.764   9.726 -0.2254 -0.4041 -0.5043
  717TMC3    C410598   0.440   0.775   9.956  0.0012  0.6495  0.5004
  717TMC3    C510599   0.364   0.664   9.930 -0.2436  0.3738 -0.2140
  717TMC3    C610600   0.276   0.658   9.821  0.0391 -0.4656 -0.7591
  717TMC3     C10601   0.518   0.997   9.889  0.1272 -0.0349  0.2887
  717TMC3     O10602   0.607   0.988   9.974 -0.5082  0.1082 -0.0539
  717TMC3     H10603   0.372   0.955   9.675 -2.6357 -0.2551  0.0914
  717TMC3    H110604   0.497   0.790  10.047  0.1812  0.2210  0.4568
  717TMC3    H210605   0.200   0.581   9.817  0.8682 -1.4888  3.1098
  717TMC3    C710606   0.350   0.573  10.039 -0.8933  0.5378  0.5902
  717TMC3    C810607   0.256   0.742   9.586 -0.6230 -0.3754 -0.2796
  717TMC3    O110608   0.400   0.606  10.145 -0.3435 -0.2456 -0.2270
  717TMC3    O210609   0.277   0.837   9.510 -0.0551 -0.7620  0.1944
  718MPD2     C10610   4.240   0.111  12.704 -0.6005  0.1020 -0.5374
  718MPD2    C110611   4.168   0.137  12.591  0.4802  0.3801 -0.6664
  718MPD2    C210612   4.120   0.035  12.516  0.3247 -0.0517 -0.0156
  718MPD2    C310613   4.147   4.622  12.539 -0.7302 -0.0936  0.4746
  718MPD2    C410614   4.211   4.594  12.657 -0.4554 -0.5358 -0.0481
  718MPD2    C510615   4.252   4.698  12.740  0.0836 -0.6140  0.3075
  718MPD2     H10616   4.068   0.054  12.423 -0.2566  0.1044  0.3429
  718MPD2    H110617   4.223   4.493  12.694 -0.3590 -0.6193 -0.3041
  718MPD2    H210618   4.272   0.187  12.775  0.4155 -0.3790 -0.4801
  718MPD2    H310619   4.288   4.681  12.841 -0.8055 -0.3200  0.6769
  718MPD2     N10620   4.092   4.526  12.449  0.2889  0.6245 -0.5774
  718MPD2    H510621   4.055   4.559  12.361  0.3101  0.8201 -0.5128
  718MPD2    N110622   4.133   0.272  12.562  0.2823 -0.0475 -0.4669
  718MPD2    H710623   4.172   0.341  12.625 -0.0217  0.1071 -0.4505
  719TMC3    C110624   4.050   0.448  12.430 -0.2421 -0.8900 -0.4885
  719TMC3    C210625   3.944   0.483  12.347 -0.2885  0.1710  0.2601
  719TMC3    C310626   3.970   0.543  12.231 -0.2956  0.1673 -0.1732
  719TMC3    C410627   4.180   0.491  12.400  0.6709  0.3037  0.6661
  719TMC3    C510628   4.196   0.560  12.286 -0.5478  0.8552 -0.4468
  719TMC3    C610629   4.097   0.593  12.204  0.0425  0.2025 -0.1148
  719TMC3     C10630   4.040   0.309  12.474  0.2636 -0.6212 -0.5382
  719TMC3     O10631   3.950   0.249  12.416  0.0154  0.5680 -0.3138
  719TMC3     H10632   3.846   0.437  12.354 -1.3741  2.1640 -1.9026
  719TMC3    H110633   4.266   0.462  12.459  0.4444  2.8755  2.2413
  719TMC3    H210634   4.129   0.625  12.106  3.4351 -1.3845  0.4953
  719TMC3    C710635   4.315   0.642  12.277  0.1870  0.5183  0.4039
  719TMC3    C810636   3.936   0.457  12.115  0.1958 -0.1848  0.0002
  719TMC3    O110637   4.340   0.678  12.163 -0.0379 -0.5511 -0.1683
  719TMC3    O210638   3.939   0.507  12.003  0.0120 -0.2591 -0.3163
  720MPD2     C10639   2.078   1.748  13.881 -0.2939  0.1256  0.7727
  720MPD2    C110640   2.165   1.689  13.798 -0.0239 -0.8804  0.1896
  720MPD2    C210641   2.258   1.597  13.849  0.1934 -0.4946  0.1833
  720MPD2    C310642   2.255   1.566  13.981  0.5468  0.3720 -0.0816
  720MPD2    C410643   2.167   1.627  14.070  0.7991 -0.1262  0.4278
  720MPD2    C510644   2.074   1.713  14.011  0.5882  0.3977  0.5196
  720MPD2     H10645   2.338   1.553  13.789  0.1144  0.7758 -0.8472
  720MPD2    H110646   2.171   1.621  14.178 -0.2331 -2.5983  0.3327
  720MPD2    H210647   2.010   1.827  13.853  0.8542  1.2790  1.2222
  720MPD2    H310648   2.004   1.765  14.075  0.1144  2.0128 -1.3505
  720MPD2     N10649   2.369   1.495  14.031 -0.2318  0.6137 -0.2903
  720MPD2    H510650   2.449   1.499  13.969 -1.4777 -2.0535 -2.0620
  720MPD2    N110651   2.183   1.735  13.665  0.1362 -0.0965  0.3921
  720MPD2    H710652   2.236   1.667  13.612 -1.6988  0.0364 -1.6328
  721TMC3    C110653   2.499   1.430  14.209 -0.2282  0.1667  0.5469
  721TMC3    C210654   2.520   1.383  14.341  0.0397 -0.2293  0.7368
  721TMC3    C310655   2.646   1.375  14.386 -0.4374  0.1802 -0.3599
  721TMC3    C410656   2.611   1.458  14.129  0.2497 -0.2862  0.0724
  721TMC3    C510657   2.735   1.451  14.181 -0.3720 -0.1356 -0.7469
  721TMC3    C610658   2.756   1.412  14.310 -0.0979 -0.2050  0.2844
  721TMC3     C10659   2.370   1.454  14.160  0.8922 -0.3265  0.8389
  721TMC3     O10660   2.277   1.434  14.236 -0.0641  0.4293  0.3277
  721TMC3     H10661   2.423   1.374  14.390 -1.1513  1.4784 -1.3162
  721TMC3    H110662   2.596   1.493  14.027  0.3298 -2.2089 -0.6081
  721TMC3    H210663   2.858   1.411  14.347  0.4460  1.2651 -1.2041
  721TMC3    C710664   2.839   1.524  14.114 -0.1902  0.2109 -0.6663
  721TMC3    C810665   2.658   1.348  14.525  0.0330 -0.1838  0.6644
  721TMC3    O110666   2.851   1.496  13.997  0.2970  0.6059  0.6743
  721TMC3    O210667   2.560   1.292  14.573  0.0887  0.1998 -0.2838
  722MPD2     C10668   1.096   0.097  13.181 -0.5584  0.2887  0.0073
  722MPD2    C110669   1.120   0.221  13.134  0.2881 -1.2376  0.0014
  722MPD2    C210670   1.012   0.300  13.088 -0.3057 -1.3436 -0.5990
  722MPD2    C310671   0.883   0.253  13.085  0.0049 -0.3300  0.2173
  722MPD2    C410672   0.863   0.128  13.135 -0.1412 -0.8378 -0.1005
  722MPD2    C510673   0.966   0.051  13.180 -0.1246 -1.2069  0.0411
  722MPD2     H10674   1.032   0.399  13.048  0.9381 -2.2088 -2.1097
  722MPD2    H110675   0.765   0.084  13.148 -0.5652  0.7159  2.1657
  722MPD2    H210676   1.167   0.024  13.218  0.7514  0.6991 -1.6948
  722MPD2    H310677   0.954   4.672  13.223  0.6894 -0.4413  2.0188
  722MPD2     N10678   0.792   0.333  13.021 -0.1070  0.6254  0.1803
  722MPD2    H510679   0.827   0.425  12.993 -0.6847  0.6423 -0.5004
  722MPD2    N110680   1.250   0.273  13.138  0.4729  0.1103  0.2934
  722MPD2    H710681   1.260   0.371  13.115  1.4791 -0.2162 -0.6643
  723TMC3    C110682   0.612   0.364  12.873  0.1298 -0.4124 -0.4259
  723TMC3    C210683   0.536   0.304  12.777  0.2093  0.0496  0.2101
  723TMC3    C310684   0.491   0.377  12.666 -0.4504  0.8194 -0.4963
  723TMC3    C410685   0.619   0.501  12.881  0.2541  0.4313 -0.1970
  723TMC3    C510686   0.565   0.569  12.775  0.6151  0.5262  0.0552
  723TMC3    C610687   0.494   0.518  12.668  0.0877 -0.7545  0.7123
  723TMC3     C10688   0.679   0.279  12.970  0.2919 -0.7413  0.2761
  723TMC3     O10689   0.625   0.172  12.991 -0.4936  0.0784  0.4424
  723TMC3     H10690   0.522   0.197  12.785  1.3988 -0.2155 -1.2456
  723TMC3    H110691   0.687   0.546  12.952  0.7053 -0.0971 -0.2940
  723TMC3    H210692   0.445   0.589  12.602 -1.4092 -2.7965 -0.3791
  723TMC3    C710693   0.573   0.713  12.790  0.0199  0.0032 -0.3198
  723TMC3    C810694   0.379   0.316  12.587 -0.8119  0.3854  0.3099
  723TMC3    O110695   0.535   0.760  12.897  0.0598  0.1458  0.1744
  723TMC3    O210696   0.292   0.387  12.537  0.0605  0.4012  0.2226
  724TMC3    C110697   0.953   3.709   9.512  0.0298  0.3952  0.4579
  724TMC3    C210698   1.063   3.643   9.558 -0.1489  0.4394 -0.1270
  724TMC3    C310699   1.185   3.684   9.517 -0.2563 -0.2675 -0.6158
  724TMC3    C410700   0.963   3.827   9.442 -0.1416  0.1527  0.5275
  724TMC3    C510701   1.086   3.870   9.409 -1.4786  0.8725 -0.0198
  724TMC3    C610702   1.198   3.805   9.451 -0.2239 -0.0712  0.1253
  724TMC3     C10703   0.820   3.663   9.560  0.3300  0.5047  0.5137
  724TMC3     O10704   0.722   3.701   9.495  0.0495 -0.4355 -0.2700
  724TMC3     H10705   1.061   3.541   9.596  2.3283  0.3346 -0.2227
  724TMC3    H110706   0.879   3.895   9.434  0.1431  0.3712 -0.6647
  724TMC3    H210707   1.290   3.848   9.412 -0.5674 -1.4140 -2.1618
  724TMC3    C710708   1.111   4.014   9.382 -0.0213  0.6305  0.2298
  724TMC3    C810709   1.293   3.659   9.608  0.6186  1.0965 -0.7659
  724TMC3    O110710   1.216   4.065   9.422  0.2436  0.1246  0.1407
  724TMC3    O210711   1.292   3.551   9.666  0.0214 -0.6401 -0.2697
  725TMC3    C110712   2.906   2.280  13.119 -0.1726 -0.4487  0.2861
  725TMC3    C210713   2.880   2.293  12.982  0.4978  0.0906  0.4714
  725TMC3    C310714   2.853   2.182  12.914  0.3585 -0.3351  0.2939
  725TMC3    C410715   2.907   2.160  13.183  0.9885  0.6675  0.2858
  725TMC3    C510716   2.866   2.049  13.113  0.2318 -0.3158  0.0492
  725TMC3    C610717   2.842   2.058  12.980  0.0161 -0.7488  0.4676
  725TMC3     C10718   2.959   2.397  13.180  0.6483  0.2234 -0.4898
  725TMC3     O10719   2.970   2.499  13.117  0.3555 -0.1558  0.0565
  725TMC3     H10720   2.867   2.387  12.929 -0.3582 -0.7782 -0.8583
  725TMC3    H110721   2.925   2.146  13.289 -1.2280  1.6220  0.7975
  725TMC3    H210722   2.817   1.969  12.923 -0.0591 -0.9563  0.8261
  725TMC3    C710723   2.913   1.914  13.157 -0.1116 -0.0569 -0.6518
  725TMC3    C810724   2.798   2.185  12.776 -0.1169  0.7084 -0.7120
  725TMC3    O110725   2.948   1.843  13.061 -0.6461 -0.3967 -0.1020
  725TMC3    O210726   2.729   2.093  12.745 -0.2511  0.1075  0.2121
  726MPD2     C10727   0.655   3.500  10.237  0.3214  0.6564 -0.8174
  726MPD2    C110728   0.566   3.568  10.160 -0.1983 -0.0562  0.1375
  726MPD2    C210729   0.443   3.512  10.143  0.3917  0.0862  0.3706
  726MPD2    C310730   0.410   3.393  10.199 -1.2407 -0.6594 -0.3789
  726MPD2    C410731   0.494   3.324  10.284 -0.1826  0.3646  0.4982
  726MPD2    C510732   0.620   3.379  10.293  0.8345  0.2184 -0.5689
  726MPD2     H10733   0.375   3.563  10.075  1.0496 -0.2019 -0.5052
  726MPD2    H110734   0.488   3.227  10.332 -0.0864 -0.2514 -0.7465
  726MPD2    H210735   0.755   3.532  10.264 -0.4910  1.8883  0.7586
  726MPD2    H310736   0.697   3.324  10.346 -0.7068 -1.8893 -0.4874
  726MPD2     N10737   0.283   3.338  10.185 -0.0935  0.0878  0.2119
  726MPD2    H510738   0.268   3.254  10.240 -0.1250  0.3693  0.6356
  726MPD2    N110739   0.600   3.693  10.099  0.3584 -0.0204 -0.5183
  726MPD2    H710740   0.548   3.715  10.015 -1.2887 -0.5057  0.3830
  727TMC3    C110741   0.755   3.868  10.041 -0.5445 -0.3299 -0.1364
  727TMC3    C210742   0.831   3.966  10.091 -0.5705  0.2847  0.1220
  727TMC3    C310743   0.845   4.077  10.014  0.5321  0.2220  0.1032
  727TMC3    C410744   0.695   3.871   9.920  0.0101  0.1418  0.5276
  727TMC3    C510745   0.712   3.981   9.845  0.2516 -0.4962 -0.0244
  727TMC3    C610746   0.776   4.095   9.894  0.3919  0.3279 -0.0397
  727TMC3     C10747   0.712   3.763  10.139  0.4673  0.2822  0.1242
  727TMC3     O10748   0.777   3.753  10.244 -0.9843 -0.1587  0.6241
  727TMC3     H10749   0.864   3.969  10.195  0.0369 -0.2273 -0.0570
  727TMC3    H110750   0.632   3.785   9.897  1.3483 -0.3124 -1.4656
  727TMC3    H210751   0.766   4.186   9.835 -1.2139 -0.1209 -0.4627
  727TMC3    C710752   0.633   3.985   9.724 -0.1624  0.6897  0.7471
  727TMC3    C810753   0.942   4.170  10.053  0.0149 -0.1402  0.2775
  727TMC3    O110754   0.540   3.910   9.727  0.4267  0.1106  0.4976
  727TMC3    O210755   1.027   4.135  10.133  0.1398  0.3064  0.0620
  728TMC3    C110756   4.675   2.202  15.436 -0.5918  0.0278  0.2453
  728TMC3    C210757   0.075   2.277  15.449  0.3821 -0.4028 -0.4143
  728TMC3    C310758   0.140   2.315  15.338  0.6692 -0.2138 -0.0527
  728TMC3    C410759   4.627   2.181  15.311 -0.5559  0.2430  0.2454
  728TMC3    C510760   4.696   2.230  15.197 -0.0280  0.1892  0.3277
  728TMC3    C610761   0.090   2.299  15.207 -0.6299 -0.1530  0.2918
  728TMC3     C10762   4.619   2.149  15.564  0.2969  0.2770  0.0032
  728TMC3     O10763   4.682   2.168  15.668  0.6082 -0.2478  0.2276
  728TMC3     H10764   0.094   2.315  15.549  2.6718  0.5597 -1.2223
  728TMC3    H110765   4.537   2.121  15.296 -0.1170 -0.6787  1.3189
  728TMC3    H210766   0.157   2.317  15.123 -0.4304 -1.6020  0.1459
  728TMC3    C710767   4.618   2.209  15.071  0.3840  0.0742  0.0051
  728TMC3    C810768   0.279   2.335  15.364  0.1374 -0.3477 -0.8902
  728TMC3    O110769   4.509   2.159  15.089 -1.1723  0.1263 -0.4337
  728TMC3    O210770   0.323   2.281  15.464 -0.3869 -0.2158  0.1420
  729MPD2     C10771   2.143   3.472  16.824 -0.6174 -0.7315  0.2907
  729MPD2    C110772   2.231   3.376  16.787  0.6576  0.1500 -0.3269
  729MPD2    C210773   2.316   3.323  16.882  0.3653 -0.0725 -0.9329
  729MPD2    C310774   2.312   3.362  17.013  0.0119 -0.6196 -0.2591
  729MPD2    C410775   2.224   3.457  17.051  0.3919 -0.5033 -0.4045
  729MPD2    C510776   2.136   3.510  16.957 -0.0518  0.3239  0.2382
  729MPD2     H10777   2.388   3.249  16.851  0.3325  0.0476 -1.2881
  729MPD2    H110778   2.209   3.483  17.155  0.1976  0.3811 -0.6521
  729MPD2    H210779   2.070   3.512  16.755 -1.2448  1.2557  2.0918
  729MPD2    H310780   2.057   3.575  16.992 -0.4600  1.3304 -2.5685
  729MPD2     N10781   2.417   3.333  17.108  0.2359 -0.1897 -0.1932
  729MPD2    H510782   2.419   3.386  17.195  0.1067  0.2013 -0.4265
  729MPD2    N110783   2.235   3.344  16.649  0.5088 -0.3326  0.4421
  729MPD2    H710784   2.178   3.405  16.591  2.2496 -1.9971 -3.0002
  730TMC3    C110785   2.645   3.321  17.176  0.8728 -0.2968 -0.5397
  730TMC3    C210786   2.761   3.332  17.104  0.5297  0.8069 -0.4297
  730TMC3    C310787   2.857   3.427  17.142 -0.0426 -0.1562 -0.0350
  730TMC3    C410788   2.614   3.418  17.267 -0.6316 -0.2487  0.0360
  730TMC3    C510789   2.711   3.506  17.308 -0.2070 -0.3194  0.2620
  730TMC3    C610790   2.834   3.510  17.243  0.9384  0.1463 -0.4465
  730TMC3     C10791   2.537   3.266  17.089  0.4747 -0.1247  0.3093
  730TMC3     O10792   2.574   3.196  16.996 -0.3653 -0.0197  0.4236
  730TMC3     H10793   2.786   3.266  17.022  0.0007 -2.1379  1.8135
  730TMC3    H110794   2.518   3.419  17.318 -1.3239 -0.1573 -1.2670
  730TMC3    H210795   2.904   3.584  17.280 -0.0309  1.6635 -1.6001
  730TMC3    C710796   2.661   3.639  17.325 -0.6658  0.4213  0.8666
  730TMC3    C810797   2.956   3.471  17.044 -0.2720  0.1061 -0.1392
  730TMC3    O110798   2.731   3.729  17.276  1.2313  0.5132 -0.2309
  730TMC3    O210799   2.942   3.432  16.927  0.0351 -0.4080 -0.7344
  731MPD2     C10800   2.061   1.365  12.356  0.1717  0.0140  0.6808
  731MPD2    C110801   2.144   1.448  12.427 -0.2507  1.0399 -0.3718
  731MPD2    C210802   2.127   1.459  12.563  0.2833 -0.6380  0.2513
  731MPD2    C310803   2.030   1.387  12.628 -0.6171 -0.0735 -0.2616
  731MPD2    C410804   1.942   1.302  12.557 -0.0748  0.3828  0.3163
  731MPD2    C510805   1.965   1.291  12.421 -0.2384  0.5501 -0.2710
  731MPD2     H10806   2.189   1.524  12.623  0.7461  0.4580 -1.4270
  731MPD2    H110807   1.862   1.245  12.603 -0.8050  1.0740 -0.0914
  731MPD2    H210808   2.079   1.367  12.249 -1.8982 -0.5056  0.3301
  731MPD2    H310809   1.898   1.227  12.364 -0.4588  0.9425 -0.4510
  731MPD2     N10810   2.019   1.410  12.763 -0.6796  0.2366  0.6658
  731MPD2    H510811   2.093   1.464  12.807  1.4196 -0.7572 -1.6276
  731MPD2    N110812   2.249   1.515  12.351  0.6855  0.3190  0.0006
  731MPD2    H710813   2.257   1.492  12.253  0.4383  0.5971 -0.0810
  732TMC3    C110814   2.428   1.669  12.323 -0.2841 -0.2824  0.1818
  732TMC3    C210815   2.388   1.687  12.190 -0.3190  0.2871 -0.4404
  732TMC3    C310816   2.479   1.752  12.105  0.1349  0.7344  0.4027
  732TMC3    C410817   2.548   1.723  12.362  0.2651 -0.6360  0.2404
  732TMC3    C510818   2.634   1.783  12.265  0.2161 -0.3320  0.1355
  732TMC3    C610819   2.596   1.803  12.140  0.3207  1.0961  0.4938
  732TMC3     C10820   2.345   1.595  12.414 -0.3231 -0.0847 -0.2112
  732TMC3     O10821   2.366   1.617  12.531 -0.5432  0.2357  0.3674
  732TMC3     H10822   2.303   1.630  12.155  0.7496 -0.6795 -1.4555
  732TMC3    H110823   2.577   1.719  12.467  1.3352  0.7530 -0.0008
  732TMC3    H210824   2.664   1.833  12.061 -0.4775 -1.5968 -1.2295
  732TMC3    C710825   2.770   1.833  12.293 -0.0816  0.0509 -0.2942
  732TMC3    C810826   2.466   1.740  11.962 -0.6563 -0.5223 -0.3165
  732TMC3    O110827   2.810   1.922  12.221  0.8833  0.1531 -0.3744
  732TMC3    O210828   2.536   1.806  11.886  0.1230 -0.0607  0.0281
  733TMC3    C110829   3.816   4.197  12.316  0.0262 -0.5521 -0.1912
  733TMC3    C210830   3.918   4.235  12.400  0.3823 -0.6126  0.3859
  733TMC3    C310831   4.011   4.323  12.363  0.1546  0.3142 -0.8144
  733TMC3    C410832   3.800   4.259  12.198 -1.1473  0.4622  0.0995
  733TMC3    C510833   3.881   4.364  12.174  0.4176  0.0576  0.0462
  733TMC3    C610834   3.994   4.391  12.248  1.0427 -0.5186  0.4236
  733TMC3     C10835   3.695   4.206  12.387 -0.4333 -0.0162 -0.1079
  733TMC3     O10836   3.688   4.318  12.441  0.8867 -0.3368 -0.2904
  733TMC3     H10837   3.914   4.190  12.499  0.0701 -1.0502  0.1784
  733TMC3    H110838   3.707   4.251  12.143 -1.2498  0.2708  0.3056
  733TMC3    H210839   4.075   4.457  12.219  0.0730 -0.1267 -1.4429
  733TMC3    C710840   3.844   4.453  12.068 -0.1021 -0.1628  0.1702
  733TMC3    C810841   4.076   4.389  12.469 -0.1247 -0.0476  0.0285
  733TMC3    O110842   3.812   4.403  11.961 -0.5556  0.4615  0.2162
  733TMC3    O210843   4.094   4.331  12.576 -0.0088  0.7815 -0.3975
  734MPD2     C10844   0.461   2.430  12.856  0.0132 -0.0661 -0.3643
  734MPD2    C110845   0.387   2.343  12.775  0.2200  1.0512  0.2969
  734MPD2    C210846   0.303   2.414  12.691 -0.0832  0.2691 -0.1307
  734MPD2    C310847   0.313   2.554  12.669  0.5316 -0.0936  0.6051
  734MPD2    C410848   0.399   2.629  12.750 -0.1194 -0.2933  1.7520
  734MPD2    C510849   0.470   2.567  12.850 -0.1919 -1.2384 -0.5725
  734MPD2     H10850   0.242   2.367  12.616  0.4173  1.5880 -1.3678
  734MPD2    H110851   0.429   2.730  12.726  0.8666 -1.5514 -2.4033
  734MPD2    H210852   0.530   2.382  12.925 -0.0299  2.7674  1.6512
  734MPD2    H310853   0.537   2.618  12.918  1.8912 -0.8269 -2.9343
  734MPD2     N10854   0.250   2.614  12.556  0.1049 -0.2451  0.1128
  734MPD2    H510855   0.192   2.549  12.503  0.2739 -1.1593  1.0353
  734MPD2    N110856   0.404   2.206  12.774  0.1641 -0.1684 -0.2806
  734MPD2    H710857   0.470   2.164  12.839 -3.0849 -1.1916  2.3256
  735TMC3    C110858   0.356   1.980  12.710 -0.2056  0.2766  0.6066
  735TMC3    C210859   0.243   1.916  12.669  0.1202  0.3812  0.3757
  735TMC3    C310860   0.256   1.803  12.594 -0.2433 -0.1577 -0.2116
  735TMC3    C410861   0.484   1.941  12.680  0.1395  0.6884 -0.2423
  735TMC3    C510862   0.489   1.822  12.624 -0.0559  0.9580  0.0930
  735TMC3    C610863   0.382   1.755  12.575 -0.3295 -0.5313  0.9725
  735TMC3     C10864   0.321   2.119  12.705 -0.0659 -0.2302 -0.4790
  735TMC3     O10865   0.236   2.144  12.620 -0.6638 -0.0722 -0.4582
  735TMC3     H10866   0.146   1.958  12.691 -1.0666 -0.6078 -2.9061
  735TMC3    H110867   0.575   1.997  12.697  0.3149  0.4563 -0.4228
  735TMC3    H210868   0.397   1.677  12.502 -0.4434 -0.4080  0.8153
  735TMC3    C710869   0.610   1.800  12.548  0.7635 -0.0376 -0.1463
  735TMC3    C810870   0.183   1.803  12.473  0.7300  0.6732 -0.4170
  735TMC3    O110871   0.666   1.901  12.507 -0.1695  0.2896  0.0841
  735TMC3    O210872   0.186   1.705  12.401 -0.1859  0.0598 -0.0367
  736MPD2     C10873   0.779   1.473  12.530  0.4129  0.5696  0.7279
  736MPD2    C110874   0.759   1.608  12.490 -0.5940  0.3001 -0.3960
  736MPD2    C210875   0.842   1.674  12.401  0.1675 -0.5190 -0.0010
  736MPD2    C310876   0.954   1.604  12.347 -0.8960 -0.0186 -1.0624
  736MPD2    C410877   0.980   1.480  12.398 -0.4554 -0.2234  0.0117
  736MPD2    C510878   0.894   1.416  12.482  0.6760  0.6081 -0.5393
  736MPD2     H10879   0.819   1.774  12.366  0.7453 -0.5150 -0.3916
  736MPD2    H110880   1.069   1.427  12.366  1.5039  1.5666  2.4471
  736MPD2    H210881   0.709   1.425  12.597  2.0467 -3.2843 -0.2739
  736MPD2    H310882   0.911   1.311  12.504  3.7847  1.4406  1.0166
  736MPD2     N10883   1.058   1.653  12.261  0.1858 -0.3562  0.0239
  736MPD2    H510884   1.131   1.585  12.239  0.4334 -0.2338  0.4808
  736MPD2    N110885   0.644   1.665  12.540 -0.5629  0.1293 -1.3965
  736MPD2    H710886   0.583   1.598  12.585  0.6278 -1.6268 -2.3933
  737TMC3    C110887   1.166   1.786  12.110 -0.4038  0.4930  0.3711
  737TMC3    C210888   1.204   1.914  12.062  0.1463  0.5852 -0.4239
  737TMC3    C310889   1.285   1.921  11.945  0.0059 -0.4928  0.0215
  737TMC3    C410890   1.202   1.682  12.025 -0.1305 -0.3944  1.0107
  737TMC3    C510891   1.290   1.691  11.918  0.2718 -0.1162  0.3260
  737TMC3    C610892   1.334   1.812  11.879 -0.3053 -0.4684  0.3524
  737TMC3     C10893   1.067   1.778  12.207 -0.2882 -0.5373  0.0377
  737TMC3     O10894   1.008   1.885  12.228 -0.3847 -0.2045  0.4351
  737TMC3     H10895   1.166   2.004  12.109  0.4285 -0.0923  1.0950
  737TMC3    H110896   1.162   1.582  12.044 -0.1386 -0.3385  1.2910
  737TMC3    H210897   1.406   1.818  11.797  0.2767  0.7045  0.9387
  737TMC3    C710898   1.335   1.566  11.857  0.5679  0.4625 -0.3374
  737TMC3    C810899   1.315   2.046  11.895  0.7232 -0.4415  0.0189
  737TMC3    O110900   1.340   1.460  11.918  0.5650  0.2462  0.0832
  737TMC3    O210901   1.303   2.143  11.969  0.5904  0.3551 -0.7534
  738MPD2     C10902   0.833   0.542  15.122  0.0643 -0.1862 -0.6683
  738MPD2    C110903   0.952   0.583  15.182  0.0915 -0.3169 -0.1542
  738MPD2    C210904   1.030   0.675  15.117 -0.5313  0.0190 -1.0729
  738MPD2    C310905   0.999   0.722  14.991  0.0213 -0.6029 -0.2376
  738MPD2    C410906   0.884   0.685  14.936  0.1584  0.0410 -0.6253
  738MPD2    C510907   0.799   0.597  15.000 -0.4489  0.2076 -0.3444
  738MPD2     H10908   1.122   0.698  15.168  0.5108 -0.1053 -2.8755
  738MPD2    H110909   0.856   0.729  14.841  0.9262  0.4600 -0.6550
  738MPD2    H210910   0.761   0.476  15.168 -0.2464  1.1603  0.7542
  738MPD2    H310911   0.703   0.577  14.953 -1.5725 -1.4270  2.6798
  738MPD2     N10912   1.085   0.809  14.918 -0.1437 -0.3397 -0.3386
  738MPD2    H510913   1.055   0.836  14.825  1.2544  0.4953 -0.5468
  738MPD2    N110914   1.000   0.530  15.304  0.6127 -0.3907 -0.2447
  738MPD2    H710915   1.096   0.557  15.319  0.3655  0.5555 -0.4111
  739TMC3    C110916   1.265   0.946  14.872  0.1924 -0.1269 -0.2753
  739TMC3    C210917   1.265   0.918  14.743 -0.1856  0.0201 -0.0040
  739TMC3    C310918   1.331   1.007  14.652  0.1201 -0.4410  0.0866
  739TMC3    C410919   1.341   1.052  14.917  0.0082 -0.0442 -0.2044
  739TMC3    C510920   1.404   1.132  14.829  0.0923  0.3396  0.1339
  739TMC3    C610921   1.389   1.124  14.691 -0.4620  0.2789  1.0358
  739TMC3     C10922   1.190   0.875  14.972  0.2741 -0.6080  0.3454
  739TMC3     O10923   1.232   0.875  15.085 -0.1188 -0.3164  0.0207
  739TMC3     H10924   1.235   0.820  14.705  0.9128 -0.7594  1.1443
  739TMC3    H110925   1.345   1.064  15.025  0.7668  3.1998 -0.5941
  739TMC3    H210926   1.417   1.195  14.614 -1.3387  0.6493  1.0565
  739TMC3    C710927   1.456   1.258  14.879 -0.7446  0.4993  0.3689
  739TMC3    C810928   1.394   0.952  14.528  0.0376  0.1458  0.0353
  739TMC3    O110929   1.434   1.277  15.000  0.0474  0.0938  0.4893
  739TMC3    O210930   1.424   1.029  14.439  0.3654  0.3057 -0.5746
  740TMC3    C110931   2.203   2.002  14.115  0.6477 -0.1415  0.0090
  740TMC3    C210932   2.250   1.962  14.238 -0.2457  0.2346 -0.8659
  740TMC3    C310933   2.366   1.887  14.234 -0.4382  0.4976 -0.2951
  740TMC3    C410934   2.276   1.980  14.003  0.7711 -1.0012  0.1182
  740TMC3    C510935   2.394   1.914  14.010  0.5745  0.1346 -0.4742
  740TMC3    C610936   2.443   1.871  14.122  0.7550  0.7336  0.0880
  740TMC3     C10937   2.075   2.066  14.094  0.5194  0.1475 -0.5857
  740TMC3     O10938   2.029   2.077  13.982 -0.0204  0.1071 -0.1417
  740TMC3     H10939   2.192   1.983  14.327 -2.5262 -1.6938 -1.8988
  740TMC3    H110940   2.243   2.016  13.906  0.0144  0.5845  0.9540
  740TMC3    H210941   2.530   1.807  14.130  0.0232 -0.1608  0.8519
  740TMC3    C710942   2.457   1.864  13.895  0.3163 -0.6491  0.1565
  740TMC3    C810943   2.396   1.800  14.347  0.1540 -0.1008 -0.4357
  740TMC3    O110944   2.538   1.773  13.911 -0.7198  0.0890 -0.8061
  740TMC3    O210945   2.474   1.709  14.331 -0.2864 -0.0459 -0.1299
  741TMC3    C110946   1.399   1.446  13.843  0.4295  0.2335  0.8783
  741TMC3    C210947   1.301   1.372  13.893 -0.1473 -0.7090  0.1577
  741TMC3    C310948   1.326   1.294  14.003 -0.1658  0.3094 -0.0258
  741TMC3    C410949   1.531   1.444  13.882  0.6660 -0.4255 -0.1812
  741TMC3    C510950   1.554   1.356  13.988 -0.0635 -0.0368 -0.7844
  741TMC3    C610951   1.453   1.287  14.054 -0.1549  0.3841 -0.7205
  741TMC3     C10952   1.364   1.507  13.719  0.0280  0.6315  0.4160
  741TMC3     O10953   1.260   1.468  13.667 -0.3712 -0.2387  0.5517
  741TMC3     H10954   1.198   1.387  13.864  0.1182  0.1118 -0.3621
  741TMC3    H110955   1.608   1.473  13.812 -1.3680  2.2741 -1.2428
  741TMC3    H210956   1.474   1.228  14.142 -0.5850  0.9372 -0.2404
  741TMC3    C710957   1.678   1.354  14.056  0.6729 -0.3975  0.5551
  741TMC3    C810958   1.217   1.217  14.062 -0.2568  0.3874  0.7639
  741TMC3    O110959   1.753   1.452  14.037 -0.2525 -0.2448  0.3786
  741TMC3    O210960   1.106   1.252  14.040 -0.0496  0.5130 -0.1210
  742TMC3    C110961   1.683   4.587  15.378  0.3251  0.9223 -0.6056
  742TMC3    C210962   1.582   4.575  15.285 -0.5609  0.1743 -0.5253
  742TMC3    C310963   1.607   4.514  15.164 -0.3065 -0.4045  0.1632
  742TMC3    C410964   1.818   4.551  15.348  0.2907 -0.0231  0.2410
  742TMC3    C510965   1.838   4.505  15.227  0.6462  0.0111 -0.0951
  742TMC3    C610966   1.736   4.482  15.137  0.4891 -0.0927 -0.3293
  742TMC3     C10967   1.650   4.640  15.509  0.0459  0.1301  0.6526
  742TMC3     O10968   1.748   4.640  15.583  0.8893 -0.1155 -0.4922
  742TMC3     H10969   1.479   4.572  15.318  0.2334  2.5433  2.1445
  742TMC3    H110970   1.903   4.586  15.406  0.1532  2.3303 -0.9754
  742TMC3    H210971   1.763   4.446  15.039 -0.9161 -2.5926  0.2183
  742TMC3    C710972   1.957   4.421  15.205 -0.1264  0.3941 -0.2852
  742TMC3    C810973   1.502   4.461  15.075  0.0467  0.3919 -0.4460
  742TMC3    O110974   1.949   4.331  15.127 -0.4382  0.3412  0.1049
  742TMC3    O210975   1.539   4.385  14.984  0.7011  0.2689 -0.1337
  743MPD2     C10976   4.008   4.382   1.003  0.6709 -0.2705  0.8715
  743MPD2    C110977   3.988   4.489   0.921  0.0831 -0.2119  0.2210
  743MPD2    C210978   4.018   4.484   0.785  0.5503 -0.5213  0.7860
  743MPD2    C310979   4.052   4.366   0.730 -0.2018  0.1982 -0.7018
  743MPD2    C410980   4.068   4.252   0.807  0.1273  0.2474 -0.9663
  743MPD2    C510981   4.051   4.266   0.942 -0.5669  0.2212 -0.2554
  743MPD2     H10982   4.008   4.576   0.728  0.0780  0.3067  2.2172
  743MPD2    H110983   4.089   4.156   0.763  2.1997  0.5870 -0.7164
  743MPD2    H210984   3.998   4.382   1.111 -1.5843  0.3612  0.6584
  743MPD2    H310985   4.059   4.181   1.009  0.2957  1.7032  1.5197
  743MPD2     N10986   4.065   4.373   0.586  0.0447  0.2180 -0.0597
  743MPD2    H510987   4.041   4.459   0.538 -0.6770 -0.3524 -0.7253
  743MPD2    N110988   3.929   4.607   0.973  0.2030  0.4924  0.4805
  743MPD2    H710989   3.954   4.628   1.070 -0.0497 -0.1835  0.6876
  744TMC3    C110990   3.840   0.111   0.942 -0.7911  0.5606 -0.6066
  744TMC3    C210991   3.849   0.139   1.075 -0.0408  0.7560  0.6007
  744TMC3    C310992   3.858   0.275   1.103  0.6733  0.8921 -0.1867
  744TMC3    C410993   3.846   0.203   0.837 -0.1745 -0.2077 -0.6281
  744TMC3    C510994   3.846   0.337   0.875  0.4889  0.1537 -0.4872
  744TMC3    C610995   3.860   0.368   1.008 -0.3113 -0.1232 -0.3069
  744TMC3     C10996   3.840   4.689   0.899  0.3234  0.5209  0.2808
  744TMC3     O10997   3.789   4.673   0.791  0.4695 -0.1192 -0.3265
  744TMC3     H10998   3.824   0.064   1.149  0.2787 -1.9507 -2.0707
  744TMC3    H110999   3.845   0.168   0.734  2.4199 -0.1154 -0.6720
  744TMC3    H211000   3.872   0.471   1.039 -0.6017  0.2305 -1.3816
  744TMC3    C711001   3.857   0.432   0.775  0.3019 -0.1982 -0.2193
  744TMC3    C811002   3.862   0.316   1.242  0.0742 -0.2502  0.2156
  744TMC3    O111003   3.797   0.539   0.794 -0.1711  0.0476  0.6469
  744TMC3    O211004   3.825   0.433   1.269 -0.1172  0.3666 -0.1591
  745TMC3    C111005   2.570   4.207  13.406 -0.7248 -0.0904  1.1225
  745TMC3    C211006   2.501   4.275  13.507 -0.3134  0.6506  0.0154
  745TMC3    C311007   2.365   4.290  13.501 -0.3792 -1.3247  0.1277
  745TMC3    C411008   2.504   4.175  13.293 -0.4747 -0.7879  0.0444
  745TMC3    C511009   2.373   4.211  13.284 -0.3142 -0.1199  0.0490
  745TMC3    C611010   2.303   4.260  13.386  0.1443 -0.2256  0.5677
  745TMC3     C11011   2.698   4.254  13.394  0.0901  0.4181  0.1605
  745TMC3     O11012   2.802   4.186  13.416 -0.2764  0.2677  0.6769
  745TMC3     H11013   2.564   4.316  13.584 -0.4336 -1.6699  1.3278
  745TMC3    H111014   2.562   4.125  13.216 -0.7012 -0.7183 -0.1710
  745TMC3    H211015   2.201   4.284  13.361  0.1855  0.7978  1.4060
  745TMC3    C711016   2.342   4.279  13.166 -0.1583  0.7589 -0.1184
  745TMC3    C811017   2.288   4.333  13.613 -0.1473 -0.1566 -0.1330
  745TMC3    O111018   2.227   4.290  13.129  0.3683 -0.1318 -0.1903
  745TMC3    O211019   2.166   4.312  13.603 -0.2941 -0.0668 -0.1114
  746TMC3    C111020   4.207   1.460  10.959  0.8583  0.1098 -0.0401
  746TMC3    C211021   4.206   1.411  10.831 -0.1819 -0.1031  0.4073
  746TMC3    C311022   4.114   1.317  10.787 -0.2202  0.1791 -0.2193
  746TMC3    C411023   4.121   1.407  11.053 -0.4459 -0.0256  0.2786
  746TMC3    C511024   4.029   1.316  11.005 -0.0588  0.3841  0.1204
  746TMC3    C611025   4.029   1.277  10.880 -0.4729 -0.1945  0.4629
  746TMC3     C11026   4.217   1.602  10.962 -0.4067  0.4855 -0.0556
  746TMC3     O11027   4.174   1.656  11.058  0.8842 -0.3363  0.1461
  746TMC3     H11028   4.302   1.424  10.782  0.4966  1.0804  2.0459
  746TMC3    H111029   4.124   1.446  11.154  0.7145  1.8992 -0.5038
  746TMC3    H211030   3.952   1.211  10.843  0.6024 -1.3168  0.2503
  746TMC3    C711031   3.900   1.309  11.062  0.2602  1.1048 -0.3729
  746TMC3    C811032   4.050   1.344  10.660  0.1496 -0.4005  0.4336
  746TMC3    O111033   3.803   1.331  10.992 -0.2482  0.5917 -0.1588
  746TMC3    O211034   3.943   1.298  10.629 -0.4276  0.6569  0.3185
  747TMC3    C111035   1.657   1.643  10.883  0.0715 -0.1029  0.2084
  747TMC3    C211036   1.576   1.662  10.998 -0.3227  0.0913  0.9008
  747TMC3    C311037   1.632   1.627  11.116  0.2886 -0.5928 -0.0538
  747TMC3    C411038   1.790   1.639  10.898 -0.0932  0.1853 -0.0289
  747TMC3    C511039   1.843   1.628  11.021 -0.1262 -0.1558  0.8589
  747TMC3    C611040   1.764   1.611  11.132 -0.3660  0.5442 -0.2547
  747TMC3     C11041   1.596   1.691  10.759 -0.2539 -0.0231 -0.5621
  747TMC3     O11042   1.477   1.717  10.764 -0.1872 -0.4631  0.4395
  747TMC3     H11043   1.468   1.671  10.992 -0.2252 -0.4385 -1.6580
  747TMC3    H111044   1.858   1.658  10.816 -0.5951 -0.3594 -0.5662
  747TMC3    H211045   1.800   1.595  11.233 -0.4962  2.0813  0.0358
  747TMC3    C711046   1.978   1.665  11.035 -0.3320  0.5806  0.5672
  747TMC3    C811047   1.542   1.604  11.232 -0.0026 -0.0099  0.3709
  747TMC3    O111048   2.004   1.719  11.138 -0.1221  0.2027  0.1042
  747TMC3    O211049   1.462   1.692  11.253  0.0769  0.7740 -0.0143
  748MPD2     C11050   3.065   2.974   0.999  0.4115  0.4923  0.1576
  748MPD2    C111051   3.018   2.879   1.090 -0.0183 -0.4877  0.7584
  748MPD2    C211052   3.103   2.844   1.194 -0.6593 -0.7756 -0.0316
  748MPD2    C311053   3.234   2.891   1.203 -0.3442  0.4068 -0.0836
  748MPD2    C411054   3.282   2.978   1.105  0.0963 -0.7714  0.0511
  748MPD2    C511055   3.199   3.012   0.996 -0.1658 -0.5535 -0.3176
  748MPD2     H11056   3.061   2.774   1.265 -0.9634 -1.5387 -0.9741
  748MPD2    H111057   3.386   3.011   1.108  0.3400 -1.7256  1.8866
  748MPD2    H211058   3.007   3.011   0.914 -0.3912  0.1542  0.5667
  748MPD2    H311059   3.232   3.092   0.930  0.1562 -1.3377 -1.1014
  748MPD2     N11060   3.316   2.831   1.305 -0.1999  0.0262 -0.7110
  748MPD2    H511061   3.265   2.771   1.368 -1.7866  1.6952 -0.3945
  748MPD2    N111062   2.889   2.835   1.063 -0.1329  0.1287 -0.2484
  748MPD2    H711063   2.852   2.866   0.974 -2.1639 -1.3856  0.0863
  749TMC3    C111064   3.531   2.763   1.410  0.5749 -0.3709 -0.5444
  749TMC3    C211065   3.467   2.646   1.456 -0.3427 -0.8916 -0.1059
  749TMC3    C311066   3.546   2.562   1.526 -0.2713  0.2093  1.4216
  749TMC3    C411067   3.657   2.801   1.441 -0.0995 -0.4339 -0.9385
  749TMC3    C511068   3.739   2.703   1.501 -0.2826  1.2661 -0.3709
  749TMC3    C611069   3.684   2.584   1.543  0.2120 -0.0929  0.2398
  749TMC3     C11070   3.456   2.849   1.310  0.9585  0.1207  0.1158
  749TMC3     O11071   3.533   2.912   1.235 -0.7003  0.5283 -0.8171
  749TMC3     H11072   3.364   2.627   1.428  0.0796 -3.0248 -0.1975
  749TMC3    H111073   3.702   2.896   1.414  1.3467 -1.1374 -0.9533
  749TMC3    H211074   3.738   2.522   1.614 -0.5571  0.4915  1.3439
  749TMC3    C711075   3.880   2.727   1.516  0.1066 -0.0017  0.2346
  749TMC3    C811076   3.490   2.441   1.549  0.5621  0.3357  0.6807
  749TMC3    O111077   3.908   2.842   1.481 -0.7890  0.0350  0.0829
  749TMC3    O211078   3.375   2.433   1.579  0.3453 -0.1200  0.6771
  750MPD2     C11079   4.585   3.459  11.211  0.5166  0.1569 -0.0734
  750MPD2    C111080   4.446   3.456  11.231  0.1504  0.5426 -0.1698
  750MPD2    C211081   4.367   3.370  11.154 -0.2015 -0.8920 -0.0415
  750MPD2    C311082   4.425   3.282  11.062  0.1929  0.0574  0.1081
  750MPD2    C411083   4.560   3.292  11.033 -0.1069  0.2015 -0.4072
  750MPD2    C511084   4.640   3.377  11.115 -0.0005  0.0314 -0.0336
  750MPD2     H11085   4.259   3.369  11.159 -0.1932  0.1776  0.4399
  750MPD2    H111086   4.616   3.233  10.960  1.5218 -0.2261  1.1827
  750MPD2    H211087   4.650   3.532  11.258  0.7193  1.2798 -2.0877
  750MPD2    H311088   0.026   3.391  11.092 -0.2992 -0.3674 -1.6403
  750MPD2     N11089   4.354   3.183  10.986  0.6777  0.1537  0.0533
  750MPD2    H511090   4.407   3.129  10.918 -1.0756 -1.0643 -0.3535
  750MPD2    N111091   4.387   3.550  11.319 -0.1230  0.6199  0.1319
  750MPD2    H711092   4.447   3.610  11.375 -1.2392  0.9453  0.9726
  751TMC3    C111093   4.175   3.040  10.911  0.0100 -0.0290  0.7140
  751TMC3    C211094   4.054   2.986  10.961 -0.0598 -0.6759  0.4898
  751TMC3    C311095   4.016   2.853  10.930 -0.3613 -0.2938 -0.0439
  751TMC3    C411096   4.264   2.958  10.836  0.7321  0.3640  0.2659
  751TMC3    C511097   4.223   2.831  10.816  0.3240  0.7633 -0.5494
  751TMC3    C611098   4.108   2.774  10.862 -1.1206  0.3852  0.1052
  751TMC3     C11099   4.223   3.145  10.997  0.2602  0.6407  0.4811
  751TMC3     O11100   4.137   3.197  11.070 -0.6178  0.1420  0.3320
  751TMC3     H11101   3.985   3.048  11.017  1.4324 -0.1888  1.7967
  751TMC3    H111102   4.360   2.992  10.799  1.1366 -3.2298 -1.9570
  751TMC3    H211103   4.077   2.678  10.822 -2.1720  1.1029 -0.7889
  751TMC3    C711104   4.327   2.738  10.785 -0.3423  0.1546 -0.2068
  751TMC3    C811105   3.881   2.799  10.947  0.7899 -0.1573  0.1182
  751TMC3    O111106   4.414   2.776  10.714 -0.3981  0.2267  0.5027
  751TMC3    O211107   3.856   2.696  10.882  0.0556 -0.2380  0.0799
  752TMC3    C111108   3.193   3.183  16.932 -0.3801 -0.4436 -0.0785
  752TMC3    C211109   3.086   3.112  16.976  0.1715  0.3119  0.2378
  752TMC3    C311110   3.077   3.100  17.115 -0.4325 -0.1099  0.4341
  752TMC3    C411111   3.284   3.247  17.018  0.0563 -0.7742 -0.0154
  752TMC3    C511112   3.267   3.235  17.157 -0.1433  0.5481 -0.6011
  752TMC3    C611113   3.163   3.165  17.202 -0.2469 -0.4271 -0.4147
  752TMC3     C11114   3.203   3.221  16.798 -0.6331 -0.4932 -1.4753
  752TMC3     O11115   3.316   3.241  16.753  0.3412  0.2840  0.1836
  752TMC3     H11116   3.015   3.062  16.911  1.1055 -1.9792  0.9704
  752TMC3    H111117   3.364   3.308  16.978 -1.3352  1.8205  1.1310
  752TMC3    H211118   3.147   3.141  17.307  0.4781  3.3227  0.5436
  752TMC3    C711119   3.315   3.344  17.242 -0.2001  0.3869  0.0045
  752TMC3    C811120   2.954   3.040  17.162  0.1637  0.3561 -0.2396
  752TMC3    O111121   3.244   3.365  17.338  0.2244 -0.4982  0.1763
  752TMC3    O211122   2.918   2.948  17.088  0.0596  0.1819 -0.9830
  753TMC3    C111123   0.545   4.259  13.619  0.3587  0.0804 -0.8268
  753TMC3    C211124   0.582   4.228  13.747 -0.0365 -0.3611  0.7842
  753TMC3    C311125   0.567   4.093  13.773 -0.2299  0.3637 -0.1846
  753TMC3    C411126   0.498   4.175  13.526  1.4373 -0.1490 -0.4177
  753TMC3    C511127   0.475   4.045  13.558 -0.0580  0.4062 -0.5989
  753TMC3    C611128   0.522   4.002  13.678 -0.2015  0.4438  0.0177
  753TMC3     C11129   0.556   4.399  13.592 -1.3755 -0.4401 -0.0859
  753TMC3     O11130   0.633   4.466  13.663 -0.4483 -0.2483 -0.5782
  753TMC3     H11131   0.628   4.292  13.821  0.1594  1.9741 -1.3826
  753TMC3    H111132   0.480   4.216  13.427  2.2442  1.9240  0.2837
  753TMC3    H211133   0.501   3.898  13.699 -0.1516  1.0816  3.2638
  753TMC3    C711134   0.466   3.956  13.442  0.5240  0.3098 -0.2265
  753TMC3    C811135   0.614   4.042  13.900 -0.2207  0.5066 -0.1192
  753TMC3    O111136   0.527   3.854  13.446 -0.2485 -0.0862  0.4349
  753TMC3    O211137   0.603   3.923  13.916  0.2651 -0.0538 -0.5498
  754MPD2     C11138   3.510   3.316  12.980 -0.5727  0.5318  0.5306
  754MPD2    C111139   3.421   3.209  12.993  0.5239  0.1865  0.3622
  754MPD2    C211140   3.303   3.228  13.057 -0.1304  0.3562 -0.4301
  754MPD2    C311141   3.268   3.349  13.123 -0.1977 -0.1535  0.6811
  754MPD2    C411142   3.355   3.452  13.119  0.3623  0.3579  0.4830
  754MPD2    C511143   3.473   3.433  13.042 -0.3750 -0.2058 -0.0608
  754MPD2     H11144   3.242   3.139  13.071  0.4205 -0.1374 -1.2052
  754MPD2    H111145   3.332   3.542  13.176  0.4054 -0.0410  1.1307
  754MPD2    H211146   3.597   3.311  12.916  0.5945  0.4360  2.1246
  754MPD2    H311147   3.547   3.512  13.034 -0.2620 -0.3901 -0.8416
  754MPD2     N11148   3.153   3.359  13.196 -0.2355  0.0532  0.7411
  754MPD2    H511149   3.153   3.432  13.268  0.2437  0.8404 -0.0523
  754MPD2    N111150   3.462   3.082  12.950  0.1748  0.1993 -0.6681
  754MPD2    H711151   3.561   3.077  12.929 -0.5894 -1.6848 -3.8536
  755MPD2     C11152   3.430   3.242  14.044  0.0166  0.2285  0.2164
  755MPD2    C111153   3.327   3.329  14.019  0.1303  0.2341  0.3272
  755MPD2    C211154   3.262   3.307  13.898 -0.4713 -0.1352 -0.2210
  755MPD2    C311155   3.309   3.218  13.801  0.2401  0.1605 -0.5424
  755MPD2    C411156   3.394   3.115  13.841 -0.4246  0.1212 -0.3719
  755MPD2    C511157   3.454   3.135  13.961  0.1840  0.4289 -0.0267
  755MPD2     H11158   3.188   3.380  13.867 -0.9388 -0.7341 -0.5234
  755MPD2    H111159   3.426   3.034  13.776  0.5157  0.6826 -0.6120
  755MPD2    H211160   3.489   3.247  14.135 -1.5659  4.0682  1.0570
  755MPD2    H311161   3.527   3.060  13.991  0.4836 -0.0752 -1.9752
  755MPD2     N11162   3.242   3.185  13.681 -0.2981  0.3831  0.4410
  755MPD2    H511163   3.262   3.098  13.633 -1.4690  0.6880 -0.5878
  755MPD2    N111164   3.281   3.429  14.109 -0.4016  0.0862 -0.0735
  755MPD2    H711165   3.204   3.483  14.071  0.0374  0.6716 -0.1262
  756MPD2     C11166   4.142   3.846   9.341 -0.1512  0.1340 -0.6535
  756MPD2    C111167   4.184   3.754   9.431 -0.3195  0.2290  0.9452
  756MPD2    C211168   4.145   3.619   9.431 -0.6301  0.1873 -0.1515
  756MPD2    C311169   4.054   3.572   9.340  0.5510  0.3243  0.6187
  756MPD2    C411170   4.009   3.666   9.248 -0.0009  0.6869  0.8205
  756MPD2    C511171   4.048   3.793   9.257 -0.1871 -0.4386  0.3085
  756MPD2     H11172   4.174   3.557   9.515 -1.8103  1.0006  0.8614
  756MPD2    H111173   3.927   3.657   9.178  0.9803 -0.2538 -0.2099
  756MPD2    H211174   4.146   3.954   9.343  2.3394  0.0547 -1.4913
  756MPD2    H311175   3.988   3.860   9.196  1.1715 -0.7772 -1.3942
  756MPD2     N11176   3.995   3.450   9.368  0.6114  0.3429  0.3003
  756MPD2    H511177   4.032   3.407   9.453  3.4004 -0.9395 -1.5462
  756MPD2    N111178   4.260   3.788   9.544 -0.3747  0.1711  0.3955
  756MPD2    H711179   4.269   3.713   9.612  0.0125  0.5229  0.7369
  757MPD2     C11180   3.934   2.559   9.842 -0.2391 -0.0532 -0.4980
  757MPD2    C111181   3.877   2.523   9.717  0.8405 -0.3767 -0.6388
  757MPD2    C211182   3.854   2.622   9.625 -0.5027  0.8854 -0.4079
  757MPD2    C311183   3.899   2.755   9.648  0.3453  0.0349  0.3851
  757MPD2    C411184   3.970   2.784   9.769  0.1646  0.1214  0.5847
  757MPD2    C511185   3.974   2.690   9.862 -0.3603  0.3768  0.2046
  757MPD2     H11186   3.807   2.598   9.530  1.6093  0.6873 -1.3981
  757MPD2    H111187   4.004   2.884   9.796 -0.6103  0.3454  0.7516
  757MPD2    H211188   3.943   2.482   9.919 -2.4861 -0.6578 -0.8517
  757MPD2    H311189   4.035   2.710   9.949 -0.4422 -0.4036  0.4342
  757MPD2     N11190   3.872   2.856   9.554  0.4483  0.0761  0.0314
  757MPD2    H511191   3.828   2.826   9.468  2.1539 -1.6815 -0.2201
  757MPD2    N111192   3.840   2.382   9.707  0.3621 -1.0137 -0.1256
  757MPD2    H711193   3.894   2.323   9.770  0.7002 -1.4402 -0.8035
  758MPD2     C11194   3.831   2.523  16.083 -0.0233 -0.3521  0.2315
  758MPD2    C111195   3.937   2.477  16.158 -1.1809 -0.2207 -0.1520
  758MPD2    C211196   3.937   2.494  16.301 -0.7695 -0.6008  0.0201
  758MPD2    C311197   3.828   2.560  16.358  0.4014 -0.4795  1.1018
  758MPD2    C411198   3.729   2.615  16.278 -1.2503 -0.4836  0.1497
  758MPD2    C511199   3.727   2.591  16.143 -0.4441  0.6638 -0.2068
  758MPD2     H11200   4.011   2.442  16.360  1.2921  2.1209 -0.1814
  758MPD2    H111201   3.636   2.653  16.318 -0.8233  0.7475 -0.0362
  758MPD2    H211202   3.832   2.522  15.975 -0.7572 -1.9007  0.2434
  758MPD2    H311203   3.648   2.630  16.079 -1.7198  0.8723  1.4846
  758MPD2     N11204   3.815   2.589  16.493  0.5746 -0.2489  0.1769
  758MPD2    H511205   3.744   2.654  16.526 -0.7506 -1.3557 -0.4978
  758MPD2    N111206   4.045   2.434  16.080 -0.1249 -0.4382  0.6736
  758MPD2    H711207   4.033   2.399  15.985  0.2232 -2.1400  1.2590
  759MPD2     C11208   3.256   0.745   9.640  0.1198 -0.2641 -0.0162
  759MPD2    C111209   3.301   0.873   9.654  0.2692 -0.5673  0.3144
  759MPD2    C211210   3.369   0.929   9.547  0.6390 -0.3279 -0.1678
  759MPD2    C311211   3.400   0.857   9.434 -0.4105 -0.3012 -0.3464
  759MPD2    C411212   3.372   0.719   9.431  0.0281  0.8415 -0.0595
  759MPD2    C511213   3.304   0.665   9.537 -0.0647  0.2417 -0.2043
  759MPD2     H11214   3.400   1.032   9.563 -2.3397  0.5319 -0.0644
  759MPD2    H111215   3.385   0.650   9.349 -0.7759  2.9375 -1.9772
  759MPD2    H211216   3.199   0.697   9.718  2.0166  0.6349  1.9473
  759MPD2    H311217   3.289   0.558   9.542 -0.5683  0.3330  0.2342
  759MPD2     N11218   3.463   0.930   9.326 -0.3458 -0.6666  0.5113
  759MPD2    H511219   3.483   1.029   9.336  1.2759 -0.7225 -2.0764
  759MPD2    N111220   3.271   0.944   9.767 -0.2667  0.0926 -0.3706
  759MPD2    H711221   3.210   0.895   9.833 -2.4562  3.5344  0.1512
  760MPD2     C11222   2.498   3.169  11.744  0.3047  0.2973  0.5266
  760MPD2    C111223   2.607   3.236  11.787 -0.6692 -0.3526 -0.1423
  760MPD2    C211224   2.692   3.183  11.886 -0.2694 -0.3364 -0.3040
  760MPD2    C311225   2.675   3.053  11.935 -0.4294  0.5493  0.1540
  760MPD2    C411226   2.572   2.979  11.873  0.0382  0.1106  0.3571
  760MPD2    C511227   2.478   3.042  11.790  0.1599 -0.3991 -1.0649
  760MPD2     H11228   2.773   3.248  11.916 -0.3675  1.3246 -3.6169
  760MPD2    H111229   2.539   2.880  11.903 -0.0282  0.8659  2.7676
  760MPD2    H211230   2.433   3.220  11.674  2.2761  2.1336  0.0205
  760MPD2    H311231   2.388   2.989  11.762  0.3668 -1.9688  1.2863
  760MPD2     N11232   2.765   2.987  12.023 -1.2000 -0.0618  0.7434
  760MPD2    H511233   2.752   2.886  12.018 -2.5267  0.1572 -0.0765
  760MPD2    N111234   2.655   3.361  11.724 -0.2046 -0.1556 -0.4801
  760MPD2    H711235   2.727   3.417  11.768  1.0262 -1.0266 -1.3872
  761MPD2     C11236   3.388   2.791  11.106 -0.3863 -0.1523 -0.3358
  761MPD2    C111237   3.462   2.693  11.041 -0.2412  0.1853 -0.0283
  761MPD2    C211238   3.601   2.720  11.020 -0.0405 -0.3807 -0.0286
  761MPD2    C311239   3.651   2.849  11.046  0.1000  0.7441  0.3281
  761MPD2    C411240   3.575   2.944  11.118 -0.9590  0.2520  0.3582
  761MPD2    C511241   3.446   2.909  11.144  0.7306 -0.1432 -0.1304
  761MPD2     H11242   3.655   2.645  10.963 -0.8900 -3.2291  2.9123
  761MPD2    H111243   3.614   3.039  11.150  0.6849 -1.5186  3.5482
  761MPD2    H211244   3.285   2.765  11.130  0.1880 -2.3932 -0.3256
  761MPD2    H311245   3.392   2.977  11.208  0.1654 -1.0915  0.4000
  761MPD2     N11246   3.791   2.886  11.016  0.3783 -0.0256 -0.1049
  761MPD2    H511247   3.826   2.976  11.048 -1.0658  1.3268 -2.2910
  761MPD2    N111248   3.397   2.566  11.002  0.0154  0.2419 -0.3812
  761MPD2    H711249   3.307   2.545  11.044  0.5905 -0.4862  0.4897
  762MPD2     C11250   3.793   2.512  10.621  0.1007 -0.1611 -0.2523
  762MPD2    C111251   3.796   2.375  10.641 -0.2511 -0.2836  0.1446
  762MPD2    C211252   3.915   2.309  10.598  0.0932  0.3067  0.3018
  762MPD2    C311253   4.025   2.377  10.540 -0.3552 -0.5311  0.6577
  762MPD2    C411254   4.014   2.514  10.520  0.0813  0.4065 -0.0376
  762MPD2    C511255   3.901   2.576  10.571  0.2218 -0.1296 -0.2575
  762MPD2     H11256   3.926   2.202  10.618  0.7722  0.1156 -1.1359
  762MPD2    H111257   4.100   2.566  10.479 -0.0540  1.8196  1.4865
  762MPD2    H211258   3.709   2.575  10.648 -0.7907 -1.8105  0.8391
  762MPD2    H311259   3.910   2.684  10.576  1.4032 -0.2352 -0.0681
  762MPD2     N11260   4.145   2.305  10.521 -0.4083  0.1379  0.4396
  762MPD2    H511261   4.145   2.208  10.550 -1.9602  0.5595  1.8165
  762MPD2    N111262   3.690   2.316  10.702  0.0722 -0.3349  0.1590
  762MPD2    H711263   3.617   2.384  10.718  0.1044 -0.3894  0.5492
  763MPD2     C11264   0.820   2.581  16.200 -0.5339  0.4130 -0.7417
  763MPD2    C111265   0.933   2.641  16.138 -0.3251 -0.1558 -0.3088
  763MPD2    C211266   1.004   2.735  16.214  1.0250 -0.4389  0.3535
  763MPD2    C311267   0.972   2.764  16.346  0.1688 -0.5920  0.2203
  763MPD2    C411268   0.857   2.712  16.397  0.2571  0.7485  0.0475
  763MPD2    C511269   0.778   2.629  16.320  0.4808  0.2652 -0.7712
  763MPD2     H11270   1.087   2.786  16.167 -0.7741  0.7666 -1.5294
  763MPD2    H111271   0.825   2.732  16.499  3.6186  0.2992  1.1765
  763MPD2    H211272   0.756   2.501  16.166  1.0568 -1.2253  0.1429
  763MPD2    H311273   0.698   2.575  16.370  0.7901  1.4072  0.9797
  763MPD2     N11274   1.058   2.832  16.430 -0.7769 -0.6137 -0.1957
  763MPD2    H511275   1.023   2.859  16.521 -0.4846  0.5578 -0.4362
  763MPD2    N111276   0.964   2.629  15.999  0.1750 -0.0752 -0.5021
  763MPD2    H711277   1.036   2.687  15.957 -1.0128  2.6864  1.2226
  764MPD2     C11278   4.536   4.469  17.568  0.9984 -0.2519  0.5471
  764MPD2    C111279   4.503   4.345  17.511  0.3962 -0.1057  0.0079
  764MPD2    C211280   4.487   4.234  17.591  0.1628  0.6457  0.7343
  764MPD2    C311281   4.508   4.242   0.045 -0.0913  0.1374  0.0718
  764MPD2    C411282   4.545   4.363   0.097  0.3575 -0.2381 -0.0771
  764MPD2    C511283   4.561   4.474   0.019  0.4344 -0.0633 -0.1731
  764MPD2     H11284   4.472   4.136  17.549  0.3857  0.8492  0.1765
  764MPD2    H111285   4.571   4.380   0.201  3.8627 -1.4119 -0.7706
  764MPD2    H211286   4.539   4.562  17.513 -2.0122 -0.9660 -0.7818
  764MPD2    H311287   4.590   4.566   0.070 -1.0748  1.4831 -2.0794
  764MPD2     N11288   4.493   4.126   0.120  0.1299 -0.1733 -0.5506
  764MPD2    H511289   4.481   4.040   0.067  0.6850 -0.4983 -0.1435
  764MPD2    N111290   4.457   4.330  17.384  0.1385 -0.2662  0.6915
  764MPD2    H711291   4.399   4.250  17.362  1.2538 -0.2474 -2.3446
  765MPD2     C11292   3.210   1.760  15.929  0.1258 -0.2931  0.2364
  765MPD2    C111293   3.295   1.863  15.896 -0.5336 -0.2142 -0.4322
  765MPD2    C211294   3.424   1.824  15.846  0.0520  0.0307  0.5222
  765MPD2    C311295   3.471   1.695  15.852 -0.0887 -0.3841  0.4135
  765MPD2    C411296   3.375   1.604  15.887 -0.0437 -0.3827  0.5646
  765MPD2    C511297   3.243   1.631  15.917 -0.1990  0.2303  0.1115
  765MPD2     H11298   3.496   1.889  15.799 -1.7831 -0.0293 -2.3925
  765MPD2    H111299   3.400   1.498  15.888  1.2202 -0.1098 -1.3518
  765MPD2    H211300   3.109   1.777  15.964 -0.2068  0.2579 -0.9670
  765MPD2    H311301   3.173   1.553  15.944 -2.2017  1.4752 -1.4401
  765MPD2     N11302   3.597   1.656  15.812 -0.5260  0.4813 -0.4994
  765MPD2    H511303   3.654   1.739  15.802  1.5114 -0.8108  0.1814
  765MPD2    N111304   3.245   1.997  15.898  0.2296  0.0619 -0.0365
  765MPD2    H711305   3.150   2.005  15.933  0.2846 -0.0204  0.1347
  766MPD2     C11306   2.700   2.023  15.617 -0.4915  0.6963  0.2118
  766MPD2    C111307   2.802   2.104  15.575 -0.0522  0.1792  0.0320
  766MPD2    C211308   2.828   2.109  15.443  0.0595  0.2124 -0.0277
  766MPD2    C311309   2.777   2.013  15.359  0.1725 -0.2131 -0.1746
  766MPD2    C411310   2.675   1.936  15.395 -0.0296  0.1156 -0.4515
  766MPD2    C511311   2.640   1.939  15.530 -0.4102 -0.4590 -0.7452
  766MPD2     H11312   2.913   2.169  15.415  0.0886 -1.1036 -2.8291
  766MPD2    H111313   2.620   1.867  15.332 -1.0560  1.2255 -0.7654
  766MPD2    H211314   2.673   2.016  15.722  1.5567 -1.6292  0.5732
  766MPD2    H311315   2.563   1.869  15.561 -0.9262  0.4697  0.0952
  766MPD2     N11316   2.847   2.006  15.236 -0.2976  0.3709 -0.3098
  766MPD2    H511317   2.915   2.076  15.210  0.2288 -0.2678 -0.6517
  766MPD2    N111318   2.865   2.181  15.674 -0.1377  0.2131 -0.4461
  766MPD2    H711319   2.861   2.151  15.771  0.3008  1.0514 -0.1744
  767MPD2     C11320   2.654   2.396  15.177 -0.0111  0.3599 -0.0889
  767MPD2    C111321   2.776   2.351  15.127 -0.2181  0.1537 -0.5847
  767MPD2    C211322   2.781   2.284  15.008 -0.0925 -0.2119  0.5365
  767MPD2    C311323   2.669   2.246  14.944  0.1533  0.1909  0.3572
  767MPD2    C411324   2.549   2.284  14.991  0.2386 -0.2745 -0.4233
  767MPD2    C511325   2.541   2.358  15.108 -0.2869 -0.1567 -0.1259
  767MPD2     H11326   2.874   2.251  14.963  0.1512  3.3484 -1.5547
  767MPD2    H111327   2.454   2.264  14.943 -1.4336  1.5180  2.1086
  767MPD2    H211328   2.648   2.453  15.269 -0.7775  0.8961 -0.4714
  767MPD2    H311329   2.444   2.377  15.153 -0.7414  0.0745 -1.1958
  767MPD2     N11330   2.686   2.161  14.832 -0.1418 -0.2945 -0.7219
  767MPD2    H511331   2.781   2.147  14.800 -0.1096 -1.4176 -0.1146
  767MPD2    N111332   2.894   2.396  15.187 -0.1505  0.2727  0.2791
  767MPD2    H711333   2.886   2.466  15.260  2.5522 -0.0540  0.8867
  768MPD2     C11334   3.613   0.914  10.821 -0.0379 -0.5627  0.2076
  768MPD2    C111335   3.593   0.973  10.944 -0.3952  0.2273  0.1540
  768MPD2    C211336   3.704   0.976  11.035 -0.0294  0.0977  0.5605
  768MPD2    C311337   3.831   0.954  10.982 -0.5412  1.0244  0.6233
  768MPD2    C411338   3.847   0.916  10.851 -0.6972  0.4242  0.3700
  768MPD2    C511339   3.739   0.884  10.773  0.3000  0.2150  0.4501
  768MPD2     H11340   3.690   1.014  11.135 -0.2412 -1.5175  1.1464
  768MPD2    H111341   3.940   0.881  10.809 -1.0096 -0.1146  0.1232
  768MPD2    H211342   3.539   0.900  10.743 -2.2551 -1.3557  2.4557
  768MPD2    H311343   3.746   0.835  10.676  1.4021  1.3107 -0.0317
  768MPD2     N11344   3.948   0.961  11.057  0.0988 -0.1832 -0.0961
  768MPD2    H511345   4.040   0.963  11.013  1.5917 -1.4491  2.9784
  768MPD2    N111346   3.467   1.015  10.995 -0.3581 -0.3035 -0.4684
  768MPD2    H711347   3.463   1.039  11.093  2.5340 -2.0403  0.0726
  769MPD2     C11348   0.085   3.309  15.038  0.0370  0.0402 -0.3782
  769MPD2    C111349   4.699   3.347  15.114 -0.6526 -0.2307 -0.0417
  769MPD2    C211350   4.707   3.445  15.204 -0.0479  1.4045  0.1968
  769MPD2    C311351   0.107   3.509  15.218  0.1564  0.1755 -0.3136
  769MPD2    C411352   0.218   3.464  15.152  0.0558 -0.9997  0.2341
  769MPD2    C511353   0.208   3.365  15.061 -0.1295  0.7038  0.7132
  769MPD2     H11354   4.629   3.481  15.270 -2.4720 -1.9506 -0.8346
  769MPD2    H111355   0.316   3.499  15.184 -0.4685 -0.0836  0.8628
  769MPD2    H211356   0.070   3.244  14.952 -0.8900 -0.5403  0.2298
  769MPD2    H311357   0.289   3.331  14.997 -0.8144 -0.3451  0.4082
  769MPD2     N11358   0.119   3.609  15.320  0.4015 -0.1894  0.7531
  769MPD2    H511359   0.031   3.635  15.363  0.1665  1.7278 -0.9096
  769MPD2    N111360   4.583   3.273  15.096  0.6446  0.3371 -0.1169
  769MPD2    H711361   4.592   3.207  15.019 -1.0382  2.7566 -2.3722
  770MPD2     C11362   3.738   2.891  14.896 -0.4274 -0.3110 -0.2834
  770MPD2    C111363   3.868   2.896  14.930 -0.0298  0.4343 -0.1301
  770MPD2    C211364   3.913   2.993  15.020  0.1135  0.0716  0.4206
  770MPD2    C311365   3.831   3.098  15.056 -0.0296  0.4734  0.1980
  770MPD2    C411366   3.699   3.094  15.012 -0.1430 -0.1206 -0.5604
  770MPD2    C511367   3.652   2.989  14.937 -0.2868  0.1012  0.2000
  770MPD2     H11368   4.011   2.984  15.065  0.3131  0.3942  0.0475
  770MPD2    H111369   3.635   3.172  15.050 -1.8104 -1.6417 -0.2268
  770MPD2    H211370   3.697   2.820  14.825  1.3993  0.0686 -1.7394
  770MPD2    H311371   3.549   2.970  14.911  0.3909 -1.0826 -1.5823
  770MPD2     N11372   3.874   3.206  15.143  0.0208 -0.3438  0.0700
  770MPD2    H511373   3.797   3.254  15.189  0.3868  1.2307 -0.9582
  770MPD2    N111374   3.950   2.783  14.900 -0.5848 -0.3833  0.0481
  770MPD2    H711375   3.909   2.696  14.868 -0.6028 -1.1025  2.0474
  771MPD2     C11376   0.616   1.332  13.614  0.0213 -0.0297 -0.0905
  771MPD2    C111377   0.564   1.456  13.590  0.2100  0.1401  0.2616
  771MPD2    C211378   0.480   1.481  13.486  0.0964  0.2609 -0.9124
  771MPD2    C311379   0.447   1.375  13.403  1.2801  0.5586 -0.3022
  771MPD2    C411380   0.503   1.249  13.420  0.2807  0.1105 -0.4044
  771MPD2    C511381   0.593   1.234  13.522 -0.0302  0.4445  0.5305
  771MPD2     H11382   0.426   1.574  13.474 -1.0032 -0.3129 -0.5010
  771MPD2    H111383   0.477   1.164  13.359  2.9360  1.1211 -2.9477
  771MPD2    H211384   0.690   1.309  13.691  0.5439  0.4349 -0.4536
  771MPD2    H311385   0.625   1.132  13.540  1.3450  0.4686 -1.8640
  771MPD2     N11386   0.358   1.402  13.297 -0.1614  0.4415 -0.6906
  771MPD2    H511387   0.310   1.491  13.305 -0.4490  0.2971 -0.8050
  771MPD2    N111388   0.571   1.556  13.689  0.2832  0.6360  0.1229
  771MPD2    H711389   0.493   1.622  13.689 -0.7967 -0.6472  2.9564
  772MPD2     C11390   0.202   2.047  13.959 -0.5993  0.1574 -0.0422
  772MPD2    C111391   0.240   1.930  13.893  0.0351 -0.3022 -0.1219
  772MPD2    C211392   0.144   1.855  13.832  0.4814 -0.0785 -0.4448
  772MPD2    C311393   0.013   1.898  13.824 -0.6599 -0.1922 -0.1059
  772MPD2    C411394   4.697   2.011  13.891 -0.5865 -0.6666 -0.1287
  772MPD2    C511395   0.072   2.087  13.961 -0.5636  0.3981 -0.0260
  772MPD2     H11396   0.168   1.758  13.789  0.2161 -0.4985  0.3590
  772MPD2    H111397   4.595   2.050  13.890 -1.4311 -2.8201  1.5313
  772MPD2    H211398   0.271   2.108  14.017  0.6239 -0.4409 -0.8793
  772MPD2    H311399   0.049   2.175  14.020 -2.0770 -1.8975  2.7943
  772MPD2     N11400   4.631   1.833  13.747 -0.5839  0.4390  0.3277
  772MPD2    H511401   4.539   1.876  13.749 -1.0119 -0.5061  0.7348
  772MPD2    N111402   0.372   1.878  13.898  1.0715 -0.1130  0.6891
  772MPD2    H711403   0.397   1.804  13.833  0.9897  0.6246 -0.1862
  773MPD2     C11404   4.531   2.823   0.823 -0.4204 -0.0636  0.2732
  773MPD2    C111405   4.443   2.756   0.736 -0.4742  0.2670 -0.7749
  773MPD2    C211406   4.398   2.630   0.762 -0.0833  0.0235 -0.4336
  773MPD2    C311407   4.452   2.552   0.866 -0.0813 -0.4971  0.4280
  773MPD2    C411408   4.534   2.621   0.951 -0.7354  0.1195  0.5412
  773MPD2    C511409   4.570   2.750   0.936  0.7281 -0.9202 -0.6373
  773MPD2     H11410   4.327   2.593   0.689  0.7296 -1.3201 -0.5518
  773MPD2    H111411   4.570   2.569   1.040 -1.2236 -0.5067  0.3751
  773MPD2    H211412   4.554   2.928   0.812 -0.4767 -0.1421 -0.5469
  773MPD2    H311413   4.634   2.798   1.008  0.6709 -1.1324 -0.4439
  773MPD2     N11414   4.421   2.416   0.869 -0.3512 -0.8293  0.1472
  773MPD2    H511415   4.350   2.376   0.808 -1.5714  1.5104  0.0627
  773MPD2    N111416   4.382   2.827   0.625  0.3829 -0.9941 -0.0051
  773MPD2    H711417   4.311   2.790   0.562 -0.4232  2.2449 -1.0197
  774MPD2     C11418   3.236   2.006  12.984  0.8086 -0.6039 -0.2079
  774MPD2    C111419   3.284   2.060  13.101 -0.8308 -0.5652 -0.6050
  774MPD2    C211420   3.316   2.196  13.112  0.1696  0.1966  0.3429
  774MPD2    C311421   3.314   2.281  13.000  0.0406 -0.4724  0.6421
  774MPD2    C411422   3.271   2.223  12.884 -0.6657  0.1594 -0.5201
  774MPD2    C511423   3.226   2.094  12.876  0.4800 -0.1216 -0.0624
  774MPD2     H11424   3.356   2.229  13.207 -0.9963 -0.8236  1.1716
  774MPD2    H111425   3.257   2.280  12.793 -0.4234  0.3400 -0.4445
  774MPD2    H211426   3.197   1.906  12.974  1.2322 -0.7071 -0.8347
  774MPD2    H311427   3.172   2.052  12.792 -0.7402  1.0639  0.1245
  774MPD2     N11428   3.361   2.410  13.019 -0.1645  0.2314  0.2453
  774MPD2    H511429   3.396   2.438  13.110 -2.0801  0.5754  0.8797
  774MPD2    N111430   3.311   1.970  13.206 -0.0400  0.0185 -0.3171
  774MPD2    H711431   3.300   1.871  13.188 -0.3352 -0.0468  0.2317
  775MPD2     C11432   0.171   3.445  16.062  0.3065 -0.1284  0.8706
  775MPD2    C111433   0.170   3.563  16.134  0.3462 -0.9258  0.4651
  775MPD2    C211434   0.252   3.662  16.081  0.3443  0.2377 -0.3572
  775MPD2    C311435   0.328   3.651  15.962 -0.1204 -0.2279  0.5456
  775MPD2    C411436   0.316   3.529  15.896  0.6734  0.3897 -0.2082
  775MPD2    C511437   0.232   3.434  15.941  0.1229  0.1374  0.1490
  775MPD2     H11438   0.274   3.751  16.140 -0.6599 -0.3520  0.9069
  775MPD2    H111439   0.383   3.516  15.812 -0.6310  0.3044 -1.2412
  775MPD2    H211440   0.109   3.361  16.090 -0.7983  0.3414 -0.1808
  775MPD2    H311441   0.225   3.349  15.875  2.0136 -0.9284  1.2957
  775MPD2     N11442   0.432   3.739  15.923 -0.3388 -0.0721 -0.2075
  775MPD2    H511443   0.491   3.711  15.846  1.2688  3.3908 -0.2419
  775MPD2    N111444   0.103   3.562  16.257  0.5943 -0.1577  0.2058
  775MPD2    H711445   0.053   3.480  16.289 -0.1479  0.2433  0.0714
  776MPD2     C11446   4.638   4.044  11.530 -0.1204  0.9032 -0.0026
  776MPD2    C111447   4.519   4.103  11.483  0.3682 -0.7418  1.0080
  776MPD2    C211448   4.518   4.244  11.466  0.4294  0.0215 -0.1942
  776MPD2    C311449   4.629   4.314  11.503  0.5702  0.1103  0.2732
  776MPD2    C411450   0.018   4.254  11.555 -0.4451 -1.0492  0.2329
  776MPD2    C511451   0.027   4.118  11.563  0.1665 -0.2572 -0.2989
  776MPD2     H11452   4.430   4.285  11.417  0.9377  2.5316  0.9828
  776MPD2    H111453   0.111   4.310  11.557 -0.5785 -0.7940 -0.5464
  776MPD2    H211454   4.647   3.937  11.545  0.3757  0.9961  0.3457
  776MPD2    H311455   0.109   4.059  11.604  0.9193  3.1403  3.0372
  776MPD2     N11456   4.644   4.454  11.483 -0.0117  0.7703  0.1663
  776MPD2    H511457   0.013   4.495  11.513  0.7979 -0.5147 -0.4640
  776MPD2    N111458   4.415   4.014  11.440 -0.1800  0.5675  0.4653
  776MPD2    H711459   4.429   3.916  11.459  0.1027  0.5012 -0.0934
  777MPD2     C11460   3.511   1.550   0.873 -0.1141  0.0957 -0.1016
  777MPD2    C111461   3.645   1.514   0.886  0.0139  0.8942 -0.4846
  777MPD2    C211462   3.698   1.437   0.782 -0.1513 -0.4928 -1.3032
  777MPD2    C311463   3.618   1.403   0.671 -0.3207 -0.4692  0.2979
  777MPD2    C411464   3.480   1.438   0.673 -0.4231 -0.5153  0.1178
  777MPD2    C511465   3.425   1.514   0.775  0.3747  0.5570 -0.0924
  777MPD2     H11466   3.805   1.418   0.780  0.1653  1.3388 -1.7061
  777MPD2    H111467   3.409   1.396   0.603  0.3082  1.6768 -1.9480
  777MPD2    H211468   3.468   1.616   0.947  0.1169 -0.5994  0.6482
  777MPD2    H311469   3.321   1.541   0.781  0.4402  1.1009 -1.2563
  777MPD2     N11470   3.673   1.318   0.571 -0.0049  0.1432  0.2707
  777MPD2    H511471   3.762   1.271   0.585 -1.3287 -2.0079  1.4313
  777MPD2    N111472   3.717   1.557   1.003 -0.0588 -0.5946 -0.3020
  777MPD2    H711473   3.664   1.618   1.064 -0.7769  0.5985 -2.1462
  778MPD2     C11474   0.857   1.672  14.998 -0.1749  0.2974  0.5400
  778MPD2    C111475   0.795   1.571  14.924  0.1585  0.0070  0.0249
  778MPD2    C211476   0.798   1.576  14.784 -0.4523  0.1404 -0.4502
  778MPD2    C311477   0.864   1.677  14.718  0.4564 -0.4409 -0.0354
  778MPD2    C411478   0.933   1.770  14.789 -0.2726 -0.5734 -0.8926
  778MPD2    C511479   0.924   1.766  14.931  0.1617  0.1698  0.1736
  778MPD2     H11480   0.757   1.493  14.728  1.6719 -1.4074  0.2833
  778MPD2    H111481   0.981   1.853  14.738  0.7753 -1.4798 -1.3823
  778MPD2    H211482   0.848   1.684  15.105 -0.8745  0.1663  0.4960
  778MPD2    H311483   0.967   1.842  14.995  0.3680 -2.9578  3.7156
  778MPD2     N11484   0.856   1.670  14.579 -0.2001  0.1603 -0.0286
  778MPD2    H511485   0.811   1.586  14.545 -1.1847  0.6841 -0.0256
  778MPD2    N111486   0.721   1.466  14.989 -0.3227 -0.3462 -0.1073
  778MPD2    H711487   0.677   1.397  14.928 -1.8520  0.6354 -0.1120
  779MPD2     C11488   0.356   0.363  14.601 -0.0343  0.2153 -0.3707
  779MPD2    C111489   0.464   0.372  14.519 -0.5524 -0.4974  0.2308
  779MPD2    C211490   0.486   0.492  14.453  0.1000  0.4599  0.0656
  779MPD2    C311491   0.401   0.599  14.452 -0.4980 -0.1754 -0.3554
  779MPD2    C411492   0.280   0.577  14.523 -0.5401 -0.0975  0.5368
  779MPD2    C511493   0.270   0.469  14.600  0.0265  0.2952 -0.1618
  779MPD2     H11494   0.571   0.504  14.387  1.4578 -1.1909  1.5019
  779MPD2    H111495   0.198   0.647  14.534 -1.3064 -0.6408 -1.5952
  779MPD2    H211496   0.330   0.281  14.667  1.0891 -0.2206 -0.4829
  779MPD2    H311497   0.183   0.459  14.664  0.1491 -1.1092 -0.2136
  779MPD2     N11498   0.429   0.716  14.367  0.3068 -0.6961  0.1059
  779MPD2    H511499   0.520   0.711  14.322 -1.0558  0.4647 -2.7836
  779MPD2    N111500   0.565   0.265  14.513  0.0308  0.2458  0.1154
  779MPD2    H711501   0.641   0.272  14.446 -0.5473  0.7617 -0.4839
  780MPD2     C11502   1.060   4.410   1.379  0.1493 -0.6634  0.2506
  780MPD2    C111503   0.924   4.421   1.362  0.1555  0.0293 -0.2473
  780MPD2    C211504   0.871   4.478   1.246  0.1370  0.1143  0.1101
  780MPD2    C311505   0.953   4.511   1.142 -0.0089 -0.3492 -0.4190
  780MPD2    C411506   1.091   4.491   1.153  0.6538 -0.3625  0.0372
  780MPD2    C511507   1.146   4.444   1.276 -0.7371 -0.5458 -0.4579
  780MPD2     H11508   0.765   4.496   1.233  0.0932 -0.4376 -0.3101
  780MPD2    H111509   1.156   4.526   1.074  0.2534 -1.3279 -0.7200
  780MPD2    H211510   1.106   4.370   1.469  1.2013 -0.7686 -0.3221
  780MPD2    H311511   1.252   4.421   1.284 -0.2147  1.7284 -0.7197
  780MPD2     N11512   0.908   4.555   1.015 -0.0224  0.2665 -0.1045
  780MPD2    H511513   0.975   4.588   0.946  0.6946  0.5204  0.7066
  780MPD2    N111514   0.845   4.348   1.454  0.2547 -0.3083  0.5398
  780MPD2    H711515   0.893   4.300   1.530 -2.3189 -0.5097  2.0772
  781MPD2     C11516   1.957   2.089  11.696  0.5037 -0.5653  0.3179
  781MPD2    C111517   2.083   2.122  11.726 -0.0277 -0.5890 -0.0213
  781MPD2    C211518   2.168   2.183  11.628 -0.4418 -0.3523  0.6119
  781MPD2    C311519   2.123   2.203  11.498  0.5208 -0.6285 -0.5884
  781MPD2    C411520   1.990   2.174  11.471  0.0234  0.2645  0.1465
  781MPD2    C511521   1.912   2.114  11.566 -0.0167  0.3754 -0.1167
  781MPD2     H11522   2.274   2.190  11.646 -0.7538  0.8456  1.9915
  781MPD2    H111523   1.956   2.188  11.369  0.4310  1.8480  0.2346
  781MPD2    H211524   1.882   2.062  11.770  0.9889  1.1335  1.4352
  781MPD2    H311525   1.808   2.090  11.546 -0.2477  1.0772  0.2225
  781MPD2     N11526   2.204   2.237  11.389 -0.3485  0.5349 -0.6661
  781MPD2    H511527   2.166   2.229  11.296  1.5230 -1.9364 -1.2099
  781MPD2    N111528   2.125   2.083  11.855 -0.2241 -0.5814  0.3372
  781MPD2    H711529   2.049   2.051  11.914 -1.9839  2.8036 -0.1108
  782MPD2     C11530   0.026   2.598  10.088  0.5312 -0.7811  0.5309
  782MPD2    C111531   0.073   2.663  10.202  0.3943  0.3572  0.0387
  782MPD2    C211532   0.047   2.797  10.211 -0.2171  0.4573 -0.5805
  782MPD2    C311533   4.686   2.860  10.116  0.4954  0.3272 -0.3753
  782MPD2    C411534   4.635   2.794  10.008 -0.0954  1.1350  1.0250
  782MPD2    C511535   4.663   2.664   9.998 -0.1935  0.3359  0.4358
  782MPD2     H11536   0.084   2.851  10.298  0.6779 -1.1197 -0.0013
  782MPD2    H111537   4.565   2.844   9.943  2.4722  0.3875 -2.2927
  782MPD2    H211538   0.044   2.492  10.083  1.8768 -0.6388  2.3456
  782MPD2    H311539   4.616   2.598   9.927  1.4256  0.6136 -0.8812
  782MPD2     N11540   4.649   2.992  10.150 -0.0689 -0.0963 -0.0742
  782MPD2    H511541   4.683   3.037  10.233  0.9396  1.0341 -1.1009
  782MPD2    N111542   0.149   2.596  10.294  0.4451 -0.4386 -0.0582
  782MPD2    H711543   0.154   2.495  10.282 -2.8788 -0.4776 -1.0573
  783MPD2     C11544   4.373   2.390  10.913 -0.0990 -0.6300  0.3882
  783MPD2    C111545   4.407   2.510  10.844 -0.1108 -0.4681 -0.4580
  783MPD2    C211546   4.533   2.511  10.785 -0.8659 -0.0691 -0.0606
  783MPD2    C311547   4.619   2.403  10.783  1.4060  0.5930 -0.4097
  783MPD2    C411548   4.587   2.289  10.854  0.5041  0.0968  0.0121
  783MPD2    C511549   4.467   2.285  10.913 -0.1432  0.0704 -0.4490
  783MPD2     H11550   4.571   2.600  10.735 -0.3791 -1.7127 -2.6099
  783MPD2    H111551   4.657   2.206  10.861  1.3790  0.7763 -0.6391
  783MPD2    H211552   4.280   2.375  10.967  0.1925 -0.4365  0.9460
  783MPD2    H311553   4.463   2.196  10.974  0.2776  0.0744 -0.4124
  783MPD2     N11554   0.025   2.419  10.711 -0.6296  0.0940 -0.1511
  783MPD2    H511555   0.050   2.512  10.678  2.4534  0.5290  3.4148
  783MPD2    N111556   4.314   2.622  10.851  0.1005  0.0210  0.1065
  783MPD2    H711557   4.233   2.606  10.910 -0.9603  1.2485 -1.0180
  784MPD2     C11558   3.247   3.293   0.752  0.4619 -0.0077  0.2865
  784MPD2    C111559   3.224   3.346   0.877  0.5373 -0.3248 -0.2853
  784MPD2    C211560   3.100   3.393   0.913  0.5923 -0.0583 -0.3941
  784MPD2    C311561   2.993   3.385   0.832 -0.6669  0.2586  0.6296
  784MPD2    C411562   3.019   3.328   0.708 -0.3147 -0.6949 -0.4970
  784MPD2    C511563   3.146   3.300   0.669 -0.2299 -0.3976 -0.6387
  784MPD2     H11564   3.097   3.443   1.009  1.1659 -1.3949  0.3187
  784MPD2    H111565   2.940   3.330   0.634 -2.8121  3.7517  2.2890
  784MPD2    H211566   3.339   3.262   0.704  1.3656  0.5131  1.6488
  784MPD2    H311567   3.157   3.267   0.567 -0.9932  0.9190 -1.1441
  784MPD2     N11568   2.879   3.454   0.866  0.0584 -0.0501  0.1150
  784MPD2    H511569   2.878   3.507   0.953  1.6669 -0.3895  0.3358
  784MPD2    N111570   3.333   3.374   0.959  0.4440 -0.0831  0.2733
  784MPD2    H711571   3.322   3.380   1.060 -0.5948  0.9368  0.0927
  785MPD2     C11572   2.414   0.761  10.481  0.2627 -0.1021  0.0975
  785MPD2    C111573   2.340   0.872  10.466 -0.0827  0.2189 -0.5529
  785MPD2    C211574   2.223   0.869  10.391 -0.1166  0.2403  0.0089
  785MPD2    C311575   2.193   0.747  10.326  1.0398  0.3816 -0.1473
  785MPD2    C411576   2.273   0.638  10.338 -0.0676 -0.4244  0.0435
  785MPD2    C511577   2.386   0.644  10.416  0.1430 -0.3249  0.3648
  785MPD2     H11578   2.167   0.959  10.368 -1.0778  0.1040  1.8267
  785MPD2    H111579   2.236   0.545  10.297 -1.9810  1.1939 -1.8896
  785MPD2    H211580   2.494   0.754  10.554 -0.6538 -0.8854  1.0129
  785MPD2    H311581   2.435   0.548  10.429  0.1219 -0.3847  0.0100
  785MPD2     N11582   2.070   0.740  10.241  0.0005  0.6920  0.7293
  785MPD2    H511583   2.019   0.826  10.227 -3.3028 -1.0447  2.2625
  785MPD2    N111584   2.379   0.994  10.526  1.3142 -0.1507 -0.4054
  785MPD2    H711585   2.314   1.070  10.510  0.5974 -0.7456 -0.3296
  786MPD2     C11586   1.026   4.425  14.894 -0.4953  0.5356  0.1359
  786MPD2    C111587   1.144   4.387  14.842 -0.0532 -0.4586 -0.6641
  786MPD2    C211588   1.255   4.393  14.915  0.4757 -0.1049  0.1598
  786MPD2    C311589   1.257   4.466  15.035  0.0988 -0.7249  0.6467
  786MPD2    C411590   1.137   4.508  15.090  0.7348 -0.9787  0.2402
  786MPD2    C511591   1.019   4.479  15.017 -0.1638 -0.1542 -0.1650
  786MPD2     H11592   1.348   4.369  14.864 -0.7612 -1.3373 -1.5256
  786MPD2    H111593   1.135   4.549  15.190 -0.5312  2.5788 -1.2255
  786MPD2    H211594   0.927   4.415  14.850 -1.3660  4.0085  1.2871
  786MPD2    H311595   0.923   4.507  15.059  0.8380  3.8163 -0.5748
  786MPD2     N11596   1.377   4.493  15.112 -0.0516  0.2510 -0.4953
  786MPD2    H511597   1.364   4.539  15.201  0.9484  0.2468 -0.3460
  786MPD2    N111598   1.155   4.329  14.711  0.1275  0.2233  0.8412
  786MPD2    H711599   1.250   4.305  14.686 -0.7063  0.3351 -2.4829
  787MPD2     C11600   1.600   4.040  14.768  0.1867  0.6540  0.6372
  787MPD2    C111601   1.563   3.960  14.665  0.3745 -0.6775 -0.2918
  787MPD2    C211602   1.597   3.825  14.665  0.6339 -0.1163 -0.3535
  787MPD2    C311603   1.669   3.766  14.772  0.2810  0.6435 -0.7721
  787MPD2    C411604   1.704   3.846  14.878  0.8869  0.6695  0.2927
  787MPD2    C511605   1.665   3.977  14.871  0.4120  0.1156 -0.3908
  787MPD2     H11606   1.570   3.762  14.581 -1.4922  0.7537 -0.3168
  787MPD2    H111607   1.762   3.830  14.968  0.0260  1.3178  0.9630
  787MPD2    H211608   1.581   4.147  14.775 -1.4067  0.2353  2.8883
  787MPD2    H311609   1.690   4.035  14.959 -0.1305 -0.1272 -0.0737
  787MPD2     N11610   1.701   3.632  14.764 -0.2708  0.4508  0.0976
  787MPD2    H511611   1.678   3.590  14.674 -1.4449 -1.2294  1.1871
  787MPD2    N111612   1.458   4.013  14.587  0.5508 -0.2721 -0.2380
  787MPD2    H711613   1.426   4.106  14.613  0.4948 -0.1145 -0.8540
  788MPD2     C11614   3.615   2.844   0.930  0.4800 -0.7465 -0.7363
  788MPD2    C111615   3.501   2.803   0.861 -0.0851 -0.5870 -0.1680
  788MPD2    C211616   3.476   2.846   0.734  0.1495 -0.1492  0.8196
  788MPD2    C311617   3.556   2.943   0.675 -0.3568  0.4816 -0.5079
  788MPD2    C411618   3.665   2.987   0.747 -0.0961  0.5111  1.0870
  788MPD2    C511619   3.691   2.942   0.867  0.4490 -0.1569  0.6612
  788MPD2     H11620   3.385   2.822   0.682  0.3822  2.9018 -1.0091
  788MPD2    H111621   3.736   3.061   0.709 -0.5797  0.0951 -0.6437
  788MPD2    H211622   3.657   2.805   1.022  0.0815 -1.6842 -0.9549
  788MPD2    H311623   3.784   2.973   0.914  0.1223  1.5049  0.2080
  788MPD2     N11624   3.524   3.016   0.561 -0.0034  0.3435  0.4242
  788MPD2    H511625   3.593   3.077   0.519 -0.5092  0.0000 -0.8939
  788MPD2    N111626   3.409   2.704   0.902 -0.0993  0.3210  0.1239
  788MPD2    H711627   3.331   2.684   0.841 -1.4362 -1.0044  2.2837
  789MPD2     C11628   3.417   2.379  16.250 -0.6662 -0.3154  0.6095
  789MPD2    C111629   3.377   2.371  16.380  0.1969 -0.5952 -0.3291
  789MPD2    C211630   3.322   2.480  16.443  1.2034 -0.0055 -0.1985
  789MPD2    C311631   3.306   2.604  16.377 -0.0098  0.0552  0.0457
  789MPD2    C411632   3.341   2.605  16.240 -0.1338  0.1271  0.2872
  789MPD2    C511633   3.395   2.495  16.180  0.9935  0.7644  0.1513
  789MPD2     H11634   3.307   2.466  16.550 -2.6774  1.4230 -0.5798
  789MPD2    H111635   3.324   2.693  16.180 -0.1959 -0.4166 -0.4916
  789MPD2    H211636   3.469   2.298  16.200 -2.2192 -0.4160 -0.8658
  789MPD2    H311637   3.430   2.499  16.078 -1.7346  0.9221 -0.7919
  789MPD2     N11638   3.249   2.719  16.430  0.1794 -0.3110 -0.2439
  789MPD2    H511639   3.236   2.796  16.365  1.6556 -1.2353 -1.6367
  789MPD2    N111640   3.389   2.250  16.454  0.4794  0.2863 -0.1840
  789MPD2    H711641   3.353   2.258  16.549 -0.4360 -0.3917 -0.4741
  790MPD2     C11642   4.556   3.600  13.684 -0.4430 -0.3569 -0.1797
  790MPD2    C111643   4.420   3.611  13.688  0.0647 -0.1566 -0.9118
  790MPD2    C211644   4.348   3.647  13.570 -0.1799 -0.2782  0.0550
  790MPD2    C311645   4.415   3.683  13.458 -0.3610  0.0621  0.3289
  790MPD2    C411646   4.553   3.681  13.453 -0.3175 -0.4939  0.3131
  790MPD2    C511647   4.623   3.638  13.569  0.9760  0.1835 -0.9506
  790MPD2     H11648   4.240   3.656  13.567 -0.0726  1.2518  0.9861
  790MPD2    H111649   4.617   3.716  13.373  1.7198 -2.7332  0.9769
  790MPD2    H211650   4.613   3.573  13.772  0.1945  0.8167 -0.2350
  790MPD2    H311651   0.011   3.636  13.562  1.0068  5.3186 -2.1221
  790MPD2     N11652   4.331   3.734  13.354  0.5183  0.1107  0.7499
  790MPD2    H511653   4.232   3.714  13.357  0.5892  0.0733  3.0686
  790MPD2    N111654   4.356   3.575  13.815 -0.0781 -0.4115  0.0782
  790MPD2    H711655   4.410   3.537  13.892 -0.3154 -0.1717  0.3614
  791MPD2     C11656   3.750   4.058  12.816 -0.6831 -0.2961 -0.2747
  791MPD2    C111657   3.771   3.966  12.913  0.0121 -0.2357  0.8573
  791MPD2    C211658   3.668   3.895  12.972  0.0206 -0.0052 -0.4295
  791MPD2    C311659   3.549   3.894  12.901 -0.4543 -0.6062  0.0681
  791MPD2    C411660   3.528   3.983  12.800 -0.0110  0.5868 -0.0950
  791MPD2    C511661   3.627   4.070  12.761  0.1750 -0.4799 -0.1167
  791MPD2     H11662   3.682   3.829  13.056 -1.8322  0.7480  0.4750
  791MPD2    H111663   3.434   3.991  12.747  0.6435  1.1759 -1.1755
  791MPD2    H211664   3.829   4.117  12.772  0.1606 -1.2718 -0.0757
  791MPD2    H311665   3.608   4.145  12.686 -2.5385 -1.1249 -0.0693
  791MPD2     N11666   3.443   3.805  12.941  0.0654 -0.2650  0.3773
  791MPD2    H511667   3.454   3.760  13.031  0.7599  1.0384  0.9510
  791MPD2    N111668   3.902   3.952  12.950  0.6156  0.4293  0.2724
  791MPD2    H711669   3.982   3.997  12.907 -0.0924 -0.3369 -1.8019
  792MPD2     C11670   0.027   3.947  11.161  0.0639 -0.1207 -0.4799
  792MPD2    C111671   4.654   4.041  11.121  0.1410 -0.7310  0.2753
  792MPD2    C211672   4.532   3.996  11.065 -0.0218  0.1584 -0.1302
  792MPD2    C311673   4.509   3.861  11.049  0.2427 -0.2679  0.5818
  792MPD2    C411674   4.614   3.771  11.080 -0.1032 -0.3429  0.3883
  792MPD2    C511675   0.011   3.812  11.145 -0.2479  0.0630 -0.3496
  792MPD2     H11676   4.457   4.070  11.039  2.4947  3.6291  2.2927
  792MPD2    H111677   4.603   3.667  11.051  0.5771  0.2394 -1.9532
  792MPD2    H211678   0.114   3.993  11.204  0.0152 -1.8960  1.5135
  792MPD2    H311679   0.079   3.730  11.166  2.4216  2.0370 -1.3510
  792MPD2     N11680   4.403   3.799  10.983 -0.0402  0.0131  0.5606
  792MPD2    H511681   4.425   3.704  10.955  0.6550 -0.1571  1.6920
  792MPD2    N111682   4.683   4.180  11.140  0.3816  0.3072  0.0126
  792MPD2    H711683   0.054   4.206  11.176  0.0871  1.8324 -0.3701
  793MPD2     C11684   3.989   4.175  10.219  1.0375  0.2903  0.2463
  793MPD2    C111685   4.047   4.051  10.211  0.6235  0.0472 -0.3345
  793MPD2    C211686   4.044   3.968  10.318 -0.4289  0.3644  0.0070
  793MPD2    C311687   3.986   4.001  10.438 -0.0910  0.4814 -0.3468
  793MPD2    C411688   3.922   4.120  10.447  0.0865  0.1205  0.7364
  793MPD2    C511689   3.933   4.203  10.341 -0.0295 -0.3130 -0.2229
  793MPD2     H11690   4.071   3.863  10.303 -1.1367  0.1228  0.4320
  793MPD2    H111691   3.885   4.159  10.541 -0.2825  0.5703  0.4028
  793MPD2    H211692   3.986   4.252  10.143 -1.3570  1.1284  1.2185
  793MPD2    H311693   3.892   4.302  10.360  0.6279  0.1951 -1.4138
  793MPD2     N11694   3.991   3.922  10.556  0.3568 -0.3629  0.4214
  793MPD2    H511695   3.971   3.962  10.647  1.1477 -2.0298  1.3204
  793MPD2    N111696   4.115   4.005  10.095 -0.0840 -0.2425 -0.0949
  793MPD2    H711697   4.145   3.908  10.093 -0.0876 -0.2636  0.9079
  794MPD2     C11698   4.489   3.428  17.674  0.5054 -0.2167  0.4837
  794MPD2    C111699   4.419   3.312  17.640 -0.5957 -0.1043 -0.6024
  794MPD2    C211700   4.407   3.283  17.500  0.5731 -0.2938  0.3411
  794MPD2    C311701   4.447   3.371  17.410  0.6210 -0.2284 -0.5245
  794MPD2    C411702   4.515   3.484  17.450 -1.0168 -0.3005 -0.6322
  794MPD2    C511703   4.535   3.517  17.576  0.3094 -0.1259 -0.4279
  794MPD2     H11704   4.348   3.195  17.476 -1.7496  1.0623  1.1069
  794MPD2    H111705   4.553   3.552  17.375 -0.8554 -0.2657 -0.5186
  794MPD2    H211706   4.509   3.452   0.097 -2.0067 -1.6435  1.2977
  794MPD2    H311707   4.590   3.603  17.613 -1.0338  0.9239 -0.8797
  794MPD2     N11708   4.425   3.361  17.273 -0.3386 -0.5966  0.1319
  794MPD2    H511709   4.443   3.441  17.212  1.6807 -0.1660  1.3113
  794MPD2    N111710   4.366   3.228   0.065 -0.5206  0.5306  0.6826
  794MPD2    H711711   4.301   3.152   0.047 -1.9412  0.7557  5.0179
  795MPD2     C11712   2.041   0.126  13.319 -0.2366 -0.1587 -0.1589
  795MPD2    C111713   2.033   0.259  13.280  0.8363  0.0509  0.8977
  795MPD2    C211714   2.143   0.317  13.223  0.0712  0.9786  0.1842
  795MPD2    C311715   2.262   0.244  13.205 -0.8762 -0.2741  0.4952
  795MPD2    C411716   2.268   0.117  13.241  0.2164  0.5148  0.0584
  795MPD2    C511717   2.157   0.060  13.297 -0.0623 -0.0321  0.5332
  795MPD2     H11718   2.133   0.418  13.187 -2.7020  0.7229  0.2744
  795MPD2    H111719   2.352   0.049  13.230 -0.5290 -0.0965 -1.8882
  795MPD2    H211720   1.955   0.073  13.357  0.5836 -1.3528  0.0507
  795MPD2    H311721   2.160   4.673  13.320  0.9963 -0.0858  0.1490
  795MPD2     N11722   2.386   0.294  13.154 -0.4360  0.2217 -0.9413
  795MPD2    H511723   2.456   0.221  13.147 -0.6098 -0.1264  0.9915
  795MPD2    N111724   1.915   0.340  13.292  0.2083 -0.0656 -0.0081
  795MPD2    H711725   1.914   0.427  13.239 -1.1701  0.6985  1.2807
  796MPD2     C11726   1.411   2.425  15.792  0.2468  0.8609 -0.4937
  796MPD2    C111727   1.435   2.456  15.927  0.3192 -0.6099 -0.1080
  796MPD2    C211728   1.410   2.585  15.977 -0.0688 -0.1268  0.1422
  796MPD2    C311729   1.340   2.673  15.894 -0.0062 -0.7858  0.5126
  796MPD2    C411730   1.313   2.636  15.764  0.4322 -0.5549 -0.1231
  796MPD2    C511731   1.364   2.518  15.713  0.6097  0.6100  0.0284
  796MPD2     H11732   1.428   2.618  16.078 -0.5132  0.9814 -0.1309
  796MPD2    H111733   1.265   2.701  15.691  1.4155 -0.4165 -0.6484
  796MPD2    H211734   1.433   2.323  15.763  1.0477  0.8465  0.1437
  796MPD2    H311735   1.333   2.483  15.615  1.7909 -1.0125  0.2381
  796MPD2     N11736   1.312   2.808  15.932 -0.6721 -0.2824  0.3759
  796MPD2    H511737   1.351   2.845  16.018 -0.0043  0.9142 -0.4434
  796MPD2    N111738   1.475   2.350  16.014  0.3239 -0.2118  0.2895
  796MPD2    H711739   1.483   2.257  15.974  0.8814 -0.1925  0.3650
  797MPD2     C11740   2.225   1.822  17.461 -0.1268 -0.5065  0.4054
  797MPD2    C111741   2.255   1.944  17.509 -0.5157  0.5479 -0.3268
  797MPD2    C211742   2.193   2.056  17.460 -0.0399 -0.1409  0.8896
  797MPD2    C311743   2.078   2.046  17.382 -0.7051  0.1458  0.3834
  797MPD2    C411744   2.047   1.923  17.337 -0.4790 -0.4274 -0.7044
  797MPD2    C511745   2.119   1.812  17.372  0.1413  0.8422  0.4891
  797MPD2     H11746   2.241   2.149  17.490 -0.9943  0.6374  0.0075
  797MPD2    H111747   1.961   1.901  17.275 -1.7301 -0.4212  1.0173
  797MPD2    H211748   2.279   1.730  17.479 -1.9755 -1.8178 -0.7178
  797MPD2    H311749   2.091   1.718  17.327 -0.1342  0.5830  1.2082
  797MPD2     N11750   2.003   2.162  17.342 -0.0807  0.6199 -0.8997
  797MPD2    H511751   1.922   2.150  17.281 -1.3433 -1.5190  1.1693
  797MPD2    N111752   2.370   1.967  17.579  0.4226  1.2125 -0.2686
  797MPD2    H711753   2.371   2.056  17.628 -0.4646  0.6590  0.7652
  798MPD2     C11754   2.398   2.706  17.502  1.1058  0.3137  0.0986
  798MPD2    C111755   2.314   2.596  17.510 -0.4129  0.6554  0.1031
  798MPD2    C211756   2.368   2.483  17.570 -0.9330 -0.0046 -0.4637
  798MPD2    C311757   2.495   2.483  17.626  0.1933 -0.5902  0.5189
  798MPD2    C411758   2.571   2.594  17.623  0.8015 -0.2840 -0.2453
  798MPD2    C511759   2.521   2.711  17.569  0.2248  0.4380  0.4497
  798MPD2     H11760   2.306   2.395  17.581 -1.1451  0.2034  0.0047
  798MPD2    H111761   2.673   2.590  17.658  0.5218  2.0545  0.8717
  798MPD2    H211762   2.373   2.798  17.451 -0.9857 -0.7738 -0.8149
  798MPD2    H311763   2.580   2.800  17.554  0.6793  0.3077  1.4229
  798MPD2     N11764   2.546   2.355  17.655 -0.6172  0.4964  0.5939
  798MPD2    H511765   2.476   2.283  17.642 -1.4781  1.0496  2.1167
  798MPD2    N111766   2.189   2.590  17.447 -0.5442 -0.7017  0.1320
  798MPD2    H711767   2.147   2.499  17.460  1.1677 -1.4581  0.3779
  799MPD2     C11768   1.116   3.504  14.338  0.5990 -0.3833  0.0513
  799MPD2    C111769   1.076   3.438  14.225  0.4465 -0.4927 -0.0485
  799MPD2    C211770   1.047   3.513  14.109 -0.1036  0.1307  0.8236
  799MPD2    C311771   1.057   3.650  14.108 -0.0958 -0.6065  0.4186
  799MPD2    C411772   1.067   3.718  14.228  0.4231 -0.0453  0.1595
  799MPD2    C511773   1.105   3.643  14.340 -0.2339  0.0634  0.2673
  799MPD2     H11774   1.010   3.458  14.024  0.9727  1.3146 -0.4018
  799MPD2    H111775   1.048   3.824  14.236  2.0828  0.2133  0.5471
  799MPD2    H211776   1.153   3.460  14.430 -0.7612 -0.7315  0.4256
  799MPD2    H311777   1.127   3.696  14.432  0.8134 -0.3665  0.2599
  799MPD2     N11778   1.059   3.723  13.990 -0.1764 -0.4712  0.8209
  799MPD2    H511779   1.074   3.823  14.003 -0.2964 -0.1213 -1.8266
  799MPD2    N111780   1.077   3.298  14.222  0.3373 -0.2239  0.7951
  799MPD2    H711781   1.033   3.240  14.151  2.6480 -1.6122  0.4981
  800MPD2     C11782   2.203   4.569  14.059  0.1918  0.3671 -0.2499
  800MPD2    C111783   2.335   4.604  14.021  0.1356  0.6220 -0.1657
  800MPD2    C211784   2.385   4.546  13.905  0.2368 -0.3627  0.6202
  800MPD2    C311785   2.304   4.457  13.833  0.2973  0.0404 -0.2331
  800MPD2    C411786   2.184   4.418  13.882 -0.8352  0.3892  0.6494
  800MPD2    C511787   2.130   4.475  13.991 -0.4755 -0.6123  0.0746
  800MPD2     H11788   2.481   4.571  13.862 -1.2217  0.5235 -2.1270
  800MPD2    H111789   2.127   4.347  13.823  2.5113 -0.3174 -1.7613
  800MPD2    H211790   2.162   4.613  14.149  3.0880  1.2842  0.6410
  800MPD2    H311791   2.032   4.447  14.027  0.2899 -0.2923  2.4190
  800MPD2     N11792   2.359   4.405  13.709  0.3891 -0.1946 -0.4612
  800MPD2    H511793   2.445   4.451  13.680 -0.4898  0.8319 -1.4269
  800MPD2    N111794   2.398   4.711  14.090  0.0061  0.5836  0.5462
  800MPD2    H711795   2.344   0.037  14.163  0.4965 -0.4648  1.5685
  801MPD2     C11796   2.128   0.493  14.532  1.1564 -0.7892  0.5437
  801MPD2    C111797   2.117   0.385  14.444  0.1651 -0.3531  0.2765
  801MPD2    C211798   1.998   0.311  14.441 -0.0897  0.1146 -0.3209
  801MPD2    C311799   1.904   0.331  14.538  0.4733  0.5056 -0.4934
  801MPD2    C411800   1.924   0.434  14.633 -0.5133  0.3755 -0.5022
  801MPD2    C511801   2.030   0.516  14.626  0.3955  0.4151  0.4481
  801MPD2     H11802   1.993   0.230  14.369 -2.3339  1.0723 -1.2317
  801MPD2    H111803   1.840   0.453  14.699 -1.7249 -1.3858 -1.5121
  801MPD2    H211804   2.215   0.558  14.535 -1.1817  2.2457  2.3674
  801MPD2    H311805   2.050   0.596  14.697  0.8434  0.1184  0.6556
  801MPD2     N11806   1.792   0.249  14.553  0.0547  0.1893  0.0194
  801MPD2    H511807   1.735   0.275  14.633 -0.2971  1.0964 -0.5255
  801MPD2    N111808   2.229   0.340  14.361 -0.2853 -0.9957  0.1648
  801MPD2    H711809   2.210   0.268  14.292 -1.3708 -0.0874 -0.4711
  802MPD2     C11810   0.822   0.725  17.232  0.0368  0.5770 -0.1147
  802MPD2    C111811   0.904   0.703  17.343  0.5352 -0.1385 -0.4411
  802MPD2    C211812   1.002   0.607  17.334  0.3680  0.0044 -0.5797
  802MPD2    C311813   1.013   0.518  17.228 -0.3608 -0.0310 -0.1531
  802MPD2    C411814   0.921   0.533  17.123 -0.1903  0.7214 -0.0772
  802MPD2    C511815   0.831   0.641  17.122 -0.6978  0.1781  0.2992
  802MPD2     H11816   1.074   0.594  17.414  0.7162 -1.3489 -1.1144
  802MPD2    H111817   0.920   0.465  17.038  2.6349  1.8242 -1.0037
  802MPD2    H211818   0.756   0.811  17.229  1.5006  1.6628 -1.0894
  802MPD2    H311819   0.777   0.661  17.030  0.5319 -0.2960 -0.5234
  802MPD2     N11820   1.121   0.423  17.232  0.1450 -0.2368 -0.1957
  802MPD2    H511821   1.177   0.415  17.316  0.6070 -0.8139 -0.5598
  802MPD2    N111822   0.893   0.776  17.467  0.1699  0.2655  0.3883
  802MPD2    H711823   0.959   0.744  17.537 -0.0297  0.9294  0.8765
  803MPD2     C11824   2.533   3.793  11.628 -0.2658 -0.2924 -0.2427
  803MPD2    C111825   2.591   3.809  11.754 -0.1186 -0.1657  0.2141
  803MPD2    C211826   2.537   3.728  11.853  0.3221 -0.2141  0.2306
  803MPD2    C311827   2.436   3.635  11.835  0.2403 -0.1382  0.2599
  803MPD2    C411828   2.390   3.609  11.707 -0.0750 -0.0948  0.3388
  803MPD2    C511829   2.447   3.685  11.612 -0.6931 -0.1009 -0.1027
  803MPD2     H11830   2.564   3.769  11.950 -2.9504 -0.2126  1.1682
  803MPD2    H111831   2.325   3.529  11.674  1.7827 -1.6866  0.5508
  803MPD2    H211832   2.565   3.841  11.537  1.1149  2.6700  1.8057
  803MPD2    H311833   2.419   3.670  11.508 -1.6261  2.2809 -0.1773
  803MPD2     N11834   2.378   3.566  11.945  0.3220  0.1039  0.2471
  803MPD2    H511835   2.293   3.513  11.932  1.0558 -0.9882 -0.1318
  803MPD2    N111836   2.685   3.908  11.790  0.7336  0.8476 -0.9354
  803MPD2    H711837   2.711   3.915  11.888  0.7916  2.0915 -1.0359
  804MPD2     C11838   2.071   0.574  17.101 -0.2445 -0.4436 -0.2506
  804MPD2    C111839   2.122   0.525  17.230  0.0228  0.2790 -0.4101
  804MPD2    C211840   2.195   0.606  17.319  0.4059  0.7279 -0.0742
  804MPD2    C311841   2.229   0.736  17.271 -0.3096 -0.2555  0.1030
  804MPD2    C411842   2.190   0.776  17.142  0.3190  0.5150  0.1651
  804MPD2    C511843   2.110   0.696  17.058 -0.2159 -0.0475 -0.3623
  804MPD2     H11844   2.245   0.569  17.408 -0.1652  0.9324  0.3313
  804MPD2    H111845   2.205   0.876  17.104  0.4799  0.7599  0.8744
  804MPD2    H211846   2.007   0.520  17.033 -0.7840  0.3361 -0.3627
  804MPD2    H311847   2.086   0.738  16.961 -2.2286 -0.8321 -0.1856
  804MPD2     N11848   2.303   0.827  17.360  0.2328  0.7087  0.1693
  804MPD2    H511849   2.329   0.794  17.452 -0.4241 -0.0665  0.0759
  804MPD2    N111850   2.077   0.400  17.282  0.4835 -0.1575  0.4832
  804MPD2    H711851   2.118   0.371  17.371 -1.9215 -1.8088  1.0619
  805MPD2     C11852   0.742   3.471  15.344  0.4271  0.1493 -0.1403
  805MPD2    C111853   0.835   3.532  15.271 -0.6782  0.0101 -0.0074
  805MPD2    C211854   0.949   3.562  15.336 -0.4424 -0.1581  0.6093
  805MPD2    C311855   0.973   3.534  15.466  0.1785 -0.7121  0.0395
  805MPD2    C411856   0.868   3.475  15.540  0.4577 -0.5443 -0.2276
  805MPD2    C511857   0.756   3.437  15.478  0.1121 -0.0295 -0.7196
  805MPD2     H11858   1.021   3.616  15.276 -0.9661 -1.2281 -0.9770
  805MPD2    H111859   0.876   3.460  15.647 -1.4663  0.5352  0.0760
  805MPD2    H211860   0.644   3.455  15.299 -0.1155  0.9115  0.7589
  805MPD2    H311861   0.680   3.382  15.532  1.3955  0.1762  1.3270
  805MPD2     N11862   1.089   3.595  15.519 -0.1117  0.0186  0.4358
  805MPD2    H511863   1.137   3.650  15.449  1.7421 -1.1643  0.7861
  805MPD2    N111864   0.828   3.558  15.133 -0.0724 -0.2221  0.1094
  805MPD2    H711865   0.905   3.615  15.098 -0.3982  2.0435  3.1019
  806MPD2     C11866   0.909   2.479   0.192  0.3652  0.3402  0.3015
  806MPD2    C111867   1.042   2.485   0.237  0.0300 -0.1051  0.3224
  806MPD2    C211868   1.145   2.539   0.161  0.2949  0.9593  0.2634
  806MPD2    C311869   1.117   2.612   0.043  0.5134 -0.7048  0.2503
  806MPD2    C411870   0.985   2.627   0.013 -0.4318  0.1032  0.4236
  806MPD2    C511871   0.890   2.564   0.088  0.1959  0.6224  0.4358
  806MPD2     H11872   1.245   2.525   0.199  1.4105 -1.1063 -3.4307
  806MPD2    H111873   0.957   2.690  17.610  2.8985 -0.8144 -1.3876
  806MPD2    H211874   0.832   2.419   0.239 -0.1844  0.7234 -0.1155
  806MPD2    H311875   0.783   2.568   0.072 -0.1037 -1.9062  1.7053
  806MPD2     N11876   1.225   2.683  17.670 -0.0026 -0.0225  0.0738
  806MPD2    H511877   1.316   2.672   0.034 -0.7113  0.7805  1.7125
  806MPD2    N111878   1.061   2.430   0.364  0.4130  0.2360 -0.1553
  806MPD2    H711879   0.985   2.372   0.398  0.1464  0.2945 -0.6539
  807MPD2     C11880   0.804   2.089   0.998 -0.0038 -0.2600 -0.3573
  807MPD2    C111881   0.938   2.058   0.995 -0.2644 -0.4924  0.4288
  807MPD2    C211882   0.988   1.960   1.072 -0.1846  0.2751 -0.2221
  807MPD2    C311883   0.906   1.880   1.146  0.0316  0.4587  0.5092
  807MPD2    C411884   0.766   1.894   1.143 -0.1585 -0.1722 -0.1143
  807MPD2    C511885   0.722   2.002   1.073  0.1388 -0.4681 -0.4654
  807MPD2     H11886   1.096   1.952   1.073 -0.1597  0.7752  0.7376
  807MPD2    H111887   0.693   1.839   1.201  0.7093 -2.0172 -0.7627
  807MPD2    H211888   0.757   2.166   0.939 -0.8086 -0.7605 -0.3599
  807MPD2    H311889   0.614   2.009   1.066  0.1372 -0.4152 -0.3783
  807MPD2     N11890   0.966   1.774   1.218 -0.4423 -0.2697  0.2358
  807MPD2    H511891   1.067   1.780   1.233 -1.1841  2.5717  4.1119
  807MPD2    N111892   1.032   2.134   0.920  0.0355  0.6033  0.0236
  807MPD2    H711893   1.130   2.130   0.945 -0.3292 -1.5346  1.1702
  808MPD2     C11894   1.767   0.208   9.775 -0.1151  0.1731 -0.0447
  808MPD2    C111895   1.873   0.127   9.821  0.7628 -0.5597  0.6960
  808MPD2    C211896   2.003   0.183   9.821 -0.1371  0.1807  0.3079
  808MPD2    C311897   2.024   0.311   9.778  0.1307  0.8616 -0.1672
  808MPD2    C411898   1.917   0.393   9.744  0.5192  0.5326  0.7063
  808MPD2    C511899   1.791   0.338   9.744  0.0094 -0.0166 -0.0554
  808MPD2     H11900   2.086   0.124   9.860  0.2546  0.7583  0.3486
  808MPD2    H111901   1.924   0.500   9.728  0.8261  0.5677  1.0744
  808MPD2    H211902   1.664   0.177   9.779 -0.6384  1.7444 -1.2320
  808MPD2    H311903   1.712   0.409   9.721  0.7028 -0.0431 -2.5166
  808MPD2     N11904   2.156   0.372   9.762  0.0182  0.8343  0.0180
  808MPD2    H511905   2.156   0.467   9.724  1.8990  1.1851  0.9203
  808MPD2    N111906   1.849   4.718   9.873  0.3583  0.1186  0.4400
  808MPD2    H711907   1.928   4.668   9.912  0.7314 -0.5589 -1.1520
  809MPD2     C11908   3.150   0.196   9.331  0.6892 -0.0407 -0.4632
  809MPD2    C111909   3.069   0.105   9.408 -0.5077 -0.7077 -0.4646
  809MPD2    C211910   2.960   0.162   9.475  0.2230  0.4834  0.4085
  809MPD2    C311911   2.915   0.292   9.453 -0.2544  0.4322  0.5771
  809MPD2    C411912   2.993   0.374   9.381  0.1390 -0.1943  0.6933
  809MPD2    C511913   3.110   0.325   9.327 -0.4372 -0.0040  0.1053
  809MPD2     H11914   2.921   0.104   9.558 -3.8872 -0.4160 -2.1391
  809MPD2    H111915   2.980   0.481   9.363  0.9272 -0.2809 -0.3871
  809MPD2    H211916   3.250   0.167   9.303  0.1205 -1.5520 -0.9714
  809MPD2    H311917   3.181   0.386   9.272 -1.8566 -0.4225 -2.2012
  809MPD2     N11918   2.803   0.348   9.514  0.0422 -0.1938  0.1553
  809MPD2    H511919   2.809   0.448   9.527 -0.9142 -0.1051 -0.0707
  809MPD2    N111920   3.117   4.696   9.451 -0.2218  0.6627  0.2464
  809MPD2    H711921   3.095   4.659   9.542  0.8217 -0.6136 -0.0118
  810MPD2     C11922   1.598   3.976  11.011 -0.2489 -0.1799  0.0565
  810MPD2    C111923   1.540   3.955  10.882  0.6034 -0.0365  0.0776
  810MPD2    C211924   1.500   4.073  10.810 -0.5270  0.6333  0.0353
  810MPD2    C311925   1.522   4.198  10.860 -0.0454 -0.1667 -0.4114
  810MPD2    C411926   1.578   4.210  10.986  0.5274 -0.4522  0.4945
  810MPD2    C511927   1.604   4.100  11.059 -0.2258  0.4467  0.9248
  810MPD2     H11928   1.450   4.060  10.715 -1.1763 -3.1350  0.8865
  810MPD2    H111929   1.588   4.305  11.036 -0.9229 -0.1641  0.2582
  810MPD2    H211930   1.624   3.888  11.068 -0.2534  0.1423  0.5559
  810MPD2    H311931   1.644   4.110  11.159  0.3149  1.7772  0.5803
  810MPD2     N11932   1.496   4.317  10.784 -0.3988  0.2307  0.1199
  810MPD2    H511933   1.512   4.400  10.840 -0.1941 -1.5638  2.7163
  810MPD2    N111934   1.514   3.823  10.837 -0.0561 -0.3245 -0.1672
  810MPD2    H711935   1.534   3.748  10.901  0.7930 -0.6029 -0.7571
  811MPD2     C11936   1.012   3.494  10.167  0.2567  0.1606  0.4213
  811MPD2    C111937   1.137   3.540  10.209 -0.3003  0.0987 -0.4638
  811MPD2    C211938   1.186   3.634  10.118  0.3938 -0.0534  0.7856
  811MPD2    C311939   1.117   3.672  10.012  0.9129  0.2010 -0.4468
  811MPD2    C411940   0.997   3.620   9.973  0.0011 -0.0894 -0.6348
  811MPD2    C511941   0.943   3.527  10.054  0.3214  0.4895 -0.4310
  811MPD2     H11942   1.281   3.684  10.138  0.5287 -0.9346  2.3224
  811MPD2    H111943   0.936   3.662   9.895 -1.2939  0.6277  0.7618
  811MPD2    H211944   0.959   3.425  10.231  0.5772  0.6284  1.1880
  811MPD2    H311945   0.837   3.509  10.038  0.4450  0.8493 -1.6319
  811MPD2     N11946   1.164   3.787   9.948 -0.0846 -0.2134  0.5824
  811MPD2    H511947   1.254   3.822   9.980 -0.2538  0.6998  0.0562
  811MPD2    N111948   1.202   3.494  10.321  0.2459 -0.4151  0.5533
  811MPD2    H711949   1.149   3.435  10.385 -2.2877  1.5368  0.2693
  812MPD2     C11950   0.734   3.997  12.140  0.3244 -0.1678  0.7126
  812MPD2    C111951   0.599   4.011  12.181 -0.4641 -0.0660  0.1490
  812MPD2    C211952   0.543   3.905  12.254 -0.1386  0.0005 -0.0167
  812MPD2    C311953   0.603   3.785  12.274 -0.3845  0.3206  0.7134
  812MPD2    C411954   0.733   3.778  12.231 -0.5316 -0.0312 -0.0320
  812MPD2    C511955   0.796   3.877  12.157 -0.7717  0.4214  0.0505
  812MPD2     H11956   0.443   3.914  12.295 -0.8168 -0.2492 -1.5836
  812MPD2    H111957   0.790   3.686  12.240  0.4072  0.4679 -0.9606
  812MPD2    H211958   0.781   4.078  12.086  1.3218 -1.8962 -1.0089
  812MPD2    H311959   0.901   3.864  12.133 -1.1085  0.2554 -1.3564
  812MPD2     N11960   0.542   3.687  12.355  0.1717 -0.4406  0.1068
  812MPD2    H511961   0.448   3.704  12.389 -0.3576  2.1531 -2.6236
  812MPD2    N111962   0.534   4.132  12.163 -0.0231  0.1418  0.3759
  812MPD2    H711963   0.590   4.204  12.118 -2.9586  3.0625  1.3505
  813MPD2     C11964   4.317   1.098  12.390 -0.6639  0.1714 -0.4694
  813MPD2    C111965   4.397   1.150  12.490 -0.5285  0.7074 -0.1828
  813MPD2    C211966   4.381   1.106  12.619  0.6471  0.3487  0.2888
  813MPD2    C311967   4.278   1.020  12.643  0.1773 -0.0337 -0.4386
  813MPD2    C411968   4.199   0.971  12.547  0.3638 -0.3915  0.5341
  813MPD2    C511969   4.216   1.002  12.417 -0.1621  0.6736 -0.2257
  813MPD2     H11970   4.446   1.149  12.694  0.6622 -0.7004  0.8723
  813MPD2    H111971   4.122   0.897  12.565 -1.4796  1.2700 -0.5002
  813MPD2    H211972   4.329   1.128  12.287  3.2394  0.7370  0.1671
  813MPD2    H311973   4.169   0.948  12.336 -0.0030 -0.6408  0.5646
  813MPD2     N11974   4.272   0.992  12.776  0.2065 -0.5812 -0.9105
  813MPD2    H511975   4.332   1.041  12.842 -0.9465 -0.1985 -0.1564
  813MPD2    N111976   4.495   1.249  12.464  0.0184 -0.4189  0.8680
  813MPD2    H711977   4.552   1.270  12.545  0.5492 -0.5227  0.5191
  814MPD2     C11978   4.596   2.227  12.504 -0.3584 -0.4082  0.1791
  814MPD2    C111979   4.567   2.355  12.463 -0.7047  0.2595 -0.3195
  814MPD2    C211980   4.600   2.454  12.550  0.7875  0.3597 -0.5788
  814MPD2    C311981   4.651   2.434  12.677  0.4645 -0.3716  0.7102
  814MPD2    C411982   4.661   2.303  12.718 -0.4688  0.2936  0.2092
  814MPD2    C511983   4.636   2.202  12.634  0.0437  0.0290  0.2153
  814MPD2     H11984   4.594   2.557  12.517  1.1298  1.2942  2.2510
  814MPD2    H111985   4.713   2.286  12.812 -0.7263  1.2196  0.5164
  814MPD2    H211986   4.592   2.136  12.444  0.2495 -1.1960  1.3431
  814MPD2    H311987   4.645   2.102  12.675 -1.2547  0.0856  0.6499
  814MPD2     N11988   4.696   2.539  12.764  0.1871  0.2315 -0.4788
  814MPD2    H511989   0.019   2.511  12.851 -0.0804 -0.1240 -0.4599
  814MPD2    N111990   4.526   2.381  12.326  0.7335  0.1556  0.4229
  814MPD2    H711991   4.529   2.478  12.294  0.6322  0.4513  1.3220
  815MPD2     C11992   0.702   1.234  11.628  0.2830 -0.9578 -0.0560
  815MPD2    C111993   0.664   1.123  11.693 -0.0246 -0.6788  0.2073
  815MPD2    C211994   0.555   1.129  11.782 -0.0438  0.1904  0.4822
  815MPD2    C311995   0.489   1.248  11.810  0.0539  0.2603 -0.2183
  815MPD2    C411996   0.532   1.361  11.742 -0.1621  0.1600  0.2943
  815MPD2    C511997   0.648   1.356  11.661 -0.6593  0.8241  0.3487
  815MPD2     H11998   0.527   1.039  11.837 -0.8291 -0.1788 -0.5246
  815MPD2    H111999   0.484   1.457  11.754  3.1750  1.9555 -0.7315
  815MPD2    H212000   0.782   1.233  11.555  1.3059  2.8962  1.0219
  815MPD2    H312001   0.684   1.450  11.622 -2.0032  1.2638  0.1420
  815MPD2     N12002   0.374   1.242  11.889  0.0635 -0.3267  0.3438
  815MPD2    H512003   0.349   1.150  11.926  2.2473 -0.9036  0.4114
  815MPD2    N112004   0.735   1.003  11.667  0.2039  0.7821 -0.0401
  815MPD2    H712005   0.803   1.014  11.593  1.3126  0.7498  0.9652
  816MPD2     C12006   0.196   4.525  17.499 -0.5666  1.2136  0.3055
  816MPD2    C112007   0.257   4.645  17.478  0.0102 -0.2640 -0.1097
  816MPD2    C212008   0.368   4.654  17.383 -0.1947 -0.5049  0.0334
  816MPD2    C312009   0.418   4.539  17.323 -0.8789 -0.0641  0.5244
  816MPD2    C412010   0.359   4.418  17.353  0.1215  0.0880  0.1891
  816MPD2    C512011   0.245   4.422  17.426 -0.2006  0.6733  0.9606
  816MPD2     H12012   0.422   0.026  17.364  0.1172 -1.1292 -2.0796
  816MPD2    H112013   0.391   4.321  17.317 -0.9692 -0.5796  1.0337
  816MPD2    H212014   0.101   4.518  17.551 -1.4465 -0.0198 -1.4579
  816MPD2    H312015   0.205   4.323  17.443  1.0069 -0.3337 -2.1633
  816MPD2     N12016   0.536   4.550  17.247 -0.3937  0.3568  0.3059
  816MPD2    H512017   0.565   4.646  17.233 -1.9147  0.8779  0.7643
  816MPD2    N112018   0.210   0.048  17.532 -1.0710  0.3085  0.6233
  816MPD2    H712019   0.252   0.127  17.486 -2.1577  0.2468 -0.4920
  817MPD2     C12020   0.291   1.310  10.221 -0.2719 -0.3105 -0.7477
  817MPD2    C112021   0.424   1.343  10.203 -0.2121  0.3367  0.3564
  817MPD2    C212022   0.450   1.475  10.172 -0.0410 -0.0524 -0.7767
  817MPD2    C312023   0.348   1.569  10.153 -0.1641  0.4816  0.2183
  817MPD2    C412024   0.219   1.532  10.165 -0.1574 -0.0355 -0.3787
  817MPD2    C512025   0.191   1.401  10.198  0.2009 -0.0250  0.0094
  817MPD2     H12026   0.555   1.498  10.157  0.1869  0.0239  0.8463
  817MPD2    H112027   0.139   1.604  10.152 -2.0748 -1.5874  2.7898
  817MPD2    H212028   0.250   1.212  10.239 -1.7355  0.5286  0.5133
  817MPD2    H312029   0.088   1.365  10.202 -0.4972  2.1024  1.0386
  817MPD2     N12030   0.388   1.692  10.106 -0.1612 -0.4296  0.5192
  817MPD2    H512031   0.488   1.711  10.113 -0.6706  1.8026  1.7054
  817MPD2    N112032   0.537   1.264  10.226 -0.2619  0.4529 -1.0755
  817MPD2    H712033   0.630   1.297  10.203  1.6395 -3.2730  1.3393
  818MPD2     C12034   3.356   1.830  10.126  0.6073  0.7167 -0.3340
  818MPD2    C112035   3.365   1.771  10.247  0.2287 -0.2684  0.2958
  818MPD2    C212036   3.425   1.645  10.253 -0.2785 -0.5814  0.2583
  818MPD2    C312037   3.471   1.579  10.139  0.5010  0.5634 -0.4810
  818MPD2    C412038   3.445   1.636  10.018 -0.1491  1.0684 -0.1641
  818MPD2    C512039   3.395   1.761  10.016  0.2339  0.1450  0.0246
  818MPD2     H12040   3.442   1.597  10.349 -2.0071  2.9176  2.3174
  818MPD2    H112041   3.487   1.600   9.924  0.2065  3.0766 -0.7749
  818MPD2    H212042   3.322   1.932  10.112 -0.0836  0.5736  0.2779
  818MPD2    H312043   3.381   1.805   9.918  0.1367  0.8938  0.3718
  818MPD2     N12044   3.532   1.454  10.129 -0.6491 -0.0818 -0.3245
  818MPD2    H512045   3.571   1.428  10.039  0.9745  3.9447 -0.7837
  818MPD2    N112046   3.317   1.832  10.361  0.0147  0.5503  0.0643
  818MPD2    H712047   3.326   1.784  10.450  0.9734  1.2275  0.3395
  819MPD2     C12048   1.864   3.902  15.733 -0.0657 -0.3362 -0.3250
  819MPD2    C112049   1.856   3.800  15.637 -0.4842  0.1777  0.3496
  819MPD2    C212050   1.933   3.683  15.662  0.4376  0.0139 -0.7364
  819MPD2    C312051   2.005   3.669  15.781  0.2326 -0.0898 -0.4201
  819MPD2    C412052   2.010   3.778  15.872  0.6314  0.3594  0.5723
  819MPD2    C512053   1.939   3.889  15.847  0.0538  0.0780 -0.1232
  819MPD2     H12054   1.923   3.600  15.593 -2.1607 -2.7081  2.8841
  819MPD2    H112055   2.060   3.788  15.968  2.1130  0.5630 -0.2221
  819MPD2    H212056   1.827   4.001  15.706 -0.5119 -0.1952  0.7764
  819MPD2    H312057   1.956   3.975  15.912 -0.2581  0.8202 -1.0249
  819MPD2     N12058   2.079   3.552  15.796  0.2083  0.2477 -0.1978
  819MPD2    H512059   2.081   3.477  15.728 -0.7874 -1.4352  1.6348
  819MPD2    N112060   1.773   3.817  15.525 -0.9549 -0.6974  0.2459
  819MPD2    H712061   1.716   3.900  15.522 -0.2630 -0.2575 -0.6834
  820MPD2     C12062   1.122   4.001  14.896 -0.4792 -0.1403  0.0859
  820MPD2    C112063   1.159   3.874  14.854 -0.6029  0.4176 -0.6592
  820MPD2    C212064   1.273   3.819  14.905 -0.0572  1.0600 -0.5217
  820MPD2    C312065   1.350   3.883  15.001 -0.1672 -0.2254  0.0289
  820MPD2    C412066   1.312   4.010  15.039  0.6300  0.0229 -0.9513
  820MPD2    C512067   1.201   4.064  14.988  0.2712  0.4439 -0.2419
  820MPD2     H12068   1.306   3.722  14.869 -1.3487  0.4087  0.0511
  820MPD2    H112069   1.357   4.069  15.118  1.2724  0.1681 -1.4255
  820MPD2    H212070   1.029   4.044  14.859 -0.9550 -0.5351  0.8201
  820MPD2    H312071   1.170   4.158  15.031 -2.2645 -0.6995  0.4424
  820MPD2     N12072   1.448   3.813  15.083  1.1079 -0.5011  0.0364
  820MPD2    H512073   1.484   3.866  15.161  1.9818  0.6425 -1.1383
  820MPD2    N112074   1.060   3.797  14.786 -0.0318  0.0614 -0.5207
  820MPD2    H712075   0.973   3.847  14.765  0.0668 -0.2629 -1.7143
  821MPD2     C12076   2.359   4.512  12.984 -0.2028  0.3347  0.2806
  821MPD2    C112077   2.462   4.426  13.007  0.8346  0.0751  0.3024
  821MPD2    C212078   2.583   4.450  12.949  0.2659 -0.2601  0.6134
  821MPD2    C312079   2.602   4.550  12.847  0.4052  0.3301  0.3206
  821MPD2    C412080   2.495   4.638  12.827 -0.3711 -0.2662  0.0551
  821MPD2    C512081   2.377   4.613  12.889  0.5519 -0.0298  0.4788
  821MPD2     H12082   2.663   4.383  12.978  0.4036 -0.0906  0.6298
  821MPD2    H112083   2.508   0.003  12.760  3.4096  1.2415  2.6616
  821MPD2    H212084   2.258   4.505  13.023 -0.2125 -1.2126 -0.0042
  821MPD2    H312085   2.298   4.686  12.876 -1.0524 -1.7801  0.5617
  821MPD2     N12086   2.730   4.568  12.785 -0.2711  0.3801 -0.3474
  821MPD2    H512087   2.730   4.637  12.710  1.1518  0.0242 -0.6792
  821MPD2    N112088   2.456   4.327  13.109 -0.2530 -0.1654  0.1178
  821MPD2    H712089   2.547   4.297  13.142 -1.2042  0.5008  3.3377
  822MPD2     C12090   2.242   4.549  15.751 -0.3236 -0.2718 -0.1478
  822MPD2    C112091   2.355   4.559  15.832  0.1799  0.7384  0.8746
  822MPD2    C212092   2.350   4.664  15.922  0.5294 -0.2097 -0.2889
  822MPD2    C312093   2.244   0.038  15.927 -0.1109  0.2348  0.2325
  822MPD2    C412094   2.136   0.019  15.846  0.2518 -0.8839  0.2673
  822MPD2    C512095   2.136   4.632  15.759 -0.3029 -0.5234  0.2855
  822MPD2     H12096   2.427   4.677  15.998  2.4892 -0.7190 -2.1927
  822MPD2    H112097   2.047   0.079  15.854 -0.1995 -1.4791 -0.3016
  822MPD2    H212098   2.245   4.473  15.673 -1.6276  0.0613 -0.5366
  822MPD2    H312099   2.049   4.620  15.695  1.3601 -0.5907 -1.9658
  822MPD2     N12100   2.248   0.140  16.027  0.6310  0.0841  0.4177
  822MPD2    H512101   2.314   0.135  16.103 -0.8823  0.6278  1.7712
  822MPD2    N112102   2.463   4.465  15.840  0.6330 -0.1841  0.4631
  822MPD2    H712103   2.530   4.485  15.914  0.9253 -1.4309  0.5270
  823MPD2     C12104   2.214   0.321  16.848 -0.0869 -0.3966 -0.3538
  823MPD2    C112105   2.198   0.240  16.737 -0.2099 -0.3495  0.9478
  823MPD2    C212106   2.214   0.104  16.750  0.1636  0.0517  0.2327
  823MPD2    C312107   2.258   0.045  16.864  0.1281  0.5493  0.0732
  823MPD2    C412108   2.273   0.126  16.975  0.0634  0.7670 -0.4055
  823MPD2    C512109   2.239   0.257  16.966  0.0338  0.9224  0.3253
  823MPD2     H12110   2.198   0.042  16.663 -0.9347  1.0504 -0.2754
  823MPD2    H112111   2.300   0.087  17.073 -0.6584  0.6296 -0.2606
  823MPD2    H212112   2.198   0.428  16.845 -1.0167 -0.5862 -2.3598
  823MPD2    H312113   2.250   0.311  17.059  3.7610  2.0396 -0.7548
  823MPD2     N12114   2.293   4.626  16.879  0.2443 -0.0101  0.5581
  823MPD2    H512115   2.340   4.596  16.964  0.2704  0.9800  0.8955
  823MPD2    N112116   2.176   0.303  16.611  0.0644 -0.4746 -0.2195
  823MPD2    H712117   2.170   0.404  16.611 -0.3020 -0.4934 -0.3309
  824MPD2     C12118   2.744   3.652  15.678  0.5655 -0.7338 -0.0029
  824MPD2    C112119   2.834   3.724  15.766  0.1520 -0.0343  0.0672
  824MPD2    C212120   2.953   3.661  15.797  1.4528  0.3357  0.1394
  824MPD2    C312121   2.984   3.533  15.747 -0.4566 -0.2844  0.1702
  824MPD2    C412122   2.898   3.475  15.663 -0.1866 -0.6042  0.4970
  824MPD2    C512123   2.780   3.535  15.626 -0.4326  0.9852 -0.4929
  824MPD2     H12124   3.026   3.713  15.858 -0.6397  1.9397  1.2950
  824MPD2    H112125   2.921   3.376  15.625  1.2143  0.3783 -1.2403
  824MPD2    H212126   2.644   3.684  15.649  1.8278  2.8663 -0.3135
  824MPD2    H312127   2.706   3.477  15.572 -0.8202  1.5704 -0.5936
  824MPD2     N12128   3.113   3.494  15.771 -0.1518  0.3594 -0.1970
  824MPD2    H512129   3.171   3.548  15.834  2.9858  0.0506 -2.7747
  824MPD2    N112130   2.809   3.853  15.816 -0.1665 -0.2847  0.0450
  824MPD2    H712131   2.860   3.884  15.899  0.7324 -0.3448 -0.4863
  825MPD2     C12132   3.904   3.784  15.680  0.4211 -0.1285  0.6202
  825MPD2    C112133   3.777   3.788  15.642 -0.1974  0.5482 -0.4923
  825MPD2    C212134   3.716   3.899  15.596  0.1721  0.3805 -0.4659
  825MPD2    C312135   3.782   4.018  15.575  0.2419 -0.2574 -0.2087
  825MPD2    C412136   3.913   4.013  15.622 -0.4521  0.3725  0.0316
  825MPD2    C512137   3.977   3.900  15.669  0.0678 -0.4156 -0.4186
  825MPD2     H12138   3.611   3.902  15.569  0.7355  0.2583 -2.6616
  825MPD2    H112139   3.972   4.104  15.618 -0.5058  0.5895  3.6256
  825MPD2    H212140   3.954   3.698  15.724  1.0508 -0.6030 -1.0453
  825MPD2    H312141   4.083   3.897  15.687 -0.2625 -0.5802  1.5490
  825MPD2     N12142   3.732   4.133  15.518  0.0637 -0.7579  0.0733
  825MPD2    H512143   3.796   4.212  15.510 -0.2972 -0.5572 -0.7435
  825MPD2    N112144   3.707   3.669  15.668 -0.0964  0.3187 -0.1556
  825MPD2    H712145   3.757   3.586  15.697 -1.8448 -1.4700 -2.1863
  826MPD2     C12146   3.611   3.790  14.199 -0.1629 -0.0863  0.3213
  826MPD2    C112147   3.551   3.742  14.082 -0.0865  0.1776 -0.0394
  826MPD2    C212148   3.442   3.807  14.033 -0.6257 -0.5954 -0.2329
  826MPD2    C312149   3.391   3.919  14.097  0.5566  0.3676 -0.1692
  826MPD2    C412150   3.449   3.962  14.211  0.0636 -0.4311  0.6921
  826MPD2    C512151   3.555   3.899  14.261 -0.2586  0.2084  0.1626
  826MPD2     H12152   3.401   3.776  13.938 -0.4693 -2.3227  0.2641
  826MPD2    H112153   3.416   4.047  14.270 -0.1519  0.5179 -0.7792
  826MPD2    H212154   3.697   3.745  14.248 -1.2949 -2.3906  0.1920
  826MPD2    H312155   3.605   3.940  14.348  2.9206  0.3895 -1.7821
  826MPD2     N12156   3.283   4.003  14.053 -0.2172  0.3811  0.3779
  826MPD2    H512157   3.267   4.084  14.111 -2.2902 -0.4184  0.8954
  826MPD2    N112158   3.610   3.629  14.019  0.1210 -0.0308  0.0761
  826MPD2    H712159   3.695   3.601  14.066  1.5525  2.5407 -1.0180
  827MPD2     C12160   4.355   0.812  10.023 -0.3416  0.2071 -0.0872
  827MPD2    C112161   4.318   0.726  10.124 -0.6422  0.4208  0.0833
  827MPD2    C212162   4.265   0.597  10.087 -0.0269 -0.5594 -0.4799
  827MPD2    C312163   4.261   0.565   9.953  0.8016  0.3599 -0.3007
  827MPD2    C412164   4.299   0.648   9.854 -0.1325  0.0407 -0.4102
  827MPD2    C512165   4.341   0.775   9.892 -0.2238  0.0049  0.6320
  827MPD2     H12166   4.234   0.525  10.162  1.0370 -1.3839 -0.8417
  827MPD2    H112167   4.301   0.630   9.747 -0.9954  1.7148 -0.7101
  827MPD2    H212168   4.401   0.906  10.050  2.1683 -1.2524  0.6570
  827MPD2    H312169   4.388   0.830   9.810 -0.3050 -1.7379 -0.5747
  827MPD2     N12170   4.212   0.437   9.924 -0.3075  0.2415  0.2247
  827MPD2    H512171   4.190   0.384  10.008 -1.4633  1.8252  0.9186
  827MPD2    N112172   4.355   0.759  10.250 -0.3892 -0.3312  0.8022
  827MPD2    H712173   4.410   0.842  10.269  0.0752 -0.5610  0.4611
  828MPD2     C12174   2.946   4.584  12.331  0.6092  0.0810 -0.3581
  828MPD2    C112175   2.862   4.637  12.232  0.1070  1.0066  0.0033
  828MPD2    C212176   2.893   4.608  12.103  0.0867  0.5931  0.6039
  828MPD2    C312177   3.013   4.548  12.064  0.3852  0.0281 -0.0704
  828MPD2    C412178   3.104   4.514  12.164 -0.1085  0.5090  0.4008
  828MPD2    C512179   3.062   4.528  12.294  0.5327  0.6495 -0.2572
  828MPD2     H12180   2.820   4.635  12.027  0.6288  0.2996 -0.0218
  828MPD2    H112181   3.202   4.470  12.144 -0.7770 -0.1922 -1.3331
  828MPD2    H212182   2.917   4.582  12.436  3.0838 -0.3608  0.3093
  828MPD2    H312183   3.128   4.491  12.371  0.1608  0.5215 -0.0045
  828MPD2     N12184   3.050   4.509  11.927 -0.1438 -0.0799  0.1138
  828MPD2    H512185   3.141   4.466  11.913  0.3551  0.8941  0.3973
  828MPD2    N112186   2.743   4.698  12.263 -0.2709  0.0690  0.1810
  828MPD2    H712187   2.676   0.010  12.194 -0.6365  0.6222  0.7913
  829MPD2     C12188   2.710   0.736  11.877 -0.1593  0.4223  0.3309
  829MPD2    C112189   2.572   0.695  11.874 -0.4575  0.6015  0.2745
  829MPD2    C212190   2.522   0.592  11.957  0.2173  0.1948 -0.0619
  829MPD2    C312191   2.606   0.546  12.052  0.2054 -0.1542  0.7749
  829MPD2    C412192   2.738   0.588  12.056 -0.4148  0.3787  0.5288
  829MPD2    C512193   2.790   0.675  11.972  0.0369 -0.5343 -0.0135
  829MPD2     H12194   2.423   0.550  11.954 -0.4560  1.5156  4.0048
  829MPD2    H112195   2.810   0.560  12.132  0.8781  4.0684  0.7071
  829MPD2    H212196   2.760   0.810  11.816 -0.6214 -0.7379 -1.4845
  829MPD2    H312197   2.893   0.709  11.982  0.2033 -0.2821 -2.7647
  829MPD2     N12198   2.589   0.437  12.144 -1.0606  0.4948  0.7284
  829MPD2    H512199   2.663   0.420  12.212 -0.6740  1.5450  0.5651
  829MPD2    N112200   2.490   0.771  11.785 -0.2597  0.1589  0.6331
  829MPD2    H712201   2.544   0.824  11.718 -0.1949 -0.4453  0.2007
  830MPD2     C12202   2.045   2.708  15.845  0.5526 -0.2411 -0.3517
  830MPD2    C112203   2.071   2.829  15.784 -0.0062  0.4229 -0.0536
  830MPD2    C212204   2.104   2.825  15.650  0.0710  0.1638  0.0915
  830MPD2    C312205   2.126   2.710  15.586 -0.2357 -0.2487  0.2075
  830MPD2    C412206   2.103   2.591  15.645 -0.7596 -0.8848  0.7654
  830MPD2    C512207   2.064   2.589  15.776 -0.2234 -0.0295 -0.1569
  830MPD2     H12208   2.138   2.910  15.593 -1.2985  0.2881 -0.5529
  830MPD2    H112209   2.130   2.499  15.596  0.5993  1.5854 -3.0732
  830MPD2    H212210   2.023   2.701  15.951  1.8818 -0.5402 -0.0993
  830MPD2    H312211   2.052   2.492  15.824 -0.9647 -1.0323 -2.3471
  830MPD2     N12212   2.206   2.731  15.472  0.8364 -0.2352 -0.5388
  830MPD2    H512213   2.248   2.822  15.455 -2.2998  1.1709 -0.6817
  830MPD2    N112214   2.048   2.952  15.856  0.1285 -0.1175 -0.5288
  830MPD2    H712215   2.060   2.953  15.956 -1.1253  0.8743 -0.3935
  831MPD2     C12216   2.684   0.028  16.416 -0.5639  0.2509 -0.5348
  831MPD2    C112217   2.654   4.674  16.298 -0.5777  0.1480 -0.5106
  831MPD2    C212218   2.520   4.648  16.273  0.7640 -0.1784 -0.1569
  831MPD2    C312219   2.418   4.684  16.359  0.0715 -0.4708 -0.0811
  831MPD2    C412220   2.452   0.039  16.473  0.0740 -0.1426  0.1534
  831MPD2    C512221   2.579   0.068  16.497  0.2994  0.5663 -0.5747
  831MPD2     H12222   2.485   4.602  16.182  0.1203 -0.9793  0.4901
  831MPD2    H112223   2.377   0.047  16.551  0.6964 -1.4631  0.8871
  831MPD2    H212224   2.785   0.059  16.440  0.0696 -0.7089 -1.9535
  831MPD2    H312225   2.610   0.119  16.588  0.7791 -0.4329 -0.1799
  831MPD2     N12226   2.282   4.640  16.346 -0.7360  0.4016  0.8284
  831MPD2    H512227   2.217   4.685  16.411  0.3149  2.8969  0.1656
  831MPD2    N112228   2.758   4.627  16.216 -0.1540  0.3245  0.1671
  831MPD2    H712229   2.852   4.633  16.254 -0.5611  1.0193  1.0461
  832MPD2     C12230   1.259   0.903  17.187  0.1750  0.0235 -0.5722
  832MPD2    C112231   1.182   1.007  17.226  0.4407 -0.7792  0.4908
  832MPD2    C212232   1.057   1.032  17.161 -0.2225  0.6058  0.7875
  832MPD2    C312233   1.017   0.955  17.051  0.6652 -0.1944  0.1693
  832MPD2    C412234   1.096   0.847  17.023  0.3173 -0.6277 -0.2517
  832MPD2    C512235   1.207   0.825  17.087  0.5847 -0.2011  0.0449
  832MPD2     H12236   0.998   1.120  17.186  0.1298  0.6536  1.4539
  832MPD2    H112237   1.073   0.774  16.947 -0.2188  0.9694 -1.6349
  832MPD2    H212238   1.362   0.890  17.218 -0.0813  2.8450  1.5259
  832MPD2    H312239   1.266   0.738  17.062  0.9851  0.1257 -0.1403
  832MPD2     N12240   0.903   0.977  16.974  0.0002 -0.2480 -0.1570
  832MPD2    H512241   0.880   0.900  16.912 -0.7517  0.8166 -1.1982
  832MPD2    N112242   1.221   1.068  17.346  0.3437 -0.4088  0.5074
  832MPD2    H712243   1.317   1.047  17.372  0.7629  2.8035  1.5126
  833MPD2     C12244   3.179   2.713  12.505 -0.5194 -0.1700 -0.0510
  833MPD2    C112245   3.199   2.848  12.462 -0.1927  0.4489 -1.0157
  833MPD2    C212246   3.293   2.869  12.366  0.9529 -0.5573 -0.0424
  833MPD2    C312247   3.388   2.777  12.328  0.4835 -0.2909 -0.2962
  833MPD2    C412248   3.373   2.647  12.382 -0.2132  0.2930  0.2140
  833MPD2    C512249   3.268   2.613  12.462 -0.9991 -0.1156  0.0092
  833MPD2     H12250   3.300   2.967  12.318  0.4825 -0.2174  0.5830
  833MPD2    H112251   3.443   2.567  12.358 -0.1830  0.9110 -1.7022
  833MPD2    H212252   3.100   2.691  12.576 -0.8298  2.8482  0.5384
  833MPD2    H312253   3.252   2.510  12.492  2.0441 -0.8400 -0.8758
  833MPD2     N12254   3.500   2.802  12.247  0.2980 -0.8095 -0.0707
  833MPD2    H512255   3.563   2.726  12.229  0.2718 -1.6876  3.4721
  833MPD2    N112256   3.106   2.950  12.505  0.3275 -0.6808 -0.1469
  833MPD2    H712257   3.028   2.914  12.559 -1.9894 -0.4477 -3.3838
  834MPD2     C12258   3.447   2.303  11.642  0.1887 -0.4273 -0.2634
  834MPD2    C112259   3.346   2.381  11.703 -0.2517 -0.7031  0.0280
  834MPD2    C212260   3.380   2.499  11.763 -0.9233  0.5720 -0.7650
  834MPD2    C312261   3.506   2.551  11.745 -0.1389  0.1779  0.5598
  834MPD2    C412262   3.604   2.483  11.682 -0.2266 -0.2716  0.1781
  834MPD2    C512263   3.572   2.357  11.636 -0.4526 -0.0785  0.8127
  834MPD2     H12264   3.304   2.552  11.820 -0.1092  0.7750  0.1278
  834MPD2    H112265   3.706   2.516  11.664 -0.3580 -0.1620 -0.4013
  834MPD2    H212266   3.415   2.215  11.587 -1.5419  0.5463 -0.8259
  834MPD2    H312267   3.646   2.293  11.591 -0.1181  0.8964 -0.0172
  834MPD2     N12268   3.540   2.672  11.814 -0.0623 -0.0309  0.1455
  834MPD2    H512269   3.473   2.709  11.880 -1.0691  1.8149 -1.9083
  834MPD2    N112270   3.213   2.346  11.692 -0.0986  0.1477 -0.1341
  834MPD2    H712271   3.146   2.421  11.707  0.1491  0.3490 -0.0493
  835MPD2     C12272   3.471   0.548  10.825 -0.2836 -0.1302  0.8725
  835MPD2    C112273   3.374   0.595  10.906 -0.8879 -0.0802  0.4215
  835MPD2    C212274   3.404   0.643  11.031  0.4597  0.1228  0.0390
  835MPD2    C312275   3.525   0.613  11.087  0.8981 -0.0159 -0.0248
  835MPD2    C412276   3.630   0.549  11.021  0.0613  0.3518  0.0339
  835MPD2    C512277   3.593   0.519  10.885 -0.1556  0.0289  0.2238
  835MPD2     H12278   3.326   0.697  11.083 -0.1800 -0.0095 -0.7775
  835MPD2    H112279   3.729   0.524  11.057  0.2460  1.2257  0.1428
  835MPD2    H212280   3.456   0.510  10.725 -0.2623  3.3384 -0.4466
  835MPD2    H312281   3.669   0.476  10.822  0.7140  1.6672  0.1435
  835MPD2     N12282   3.556   0.670  11.213  0.5001 -0.1227  0.8832
  835MPD2    H512283   3.644   0.644  11.258  1.5581  1.6178 -0.1824
  835MPD2    N112284   3.246   0.629  10.851 -0.6003  0.5525  0.2237
  835MPD2    H712285   3.183   0.682  10.911 -0.2509 -0.3233  1.3742
  836MPD2     C12286   3.067   1.074  11.686 -0.1127 -0.0325  0.0814
  836MPD2    C112287   3.166   1.013  11.756  0.6041  0.2374 -0.4952
  836MPD2    C212288   3.139   0.977  11.886  0.4691  0.0280 -0.4287
  836MPD2    C312289   3.015   1.013  11.941  0.0617  0.3696 -0.7384
  836MPD2    C412290   2.913   1.054  11.866 -0.2071 -0.0161 -0.5971
  836MPD2    C512291   2.939   1.084  11.738 -0.5408  0.7629  0.0384
  836MPD2     H12292   3.208   0.913  11.941 -0.2476  0.6702  1.2147
  836MPD2    H112293   2.814   1.076  11.903  0.6421  2.0986  0.3985
  836MPD2    H212294   3.064   1.094  11.580  1.9759 -2.6636 -0.4586
  836MPD2    H312295   2.858   1.105  11.669  0.2510 -3.0956 -2.0684
  836MPD2     N12296   2.985   0.993  12.077  0.3024 -0.3647 -0.0245
  836MPD2    H512297   2.889   1.018  12.100  0.0436  0.5656 -2.1116
  836MPD2    N112298   3.285   0.989  11.688 -0.1249 -0.1160 -0.2167
  836MPD2    H712299   3.283   1.018  11.591  0.9933  0.2090 -0.1411
  837MPD2     C12300   1.517   4.424  10.183  0.0368 -0.6414  0.2651
  837MPD2    C112301   1.449   4.455  10.068  0.5452 -0.1064 -0.1895
  837MPD2    C212302   1.416   4.579  10.034 -0.0873  0.0921  0.1429
  837MPD2    C312303   1.448   4.685  10.121  0.3301 -0.0592 -0.2998
  837MPD2    C412304   1.527   4.661  10.229  0.4238  0.2001  0.3694
  837MPD2    C512305   1.543   4.530  10.268  0.3576 -0.0087 -0.3749
  837MPD2     H12306   1.358   4.606   9.947 -0.4479 -5.1697 -1.2761
  837MPD2    H112307   1.555   0.028  10.287 -1.2212  2.1367 -1.7496
  837MPD2    H212308   1.529   4.322  10.218 -0.1279 -0.7817 -0.0946
  837MPD2    H312309   1.600   4.518  10.360 -2.2698 -1.0323  1.1232
  837MPD2     N12310   1.397   0.089  10.087  0.1696 -0.4028  0.9372
  837MPD2    H512311   1.355   0.089   9.995 -0.1834  3.0834  1.0877
  837MPD2    N112312   1.399   4.353   9.985 -0.1451  0.7819 -0.5104
  837MPD2    H712313   1.375   4.379   9.890  0.0018 -1.0156 -1.0349
  838MPD2     C12314   4.569   3.357  11.621  1.2607  0.1835 -0.5243
  838MPD2    C112315   4.500   3.243  11.628  0.2966 -0.0580 -0.1640
  838MPD2    C212316   4.411   3.222  11.736 -0.6113  0.4394  0.5589
  838MPD2    C312317   4.409   3.306  11.846  0.0787 -0.0400  0.5276
  838MPD2    C412318   4.497   3.413  11.842  0.2304 -0.3653  0.1070
  838MPD2    C512319   4.574   3.439  11.726 -0.2922 -1.0198  1.1768
  838MPD2     H12320   4.351   3.132  11.742 -0.1156  0.2911  3.3097
  838MPD2    H112321   4.499   3.481  11.927 -1.9070 -0.3258  0.1312
  838MPD2    H212322   4.637   3.366  11.536  0.3210 -0.5742 -1.3548
  838MPD2    H312323   4.647   3.519  11.729  1.1266 -2.1769 -2.1633
  838MPD2     N12324   4.328   3.265  11.957 -0.0957 -0.3182 -1.0897
  838MPD2    H512325   4.298   3.168  11.955  2.2946 -1.0767  0.2688
  838MPD2    N112326   4.510   3.143  11.524  0.7423 -0.0308 -0.4272
  838MPD2    H712327   4.425   3.088  11.521  1.4497 -1.1052 -0.7325
  839MPD2     C12328   3.786   2.742  11.335  0.0097 -0.8685  0.2284
  839MPD2    C112329   3.878   2.661  11.271 -0.4105  0.5465  0.4367
  839MPD2    C212330   4.011   2.709  11.248  0.3290 -0.6637  0.2751
  839MPD2    C312331   4.055   2.832  11.294 -0.2210 -0.5344  0.3764
  839MPD2    C412332   3.959   2.909  11.353 -0.5154 -0.3021  0.0419
  839MPD2    C512333   3.827   2.867  11.369 -0.9194  0.2006 -0.3823
  839MPD2     H12334   4.075   2.634  11.203  0.0602 -0.5854 -0.2462
  839MPD2    H112335   3.982   3.012  11.380  1.9613 -0.9591  0.4405
  839MPD2    H212336   3.681   2.716  11.331 -0.5077  1.3557 -0.9171
  839MPD2    H312337   3.755   2.936  11.412 -1.0559 -0.9392  1.1994
  839MPD2     N12338   4.186   2.871  11.275  0.1325 -0.5825 -0.8648
  839MPD2    H512339   4.211   2.959  11.319 -0.6112 -0.9045  0.2046
  839MPD2    N112340   3.833   2.543  11.211 -0.2950 -0.4320  0.4697
  839MPD2    H712341   3.890   2.507  11.135 -0.3797  1.1543 -0.3559
  840MPD2     C12342   0.235   0.729  10.452  0.6098  1.4258  0.3417
  840MPD2    C112343   0.178   0.758  10.574 -0.2480 -0.3216  0.3834
  840MPD2    C212344   0.248   0.810  10.682  0.7295 -0.1603  0.3069
  840MPD2    C312345   0.381   0.832  10.653  0.2253  0.4133  0.2079
  840MPD2    C412346   0.436   0.824  10.523  0.2054 -0.2241  0.6731
  840MPD2    C512347   0.366   0.773  10.426 -0.3598  0.0991  0.7083
  840MPD2     H12348   0.205   0.814  10.782 -1.8176 -0.5659 -0.7524
  840MPD2    H112349   0.532   0.870  10.501  1.2303 -2.9203 -0.4936
  840MPD2    H212350   0.173   0.681  10.378  2.0062  1.0485 -0.5791
  840MPD2    H312351   0.417   0.759  10.331 -2.9085 -1.8024 -0.3778
  840MPD2     N12352   0.473   0.863  10.752 -0.2570 -0.7327  0.2623
  840MPD2    H512353   0.568   0.881  10.721 -0.1807  2.4260  2.2833
  840MPD2    N112354   0.037   0.726  10.581  0.2333  0.4502  0.4107
  840MPD2    H712355   4.717   0.674  10.503  1.0978 -0.7765  0.7957
  841MPD2     C12356   4.007   0.372  15.033  0.0919 -0.7776  0.0318
  841MPD2    C112357   3.969   0.392  14.900  0.7787  0.1895  0.1563
  841MPD2    C212358   3.999   0.517  14.846 -0.1570  0.0944 -0.5357
  841MPD2    C312359   4.034   0.628  14.928  0.2074 -0.1535  0.3149
  841MPD2    C412360   4.058   0.600  15.060  0.9133  0.0061 -0.3511
  841MPD2    C512361   4.062   0.474  15.105  0.2484 -0.5081 -0.4423
  841MPD2     H12362   3.976   0.523  14.740 -0.3644 -2.5162 -0.6324
  841MPD2    H112363   4.106   0.678  15.119 -1.2276  1.5956 -0.6899
  841MPD2    H212364   3.999   0.277  15.085 -1.1901 -0.6877  0.0026
  841MPD2    H312365   4.088   0.451  15.207 -0.1263 -1.5057 -0.5715
  841MPD2     N12366   4.029   0.759  14.869  0.9203  0.2074 -0.2147
  841MPD2    H512367   4.040   0.756  14.768 -2.7044 -2.3277 -0.5665
  841MPD2    N112368   3.925   0.284  14.815  0.5072  0.2481  0.2020
  841MPD2    H712369   3.902   0.312  14.720  0.6673  0.2532  0.1648
  842MPD2     C12370   0.212   1.473  16.778  0.5069  0.2363 -0.0906
  842MPD2    C112371   0.115   1.388  16.733 -0.1909  0.0223  0.2837
  842MPD2    C212372   0.063   1.284  16.816 -0.5113 -0.3872  0.0665
  842MPD2    C312373   0.126   1.267  16.939 -0.7119 -0.2867 -0.9302
  842MPD2    C412374   0.236   1.347  16.984 -0.1334 -0.4449 -0.0202
  842MPD2    C512375   0.273   1.454  16.897 -0.1206  0.3571  1.0415
  842MPD2     H12376   4.684   1.245  16.795 -0.9111 -1.2075  3.4844
  842MPD2    H112377   0.270   1.340  17.086  1.8114  1.7427 -0.5265
  842MPD2    H212378   0.245   1.560  16.722  0.8638 -0.7645 -1.4292
  842MPD2    H312379   0.351   1.524  16.922 -0.9470  1.3221  0.8843
  842MPD2     N12380   0.075   1.170  17.035  0.3035  0.0253 -0.6614
  842MPD2    H512381   0.131   1.158  17.119 -0.6260  1.4527  0.1642
  842MPD2    N112382   0.058   1.432  16.605  0.0309 -0.5986 -1.1707
  842MPD2    H712383   0.103   1.508  16.554  1.2551  0.3161  1.3160
  843MPD2     C12384   2.535   1.499   0.740  0.2165 -0.6375  0.3525
  843MPD2    C112385   2.446   1.561   0.655  0.1059  0.3123  0.1034
  843MPD2    C212386   2.475   1.690   0.622 -0.1445  0.6925 -0.0159
  843MPD2    C312387   2.586   1.762   0.675  0.3155  0.4104  0.1256
  843MPD2    C412388   2.678   1.690   0.749  0.3672  0.1083 -0.7029
  843MPD2    C512389   2.652   1.557   0.784  0.6741 -0.0001 -0.9518
  843MPD2     H12390   2.412   1.752   0.558  0.0397 -0.1256 -0.9971
  843MPD2    H112391   2.770   1.732   0.789 -0.1338  0.6621 -0.1588
  843MPD2    H212392   2.517   1.402   0.784 -0.0782 -2.4492 -3.7495
  843MPD2    H312393   2.722   1.496   0.841 -0.3955  1.1722  1.6244
  843MPD2     N12394   2.617   1.897   0.662  0.2716 -0.3255 -0.4127
  843MPD2    H512395   2.691   1.937   0.719 -0.1181  1.2241 -0.9979
  843MPD2    N112396   2.330   1.489   0.623  0.4024 -0.6896 -0.2921
  843MPD2    H712397   2.327   1.394   0.661 -1.1400 -0.0144  1.3042
  844MPD2     C12398   0.709   0.811  16.450  0.1845 -0.9755 -0.2271
  844MPD2    C112399   0.834   0.767  16.446 -0.1429 -1.4598  0.3075
  844MPD2    C212400   0.937   0.844  16.483  0.4877  0.2043 -0.4009
  844MPD2    C312401   0.908   0.958  16.554  0.7657 -0.3549  0.3903
  844MPD2    C412402   0.778   1.005  16.563  0.0969 -0.1282 -0.0929
  844MPD2    C512403   0.681   0.933  16.498 -0.7183  0.0300  0.2116
  844MPD2     H12404   1.043   0.829  16.464  0.3582  0.0116 -0.9835
  844MPD2    H112405   0.749   1.089  16.624 -0.6336  0.2836 -1.0085
  844MPD2    H212406   0.635   0.746  16.405  0.4115 -1.7649  0.5330
  844MPD2    H312407   0.578   0.969  16.502 -1.3520 -1.7251 -0.4267
  844MPD2     N12408   1.018   1.027  16.603  0.3344 -0.5471  0.4526
  844MPD2    H512409   1.108   0.982  16.592  0.7746  0.3648  0.3493
  844MPD2    N112410   0.860   0.642  16.385 -0.4907  0.0564 -0.4469
  844MPD2    H712411   0.957   0.620  16.363 -0.4439 -1.0564  0.8897
  845MPD2     C12412   0.925   1.506  17.414  0.1359  0.3664  0.1622
  845MPD2    C112413   0.847   1.494  17.306 -0.5413  0.1214  0.6621
  845MPD2    C212414   0.904   1.447  17.193  0.2131  0.3359  0.0707
  845MPD2    C312415   1.039   1.431  17.182  0.3192  0.2348  0.4455
  845MPD2    C412416   1.114   1.447  17.291  0.5137 -0.5014 -0.0597
  845MPD2    C512417   1.060   1.491  17.413 -0.3066 -0.6262  0.8351
  845MPD2     H12418   0.848   1.427  17.102  0.2437 -1.3004  0.4028
  845MPD2    H112419   1.220   1.427  17.300  0.2452 -0.3256  3.6863
  845MPD2    H212420   0.872   1.525  17.506 -1.3042 -0.8167 -0.4337
  845MPD2    H312421   1.125   1.514  17.497 -0.9454 -1.7625  1.6396
  845MPD2     N12422   1.090   1.391  17.060  0.4853 -0.2357 -0.0732
  845MPD2    H512423   1.018   1.354  16.999 -0.1813 -1.2849  1.3482
  845MPD2    N112424   0.713   1.523  17.322  0.2484 -0.2385  0.0312
  845MPD2    H712425   0.681   1.583  17.397 -1.1723  1.0024 -1.5713
  846MPD2     C12426   2.580   1.922  13.390 -0.8261  0.5480 -0.3054
  846MPD2    C112427   2.532   2.041  13.440 -0.2348  0.3085 -0.0778
  846MPD2    C212428   2.487   2.045  13.574  0.4844 -0.4466 -0.0995
  846MPD2    C312429   2.490   1.938  13.656 -0.4707 -0.3847  0.0463
  846MPD2    C412430   2.549   1.821  13.616 -0.4455 -0.1706 -0.0142
  846MPD2    C512431   2.593   1.817  13.480 -0.3749 -0.1561  0.0992
  846MPD2     H12432   2.451   2.138  13.616 -0.6807 -1.8990  2.1010
  846MPD2    H112433   2.555   1.730  13.674 -4.0579  0.6526  1.5948
  846MPD2    H212434   2.615   1.904  13.289  1.8875  0.9362  0.5838
  846MPD2    H312435   2.637   1.721  13.452 -1.9961 -0.4798 -1.3329
  846MPD2     N12436   2.440   1.951  13.787 -0.9390  0.0329 -0.2069
  846MPD2    H512437   2.406   2.043  13.815  0.4353  0.9893 -1.6659
  846MPD2    N112438   2.514   2.159  13.360 -0.4400  0.5525  0.2544
  846MPD2    H712439   2.483   2.242  13.411 -2.0677 -1.0387  1.8367
  847MPD2     C12440   2.635   2.742  13.989 -0.0205  0.0340  0.0023
  847MPD2    C112441   2.682   2.839  14.075 -0.2287  0.0896 -0.0337
  847MPD2    C212442   2.759   2.796  14.184 -0.6615 -0.1494  0.4944
  847MPD2    C312443   2.773   2.662  14.221 -0.9804  0.2884 -0.8281
  847MPD2    C412444   2.720   2.566  14.132  0.4464 -0.2397 -0.2581
  847MPD2    C512445   2.655   2.606  14.018 -0.1932  0.6842  0.4424
  847MPD2     H12446   2.792   2.880  14.245 -0.6551  1.3908 -1.6225
  847MPD2    H112447   2.711   2.459  14.147  3.2455 -0.8221 -2.7069
  847MPD2    H212448   2.582   2.764  13.896  1.5682  0.1802 -0.8598
  847MPD2    H312449   2.613   2.535  13.948 -0.0400 -1.3530  2.4045
  847MPD2     N12450   2.823   2.625  14.348 -0.8078  0.2500  0.2147
  847MPD2    H512451   2.859   2.709  14.393  1.0548  0.5594 -1.8270
  847MPD2    N112452   2.656   2.975  14.060  0.4858 -0.4988 -0.4347
  847MPD2    H712453   2.680   3.033  14.140  0.2743  1.4650 -1.7906
  848MPD2     C12454   0.412   1.347  16.400 -0.1003 -0.0279 -0.0816
  848MPD2    C112455   0.488   1.399  16.511  0.6040 -0.5489  0.1120
  848MPD2    C212456   0.558   1.514  16.495 -0.3512 -0.2335 -0.3637
  848MPD2    C312457   0.553   1.584  16.379  0.3383 -0.1427  0.4910
  848MPD2    C412458   0.468   1.539  16.281 -0.3314 -0.4070  0.1806
  848MPD2    C512459   0.411   1.418  16.278  0.3000  0.3577 -0.0666
  848MPD2     H12460   0.618   1.554  16.576 -0.8147 -2.3026  0.9845
  848MPD2    H112461   0.456   1.605  16.195 -1.2867 -3.2406 -1.8576
  848MPD2    H212462   0.361   1.251  16.404 -1.5677  0.6606 -2.7912
  848MPD2    H312463   0.370   1.386  16.183 -0.5667  1.3655 -0.0320
  848MPD2     N12464   0.616   1.707  16.345  0.9080 -0.1302 -0.6347
  848MPD2    H512465   0.611   1.739  16.249 -1.7189 -2.8789 -1.4454
  848MPD2    N112466   0.506   1.331  16.635  0.0821 -0.3378 -0.2960
  848MPD2    H712467   0.545   1.388  16.711 -0.1147 -1.2302  0.4699
  849MPD2     C12468   4.332   1.246  13.669  0.1273 -0.0508 -0.5226
  849MPD2    C112469   4.455   1.198  13.707 -0.0379  0.3310  0.7775
  849MPD2    C212470   4.468   1.140  13.831  0.2882  0.0887 -0.2082
  849MPD2    C312471   4.365   1.129  13.919  0.5680  0.2393  0.8628
  849MPD2    C412472   4.236   1.163  13.880  0.2196 -1.0451 -0.6844
  849MPD2    C512473   4.230   1.216  13.755  0.0268  0.4064 -0.3761
  849MPD2     H12474   4.566   1.114  13.870  0.2577  0.0569 -0.1534
  849MPD2    H112475   4.152   1.158  13.948  0.7931 -2.1248 -0.0559
  849MPD2    H212476   4.311   1.312  13.586 -0.1864  0.5387  0.0231
  849MPD2    H312477   4.130   1.250  13.731  0.2679  2.7704  1.9886
  849MPD2     N12478   4.392   1.070  14.046  0.9160  0.1683 -0.1845
  849MPD2    H512479   4.482   1.024  14.059  0.4641 -0.1958  1.7067
  849MPD2    N112480   4.578   1.220  13.639  0.4158 -0.5933 -0.3524
  849MPD2    H712481   4.662   1.174  13.671 -0.1220  0.2440  2.2425
  850MPD2     C12482   2.677   3.679  14.511 -0.0877  0.4213 -0.0579
  850MPD2    C112483   2.634   3.751  14.617  0.9752 -0.1969  0.0847
  850MPD2    C212484   2.728   3.773  14.721  0.1138  0.4223  0.4227
  850MPD2    C312485   2.861   3.744  14.714 -0.3631 -0.2322  0.9743
  850MPD2    C412486   2.902   3.663  14.611 -0.1483  0.6990 -0.3343
  850MPD2    C512487   2.806   3.633  14.512  0.0098  0.2298 -0.2186
  850MPD2     H12488   2.692   3.828  14.807  1.0619 -1.7094  2.1977
  850MPD2    H112489   3.001   3.620  14.603 -0.7788 -0.7258 -0.4165
  850MPD2    H212490   2.620   3.668  14.419  0.8558 -1.5924 -0.3915
  850MPD2    H312491   2.844   3.577  14.428  0.4833 -0.2673  0.3298
  850MPD2     N12492   2.963   3.791  14.806  0.7285 -0.5845 -0.1792
  850MPD2    H512493   3.056   3.755  14.788  0.7291 -0.7518  0.1485
  850MPD2    N112494   2.505   3.791  14.612  0.1094  0.4278 -0.0256
  850MPD2    H712495   2.459   3.783  14.522 -0.4732  0.4846  0.2661
  851MPD2     C12496   2.731   3.394  15.315 -0.9257 -0.0078  0.3481
  851MPD2    C112497   2.642   3.387  15.218  0.6571  0.5206  0.5644
  851MPD2    C212498   2.592   3.261  15.184  0.0053 -0.2596 -0.3402
  851MPD2    C312499   2.636   3.149  15.244 -0.2880 -0.2708 -0.7363
  851MPD2    C412500   2.729   3.161  15.346 -0.1603  0.2154 -0.0129
  851MPD2    C512501   2.782   3.286  15.380 -0.2764 -0.3471 -0.3372
  851MPD2     H12502   2.526   3.265  15.098  0.7334  1.2936 -0.8151
  851MPD2    H112503   2.764   3.074  15.401 -0.1477  0.6456  0.6639
  851MPD2    H212504   2.769   3.491  15.345 -1.0388  0.0085  0.4382
  851MPD2    H312505   2.860   3.297  15.455 -0.1184  0.0406 -0.5609
  851MPD2     N12506   2.578   3.022  15.198  0.3341 -0.0648  0.2228
  851MPD2    H512507   2.509   3.033  15.125  0.2450  2.4173  0.6820
  851MPD2    N112508   2.600   3.512  15.157  0.6696 -0.7934  0.0633
  851MPD2    H712509   2.645   3.598  15.188 -4.3168  1.6995  0.3068
  852MPD2     C12510   2.316   0.772   9.511 -0.2441 -0.6244  0.3172
  852MPD2    C112511   2.290   0.877   9.601 -0.7020  0.3801  0.4363
  852MPD2    C212512   2.372   0.989   9.594 -0.0728  0.0044  0.1289
  852MPD2    C312513   2.480   0.997   9.508  0.0810  0.2676  0.6527
  852MPD2    C412514   2.510   0.891   9.423 -0.5644  0.0166 -0.1367
  852MPD2    C512515   2.426   0.783   9.428 -0.0543  0.2336 -0.1153
  852MPD2     H12516   2.355   1.079   9.651 -2.2769 -1.6582  2.0782
  852MPD2    H112517   2.605   0.876   9.373 -0.2186  2.3863 -0.2283
  852MPD2    H212518   2.247   0.691   9.488 -1.4043  0.7430 -1.0385
  852MPD2    H312519   2.445   0.694   9.368 -2.3286 -0.1347 -0.2907
  852MPD2     N12520   2.563   1.113   9.517  0.1215  0.2425  0.2794
  852MPD2    H512521   2.534   1.182   9.586  0.5567 -1.0793  1.7825
  852MPD2    N112522   2.183   0.880   9.695 -0.2709 -0.0613 -0.2006
  852MPD2    H712523   2.187   0.958   9.761 -2.4264  0.3997 -0.6465
  853MPD2     C12524   4.421   1.801  12.193 -0.3867  0.9459  0.4623
  853MPD2    C112525   4.285   1.802  12.192 -0.1652 -0.1796  0.0663
  853MPD2    C212526   4.211   1.745  12.082 -0.0042 -0.5936 -0.8210
  853MPD2    C312527   4.285   1.691  11.980 -0.1103 -0.2950  0.7647
  853MPD2    C412528   4.427   1.697  11.989 -0.1366 -0.1586  0.0285
  853MPD2    C512529   4.494   1.755  12.092  0.5637  0.4291  0.3199
  853MPD2     H12530   4.104   1.730  12.082 -0.0954  0.0611 -1.3600
  853MPD2    H112531   4.494   1.639  11.927  1.3832  0.3462  1.2120
  853MPD2    H212532   4.473   1.856  12.271 -1.1517 -0.3803  1.8885
  853MPD2    H312533   4.601   1.745  12.101  0.5859  0.2048 -0.1724
  853MPD2     N12534   4.236   1.621  11.864  0.3555  0.4683 -0.0617
  853MPD2    H512535   4.298   1.582  11.793 -0.4944 -2.7147  0.9140
  853MPD2    N112536   4.219   1.838  12.312  0.0100 -0.3463 -0.3382
  853MPD2    H712537   4.272   1.853  12.398  0.2615  2.9229 -1.0949
  854MPD2     C12538   1.033   1.735  12.675  0.6548 -0.0996  0.0725
  854MPD2    C112539   1.158   1.741  12.610 -0.5799 -0.3797 -0.1757
  854MPD2    C212540   1.238   1.631  12.606 -0.8500 -0.3840 -0.1817
  854MPD2    C312541   1.202   1.522  12.682  0.3044 -0.4161 -0.4863
  854MPD2    C412542   1.083   1.516  12.757  0.7278 -0.4625  0.3943
  854MPD2    C512543   0.999   1.626  12.751  0.4813 -0.9459  0.2583
  854MPD2     H12544   1.336   1.640  12.561  0.9057 -2.4650  3.2063
  854MPD2    H112545   1.058   1.436  12.827 -0.2466 -0.6819 -0.2030
  854MPD2    H212546   0.963   1.818  12.678  2.5940  1.4803  1.1702
  854MPD2    H312547   0.914   1.639  12.816 -0.1493 -1.1550 -0.5307
  854MPD2     N12548   1.285   1.407  12.685 -0.3580 -0.4270  0.6553
  854MPD2    H512549   1.261   1.329  12.746 -0.1490 -1.1243 -0.1520
  854MPD2    N112550   1.178   1.853  12.524 -1.4088  0.5407  0.4308
  854MPD2    H712551   1.106   1.923  12.539 -1.9010 -0.7292  3.8521
  855MPD2     C12552   1.633   1.317  13.432  0.3669  0.4093  0.0832
  855MPD2    C112553   1.637   1.188  13.392  0.8048 -0.2446 -0.0315
  855MPD2    C212554   1.633   1.165  13.258  0.1256 -0.1446 -0.3271
  855MPD2    C312555   1.616   1.266  13.164 -0.3947  0.8459  0.2866
  855MPD2    C412556   1.615   1.398  13.213  0.5022 -0.0976  0.2599
  855MPD2    C512557   1.623   1.423  13.350  0.0342 -0.1528  0.3278
  855MPD2     H12558   1.662   1.067  13.221  1.2794  0.9012 -2.2245
  855MPD2    H112559   1.607   1.483  13.146  0.6691  0.1496  0.5532
  855MPD2    H212560   1.641   1.341  13.538  0.1258 -0.5859  0.3283
  855MPD2    H312561   1.623   1.525  13.386 -0.2967 -0.0922  0.1576
  855MPD2     N12562   1.595   1.246  13.024  0.3932 -0.2798  0.1820
  855MPD2    H512563   1.590   1.331  12.968  2.7279 -0.9836 -1.0754
  855MPD2    N112564   1.631   1.078  13.481  0.0182 -0.2553  0.9984
  855MPD2    H712565   1.627   0.983  13.445  3.2195 -0.0065 -0.0033
  856MPD2     C12566   3.129   2.209  13.882  0.4085 -0.4671 -1.4494
  856MPD2    C112567   3.233   2.278  13.941 -0.5562 -0.0818 -0.3898
  856MPD2    C212568   3.208   2.411  13.984  0.3692  0.3161 -0.2945
  856MPD2    C312569   3.074   2.457  13.981  0.0378  0.3473  0.2420
  856MPD2    C412570   2.978   2.385  13.918  0.1445 -0.5475  0.0033
  856MPD2    C512571   3.002   2.258  13.876 -0.2664  0.3400 -0.0225
  856MPD2     H12572   3.291   2.464  14.029 -0.3510  1.9201 -0.8778
  856MPD2    H112573   2.874   2.414  13.910 -0.0495 -1.6864 -1.6371
  856MPD2    H212574   3.144   2.106  13.850 -0.9988 -1.6110  1.5904
  856MPD2    H312575   2.926   2.203  13.822  0.8991  0.1313 -1.4661
  856MPD2     N12576   3.030   2.579  14.020  0.3569  0.1111 -0.2697
  856MPD2    H512577   2.934   2.606  13.999 -0.0001 -0.5725  0.4808
  856MPD2    N112578   3.359   2.221  13.951 -0.2545 -0.0462  0.2779
  856MPD2    H712579   3.369   2.130  13.909 -3.8082 -0.6763  0.8241
  857MPD2     C12580   0.142   4.590  12.510 -0.9008  1.1749  0.2915
  857MPD2    C112581   0.271   4.559  12.540 -0.6166  0.3041 -0.2628
  857MPD2    C212582   0.360   4.667  12.547 -0.1577 -0.4200 -0.2486
  857MPD2    C312583   0.317   0.080  12.542  1.1695  0.6947 -0.0228
  857MPD2    C412584   0.184   0.102  12.509 -0.4349 -0.1839  0.1557
  857MPD2    C512585   0.101   4.717  12.483 -0.9709 -0.3971  0.3773
  857MPD2     H12586   0.462   4.645  12.579 -1.5341 -2.5321  2.6609
  857MPD2    H112587   0.148   0.202  12.488  2.2321  0.8389  0.4734
  857MPD2    H212588   0.072   4.512  12.483  2.1623 -0.7417 -2.0431
  857MPD2    H312589   0.003   0.025  12.443 -0.5154  0.8499  0.1247
  857MPD2     N12590   0.409   0.183  12.575 -0.6429  0.2369  0.6079
  857MPD2    H512591   0.503   0.151  12.595 -0.9440 -1.4995 -0.7204
  857MPD2    N112592   0.319   4.425  12.549  0.2049  0.1686 -0.9188
  857MPD2    H712593   0.251   4.349  12.545  1.1566 -0.6640 -1.3452
  858MPD2     C12594   0.943   3.312  16.852 -0.5703  0.0842 -0.0634
  858MPD2    C112595   1.074   3.311  16.820  0.0218 -0.4542 -0.5068
  858MPD2    C212596   1.155   3.424  16.853  0.3419 -0.0061 -0.3420
  858MPD2    C312597   1.104   3.531  16.921 -0.7072  0.3490  0.0919
  858MPD2    C412598   0.967   3.533  16.943 -0.4336  0.1206  0.0869
  858MPD2    C512599   0.896   3.423  16.907 -0.7314  0.2898  0.0357
  858MPD2     H12600   1.261   3.413  16.836  0.0963  1.2748 -2.6772
  858MPD2    H112601   0.926   3.614  17.002  1.6788 -0.8389  2.8622
  858MPD2    H212602   0.886   3.224  16.826  1.6198 -1.0303 -1.0856
  858MPD2    H312603   0.791   3.431  16.934 -0.3332 -0.6009  1.8108
  858MPD2     N12604   1.190   3.639  16.964 -0.4984  0.4393  0.2952
  858MPD2    H512605   1.290   3.626  16.952 -0.3631  1.0582  0.8287
  858MPD2    N112606   1.137   3.201  16.758 -0.5076 -0.7624 -0.0961
  858MPD2    H712607   1.066   3.131  16.742 -1.0418  0.0962 -1.5103
  859MPD2     C12608   4.562   0.819  15.679 -0.3632  0.0495 -0.1618
  859MPD2    C112609   4.517   0.860  15.554  0.1001 -0.5609  0.6134
  859MPD2    C212610   4.477   0.769  15.453 -0.1139 -0.0295 -0.0077
  859MPD2    C312611   4.485   0.635  15.479  0.6978  0.1106 -0.2166
  859MPD2    C412612   4.538   0.600  15.603  0.2021  0.4556  0.1346
  859MPD2    C512613   4.576   0.690  15.699 -0.5373  0.3901 -0.1729
  859MPD2     H12614   4.456   0.793  15.350 -1.6795  0.2853  0.3811
  859MPD2    H112615   4.563   0.495  15.616  2.2366  0.4830 -3.3698
  859MPD2    H212616   4.587   0.892  15.755  0.1044 -2.5582  2.1754
  859MPD2    H312617   4.616   0.658  15.795 -1.5889 -0.5099 -0.0386
  859MPD2     N12618   4.460   0.537  15.383  0.1718  0.6222  0.0715
  859MPD2    H512619   4.494   0.443  15.398 -1.5927 -0.2037 -1.1325
  859MPD2    N112620   4.519   1.000  15.532 -0.3188  0.2828 -0.0095
  859MPD2    H712621   4.570   1.044  15.608 -0.3302  0.0798  0.1146
  860MPD2     C12622   2.429   1.614  11.690  0.1264  0.0741  0.7656
  860MPD2    C112623   2.373   1.567  11.804  0.1062 -0.4360 -0.3241
  860MPD2    C212624   2.285   1.466  11.790  0.8404 -0.0588  0.1332
  860MPD2    C312625   2.250   1.402  11.675  0.0456 -0.2781  0.1257
  860MPD2    C412626   2.303   1.452  11.558  0.4141  0.3923 -0.5507
  860MPD2    C512627   2.392   1.555  11.573 -0.2075  0.1134  1.0918
  860MPD2     H12628   2.230   1.432  11.877 -0.9775  0.5499 -0.7859
  860MPD2    H112629   2.282   1.417  11.458 -0.7026 -0.3906 -0.0449
  860MPD2    H212630   2.508   1.688  11.686 -1.0087  1.2688  0.4292
  860MPD2    H312631   2.428   1.597  11.480  0.7588 -0.8497  1.0206
  860MPD2     N12632   2.154   1.299  11.691  0.7338  0.3672  0.6183
  860MPD2    H512633   2.129   1.275  11.787 -1.9589  0.0541 -0.1719
  860MPD2    N112634   2.398   1.629  11.931  0.4377 -0.6984  0.0602
  860MPD2    H712635   2.348   1.586  12.009  0.7742 -1.2521 -0.0385
  861MPD2     C12636   0.654   4.176  11.325  0.7717  0.0006  0.6596
  861MPD2    C112637   0.720   4.293  11.355  0.2966 -0.9553  0.4578
  861MPD2    C212638   0.764   4.375  11.248 -0.1762  0.2608 -0.2706
  861MPD2    C312639   0.718   4.347  11.116 -0.4407 -0.5439 -0.6342
  861MPD2    C412640   0.655   4.227  11.089  0.3526 -0.1561 -0.1298
  861MPD2    C512641   0.637   4.139  11.196 -0.1379 -0.7838  0.6226
  861MPD2     H12642   0.813   4.470  11.268 -2.0236  1.6687 -2.3546
  861MPD2    H112643   0.620   4.196  10.992 -1.1971  0.1526  0.3361
  861MPD2    H212644   0.635   4.098  11.398  1.4880 -0.7925  0.0026
  861MPD2    H312645   0.594   4.041  11.178 -1.9733  0.1378 -0.0276
  861MPD2     N12646   0.730   4.444  11.005  0.2645 -0.1221  0.1900
  861MPD2    H512647   0.710   4.418  10.909  2.6994 -0.2426 -0.2926
  861MPD2    N112648   0.768   4.312  11.483 -0.2137 -0.3376 -0.6697
  861MPD2    H712649   0.846   4.373  11.508 -0.0176 -0.5118 -0.8565
  862MPD2     C12650   0.346   4.513  10.413 -0.3595  0.6723  0.2437
  862MPD2    C112651   0.447   4.451  10.482 -0.6871 -0.1326  0.2673
  862MPD2    C212652   0.457   4.314  10.480  0.0227  0.0057  0.2513
  862MPD2    C312653   0.380   4.238  10.401  0.0869  0.7275 -0.4763
  862MPD2    C412654   0.278   4.298  10.322  0.2540  0.5141 -0.1620
  862MPD2    C512655   0.268   4.437  10.324  0.0144  0.1401  0.2105
  862MPD2     H12656   0.533   4.271  10.544  0.6423 -0.5407 -0.8586
  862MPD2    H112657   0.210   4.239  10.262  0.0634  1.4874 -0.9095
  862MPD2    H212658   0.318   4.616  10.433  0.4541  0.5546  2.0410
  862MPD2    H312659   0.198   4.481  10.254 -0.7438  2.1872  2.2434
  862MPD2     N12660   0.386   4.093  10.396 -0.2734  0.7605 -0.6564
  862MPD2    H512661   0.326   4.035  10.338 -2.1211 -1.0090  2.9878
  862MPD2    N112662   0.539   4.511  10.574 -0.5600 -0.0705  0.3673
  862MPD2    H712663   0.601   4.462  10.637 -0.8700  1.2303  1.6865
  863MPD2     C12664   4.374   2.283  16.925 -1.1841  0.1892  0.3123
  863MPD2    C112665   4.290   2.361  16.999 -0.4197  0.1606 -0.2483
  863MPD2    C212666   4.303   2.351  17.136  0.5018  0.3307  0.1528
  863MPD2    C312667   4.407   2.274  17.195 -0.2388 -0.3671 -0.2570
  863MPD2    C412668   4.491   2.203  17.113 -0.4138  0.4348  0.0474
  863MPD2    C512669   4.467   2.202  16.978  0.0645 -0.3756  0.1009
  863MPD2     H12670   4.234   2.407  17.198  0.1480 -2.2860  2.1397
  863MPD2    H112671   4.566   2.136  17.154  1.3525  2.0824 -0.5000
  863MPD2    H212672   4.357   2.275  16.819 -0.7931  2.1068  0.1094
  863MPD2    H312673   4.531   2.142  16.915  0.6961 -1.0374  1.3823
  863MPD2     N12674   4.421   2.258  17.334  0.3230  0.2832  0.0414
  863MPD2    H512675   4.510   2.221  17.363 -0.6169  1.8813  4.8751
  863MPD2    N112676   4.197   2.445  16.926  0.9254  0.1107  0.0915
  863MPD2    H712677   4.190   2.441  16.825  1.7759 -0.7133  0.0612
  864MPD2     C12678   0.116   3.582   0.182 -0.3413 -0.3933  0.7122
  864MPD2    C112679   0.125   3.530   0.058  0.5466 -0.4961  0.4580
  864MPD2    C212680   0.132   3.619  17.633 -0.0546 -0.4297 -0.3192
  864MPD2    C312681   0.132   3.756  17.654 -0.5422  0.4946  0.3658
  864MPD2    C412682   0.117   3.806   0.100 -1.2171 -0.3953 -0.0323
  864MPD2    C512683   0.114   3.715   0.207  0.4529 -0.5585  0.0757
  864MPD2     H12684   0.125   3.584  17.531 -3.4963  0.7954 -0.5013
  864MPD2    H112685   0.092   3.910   0.119 -0.1931 -0.2251  0.3784
  864MPD2    H212686   0.121   3.519   0.270 -1.4778 -0.5524  0.6556
  864MPD2    H312687   0.093   3.753   0.306 -1.7831  0.5633 -0.8263
  864MPD2     N12688   0.136   3.848  17.546 -0.8488  0.6023 -0.4216
  864MPD2    H512689   0.112   3.943  17.571 -0.8209  0.1386  1.3748
  864MPD2    N112690   0.105   3.384   0.039 -0.1787  0.3948 -0.8105
  864MPD2    H712691   0.083   3.329   0.121  3.3121 -0.1239 -0.2416
  865MPD2     C12692   4.647   4.234  16.681  0.2306  0.1618 -0.4287
  865MPD2    C112693   4.628   4.120  16.756  0.7954 -0.4935 -1.2072
  865MPD2    C212694   4.628   4.128  16.889  0.1168 -0.1806 -0.6859
  865MPD2    C312695   4.654   4.248  16.957  0.1902 -0.2828 -0.4992
  865MPD2    C412696   4.665   4.365  16.885  0.7753  0.3214 -0.0417
  865MPD2    C512697   4.662   4.353  16.749  0.0748 -0.1757  0.2964
  865MPD2     H12698   4.615   4.034  16.941 -0.0456  0.9882  1.3850
  865MPD2    H112699   4.687   4.462  16.929  1.7721  0.3016 -0.5150
  865MPD2    H212700   4.648   4.233  16.573  4.4346 -1.2217 -0.3586
  865MPD2    H312701   4.672   4.446  16.694 -0.4046 -1.7144 -2.3866
  865MPD2     N12702   4.680   4.250  17.096 -0.0564 -0.5145 -0.3774
  865MPD2    H512703   0.017   4.328  17.128 -0.8936  0.9439 -2.4984
  865MPD2    N112704   4.616   3.997  16.679  0.3375 -0.4871  1.0107
  865MPD2    H712705   4.620   4.010  16.579  0.6903  0.4784  1.1516
  866MPD2     C12706   1.709   0.210  11.859 -0.9486  0.7937 -0.4286
  866MPD2    C112707   1.745   0.147  11.738  0.9937  0.4224 -0.3540
  866MPD2    C212708   1.643   0.102  11.655 -0.4274  0.2696 -0.8969
  866MPD2    C312709   1.514   0.126  11.680  0.3681  0.0625  0.0092
  866MPD2    C412710   1.481   0.199  11.797  0.0940 -0.1202  0.6346
  866MPD2    C512711   1.579   0.241  11.883  0.0807  0.6588  0.1434
  866MPD2     H12712   1.670   0.057  11.559  0.1068  0.0965 -0.6681
  866MPD2    H112713   1.378   0.221  11.824  0.0670 -0.7708  1.0681
  866MPD2    H212714   1.795   0.247  11.914 -0.2463 -0.4371 -0.6821
  866MPD2    H312715   1.550   0.296  11.971  0.1627  0.4201  0.3185
  866MPD2     N12716   1.405   0.073  11.606 -0.3695  0.1955 -0.6996
  866MPD2    H512717   1.312   0.086  11.645  0.3331  2.2098  0.3201
  866MPD2    N112718   1.882   0.130  11.708 -0.4283 -0.2958  0.1695
  866MPD2    H712719   1.944   0.170  11.777  1.1260  0.3552 -1.6007
  867MPD2     C12720   4.229   3.763  16.560 -0.3521 -0.5787  0.0615
  867MPD2    C112721   4.241   3.760  16.700  0.0459 -0.2822 -0.4956
  867MPD2    C212722   4.262   3.873  16.773 -0.1918 -0.0229 -0.0186
  867MPD2    C312723   4.256   3.995  16.716 -0.7944 -0.0583  0.3511
  867MPD2    C412724   4.267   3.998  16.581 -0.8696 -0.3390 -0.1636
  867MPD2    C512725   4.251   3.886  16.499 -0.6494  0.5494  0.3423
  867MPD2     H12726   4.295   3.866  16.876  0.8899 -0.3496 -0.3815
  867MPD2    H112727   4.294   4.094  16.538  1.4643 -0.4418  1.1299
  867MPD2    H212728   4.222   3.670  16.504  2.3000  0.5888 -2.2178
  867MPD2    H312729   4.262   3.896  16.392 -1.4436  0.3845  0.2531
  867MPD2     N12730   4.280   4.115  16.789 -0.2451  0.3128  0.1948
  867MPD2    H512731   4.287   4.200  16.734  1.1446  0.4309  0.5579
  867MPD2    N112732   4.255   3.629  16.754  0.2683  0.1532  0.0748
  867MPD2    H712733   4.212   3.563  16.690  2.5464 -0.1694 -1.1265
  868MPD2     C12734   0.760   1.800  13.202 -0.7669 -0.4018  0.6043
  868MPD2    C112735   0.772   1.936  13.204 -0.3866  0.2338  0.3820
  868MPD2    C212736   0.665   2.004  13.246 -0.2519  0.0817 -0.4276
  868MPD2    C312737   0.549   1.942  13.289 -0.1786  0.1903  0.6862
  868MPD2    C412738   0.542   1.802  13.286 -0.0354 -0.4684  0.2261
  868MPD2    C512739   0.646   1.735  13.244 -0.6892 -0.3334 -0.0105
  868MPD2     H12740   0.668   2.113  13.247  0.8089  0.0766 -1.5707
  868MPD2    H112741   0.457   1.742  13.316 -1.9172  1.1012 -1.9012
  868MPD2    H212742   0.852   1.749  13.172 -1.2444  0.2427 -1.9819
  868MPD2    H312743   0.649   1.626  13.252  3.1666 -0.0170  3.1716
  868MPD2     N12744   0.442   2.025  13.330 -0.4286 -0.4892 -1.1816
  868MPD2    H512745   0.447   2.125  13.314 -2.0589  0.2493  3.1178
  868MPD2    N112746   0.904   1.993  13.196 -0.5782 -0.8606 -0.0808
  868MPD2    H712747   0.978   1.934  13.158  0.0281 -0.6883  0.8366
  869MPD2     C12748   2.427   0.364   1.851 -0.4718 -0.1403  0.0096
  869MPD2    C112749   2.452   0.486   1.790 -0.1963  0.2437  0.3847
  869MPD2    C212750   2.380   0.516   1.676  0.8147  0.1535  0.0425
  869MPD2    C312751   2.271   0.441   1.631 -0.7450  0.3670  0.3727
  869MPD2    C412752   2.243   0.320   1.697  0.3581 -0.2358 -0.4549
  869MPD2    C512753   2.324   0.284   1.801 -0.4578  0.7392  0.6626
  869MPD2     H12754   2.388   0.620   1.647  2.9686 -0.3144 -1.0449
  869MPD2    H112755   2.166   0.252   1.664 -0.6144  0.1273  1.0951
  869MPD2    H212756   2.483   0.346   1.942 -1.3353 -0.3325  0.5037
  869MPD2    H312757   2.309   0.189   1.850  1.4270  0.2529  0.2959
  869MPD2     N12758   2.193   0.477   1.523 -0.3116  0.8164  0.5426
  869MPD2    H512759   2.112   0.418   1.505  0.7210 -0.2100 -0.7584
  869MPD2    N112760   2.556   0.569   1.846  0.0744  0.4278  0.2940
  869MPD2    H712761   2.610   0.536   1.926  0.3410 -0.4148 -0.2397
  870MPD2     C12762   2.765   4.376   1.885  1.1507  0.2743 -0.1674
  870MPD2    C112763   2.707   4.369   1.766 -0.0949 -0.0365 -0.6347
  870MPD2    C212764   2.664   4.485   1.700  0.1690 -1.0232  0.5547
  870MPD2    C312765   2.665   4.606   1.756 -0.0395 -0.1414  0.1882
  870MPD2    C412766   2.707   4.615   1.888  0.2383  0.1681 -0.1255
  870MPD2    C512767   2.749   4.497   1.951 -0.3064 -0.5412 -0.6998
  870MPD2     H12768   2.617   4.494   1.603 -0.8018 -1.7264  0.9601
  870MPD2    H112769   2.697   4.707   1.945  0.8244  0.5557 -0.6504
  870MPD2    H212770   2.790   4.287   1.942 -0.1227 -1.1380 -1.8251
  870MPD2    H312771   2.777   4.508   2.055 -0.1449 -0.7154 -0.7257
  870MPD2     N12772   2.634   4.709   1.669  0.3490  0.3679  0.7896
  870MPD2    H512773   2.570   4.695   1.591 -0.6291  0.2928  1.6091
  870MPD2    N112774   2.725   4.244   1.698  0.3463 -0.4731  0.3739
  870MPD2    H712775   2.794   4.188   1.747  1.0160 -0.3283 -0.4102
  871MPD2     C12776   2.281   4.142  16.275 -0.4560  0.7634  0.1082
  871MPD2    C112777   2.290   4.064  16.390  0.5201 -0.3404 -0.5684
  871MPD2    C212778   2.281   3.926  16.382 -0.0208 -0.2530 -0.4563
  871MPD2    C312779   2.278   3.869  16.252 -0.3983 -0.4186 -0.0407
  871MPD2    C412780   2.270   3.944  16.137  0.4841 -0.1272  0.5908
  871MPD2    C512781   2.271   4.083  16.151  0.2755 -0.5184  0.1034
  871MPD2     H12782   2.283   3.867  16.473 -2.2560  0.2254 -0.0805
  871MPD2    H112783   2.290   3.894  16.043 -2.3232  0.6058 -0.3969
  871MPD2    H212784   2.293   4.249  16.290 -0.6417  0.9156 -0.8260
  871MPD2    H312785   2.260   4.147  16.064  1.7780  0.6861  0.7899
  871MPD2     N12786   2.273   3.728  16.230 -0.3276  0.0270  0.1887
  871MPD2    H512787   2.288   3.692  16.136  0.0695  0.6011  0.0301
  871MPD2    N112788   2.304   4.130  16.514 -0.2412 -0.0200  0.5051
  871MPD2    H712789   2.330   4.228  16.506 -1.0555  0.4138  3.1110
  872MPD2     C12790   3.180   1.912  14.070  0.9435  0.4799 -0.4342
  872MPD2    C112791   3.149   1.803  13.987 -0.3094 -0.3671  0.2876
  872MPD2    C212792   3.063   1.710  14.031  0.8075 -0.2814  0.1025
  872MPD2    C312793   3.003   1.708  14.152  0.6816 -0.3548  0.0317
  872MPD2    C412794   3.044   1.812  14.235 -0.1888  0.3040 -0.9487
  872MPD2    C512795   3.127   1.918  14.191 -0.0245 -0.2209  0.4990
  872MPD2     H12796   3.024   1.632  13.966 -0.3273  0.3760 -0.0112
  872MPD2    H112797   3.008   1.813  14.337  0.8590  0.5680 -0.5766
  872MPD2    H212798   3.252   1.988  14.042  1.9146  0.4189  1.8362
  872MPD2    H312799   3.150   1.997  14.262 -1.2801  0.4334  0.1854
  872MPD2     N12800   2.909   1.612  14.196 -0.3717 -0.2760  0.5126
  872MPD2    H512801   2.876   1.614  14.292  0.6126 -1.2720  0.8654
  872MPD2    N112802   3.201   1.786  13.852 -0.4754  0.1239 -0.1007
  872MPD2    H712803   3.170   1.703  13.802  1.0371 -0.4203 -0.1513
  873MPD2     C12804   4.628   1.294   0.445 -0.6238 -0.1136 -1.1090
  873MPD2    C112805   4.664   1.221   0.559 -0.1985 -0.0162  0.1213
  873MPD2    C212806   4.719   1.088   0.542 -0.3563 -0.8845  0.1867
  873MPD2    C312807   4.704   1.030   0.416  0.1869 -0.4629 -0.3285
  873MPD2    C412808   4.653   1.095   0.307 -0.3419 -0.2006  0.2987
  873MPD2    C512809   4.601   1.222   0.331  0.9552 -0.0459  0.7157
  873MPD2     H12810   0.040   1.033   0.626 -3.3392 -0.2134  2.0652
  873MPD2    H112811   4.657   1.053   0.207  1.8209  1.5087 -0.3249
  873MPD2    H212812   4.604   1.400   0.446  0.1727  0.0477  0.6194
  873MPD2    H312813   4.564   1.280   0.246 -0.6648  1.0238  2.1509
  873MPD2     N12814   0.015   0.888   0.396 -0.4992 -0.0917  0.0424
  873MPD2    H512815   0.022   0.847   0.304  1.3351  0.1038  0.0907
  873MPD2    N112816   4.668   1.293   0.686  0.0112 -0.4660 -1.0114
  873MPD2    H712817   4.641   1.390   0.679  1.4572  0.0612  0.7587
  874MPD2     C12818   0.117   1.907  15.928 -0.1869  0.3951 -0.1468
  874MPD2    C112819   0.155   1.841  16.037 -1.1474  0.2147 -0.9340
  874MPD2    C212820   0.272   1.879  16.095  0.3568  0.6951 -0.0756
  874MPD2    C312821   0.349   1.986  16.064 -0.2274 -0.1147  0.3481
  874MPD2    C412822   0.314   2.056  15.949  0.2213 -0.1618  0.3326
  874MPD2    C512823   0.198   2.011  15.883 -0.1376 -0.4461  0.1962
  874MPD2     H12824   0.305   1.828  16.185  2.4436  0.1508 -1.1499
  874MPD2    H112825   0.367   2.146  15.919 -1.5713 -0.3313 -3.3850
  874MPD2    H212826   0.032   1.878  15.867  0.3640 -3.0264  0.6717
  874MPD2    H312827   0.165   2.064  15.794 -1.4025 -1.4939  0.0355
  874MPD2     N12828   0.465   2.008  16.138 -0.1615  0.8154  0.4699
  874MPD2    H512829   0.468   1.966  16.230  0.7333 -0.0504  0.0561
  874MPD2    N112830   0.073   1.736  16.092 -0.2958 -0.1013  0.4227
  874MPD2    H712831   4.702   1.724  16.049  0.4569  2.5088 -1.8778
  875MPD2     C12832   1.257   0.010  14.768  0.9329  0.1162 -1.3898
  875MPD2    C112833   1.121   0.041  14.800  0.1888  0.1378 -0.8454
  875MPD2    C212834   1.099   0.081  14.929  0.6343 -0.1333 -0.2844
  875MPD2    C312835   1.192   0.084  15.026  0.5528  0.2744  0.1347
  875MPD2    C412836   1.318   0.053  14.987  1.0542 -0.0729 -0.1792
  875MPD2    C512837   1.348   0.023  14.860 -0.5191 -0.0100  0.0852
  875MPD2     H12838   0.998   0.102  14.963  0.2592 -3.5949  0.7173
  875MPD2    H112839   1.397   0.060  15.061  1.9103 -2.5405 -0.8488
  875MPD2    H212840   1.277   4.697  14.666  0.2370 -2.1849 -0.7905
  875MPD2    H312841   1.448   4.709  14.837 -0.6158 -1.9724  2.4709
  875MPD2     N12842   1.154   0.125  15.155  0.5628 -0.4089  0.4967
  875MPD2    H512843   1.059   0.162  15.158  0.8906  0.6199 -1.7411
  875MPD2    N112844   1.006   0.035  14.714 -0.7085 -0.0721  0.3090
  875MPD2    H712845   0.918   0.067  14.753 -0.0118  0.6677  1.2647
  876MPD2     C12846   4.663   1.300  16.043  0.4756 -0.3644 -0.6444
  876MPD2    C112847   0.078   1.294  16.016  0.0688 -0.0472  0.3206
  876MPD2    C212848   0.159   1.205  16.086  0.5396 -0.2597 -0.4028
  876MPD2    C312849   0.104   1.142  16.188  0.1201  0.5154  0.0215
  876MPD2    C412850   4.695   1.133  16.212  0.3435  0.8280  0.2115
  876MPD2    C512851   4.612   1.215  16.139  0.6003 -0.5226 -1.0358
  876MPD2     H12852   0.266   1.202  16.069  0.5500  0.6086 -0.5117
  876MPD2    H112853   4.646   1.077  16.291 -2.1104  0.7943 -1.3525
  876MPD2    H212854   4.598   1.360  15.980 -0.9621 -1.1623  0.0823
  876MPD2    H312855   4.504   1.219  16.148  0.3711 -3.0956 -2.6540
  876MPD2     N12856   0.206   1.059  16.248  0.1276 -0.0717  0.0443
  876MPD2    H512857   0.292   1.050  16.194 -0.7000  0.1512 -1.3091
  876MPD2    N112858   0.121   1.393  15.922 -0.2037  0.3025  0.1094
  876MPD2    H712859   0.053   1.444  15.866 -0.1412  0.8301  0.5122
  877MPD2     C12860   4.565   1.782  15.406 -0.1961 -0.3489 -0.2369
  877MPD2    C112861   4.698   1.807  15.378  0.0644  0.1495 -0.1170
  877MPD2    C212862   0.006   1.831  15.250 -0.4715 -1.0164 -0.3470
  877MPD2    C312863   4.626   1.844  15.155 -0.6372  0.1873  0.5133
  877MPD2    C412864   4.495   1.826  15.189  0.2460  0.6073  0.1338
  877MPD2    C512865   4.465   1.796  15.320  0.2406 -0.0998 -0.5376
  877MPD2     H12866   0.110   1.852  15.228 -0.4236 -0.2430  0.5920
  877MPD2    H112867   4.421   1.830  15.109 -0.3960  2.6183  0.8323
  877MPD2    H212868   4.537   1.759  15.508  0.7878  3.9719  0.9826
  877MPD2    H312869   4.361   1.775  15.341 -0.8057  4.8842 -0.7805
  877MPD2     N12870   4.644   1.854  15.019  0.6892 -0.0143 -0.6923
  877MPD2    H512871   4.566   1.835  14.957  0.3006  0.7198 -0.4285
  877MPD2    N112872   0.083   1.802  15.477 -0.5033  0.1659  0.2815
  877MPD2    H712873   0.173   1.835  15.445 -1.2324  0.2683 -1.6303
  878MPD2     C12874   0.213   1.046  12.716 -0.2047 -0.6016  0.2894
  878MPD2    C112875   0.142   1.152  12.766 -0.0431  0.2429  0.4798
  878MPD2    C212876   0.107   1.154  12.899 -0.2632 -0.6528 -0.4195
  878MPD2    C312877   0.128   1.045  12.975 -0.7609 -0.1088  0.0681
  878MPD2    C412878   0.194   0.933  12.931  0.6124 -0.0127 -0.5554
  878MPD2    C512879   0.233   0.937  12.798  0.3074 -0.0517  0.3465
  878MPD2     H12880   0.060   1.239  12.949  0.8105 -0.7260  0.7064
  878MPD2    H112881   0.237   0.861  13.000 -1.9718  1.0121  2.1233
  878MPD2    H212882   0.250   1.043  12.614 -1.2417  1.1245 -0.1293
  878MPD2    H312883   0.294   0.858  12.758 -1.7818 -0.8466 -1.2420
  878MPD2     N12884   0.077   1.061  13.105 -0.2915  0.0903  0.4696
  878MPD2    H512885   0.035   1.150  13.130  0.2090  0.0968  1.2740
  878MPD2    N112886   0.112   1.257  12.669  0.1986 -0.1802  0.5216
  878MPD2    H712887   0.118   1.236  12.570  1.3331 -0.8719  0.7376
  879MPD2     C12888   0.358   2.584  17.358  0.1296 -0.2295  0.1794
  879MPD2    C112889   0.300   2.469  17.397  0.0703  0.7244  0.9932
  879MPD2    C212890   0.255   2.383  17.302 -0.0387 -0.0743 -0.2411
  879MPD2    C312891   0.267   2.424  17.165  0.2994 -0.2052 -0.0414
  879MPD2    C412892   0.333   2.535  17.127 -0.9103  0.1606  0.6154
  879MPD2    C512893   0.385   2.615  17.222  0.0536  0.4100  0.1854
  879MPD2     H12894   0.214   2.285  17.324  0.1568 -0.3770 -1.2465
  879MPD2    H112895   0.333   2.572  17.025 -2.8626 -1.4261  0.0396
  879MPD2    H212896   0.397   2.647  17.437  0.4240 -2.2420  1.6288
  879MPD2    H312897   0.437   2.704  17.190 -0.3954  1.2294  1.7418
  879MPD2     N12898   0.225   2.342  17.061 -0.1435 -0.1257 -0.5619
  879MPD2    H512899   0.253   2.376  16.970 -1.1010  1.2333 -0.3558
  879MPD2    N112900   0.293   2.436  17.532 -0.5312  0.4450 -0.0444
  879MPD2    H712901   0.347   2.496  17.595  0.4175 -0.8926  0.4117
  880MPD2     C12902   2.136   4.010   0.412 -0.7299  0.0678 -0.0425
  880MPD2    C112903   2.204   4.074   0.513  0.2357 -0.2990 -0.2943
  880MPD2    C212904   2.275   4.004   0.604 -0.1888 -0.2789 -0.1867
  880MPD2    C312905   2.277   3.866   0.593  0.1383  0.3275 -0.2882
  880MPD2    C412906   2.203   3.801   0.495 -0.3025 -0.0376 -0.3130
  880MPD2    C512907   2.130   3.870   0.408 -0.1487  1.0154  0.3904
  880MPD2     H12908   2.323   4.064   0.681 -3.0104 -0.7427  1.9348
  880MPD2    H112909   2.203   3.693   0.488 -1.7859  0.0280 -1.5283
  880MPD2    H212910   2.071   4.063   0.343  0.7627  1.1347 -0.6317
  880MPD2    H312911   2.070   3.814   0.337  2.1722 -0.2952 -0.5521
  880MPD2     N12912   2.345   3.797   0.698 -0.0916  0.3531  0.0215
  880MPD2    H512913   2.397   3.858   0.760  0.9063 -1.0088  0.5128
  880MPD2    N112914   2.197   4.217   0.518 -0.5450 -0.4748  0.2255
  880MPD2    H712915   2.123   4.250   0.457 -1.7702  0.6008  2.2930
  881MPD2     C12916   1.913   0.356   0.181  0.6683  0.2480 -0.2323
  881MPD2    C112917   1.938   0.226   0.136  0.6325  0.2234 -0.0689
  881MPD2    C212918   1.939   0.125   0.231  0.3139  0.0516 -0.1717
  881MPD2    C312919   1.949   0.154   0.364  0.2820 -0.0796  0.2355
  881MPD2    C412920   1.923   0.280   0.408 -0.5227  0.1151 -0.2854
  881MPD2    C512921   1.892   0.380   0.321 -0.1091 -0.3901  0.4838
  881MPD2     H12922   1.980   0.031   0.198  1.6512 -0.4940  2.9701
  881MPD2    H112923   1.926   0.296   0.515  0.0118 -1.6609 -0.0410
  881MPD2    H212924   1.896   0.440   0.115 -2.0442 -0.9022 -0.9786
  881MPD2    H312925   1.865   0.476   0.363  0.7622  0.4386 -0.8504
  881MPD2     N12926   1.982   0.060   0.464  0.3706  0.2544 -0.1958
  881MPD2    H512927   2.001   0.096   0.557  0.2079  0.4691 -0.2469
  881MPD2    N112928   1.936   0.192  17.680 -0.5980 -0.1735  0.1500
  881MPD2    H712929   1.926   0.269  17.614 -2.1898 -2.0845 -1.8331
  882MPD2     C12930   4.502   1.879  14.178 -0.2414 -0.2278  0.2039
  882MPD2    C112931   4.463   1.888  14.309 -0.1233 -0.3948 -0.5703
  882MPD2    C212932   4.329   1.856  14.347 -0.3254 -0.0655 -0.3688
  882MPD2    C312933   4.240   1.811  14.249  0.0362 -0.3838  0.5854
  882MPD2    C412934   4.283   1.797  14.117  0.1836 -0.3017 -0.1197
  882MPD2    C512935   4.413   1.824  14.088 -0.0722  0.1908 -1.2244
  882MPD2     H12936   4.288   1.871  14.446  0.7396 -0.2022  0.0953
  882MPD2    H112937   4.214   1.758  14.043 -0.2543 -0.2178  0.2481
  882MPD2    H212938   4.603   1.900  14.145  0.4496  0.1940  2.6217
  882MPD2    H312939   4.451   1.811  13.987  2.0228 -0.8386 -0.2976
  882MPD2     N12940   4.108   1.774  14.280 -0.4527  0.5880  0.1895
  882MPD2    H512941   4.056   1.728  14.205  0.0356  2.0589 -1.0577
  882MPD2    N112942   4.570   1.931  14.398  0.3334  0.2308 -0.3371
  882MPD2    H712943   4.663   1.949  14.361  0.6137  0.4467  0.4648
  883MPD2     C12944   1.707   1.560  16.270  0.1047 -0.1391 -0.1034
  883MPD2    C112945   1.743   1.635  16.163  0.0647 -0.1405 -0.3721
  883MPD2    C212946   1.836   1.734  16.187 -0.1929  0.5311 -0.2387
  883MPD2    C312947   1.894   1.751  16.319  0.0970  0.2977 -0.0103
  883MPD2    C412948   1.866   1.653  16.417  0.2772 -0.4355 -0.4192
  883MPD2    C512949   1.759   1.568  16.395 -0.2577  0.1264 -0.7096
  883MPD2     H12950   1.873   1.793  16.104  0.3378 -1.8407 -1.6931
  883MPD2    H112951   1.910   1.666  16.515 -2.6224 -0.3092  0.8950
  883MPD2    H212952   1.635   1.479  16.260  0.7232 -0.2096 -4.0768
  883MPD2    H312953   1.717   1.513  16.478  0.2369 -0.5519 -0.9061
  883MPD2     N12954   1.992   1.846  16.335 -0.0908 -0.0945 -0.2252
  883MPD2    H512955   1.997   1.909  16.256 -1.1252 -0.0883 -0.2885
  883MPD2    N112956   1.680   1.621  16.035  0.2856  0.5058 -0.3516
  883MPD2    H712957   1.707   1.694  15.970 -1.5176  1.3391 -0.1648
  884MPD2     C12958   3.913   2.150  15.235 -0.2784 -0.4245 -0.2412
  884MPD2    C112959   3.870   2.264  15.179  0.4989 -0.1477 -0.5509
  884MPD2    C212960   3.755   2.318  15.216  0.6222  0.3413 -0.2411
  884MPD2    C312961   3.667   2.271  15.302  0.4450  0.8648  0.2541
  884MPD2    C412962   3.706   2.145  15.354 -0.1218  0.0101  0.1018
  884MPD2    C512963   3.824   2.083  15.320  0.0272 -0.0080 -0.4533
  884MPD2     H12964   3.731   2.415  15.173 -1.6890  0.5460  1.5111
  884MPD2    H112965   3.649   2.113  15.441 -0.4178  0.4647  0.0747
  884MPD2    H212966   4.006   2.099  15.211 -0.5768 -0.5367 -1.1774
  884MPD2    H312967   3.850   1.992  15.373 -2.3448 -1.4980 -1.8546
  884MPD2     N12968   3.541   2.336  15.328 -0.1270 -0.2956  0.5493
  884MPD2    H512969   3.520   2.428  15.292 -0.2082  0.2647  2.0034
  884MPD2    N112970   3.945   2.338  15.084 -0.0292 -0.0500  0.4745
  884MPD2    H712971   3.909   2.430  15.059 -0.6294 -0.2472  0.5902
  885MPD2     C12972   1.843   2.686  17.667 -0.6176  0.1851 -0.0767
  885MPD2    C112973   1.937   2.784   0.020 -0.6985 -0.5511 -0.0285
  885MPD2    C212974   1.979   2.867  17.597 -0.1715 -0.6857  0.5203
  885MPD2    C312975   1.907   2.878  17.481  0.3100 -0.3400  0.5794
  885MPD2    C412976   1.796   2.793  17.456 -0.4567  0.8055 -0.1105
  885MPD2    C512977   1.773   2.695  17.549 -0.2876  0.6451  0.5883
  885MPD2     H12978   2.064   2.932  17.615 -2.0018  1.8580 -0.0583
  885MPD2    H112979   1.741   2.786  17.363  2.9658  1.2719 -2.1398
  885MPD2    H212980   1.825   2.609   0.060  4.3095  0.6924  1.6384
  885MPD2    H312981   1.703   2.613  17.541  1.0044 -0.3712 -0.2777
  885MPD2     N12982   1.958   2.970  17.379  0.2293 -0.2549 -0.2927
  885MPD2    H512983   2.040   3.024  17.405 -1.0275  0.7001  1.7295
  885MPD2    N112984   2.009   2.771   0.138 -0.0381 -0.1268  0.1059
  885MPD2    H712985   2.000   2.681   0.184  0.2285 -0.3718 -0.3324
  886MPD2     C12986   3.292   0.985  15.920  0.4418  0.0696  0.1300
  886MPD2    C112987   3.370   0.954  15.811 -0.6338  0.0435  0.3705
  886MPD2    C212988   3.371   1.043  15.701 -0.4418 -0.9270  0.2967
  886MPD2    C312989   3.297   1.162  15.700  0.1297 -0.1197 -0.4592
  886MPD2    C412990   3.211   1.182  15.807  0.1797  0.0130 -0.5786
  886MPD2    C512991   3.207   1.092  15.916  0.0342  0.1665  0.0880
  886MPD2     H12992   3.445   1.029  15.624 -0.8339  0.3515 -0.3093
  886MPD2    H112993   3.137   1.260  15.820  0.2581  0.3878 -2.3292
  886MPD2    H212994   3.277   0.909  15.996  0.5097  0.0538  0.1275
  886MPD2    H312995   3.138   1.099  16.000 -1.6347  0.7183 -1.3229
  886MPD2     N12996   3.318   1.249  15.595  1.3484 -0.0598  0.5107
  886MPD2    H512997   3.390   1.214  15.532  0.3160 -1.6755  0.2361
  886MPD2    N112998   3.447   0.840  15.799 -0.0857  1.0567 -0.4109
  886MPD2    H712999   3.515   0.838  15.724 -0.3565  0.4435 -0.6326
  887MPD2     C13000   4.000   0.800  15.411 -0.1396 -0.2042 -0.1447
  887MPD2    C113001   3.889   0.829  15.484 -0.3918  0.5875  0.2170
  887MPD2    C213002   3.857   0.956  15.532  0.5579  0.0248 -0.1243
  887MPD2    C313003   3.944   1.062  15.510 -0.5554 -0.0085 -0.2070
  887MPD2    C413004   4.044   1.032  15.420 -1.0535 -0.2000  0.5017
  887MPD2    C513005   4.076   0.905  15.376 -0.0768 -0.1315  0.3625
  887MPD2     H13006   3.763   0.974  15.584 -0.7601 -0.4289 -2.3469
  887MPD2    H113007   4.109   1.116  15.398 -0.3257 -0.8941  0.0269
  887MPD2    H213008   4.023   0.697  15.384 -0.7199 -0.1893 -0.7093
  887MPD2    H313009   4.169   0.869  15.333  0.7199  2.5518 -0.1804
  887MPD2     N13010   3.922   1.183  15.575  0.7702 -0.3217  0.0532
  887MPD2    H513011   3.855   1.178  15.651  0.1566 -0.1204 -0.4703
  887MPD2    N113012   3.814   0.713  15.512  0.0986  0.1534  0.4114
  887MPD2    H713013   3.865   0.626  15.505 -0.8273 -0.4651  1.3075
  888MPD2     C13014   1.037   1.260  14.639  0.6713 -0.0026  0.0523
  888MPD2    C113015   1.055   1.309  14.764  0.5140 -0.5574 -0.1668
  888MPD2    C213016   1.123   1.427  14.791 -0.2154 -0.2718 -0.4184
  888MPD2    C313017   1.186   1.495  14.689  0.3499  0.2408 -0.2009
  888MPD2    C413018   1.185   1.438  14.563 -0.0310 -0.3940  0.0740
  888MPD2    C513019   1.104   1.330  14.544 -0.6238  0.4006 -0.1017
  888MPD2     H13020   1.126   1.465  14.893  2.2617  0.7222 -0.8651
  888MPD2    H113021   1.233   1.478  14.475  0.7974  0.7622  1.0521
  888MPD2    H213022   1.010   1.157  14.616  1.1887 -0.1086 -0.0816
  888MPD2    H313023   1.112   1.274  14.451  3.5099 -0.5524  0.8297
  888MPD2     N13024   1.247   1.626  14.714  0.4424  0.3935  1.3869
  888MPD2    H513025   1.234   1.661  14.808  0.6096 -0.7517  1.8296
  888MPD2    N113026   1.013   1.238  14.874  0.6237 -0.2737 -0.7524
  888MPD2    H713027   1.052   1.278  14.959 -0.1146 -0.7179 -0.2007
  889MPD2     C13028   0.656   0.939  12.516  0.0639  0.4843 -0.5505
  889MPD2    C113029   0.600   0.900  12.641 -0.3594 -0.2271 -0.0534
  889MPD2    C213030   0.559   1.000  12.728  0.0440 -0.0596  0.1991
  889MPD2    C313031   0.552   1.134  12.681  0.6117 -0.3022  0.1673
  889MPD2    C413032   0.601   1.162  12.560 -0.3571 -0.5449 -0.1152
  889MPD2    C513033   0.649   1.069  12.474 -0.3313 -0.6695 -0.7737
  889MPD2     H13034   0.516   0.986  12.826 -1.7613  0.5423 -0.5022
  889MPD2    H113035   0.600   1.266  12.530 -1.7586 -0.1667  1.2676
  889MPD2    H213036   0.686   0.864  12.445 -0.0771  0.2211 -0.3344
  889MPD2    H313037   0.688   1.087  12.374  0.2780  2.1238 -0.0537
  889MPD2     N13038   0.502   1.227  12.773 -0.3601  0.4000 -0.0742
  889MPD2    H513039   0.469   1.193  12.862  0.1493  1.7845  0.6401
  889MPD2    N113040   0.613   0.768  12.672  0.0509  0.3064 -0.0287
  889MPD2    H713041   0.647   0.702  12.603 -1.7026  0.5961 -1.1813
  890MPD2     C13042   4.554   2.425  14.611  0.0587  0.1568  0.7297
  890MPD2    C113043   4.690   2.437  14.650  0.1038  0.0695 -1.4165
  890MPD2    C213044   0.016   2.368  14.760 -0.5958 -0.6264 -0.1450
  890MPD2    C313045   4.639   2.303  14.840 -0.2484 -0.1809 -0.2395
  890MPD2    C413046   4.508   2.293  14.804 -0.5845 -0.6787 -0.4036
  890MPD2    C513047   4.463   2.356  14.691  0.1470 -0.6962 -0.6413
  890MPD2     H13048   0.118   2.364  14.795 -0.4222 -1.0391 -0.7030
  890MPD2    H113049   4.429   2.251  14.865 -0.2118  0.5376  0.9152
  890MPD2    H213050   4.513   2.484  14.530 -0.6013  0.4421  1.2695
  890MPD2    H313051   4.359   2.358  14.661  0.3568  0.4522 -1.2916
  890MPD2     N13052   4.689   2.268  14.971  0.3747  0.2529  0.6031
  890MPD2    H513053   0.061   2.304  14.995 -1.1611  3.1921  2.1150
  890MPD2    N113054   0.057   2.512  14.569 -0.1687  0.2337  0.2828
  890MPD2    H713055   0.016   2.561  14.491  0.3806  0.4859  0.1603
  891MPD2     C13056   2.861   1.179  16.468  0.2450  0.4974 -0.0768
  891MPD2    C113057   2.795   1.244  16.569 -0.3898  0.3306  0.0907
  891MPD2    C213058   2.874   1.296  16.666  0.2664  0.6664 -0.4228
  891MPD2    C313059   3.004   1.272  16.673 -0.2564  0.1453 -0.0278
  891MPD2    C413060   3.062   1.198  16.570  0.0262 -0.9951  0.4172
  891MPD2    C513061   2.992   1.146  16.466  0.1770  0.9296  0.6443
  891MPD2     H13062   2.846   1.368  16.742 -0.5943 -2.0230  1.8018
  891MPD2    H113063   3.168   1.177  16.573  0.2817  0.2417  0.1215
  891MPD2    H213064   2.812   1.138  16.381 -1.6522 -0.2261  1.3394
  891MPD2    H313065   3.029   1.094  16.379 -2.4069  1.4950 -0.7791
  891MPD2     N13066   3.082   1.334  16.777 -0.2971  0.8119 -1.1212
  891MPD2    H513067   3.036   1.404  16.833 -0.7862  1.0469 -1.8219
  891MPD2    N113068   2.661   1.275  16.558 -0.1213 -0.3544 -0.2269
  891MPD2    H713069   2.614   1.229  16.481  0.1456 -1.2433  0.1423
  892MPD2     C13070   3.580   1.808  15.122  0.0613 -0.3796  0.0002
  892MPD2    C113071   3.493   1.806  15.017  0.5280 -0.0054 -0.2436
  892MPD2    C213072   3.533   1.769  14.893  0.3886 -0.1490  0.0886
  892MPD2    C313073   3.666   1.728  14.876  0.3644  0.7231  0.2428
  892MPD2    C413074   3.753   1.720  14.979 -0.0234  0.9140  0.4748
  892MPD2    C513075   3.706   1.761  15.098  0.7091 -0.0604  0.8520
  892MPD2     H13076   3.469   1.776  14.806  1.7300  1.1635 -0.7987
  892MPD2    H113077   3.858   1.703  14.958  0.1173  0.0547  1.8732
  892MPD2    H213078   3.547   1.842  15.219  0.3592  0.5491 -0.2237
  892MPD2    H313079   3.789   1.777  15.166  0.7944  2.1469  0.2489
  892MPD2     N13080   3.710   1.704  14.747  0.3184 -0.3281  0.4049
  892MPD2    H513081   3.810   1.686  14.736  0.4014  0.3465  0.0873
  892MPD2    N113082   3.363   1.857  15.024 -0.6649 -0.1031 -0.1113
  892MPD2    H713083   3.337   1.888  14.931  0.8954  2.3169  0.2627
  893MPD2     C13084   3.295   3.965   1.784 -0.4086 -0.7169 -0.0595
  893MPD2    C113085   3.363   4.087   1.790  0.0311  0.5587  0.1846
  893MPD2    C213086   3.503   4.078   1.792 -0.3317 -0.1939  0.6527
  893MPD2    C313087   3.572   3.962   1.768 -0.4164  0.3584 -0.2537
  893MPD2    C413088   3.502   3.846   1.762  0.0774 -0.0976  0.1481
  893MPD2    C513089   3.365   3.848   1.775  0.1484  0.1225 -0.3547
  893MPD2     H13090   3.551   4.175   1.786  2.6353 -1.5594  2.0928
  893MPD2    H113091   3.547   3.751   1.735  0.9564  0.1801  0.6100
  893MPD2    H213092   3.187   3.970   1.777 -0.6454 -0.5977  3.2787
  893MPD2    H313093   3.304   3.759   1.786  1.1934 -0.6915 -1.0623
  893MPD2     N13094   3.714   3.959   1.763  0.3582 -0.4096 -0.3893
  893MPD2    H513095   3.756   3.867   1.751  2.0090  0.2055  0.5850
  893MPD2    N113096   3.280   4.207   1.796  0.2663 -0.2577 -0.0963
  893MPD2    H713097   3.179   4.194   1.795  0.0410  1.5036  0.2434
  894MPD2     C13098   4.324   3.074   1.977 -0.8608  0.3027  1.0800
  894MPD2    C113099   4.250   3.048   1.864 -0.7515  0.5967  0.3752
  894MPD2    C213100   4.286   3.107   1.746  0.3111 -0.0084  0.1325
  894MPD2    C313101   4.405   3.179   1.727 -0.5296 -0.0721 -0.1363
  894MPD2    C413102   4.484   3.198   1.837 -0.1764 -1.0167  0.4924
  894MPD2    C513103   4.442   3.145   1.959 -0.3164  1.5184 -0.5164
  894MPD2     H13104   4.222   3.088   1.661  0.4373  1.8354 -0.3716
  894MPD2    H113105   4.579   3.249   1.830  0.1480 -1.2537  3.1491
  894MPD2    H213106   4.302   3.059   2.082  1.0106 -1.0650  1.2860
  894MPD2    H313107   4.491   3.160   2.055 -1.5880  2.7234 -0.0665
  894MPD2     N13108   4.441   3.243   1.602  0.2045  0.2850 -0.8062
  894MPD2    H513109   4.367   3.238   1.532  1.5051 -1.4295 -2.0451
  894MPD2    N113110   4.137   2.971   1.880  0.9772  1.1627  0.4373
  894MPD2    H713111   4.067   2.969   1.807  0.6114 -2.0950  0.8741
  895MPD2     C13112   2.547   1.068  14.198  0.3068  0.0088  0.6511
  895MPD2    C113113   2.505   1.115  14.077 -0.1562 -0.0279  0.2183
  895MPD2    C213114   2.602   1.152  13.981  0.9202 -0.9401  0.2374
  895MPD2    C313115   2.734   1.148  14.020 -0.5761 -0.6127  1.1140
  895MPD2    C413116   2.767   1.111  14.148 -0.1333  0.1426  0.0631
  895MPD2    C513117   2.677   1.073  14.242  0.4631  0.0766  0.1131
  895MPD2     H13118   2.577   1.185  13.881  0.3813 -3.1406 -0.3533
  895MPD2    H113119   2.871   1.114  14.179 -0.1646 -2.9157  0.4074
  895MPD2    H213120   2.481   1.021  14.270 -1.2046  0.9285 -0.1549
  895MPD2    H313121   2.700   1.048  14.345  2.7593  0.3940 -0.3194
  895MPD2     N13122   2.819   1.200  13.920  0.5757 -0.5808  0.8216
  895MPD2    H513123   2.771   1.238  13.839  1.4305 -0.2330  0.4771
  895MPD2    N113124   2.372   1.121  14.042  0.2253 -0.4559 -0.0167
  895MPD2    H713125   2.351   1.159  13.951  1.8292 -0.6293 -0.4608
  896MPD2     C13126   1.753   3.188   1.110 -0.0132 -0.1319  0.2728
  896MPD2    C113127   1.674   3.282   1.042 -0.1257  0.1221 -0.6218
  896MPD2    C213128   1.540   3.264   1.030  0.2991  0.4492  0.2125
  896MPD2    C313129   1.481   3.155   1.089 -0.1514  0.6535  0.1232
  896MPD2    C413130   1.559   3.057   1.146 -0.4090 -0.8941  0.1841
  896MPD2    C513131   1.691   3.076   1.163 -0.0834  0.3385 -0.1426
  896MPD2     H13132   1.471   3.334   0.985  1.0386  0.6881 -0.5651
  896MPD2    H113133   1.520   2.974   1.204 -0.8277 -1.5123 -0.9752
  896MPD2    H213134   1.858   3.202   1.135  0.1195 -0.9136  0.1423
  896MPD2    H313135   1.750   3.015   1.230  0.7725  0.1338 -1.0730
  896MPD2     N13136   1.341   3.155   1.087  0.4577 -0.1741 -0.3909
  896MPD2    H513137   1.292   3.236   1.050  0.8427 -1.3153 -3.4263
  896MPD2    N113138   1.745   3.403   1.000 -0.3193  0.3908  0.4430
  896MPD2    H713139   1.846   3.401   1.013 -0.2051  0.2091 -0.5098
  897MPD2     C13140   1.533   0.854   9.958  1.0233 -0.0098 -0.2922
  897MPD2    C113141   1.552   0.955  10.046 -0.0528  0.0177  0.1408
  897MPD2    C213142   1.564   0.917  10.180 -0.5141  0.9777 -0.1782
  897MPD2    C313143   1.539   0.795  10.227  0.0861  0.2316  0.5428
  897MPD2    C413144   1.519   0.694  10.130 -0.0341  0.9942 -0.3940
  897MPD2    C513145   1.508   0.725   9.999 -0.6753 -0.4849 -0.3190
  897MPD2     H13146   1.570   0.992  10.257 -0.4199  0.2595  0.5082
  897MPD2    H113147   1.485   0.593  10.151  0.6305  0.9055  0.2689
  897MPD2    H213148   1.520   0.870   9.852  2.2752 -1.4029 -0.6647
  897MPD2    H313149   1.470   0.645   9.937 -0.9315 -0.0585 -0.7074
  897MPD2     N13150   1.518   0.766  10.366  0.5849  0.3906 -0.4729
  897MPD2    H513151   1.525   0.843  10.432 -1.0288 -2.2833  2.8334
  897MPD2    N113152   1.563   1.091   9.984  0.1833 -0.3425  0.0662
  897MPD2    H713153   1.567   1.097   9.883 -1.9570  1.0300  0.0682
  898MPD2     C13154   3.105   1.944   0.168 -0.2663  0.2245 -0.0396
  898MPD2    C113155   3.153   1.879   0.059  0.2245 -0.5066  0.0022
  898MPD2    C213156   3.180   1.953  17.624  0.7154 -0.3362 -0.3327
  898MPD2    C313157   3.133   2.082  17.605  0.4859  0.5298  0.2871
  898MPD2    C413158   3.082   2.147   0.039 -0.9139 -0.2701 -0.1001
  898MPD2    C513159   3.073   2.073   0.148 -0.0049 -0.1489 -0.6130
  898MPD2     H13160   3.217   1.895  17.540  1.7135  0.7241 -0.6239
  898MPD2    H113161   3.051   2.250   0.051 -1.3005 -0.3461 -0.4325
  898MPD2    H213162   3.082   1.905   0.266 -1.3387 -1.6403 -1.0287
  898MPD2    H313163   3.041   2.124   0.239  1.7664  1.8391 -1.1050
  898MPD2     N13164   3.155   2.161  17.483 -0.4049  1.2922 -0.2560
  898MPD2    H513165   3.222   2.116  17.421 -0.4812 -1.1073  1.3956
  898MPD2    N113166   3.198   1.745   0.071 -0.1433  0.5086  0.8638
  898MPD2    H713167   3.229   1.703  17.664 -0.8949 -3.5575  2.5634
  899MPD2     C13168   3.993   1.964   0.186  0.0792 -0.5553 -0.0800
  899MPD2    C113169   4.045   2.076   0.248  0.3290  0.1971  0.2952
  899MPD2    C213170   4.004   2.113   0.377  0.1877 -0.3979 -0.1868
  899MPD2    C313171   3.910   2.035   0.442  0.6169  0.1287  0.1352
  899MPD2    C413172   3.857   1.925   0.377 -0.3945  0.1057 -0.4316
  899MPD2    C513173   3.893   1.894   0.247  0.6167  0.1048 -0.5722
  899MPD2     H13174   4.040   2.201   0.428 -0.5696  0.6020 -1.3553
  899MPD2    H113175   3.787   1.862   0.430  0.1906 -0.2086 -0.0342
  899MPD2    H213176   4.028   1.942   0.086 -0.5414  1.1634 -0.6728
  899MPD2    H313177   3.836   1.818   0.196 -1.3156  0.7810  0.5922
  899MPD2     N13178   3.859   2.061   0.571  0.3062 -0.6229  0.5213
  899MPD2    H513179   3.776   2.016   0.607 -0.9428 -0.4294 -2.1202
  899MPD2    N113180   4.134   2.153   0.165 -0.3453  0.5214 -0.0209
  899MPD2    H713181   4.160   2.112   0.076  0.0927  1.7445 -0.4592
  900MPD2     C13182   4.239   3.906  12.379  0.1074  0.6097 -0.6488
  900MPD2    C113183   4.125   3.823  12.378 -0.0502  0.4793 -0.2735
  900MPD2    C213184   4.038   3.834  12.271 -0.4167 -0.0305  0.0651
  900MPD2    C313185   4.059   3.934  12.176 -0.1592 -0.4635  0.3043
  900MPD2    C413186   4.161   4.023  12.192 -0.5134  0.1946 -0.0735
  900MPD2    C513187   4.255   4.008  12.289  0.0166  0.2549  0.2925
  900MPD2     H13188   3.959   3.764  12.249  0.2627 -0.5827 -0.5893
  900MPD2    H113189   4.186   4.104  12.124 -0.7244  0.3013 -0.0220
  900MPD2    H213190   4.312   3.910  12.459 -0.3658  0.5890 -0.2123
  900MPD2    H313191   4.342   4.070  12.306  2.0688 -2.6083  0.3803
  900MPD2     N13192   3.961   3.950  12.078  0.0018 -0.2780 -0.1668
  900MPD2    H513193   3.875   3.898  12.089 -1.4031  1.6670 -1.8396
  900MPD2    N113194   4.108   3.735  12.484  0.6563  0.8145  0.5720
  900MPD2    H713195   4.180   3.742  12.555  1.6207 -2.7259 -0.0554
  901MPD2     C13196   3.563   2.825  12.624  0.1753 -0.2134 -0.4229
  901MPD2    C113197   3.695   2.808  12.670 -0.8084 -0.3313 -0.2236
  901MPD2    C213198   3.762   2.927  12.703  0.2086  0.1190 -0.7172
  901MPD2    C313199   3.709   3.051  12.687  0.0441  0.0667 -0.5008
  901MPD2    C413200   3.580   3.064  12.639  0.1747 -0.5361 -0.6062
  901MPD2    C513201   3.514   2.949  12.610 -0.6487  0.3752 -0.7996
  901MPD2     H13202   3.868   2.917  12.727 -0.2675  2.5677  2.3530
  901MPD2    H113203   3.522   3.156  12.640  1.6907  0.3851  1.9389
  901MPD2    H213204   3.493   2.747  12.595 -0.4114  0.5605 -1.0929
  901MPD2    H313205   3.413   2.960  12.572  0.0415  0.6068 -2.5599
  901MPD2     N13206   3.786   3.163  12.719 -0.1190  0.5993  0.4315
  901MPD2    H513207   3.882   3.155  12.750 -0.2913 -0.8550  0.6025
  901MPD2    N113208   3.748   2.679  12.686  0.5513 -0.4708 -0.2716
  901MPD2    H713209   3.675   2.608  12.688 -0.2803  0.3680 -0.7046
  902MPD2     C13210   2.956   1.734  13.475 -0.2258  0.3751 -0.0158
  902MPD2    C113211   2.979   1.774  13.345 -0.5036  0.2192 -0.0897
  902MPD2    C213212   3.087   1.716  13.280  0.1319 -0.5287 -0.1483
  902MPD2    C313213   3.159   1.606  13.327 -0.3210 -0.2686  0.4429
  902MPD2    C413214   3.123   1.555  13.448 -0.4386  0.3780 -0.7281
  902MPD2    C513215   3.032   1.628  13.527  0.5950 -0.4110  0.1174
  902MPD2     H13216   3.120   1.759  13.187 -1.6947  2.4855  0.5820
  902MPD2    H113217   3.164   1.463  13.488  1.9454  2.0341  0.6138
  902MPD2    H213218   2.877   1.780  13.534 -0.6473 -0.2436 -0.1026
  902MPD2    H313219   3.002   1.590  13.624  0.9385 -2.1869 -0.4700
  902MPD2     N13220   3.259   1.535  13.249 -0.2810  0.3240  0.1121
  902MPD2    H513221   3.297   1.449  13.288 -1.3310 -0.4401 -0.5536
  902MPD2    N113222   2.915   1.890  13.287  0.5734 -0.2331  0.3962
  902MPD2    H713223   2.872   1.958  13.349 -0.4091 -2.8448  2.5767
  903MPD2     C13224   3.189   1.889  12.576  0.1189  0.1563 -0.1488
  903MPD2    C113225   3.135   1.773  12.611  0.2769 -0.3380 -0.5008
  903MPD2    C213226   3.013   1.730  12.558 -0.5931 -0.2721  0.0267
  903MPD2    C313227   2.943   1.817  12.475  0.1867  0.4278 -0.0421
  903MPD2    C413228   2.995   1.940  12.441 -0.0216  0.8426  0.4303
  903MPD2    C513229   3.115   1.975  12.502 -0.2929 -0.2297  0.2209
  903MPD2     H13230   2.980   1.627  12.558 -0.6588 -0.2252 -4.8317
  903MPD2    H113231   2.945   2.004  12.369  0.9627  1.6482  0.4542
  903MPD2    H213232   3.287   1.922  12.606  0.2733 -0.3754 -0.0690
  903MPD2    H313233   3.171   2.066  12.483 -1.7188  0.6740  0.3461
  903MPD2     N13234   2.822   1.772  12.418  0.2389 -0.9494 -0.1382
  903MPD2    H513235   2.784   1.681  12.441 -0.3439 -0.0838  2.4097
  903MPD2    N113236   3.230   1.682  12.668  0.4192 -0.6780  0.0999
  903MPD2    H713237   3.318   1.716  12.705  0.6638  0.6373 -1.6901
  904MPD2     C13238   2.707   0.296  13.453  0.1022 -0.0993  0.1403
  904MPD2    C113239   2.748   0.415  13.513 -0.0933 -0.0287 -0.0796
  904MPD2    C213240   2.877   0.429  13.554  0.0153  0.2225 -1.1732
  904MPD2    C313241   2.962   0.319  13.539 -0.1147  0.1243  0.6460
  904MPD2    C413242   2.916   0.200  13.489 -0.3598 -0.0276  0.0821
  904MPD2    C513243   2.787   0.186  13.450 -0.1794 -0.7120 -0.1606
  904MPD2     H13244   2.914   0.523  13.592  1.0700 -2.1168  3.5946
  904MPD2    H113245   2.967   0.105  13.474 -1.8744 -0.9494  0.7371
  904MPD2    H213246   2.610   0.284  13.406 -0.0101  0.8550  0.1278
  904MPD2    H313247   2.746   0.091  13.418  1.8299 -0.9882 -1.9305
  904MPD2     N13248   3.091   0.341  13.587 -0.0001  0.7076 -0.4063
  904MPD2    H513249   3.118   0.436  13.611  0.5368  0.9453 -1.9213
  904MPD2    N113250   2.669   0.527  13.529  0.2970  0.0763 -0.3558
  904MPD2    H713251   2.709   0.608  13.574 -1.6373  0.2506  1.0301
  905MPD2     C13252   2.433   1.131  13.189 -0.3656 -0.4136 -0.1231
  905MPD2    C113253   2.456   1.077  13.319 -0.0448 -0.6366 -0.2966
  905MPD2    C213254   2.562   1.134  13.388  0.0422  0.0922  0.3653
  905MPD2    C313255   2.635   1.245  13.345 -0.8516  0.8765 -0.2381
  905MPD2    C413256   2.605   1.295  13.223  0.2336  0.1241  0.2476
  905MPD2    C513257   2.504   1.240  13.145 -0.2715  0.4489  0.2373
  905MPD2     H13258   2.599   1.079  13.473  2.8356 -0.3833 -1.1294
  905MPD2    H113259   2.650   1.385  13.183  2.8623 -1.1908  0.2368
  905MPD2    H213260   2.357   1.083  13.128  0.5090  1.2625 -2.5501
  905MPD2    H313261   2.480   1.289  13.051  1.6606  1.8577  0.4761
  905MPD2     N13262   2.740   1.293  13.424  0.0454  0.6865 -0.0905
  905MPD2    H513263   2.810   1.350  13.378  0.7674  2.9395  3.8221
  905MPD2    N113264   2.380   0.965  13.357 -0.3138 -0.0447  0.1196
  905MPD2    H713265   2.318   0.916  13.293  2.0333 -0.9548 -1.4389
  906MPD2     C13266   0.353   1.049  11.502 -0.6867 -0.7940  0.8009
  906MPD2    C113267   0.368   0.912  11.471 -0.6873  0.5067 -0.3203
  906MPD2    C213268   0.267   0.834  11.516  0.0959  0.2928 -0.8613
  906MPD2    C313269   0.173   0.877  11.610  0.4275 -0.6024  0.1232
  906MPD2    C413270   0.166   1.012  11.640  0.2824  0.1024 -0.3519
  906MPD2    C513271   0.258   1.099  11.584  0.6474  0.0607  0.0733
  906MPD2     H13272   0.266   0.732  11.479  2.9723  0.2507 -0.8536
  906MPD2    H113273   0.090   1.047  11.709 -0.6909 -0.0133 -1.3600
  906MPD2    H213274   0.418   1.126  11.462 -0.1092  0.6310  4.4650
  906MPD2    H313275   0.256   1.205  11.608  1.8020  0.2936 -0.8540
  906MPD2     N13276   0.064   0.800  11.662 -0.0025  0.0942 -0.3276
  906MPD2    H513277   4.710   0.853  11.706 -2.5186 -2.2242 -1.7314
  906MPD2    N113278   0.462   0.859  11.379 -0.0521 -0.2404 -0.2189
  906MPD2    H713279   0.461   0.762  11.348 -0.5618 -0.8965  1.8807
  907MPD2     C13280   3.564   0.106  15.750  0.2837  0.4929 -0.0124
  907MPD2    C113281   3.647   4.718  15.734  0.8034  0.2769 -0.1051
  907MPD2    C213282   3.746   4.701  15.825  0.7145  0.8495  0.5887
  907MPD2    C313283   3.757   0.060  15.942  0.1083  0.3591  0.4752
  907MPD2    C413284   3.671   0.164  15.950  0.2548 -0.0648 -0.7364
  907MPD2    C513285   3.572   0.188  15.859  0.4992 -0.6252 -0.4279
  907MPD2     H13286   3.831   4.637  15.805  0.1720  0.7350 -1.3704
  907MPD2    H113287   3.692   0.244  16.019 -0.3034 -1.3408  0.9158
  907MPD2    H213288   3.498   0.135  15.669  1.1124 -0.6959 -1.1225
  907MPD2    H313289   3.510   0.276  15.864  0.1011 -0.9043 -0.4289
  907MPD2     N13290   3.868   0.034  16.023 -0.5352  0.7543  0.2413
  907MPD2    H513291   3.944   4.702  15.980  0.0066 -1.2707  3.6601
  907MPD2    N113292   3.641   4.617  15.631 -0.0959 -0.2133  0.3138
  907MPD2    H713293   3.704   4.538  15.638 -1.2871 -0.9395  2.9255
  908MPD2     C13294   0.886   1.441   9.614 -0.5012 -0.7822  0.1546
  908MPD2    C113295   0.941   1.312   9.599  0.1516 -0.7881  0.1621
  908MPD2    C213296   1.069   1.292   9.640 -0.2546 -0.2768 -0.0770
  908MPD2    C313297   1.155   1.401   9.672 -1.0269  0.0444 -0.5675
  908MPD2    C413298   1.099   1.534   9.674  0.1346  0.7575  0.2547
  908MPD2    C513299   0.967   1.546   9.646  0.0624  0.5379  0.5710
  908MPD2     H13300   1.112   1.194   9.627  0.4728 -0.0558  0.6389
  908MPD2    H113301   1.151   1.629   9.679  1.5296 -0.1484  3.0504
  908MPD2    H213302   0.781   1.456   9.592  0.1892  1.5399 -1.5496
  908MPD2    H313303   0.930   1.647   9.645  1.0109  0.8839  0.5028
  908MPD2     N13304   1.290   1.389   9.706  0.3113  0.2040  0.8497
  908MPD2    H513305   1.316   1.292   9.721  0.0352  0.0771  0.5003
  908MPD2    N113306   0.851   1.209   9.559 -0.3082  0.5178 -0.1680
  908MPD2    H713307   0.754   1.229   9.536 -0.3630  0.6385  0.1696
  909MPD2     C13308   2.168   3.181  11.666 -0.2159 -0.2313  0.0649
  909MPD2    C113309   2.150   3.312  11.633  0.0184  0.5961 -0.7896
  909MPD2    C213310   2.082   3.393  11.722 -0.1114  0.3373 -0.0663
  909MPD2    C313311   2.040   3.347  11.843  0.0353 -0.1469  0.1407
  909MPD2    C413312   2.056   3.215  11.870 -0.4394  0.5007  0.0642
  909MPD2    C513313   2.112   3.137  11.779 -0.4670  0.4952 -0.0362
  909MPD2     H13314   2.053   3.495  11.700  1.6683  0.7822 -0.4087
  909MPD2    H113315   2.026   3.158  11.957  2.6020  1.8061  1.9360
  909MPD2    H213316   2.222   3.103  11.614 -0.4108  0.4391 -1.1285
  909MPD2    H313317   2.138   3.034  11.802  0.6733  1.5358  3.2974
  909MPD2     N13318   1.973   3.437  11.933  0.0868  0.0546 -0.1007
  909MPD2    H513319   1.967   3.533  11.900 -2.7611 -0.2199 -0.3279
  909MPD2    N113320   2.194   3.361  11.505 -0.0888  0.1667  0.0507
  909MPD2    H713321   2.162   3.455  11.481  1.3438  0.3726 -1.0386
  910MPD2     C13322   2.730   0.298  16.028  0.5454  0.2554  0.1694
  910MPD2    C113323   2.838   0.280  15.946 -0.2693  0.8058 -0.1469
  910MPD2    C213324   2.835   0.284  15.809 -0.5116  0.9239 -0.2018
  910MPD2    C313325   2.713   0.297  15.747  0.6683  0.3330 -0.0686
  910MPD2    C413326   2.606   0.310  15.830  0.3283 -0.0537 -0.1008
  910MPD2    C513327   2.609   0.313  15.966  0.4306 -0.1109  0.4204
  910MPD2     H13328   2.929   0.284  15.756 -1.9408 -1.0048 -2.7208
  910MPD2    H113329   2.509   0.333  15.788  0.3040  0.0767  0.0270
  910MPD2    H213330   2.729   0.295  16.137 -2.1458  1.0503  0.1530
  910MPD2    H313331   2.520   0.330  16.024  1.7727 -0.2706  2.5193
  910MPD2     N13332   2.697   0.323  15.607  0.1323 -0.0133 -0.2883
  910MPD2    H513333   2.604   0.352  15.580 -0.1535 -0.9263 -0.2909
  910MPD2    N113334   2.961   0.249  16.003 -0.5258  0.3599 -0.0980
  910MPD2    H713335   3.029   0.208  15.941  0.5122 -0.2162  1.4136
  911MPD2     C13336   1.176   0.866  16.043 -0.4734 -0.0818 -0.3336
  911MPD2    C113337   1.199   0.919  16.168 -0.1919  0.6375  0.3749
  911MPD2    C213338   1.102   1.006  16.222  0.0251  0.3412 -0.4655
  911MPD2    C313339   0.990   1.044  16.146  0.7125  0.6904 -0.2397
  911MPD2    C413340   0.970   0.980  16.024  0.1708  1.0615 -0.4709
  911MPD2    C513341   1.060   0.891  15.975  0.4070 -0.5591  0.3827
  911MPD2     H13342   1.117   1.053  16.319 -2.0674  1.6836 -0.8022
  911MPD2    H113343   0.881   1.004  15.967  0.3755  1.9485 -0.4279
  911MPD2    H213344   1.241   0.802  15.986  2.0290  1.8164  0.4043
  911MPD2    H313345   1.045   0.849  15.877  0.3652  1.7416 -0.5934
  911MPD2     N13346   0.895   1.140  16.185  0.2365 -0.3264 -0.3187
  911MPD2    H513347   0.804   1.125  16.142 -0.0737  0.4333  0.0639
  911MPD2    N113348   1.310   0.877  16.239 -0.2826  0.7707  0.1766
  911MPD2    H713349   1.384   0.831  16.186 -0.7940 -0.3206  0.4089
  912MPD2     C13350   0.678   0.966  15.760 -0.3394  0.2504 -0.2507
  912MPD2    C113351   0.637   0.959  15.892 -0.4340  0.0245 -0.5159
  912MPD2    C213352   0.643   0.835  15.957 -0.1659 -0.8401 -0.0818
  912MPD2    C313353   0.693   0.724  15.891 -0.6633 -0.1514 -0.3545
  912MPD2    C413354   0.730   0.739  15.758  0.0123  0.3992  0.2648
  912MPD2    C513355   0.725   0.857  15.695 -0.0051  0.1332 -0.9142
  912MPD2     H13356   0.605   0.819  16.057 -0.7725 -0.3102 -0.2254
  912MPD2    H113357   0.771   0.657  15.701  1.0636  0.0579  1.5067
  912MPD2    H213358   0.674   1.067  15.721  0.4794  0.7346  0.9018
  912MPD2    H313359   0.771   0.855  15.597 -2.2108  0.5034 -1.9581
  912MPD2     N13360   0.711   0.611  15.972  0.2055  0.0226 -0.0350
  912MPD2    H513361   0.680   0.621  16.068 -3.1694  0.6351 -1.1838
  912MPD2    N113362   0.588   1.077  15.944 -0.1384  0.1780  0.2076
  912MPD2    H713363   0.590   1.161  15.887 -1.6376  1.4823  2.0807
  913MPD2     C13364   1.745   3.247  10.936  0.6112  0.4393  0.1433
  913MPD2    C113365   1.671   3.141  10.879 -0.4503 -1.3600 -0.3074
  913MPD2    C213366   1.604   3.167  10.762  0.3352 -0.7384  0.0638
  913MPD2    C313367   1.636   3.282  10.685 -0.2920 -0.0416  0.3412
  913MPD2    C413368   1.699   3.387  10.744  0.7244 -0.3074 -0.0092
  913MPD2    C513369   1.748   3.368  10.869 -0.2292  0.3939  0.3402
  913MPD2     H13370   1.534   3.095  10.722  1.2699 -3.2776  3.0603
  913MPD2    H113371   1.702   3.485  10.697  3.0039 -1.2412 -1.7826
  913MPD2    H213372   1.795   3.243  11.033 -0.9024  1.2782  0.9548
  913MPD2    H313373   1.794   3.455  10.914  1.2663 -0.6480  0.8134
  913MPD2     N13374   1.602   3.300  10.545 -0.0753 -0.1187 -0.2364
  913MPD2    H513375   1.656   3.369  10.495  1.4372  0.7577  2.5934
  913MPD2    N113376   1.659   3.019  10.953  0.0980  0.0843 -0.4679
  913MPD2    H713377   1.709   3.007  11.040 -2.0379 -0.7968  0.6474
  914MPD2     C13378   3.976   2.715  11.981  0.0714  0.3124  0.8640
  914MPD2    C113379   3.986   2.778  12.101  0.5080 -0.2202 -0.1049
  914MPD2    C213380   3.997   2.703  12.220  0.4078 -0.6228  0.1162
  914MPD2    C313381   3.985   2.563  12.218 -0.1951  0.0565 -0.5339
  914MPD2    C413382   3.945   2.504  12.098  0.3288 -0.0270 -0.2115
  914MPD2    C513383   3.939   2.580  11.985  0.4907  0.0822 -0.0419
  914MPD2     H13384   4.012   2.751  12.316 -0.1031 -0.1460 -0.0396
  914MPD2    H113385   3.921   2.399  12.091 -0.4726  0.1680 -0.5025
  914MPD2    H213386   3.977   2.770  11.888 -0.2197 -3.4430 -1.3865
  914MPD2    H313387   3.907   2.538  11.891  0.1432  2.0277 -0.7934
  914MPD2     N13388   4.002   2.497  12.337 -0.7786 -0.1728  0.5615
  914MPD2    H513389   4.045   2.553  12.410  0.8374 -0.2354 -0.3295
  914MPD2    N113390   4.008   2.917  12.107 -0.7782 -0.1702  0.1462
  914MPD2    H713391   4.020   2.965  12.018 -1.1887  0.5779  0.4855
  915MPD2     C13392   1.759   2.299  15.430 -1.0045 -0.1710 -0.3552
  915MPD2    C113393   1.661   2.392  15.443 -1.1905  0.5181 -0.1060
  915MPD2    C213394   1.649   2.462  15.560  0.0705  0.2702 -0.3002
  915MPD2    C313395   1.735   2.452  15.664 -1.2771 -0.3081 -0.3021
  915MPD2    C413396   1.825   2.346  15.667 -0.0091  0.0646 -0.0115
  915MPD2    C513397   1.834   2.271  15.548 -0.2059 -0.2104 -0.0656
  915MPD2     H13398   1.581   2.545  15.574  0.7947  0.5492  1.6234
  915MPD2    H113399   1.898   2.324  15.745 -0.7773 -2.0030  0.1147
  915MPD2    H213400   1.768   2.241  15.339 -1.5294 -1.3463  0.3393
  915MPD2    H313401   1.907   2.191  15.540 -0.3880 -0.3907  0.0601
  915MPD2     N13402   1.718   2.543  15.777 -0.3337  0.3579  0.3199
  915MPD2    H513403   1.652   2.618  15.759 -0.2867  0.7009  1.5175
  915MPD2    N113404   1.566   2.422  15.341 -0.5436  0.2134 -0.3358
  915MPD2    H713405   1.492   2.489  15.363  1.3771  2.4406 -0.6838
  916MPD2     C13406   0.203   0.630  15.814  0.0883  0.4030 -0.3545
  916MPD2    C113407   0.302   0.575  15.897 -0.1516  0.6428  0.0690
  916MPD2    C213408   0.394   0.483  15.854 -0.6103  0.1439  0.6020
  916MPD2    C313409   0.396   0.438  15.726 -0.1900 -0.2976  0.5952
  916MPD2    C413410   0.293   0.491  15.643 -0.1362  0.0127  0.4950
  916MPD2    C513411   0.198   0.585  15.688 -0.1586 -0.2798 -0.2189
  916MPD2     H13412   0.476   0.445  15.913  0.9889 -1.6966 -2.7803
  916MPD2    H113413   0.292   0.445  15.545  0.6881  0.6386  0.1872
  916MPD2    H213414   0.126   0.700  15.845  0.7033  0.4316  1.1128
  916MPD2    H313415   0.124   0.622  15.617 -0.0273  0.1699 -0.1207
  916MPD2     N13416   0.504   0.354  15.689 -0.2797 -0.0688 -0.3678
  916MPD2    H513417   0.571   0.323  15.759  1.5594  2.7047 -0.9054
  916MPD2    N113418   0.300   0.624  16.034  0.4907  0.3362  0.0831
  916MPD2    H713419   0.219   0.678  16.062  1.5903  1.1338  1.6999
  917MPD2     C13420   0.556   3.000  11.521 -0.2092  0.4693 -0.6261
  917MPD2    C113421   0.624   3.077  11.611  0.1994  0.3629 -0.3354
  917MPD2    C213422   0.726   3.153  11.566 -0.4985 -0.2460 -0.2273
  917MPD2    C313423   0.762   3.158  11.435 -0.3112  0.3742  0.3290
  917MPD2    C413424   0.702   3.074  11.348 -0.0810  0.5102  0.3463
  917MPD2    C513425   0.588   3.011  11.389  0.2681  0.5103 -0.5004
  917MPD2     H13426   0.776   3.220  11.635 -0.3205 -0.3043 -0.2988
  917MPD2    H113427   0.726   3.075  11.243 -0.0203  0.5824  0.3612
  917MPD2    H213428   0.476   2.933  11.549 -1.1324  1.6535 -0.4503
  917MPD2    H313429   0.533   2.949  11.319 -2.3909  1.6420  0.5723
  917MPD2     N13430   0.853   3.246  11.372 -0.4361 -0.1351  0.2076
  917MPD2    H513431   0.871   3.244  11.272  0.6119  4.0281  0.3026
  917MPD2    N113432   0.576   3.062  11.743  0.4767 -0.3690  0.2914
  917MPD2    H713433   0.486   3.016  11.750  0.2451  0.0408 -0.0275
  918MPD2     C13434   0.856   3.192  12.726  0.3036 -0.1126 -0.0484
  918MPD2    C113435   0.922   3.174  12.608 -0.3906 -0.0349  0.2833
  918MPD2    C213436   0.851   3.155  12.487 -0.2362  0.0420 -0.1322
  918MPD2    C313437   0.714   3.163  12.475  0.5083  0.2439 -0.0514
  918MPD2    C413438   0.648   3.174  12.601 -0.6127 -0.1484 -0.2759
  918MPD2    C513439   0.718   3.186  12.721 -0.5652 -0.4149  0.0388
  918MPD2     H13440   0.892   3.153  12.386 -0.2621  0.9585 -0.1605
  918MPD2    H113441   0.540   3.184  12.599 -0.6461 -0.6432 -1.3252
  918MPD2    H213442   0.906   3.219  12.818 -1.0468 -0.2953  0.7307
  918MPD2    H313443   0.654   3.206  12.806  1.4566  1.9964  0.9812
  918MPD2     N13444   0.648   3.172  12.344  0.9527  0.8453 -0.9295
  918MPD2    H513445   0.705   3.193  12.262 -0.2938 -1.5055 -2.3982
  918MPD2    N113446   1.066   3.160  12.604 -0.3053 -0.2925  0.4894
  918MPD2    H713447   1.117   3.163  12.516 -1.2049  0.5903 -0.0043
  919MPD2     C13448   1.385   2.291  11.733  0.1932  0.3481  1.0099
  919MPD2    C113449   1.314   2.176  11.687 -0.3309  0.4894 -0.4682
  919MPD2    C213450   1.262   2.165  11.557  0.6914 -0.0626  0.0022
  919MPD2    C313451   1.265   2.276  11.472  0.1594 -0.0839 -0.0682
  919MPD2    C413452   1.330   2.387  11.519  0.6330 -0.1907  0.4784
  919MPD2    C513453   1.388   2.396  11.642  0.1491 -0.0432  0.6218
  919MPD2     H13454   1.232   2.063  11.534  2.2113 -0.7780  1.1665
  919MPD2    H113455   1.340   2.477  11.458  0.5381  0.6477  1.6931
  919MPD2    H213456   1.450   2.291  11.821 -0.8659  1.1877  1.7849
  919MPD2    H313457   1.466   2.470  11.657 -0.3928  0.4726  0.8871
  919MPD2     N13458   1.220   2.272  11.339 -0.3423 -0.6734 -0.7092
  919MPD2    H513459   1.251   2.346  11.277 -1.8398  0.3120 -0.2822
  919MPD2    N113460   1.308   2.055  11.760 -0.2915 -0.1805 -0.3383
  919MPD2    H713461   1.276   1.970  11.714 -0.1192 -0.7525  0.6137
  920MPD2     C13462   0.852   2.815  10.592  0.0269 -0.1475 -0.1097
  920MPD2    C113463   0.812   2.686  10.548 -0.1531 -0.0556  0.3275
  920MPD2    C213464   0.840   2.573  10.619  1.0297  0.3013 -0.9998
  920MPD2    C313465   0.909   2.591  10.741  0.1769 -0.3635  0.8665
  920MPD2    C413466   0.957   2.715  10.777  0.0667  0.4531 -0.2237
  920MPD2    C513467   0.921   2.829  10.707 -0.1921  0.7008  0.7392
  920MPD2     H13468   0.798   2.476  10.593  0.6913  0.3550 -0.6566
  920MPD2    H113469   1.023   2.723  10.862  0.9841 -1.5703 -0.7525
  920MPD2    H213470   0.836   2.907  10.538 -1.4386 -1.4134 -1.8454
  920MPD2    H313471   0.963   2.928  10.723  0.9676  0.3207  0.0902
  920MPD2     N13472   0.952   2.469  10.803 -0.6483 -0.2611  0.3039
  920MPD2    H513473   0.905   2.384  10.774  2.7850 -1.6825 -1.0740
  920MPD2    N113474   0.745   2.672  10.425  0.0153 -0.5583  0.4185
  920MPD2    H713475   0.716   2.580  10.393 -0.5837 -0.2862  0.1809
  921MPD2     C13476   1.788   1.516  16.750  0.0354  0.8700  0.7856
  921MPD2    C113477   1.877   1.411  16.746  0.4089 -0.7555 -0.1843
  921MPD2    C213478   1.833   1.283  16.705 -0.0244 -0.0345 -0.3984
  921MPD2    C313479   1.709   1.266  16.659 -0.3406 -0.7497 -0.2161
  921MPD2    C413480   1.612   1.355  16.695 -0.1404  0.0031  0.5511
  921MPD2    C513481   1.652   1.479  16.741  0.1501 -0.4841  0.3937
  921MPD2     H13482   1.911   1.209  16.693  1.6709  1.9558 -1.6178
  921MPD2    H113483   1.508   1.331  16.675 -0.3629  1.5196 -0.0984
  921MPD2    H213484   1.820   1.616  16.777  1.8923  0.0360  1.6891
  921MPD2    H313485   1.578   1.555  16.758  1.0335  0.4371  0.1389
  921MPD2     N13486   1.664   1.141  16.598  0.0529 -0.2333 -0.3496
  921MPD2    H513487   1.573   1.160  16.556 -1.2191 -1.2704  1.9213
  921MPD2    N113488   2.015   1.439  16.764  0.0731  0.1052 -0.3578
  921MPD2    H713489   2.045   1.535  16.770 -0.0984  0.1832 -0.7310
  922MPD2     C13490   3.403   3.692  16.902 -0.2380 -0.1392 -0.3278
  922MPD2    C113491   3.375   3.719  17.034 -0.1856  0.5569 -0.5381
  922MPD2    C213492   3.259   3.668  17.093  0.2071  0.3304 -0.1037
  922MPD2    C313493   3.170   3.585  17.032 -0.1714 -0.5115 -0.2312
  922MPD2    C413494   3.192   3.570  16.895  0.3777 -0.5018  0.0893
  922MPD2    C513495   3.305   3.618  16.839  0.5823 -0.4149 -0.2437
  922MPD2     H13496   3.244   3.704  17.194 -0.9601  1.9665 -0.8676
  922MPD2    H113497   3.127   3.512  16.830 -0.1314  0.1222  0.0439
  922MPD2    H213498   3.486   3.738  16.850 -0.5045 -0.5145 -1.1029
  922MPD2    H313499   3.319   3.608  16.731 -0.5006 -1.3560 -0.2986
  922MPD2     N13500   3.055   3.538  17.105 -0.1425  0.0347 -0.2125
  922MPD2    H513501   3.043   3.571  17.200 -2.1944  0.3970 -0.6088
  922MPD2    N113502   3.463   3.796  17.113 -0.1642  0.0026  0.7397
  922MPD2    H713503   3.435   3.804  17.210 -0.4395 -0.2018  0.6746
  923MPD2     C13504   0.175   0.449   9.181 -0.4092 -0.4533 -0.5942
  923MPD2    C113505   0.165   0.583   9.194  0.0088  0.5385  0.6113
  923MPD2    C213506   0.169   0.640   9.323  0.0182 -0.5722 -0.2863
  923MPD2    C313507   0.204   0.556   9.429  0.4838  1.0685  0.6113
  923MPD2    C413508   0.204   0.424   9.409 -0.0650  0.3707  0.4517
  923MPD2    C513509   0.194   0.366   9.291  0.6661  0.1249 -0.0669
  923MPD2     H13510   0.165   0.747   9.335  2.0955 -0.4231 -0.9462
  923MPD2    H113511   0.224   0.362   9.496 -1.1128  0.7172  0.9429
  923MPD2    H213512   0.165   0.407   9.081 -1.0739 -2.4548  0.3275
  923MPD2    H313513   0.192   0.258   9.280 -0.4060  0.2122 -0.7017
  923MPD2     N13514   0.237   0.609   9.555 -0.7342 -0.4741  0.4606
  923MPD2    H513515   0.253   0.537   9.625  0.5756 -0.5137  0.1181
  923MPD2    N113516   0.130   0.662   9.082  0.1677 -0.2633  0.3815
  923MPD2    H713517   0.128   0.616   8.992 -3.0566 -0.9570  0.8146
  924MPD2     C13518   3.964   3.963  16.242 -0.0343  0.3936  0.0697
  924MPD2    C113519   3.962   4.038  16.358  0.1700  0.1659 -0.0750
  924MPD2    C213520   4.005   4.174  16.351 -0.4615  0.4792 -0.1292
  924MPD2    C313521   4.048   4.231  16.228  0.7823 -0.6025  0.1780
  924MPD2    C413522   4.040   4.152  16.118 -0.4914 -0.2638  0.0938
  924MPD2    C513523   4.002   4.019  16.120 -0.1770  0.1400 -0.6715
  924MPD2     H13524   4.014   4.230  16.443  0.5534  0.1752 -0.0351
  924MPD2    H113525   4.060   4.190  16.018  0.8149 -2.0354 -0.3044
  924MPD2    H213526   3.932   3.860  16.234 -0.2580  0.4243  0.6153
  924MPD2    H313527   4.002   3.960  16.030  0.3570  1.0415 -1.2594
  924MPD2     N13528   4.097   4.360  16.216 -0.5865  0.2906  0.2645
  924MPD2    H513529   4.109   4.380  16.117  1.2296 -0.2336  0.3829
  924MPD2    N113530   3.914   3.999  16.484 -0.6042  0.6312  0.7898
  924MPD2    H713531   3.942   4.061  16.560  0.0695 -1.2967  2.1133
  925MPD2     C13532   2.976   1.294  14.700  0.1431 -0.2217 -0.5971
  925MPD2    C113533   2.838   1.303  14.693  0.7681 -0.8490  0.1308
  925MPD2    C213534   2.764   1.303  14.806  0.2576 -0.1525 -0.4044
  925MPD2    C313535   2.819   1.288  14.930 -0.0285  0.7357  0.9662
  925MPD2    C413536   2.955   1.264  14.937 -0.0228  0.4225 -0.8206
  925MPD2    C513537   3.034   1.268  14.821 -0.2430 -0.0824 -0.0304
  925MPD2     H13538   2.660   1.333  14.800  0.4192  0.2351 -1.4071
  925MPD2    H113539   3.000   1.248  15.035  0.2841 -0.8653 -1.1801
  925MPD2    H213540   3.040   1.294  14.612 -0.8987  0.4746 -1.3454
  925MPD2    H313541   3.142   1.264  14.837 -0.4360 -1.8483  0.8244
  925MPD2     N13542   2.742   1.298  15.052 -0.4462  0.5428  0.5485
  925MPD2    H513543   2.801   1.299  15.134 -1.6347 -1.9415  1.4300
  925MPD2    N113544   2.791   1.355  14.565 -0.1232  0.2554  0.0782
  925MPD2    H713545   2.861   1.379  14.496 -0.2923 -0.8254 -0.4725
  926MPD2     C13546   1.796   4.501  13.219  0.3624 -0.5206 -0.1179
  926MPD2    C113547   1.700   4.595  13.189  0.5696 -0.6650 -0.4979
  926MPD2    C213548   1.723   4.709  13.113 -0.2279  0.1336  0.9811
  926MPD2    C313549   1.856   0.003  13.068  1.0382 -0.6623 -0.2654
  926MPD2    C413550   1.942   4.618  13.076 -0.4327  0.2401 -0.1693
  926MPD2    C513551   1.927   4.512  13.161 -0.5433  0.2577  0.6788
  926MPD2     H13552   1.647   0.064  13.093  0.1903  0.3255  0.0741
  926MPD2    H113553   2.032   4.621  13.015 -1.0625  1.5362 -1.0378
  926MPD2    H213554   1.778   4.410  13.275 -0.0372 -0.4290 -0.1039
  926MPD2    H313555   1.997   4.431  13.177  0.2085  0.7999  0.0628
  926MPD2     N13556   1.915   0.113  12.999  0.5745  0.4800 -0.2871
  926MPD2    H513557   2.011   0.104  12.967  1.0344  1.1834  0.8935
  926MPD2    N113558   1.580   4.590  13.260  0.3922 -0.2062  0.3574
  926MPD2    H713559   1.507   4.657  13.235  1.2973 -0.3231 -2.5830
  927MPD2     C13560   1.351   2.121   0.365  0.2495 -0.1170 -0.1090
  927MPD2    C113561   1.226   2.091   0.324 -0.4265  0.3675 -0.4920
  927MPD2    C213562   1.200   2.103   0.185  0.9322 -0.1674  0.3124
  927MPD2    C313563   1.286   2.174   0.097 -0.2558 -0.4603 -0.1136
  927MPD2    C413564   1.398   2.227   0.148 -0.1227 -0.4783 -0.6146
  927MPD2    C513565   1.436   2.189   0.275  0.0810 -0.2467 -0.0249
  927MPD2     H13566   1.103   2.074   0.145  0.4976 -3.1618  3.5222
  927MPD2    H113567   1.467   2.288   0.092 -1.1631 -0.6417 -2.0743
  927MPD2    H213568   1.395   2.084   0.457  0.6090  1.8750  0.5432
  927MPD2    H313569   1.538   2.201   0.309 -0.8346  0.7326  2.4040
  927MPD2     N13570   1.251   2.190  17.644  0.6346  0.1349 -0.3408
  927MPD2    H513571   1.170   2.138  17.612 -1.3678  1.4027  2.6840
  927MPD2    N113572   1.137   2.035   0.424 -0.2479  0.1896 -0.0559
  927MPD2    H713573   1.182   2.002   0.509  0.8274  2.1380  0.1524
  928MPD2     C13574   3.983   0.389   0.430 -0.0807 -0.7584 -0.4932
  928MPD2    C113575   3.923   0.451   0.533  0.2997 -1.1881  0.5890
  928MPD2    C213576   3.880   0.585   0.517 -0.3522  0.3674  0.2663
  928MPD2    C313577   3.895   0.643   0.393  0.1112 -0.3633 -0.7947
  928MPD2    C413578   3.946   0.569   0.290  0.6426 -0.2732 -0.1424
  928MPD2    C513579   3.988   0.445   0.305  0.4067 -0.1388  0.7619
  928MPD2     H13580   3.843   0.644   0.601 -0.1076  0.7454  0.1106
  928MPD2    H113581   3.954   0.601   0.187  1.9173  0.6655  0.2379
  928MPD2    H213582   4.011   0.284   0.433  2.3351 -0.1445 -2.1834
  928MPD2    H313583   4.026   0.397   0.215 -2.6961 -0.0251 -0.6069
  928MPD2     N13584   3.855   0.777   0.345 -0.4796  0.2564 -0.0773
  928MPD2    H513585   3.855   0.800   0.247  1.7857 -1.9417 -0.5679
  928MPD2    N113586   3.917   0.388   0.661 -0.2611 -0.3860  0.3118
  928MPD2    H713587   3.949   0.292   0.650  0.8441  0.2686 -2.2843
  929MPD2     C13588   3.748   1.050   9.418 -0.8073  0.5962  0.4229
  929MPD2    C113589   3.732   0.942   9.504 -0.0639 -0.1802 -0.1738
  929MPD2    C213590   3.686   0.969   9.631  0.2568 -0.0764  0.9637
  929MPD2    C313591   3.650   1.097   9.673  0.6240  0.0382 -0.2585
  929MPD2    C413592   3.657   1.199   9.578 -0.7762 -0.7565  0.1243
  929MPD2    C513593   3.706   1.177   9.449  0.1247 -0.5309  0.3206
  929MPD2     H13594   3.688   0.886   9.701 -0.5145  0.1749  1.2869
  929MPD2    H113595   3.634   1.301   9.610  1.5296  0.1114 -1.0196
  929MPD2    H213596   3.787   1.034   9.318 -0.3555  1.6616  0.4292
  929MPD2    H313597   3.721   1.253   9.373  1.0442  1.2164  2.2650
  929MPD2     N13598   3.616   1.126   9.807  0.5589  0.3565 -0.3038
  929MPD2    H513599   3.603   1.223   9.834  2.4161  0.5526 -0.1217
  929MPD2    N113600   3.766   0.813   9.459  0.2260 -0.2620 -0.1099
  929MPD2    H713601   3.780   0.789   9.361  1.0125 -0.2845  0.0123
  930MPD2     C13602   0.918   3.271  13.614  0.2841 -0.2163 -0.4930
  930MPD2    C113603   1.050   3.240  13.632  0.1060  0.2402  0.7540
  930MPD2    C213604   1.112   3.138  13.555 -0.0655 -0.8884 -0.0204
  930MPD2    C313605   1.031   3.084  13.451 -0.3606 -0.5231  0.1061
  930MPD2    C413606   0.896   3.114  13.436  0.3115 -0.1977 -0.5678
  930MPD2    C513607   0.840   3.212  13.519 -0.2007  1.2866  0.1391
  930MPD2     H13608   1.218   3.117  13.557  0.6230  2.6395  0.3869
  930MPD2    H113609   0.837   3.072  13.356 -1.4497  1.6249 -0.2152
  930MPD2    H213610   0.865   3.342  13.676  1.0816  2.4234 -2.8789
  930MPD2    H313611   0.736   3.241  13.510 -0.2632  0.5490 -1.6479
  930MPD2     N13612   1.100   3.013  13.350 -0.4340 -0.0709  0.1920
  930MPD2    H513613   1.061   3.015  13.256  1.5172 -0.9906 -0.6467
  930MPD2    N113614   1.120   3.313  13.729  0.6407  0.5724 -0.3153
  930MPD2    H713615   1.078   3.401  13.757 -3.5532 -1.4111 -0.4515
  931MPD2     C13616   1.413   1.691   0.846 -0.0470 -0.0194 -0.3150
  931MPD2    C113617   1.275   1.673   0.867 -0.9386 -0.0617 -0.4345
  931MPD2    C213618   1.241   1.569   0.956  0.1689 -0.2920 -0.2535
  931MPD2    C313619   1.335   1.485   1.014 -0.0831 -0.2960  0.1971
  931MPD2    C413620   1.471   1.515   0.987 -0.6314 -0.2049 -0.4205
  931MPD2    C513621   1.507   1.623   0.911  0.1947 -0.3500  0.2111
  931MPD2     H13622   1.137   1.538   0.965 -0.4163  1.8584  0.2940
  931MPD2    H113623   1.550   1.461   1.037 -0.4830 -0.8500 -1.3507
  931MPD2    H213624   1.456   1.769   0.785 -0.6283 -1.2766 -2.3536
  931MPD2    H313625   1.611   1.647   0.893  0.4504 -0.0889  2.0743
  931MPD2     N13626   1.306   1.382   1.100  0.1839  0.0760  0.4354
  931MPD2    H513627   1.384   1.338   1.147 -1.3152  0.2581  3.0868
  931MPD2    N113628   1.174   1.741   0.793  0.0617 -0.5835 -0.1165
  931MPD2    H713629   1.213   1.811   0.731 -0.7908 -1.7266 -1.9616
  932MPD2     C13630   2.808   1.658  11.528 -0.8740 -0.7409 -0.5925
  932MPD2    C113631   2.801   1.732  11.641 -0.2579  0.1383  1.1278
  932MPD2    C213632   2.787   1.669  11.764  0.0985  0.2183  0.5831
  932MPD2    C313633   2.766   1.535  11.765 -0.2880 -0.4351 -0.2849
  932MPD2    C413634   2.763   1.465  11.646 -0.1506  0.1432 -0.2680
  932MPD2    C513635   2.800   1.524  11.529  0.9816 -0.3492  0.2783
  932MPD2     H13636   2.805   1.737  11.847 -0.9147  1.7408 -0.4523
  932MPD2    H113637   2.735   1.360  11.644  1.0484 -0.1721 -0.4786
  932MPD2    H213638   2.825   1.713  11.436 -1.2012  0.5735  0.1229
  932MPD2    H313639   2.809   1.463  11.441 -3.0991 -0.1437 -0.2615
  932MPD2     N13640   2.732   1.468  11.884 -0.0732  0.4533  0.5120
  932MPD2    H513641   2.686   1.378  11.870  1.7422 -0.2302 -1.0506
  932MPD2    N113642   2.819   1.873  11.646  0.0620 -0.6587 -0.4258
  932MPD2    H713643   2.825   1.913  11.739 -0.5226 -1.0464 -0.2247
  933MPD2     C13644   3.945   0.119   1.536 -0.0428 -0.5853 -0.0087
  933MPD2    C113645   3.890   0.218   1.465 -0.0570  0.6503  0.3132
  933MPD2    C213646   3.817   0.317   1.546  0.4449  0.1866 -0.0288
  933MPD2    C313647   3.807   0.310   1.683 -0.5824  0.9225 -0.1674
  933MPD2    C413648   3.872   0.208   1.747  0.2359  0.3249  0.4221
  933MPD2    C513649   3.937   0.112   1.677 -0.0417  0.0941 -0.8741
  933MPD2     H13650   3.765   0.398   1.496 -1.0278 -1.2789 -0.8869
  933MPD2    H113651   3.866   0.193   1.854  0.0666  2.0517  0.6597
  933MPD2    H213652   3.998   0.036   1.491  0.4985  0.4772 -1.3351
  933MPD2    H313653   3.975   0.031   1.738  1.1446  1.3425  0.0322
  933MPD2     N13654   3.737   0.415   1.744  0.5879  0.0815  0.3367
  933MPD2    H513655   3.712   0.492   1.683  0.0375 -0.9082 -0.6792
  933MPD2    N113656   3.895   0.213   1.324  1.3670 -0.2195 -0.3843
  933MPD2    H713657   3.927   0.124   1.288 -0.0288 -0.4620 -1.0313
  934MPD2     C13658   1.394   2.515   1.355  0.3994  0.5914  0.9540
  934MPD2    C113659   1.350   2.628   1.290 -0.1090  0.1741 -0.1182
  934MPD2    C213660   1.218   2.670   1.316  0.4599  0.5140  0.0052
  934MPD2    C313661   1.134   2.589   1.395  0.5410 -0.4693 -0.2252
  934MPD2    C413662   1.178   2.470   1.445 -0.2350  0.6797 -0.5209
  934MPD2    C513663   1.307   2.435   1.425 -0.2694 -0.0992  1.0058
  934MPD2     H13664   1.174   2.750   1.259  1.6333  2.4752  1.8679
  934MPD2    H113665   1.116   2.410   1.511  0.5447 -1.6663 -1.9285
  934MPD2    H213666   1.489   2.468   1.335 -0.7319 -1.1975 -0.1356
  934MPD2    H313667   1.348   2.339   1.453  0.4853  0.0374  0.3878
  934MPD2     N13668   1.003   2.625   1.414  0.3587  0.5897 -0.0697
  934MPD2    H513669   0.943   2.548   1.442 -0.6104  1.0582 -0.8557
  934MPD2    N113670   1.426   2.699   1.188 -0.5450  0.3422  0.0089
  934MPD2    H713671   1.382   2.785   1.159  1.3178  2.0601  2.2446
  935MPD2     C13672   0.266   2.203   1.181  0.3599  0.6692  0.4323
  935MPD2    C113673   0.234   2.287   1.283 -0.4934 -0.1933  0.1594
  935MPD2    C213674   0.326   2.367   1.338 -0.1320  0.4292 -1.1028
  935MPD2    C313675   0.458   2.363   1.300  0.5460 -1.2859 -0.7693
  935MPD2    C413676   0.496   2.287   1.188  0.0283 -0.0166 -0.4176
  935MPD2    C513677   0.393   2.219   1.126  0.3841  0.4073  0.1929
  935MPD2     H13678   0.293   2.439   1.412 -2.5275 -2.2553  0.4535
  935MPD2    H113679   0.595   2.286   1.142 -1.5081  2.8730 -3.7461
  935MPD2    H213680   0.197   2.137   1.130  1.8220 -0.0970 -0.5555
  935MPD2    H313681   0.419   2.160   1.039  0.0134 -0.2829  0.5518
  935MPD2     N13682   0.557   2.452   1.358  0.1452  0.0651  0.4377
  935MPD2    H513683   0.643   2.459   1.305  0.7011  1.5040  1.5344
  935MPD2    N113684   0.104   2.277   1.344  0.0435 -0.9588  0.5529
  935MPD2    H713685   0.052   2.203   1.297  0.9925 -0.9779 -0.4568
  936MPD2     C13686   3.812   4.711  11.918 -0.2427  0.5096 -0.8632
  936MPD2    C113687   3.855   4.705  12.046  0.1151  0.9415 -0.1928
  936MPD2    C213688   3.893   0.095  12.118 -0.3394  0.1861  0.0262
  936MPD2    C313689   3.888   0.214  12.058  0.3514  0.4601 -1.1185
  936MPD2    C413690   3.852   0.222  11.929 -0.4340  0.2098  0.0245
  936MPD2    C513691   3.805   0.114  11.863  0.1032 -0.2562  0.3777
  936MPD2     H13692   3.918   0.096  12.224 -0.9875  0.0116  0.1813
  936MPD2    H113693   3.867   0.311  11.870 -4.4992  0.9573  0.1386
  936MPD2    H213694   3.786   4.619  11.866  0.2348  0.9996 -1.9515
  936MPD2    H313695   3.755   0.130  11.768 -1.9502 -1.6880  1.2076
  936MPD2     N13696   3.924   0.323  12.145  0.2572 -0.2103 -0.0413
  936MPD2    H513697   3.934   0.301  12.244  2.4801  0.4006 -0.1374
  936MPD2    N113698   3.854   4.578  12.113  0.3851 -0.5850  0.3986
  936MPD2    H713699   3.880   4.590  12.211 -0.3820  0.5142  0.4702
  937MPD2     C13700   1.479   1.375  11.678  0.2513 -0.4514 -0.1693
  937MPD2    C113701   1.408   1.490  11.633  0.4128 -0.4284 -0.0404
  937MPD2    C213702   1.446   1.532  11.507 -0.0701 -0.4750  0.4058
  937MPD2    C313703   1.528   1.461  11.425 -0.1037  0.2425 -0.2142
  937MPD2    C413704   1.565   1.335  11.462  0.2462  0.4212 -0.0621
  937MPD2    C513705   1.539   1.289  11.588 -0.0464 -0.7477  0.4291
  937MPD2     H13706   1.406   1.622  11.461 -1.7305 -1.3687  0.1160
  937MPD2    H113707   1.620   1.274  11.391 -0.6393  0.4234 -0.7536
  937MPD2    H213708   1.475   1.334  11.778  2.2259  1.2587  0.6125
  937MPD2    H313709   1.588   1.196  11.616  2.4954  0.2265 -0.8084
  937MPD2     N13710   1.572   1.494  11.299 -0.1619  0.1953 -0.9319
  937MPD2    H513711   1.634   1.433  11.247  0.3293  0.4552 -0.6453
  937MPD2    N113712   1.365   1.584  11.724 -0.0316 -0.2819 -0.0643
  937MPD2    H713713   1.328   1.672  11.690 -0.8762 -0.1821  1.1001
  938MPD2     C13714   4.357   2.686   1.676  0.2278  0.3210 -0.5203
  938MPD2    C113715   4.301   2.754   1.569 -0.5391  0.1209  0.4152
  938MPD2    C213716   4.165   2.744   1.547 -0.6529 -0.2880 -0.1948
  938MPD2    C313717   4.088   2.658   1.620  0.5454 -0.2109 -0.2308
  938MPD2    C413718   4.148   2.583   1.716 -0.7960  0.2640  0.8783
  938MPD2    C513719   4.280   2.598   1.742 -0.7083 -0.0133 -0.0180
  938MPD2     H13720   4.125   2.795   1.460  0.2284  1.8230  0.6407
  938MPD2    H113721   4.091   2.503   1.762 -1.8029 -1.1452 -2.7944
  938MPD2    H213722   4.463   2.681   1.697  0.2119 -1.6204 -0.8828
  938MPD2    H313723   4.335   2.534   1.810 -1.9847 -2.2182 -1.0551
  938MPD2     N13724   3.948   2.647   1.600 -0.4473 -0.5231 -0.4146
  938MPD2    H513725   3.910   2.562   1.640 -0.7965  0.0291  0.4308
  938MPD2    N113726   4.381   2.832   1.482 -0.5067  0.0023  0.1180
  938MPD2    H713727   4.339   2.868   1.397  2.0420 -2.5710 -2.2256
  939MPD2     C13728   1.710   3.878   1.276 -0.1869 -0.6180  0.0022
  939MPD2    C113729   1.607   3.802   1.228 -0.7998 -0.8530 -0.0224
  939MPD2    C213730   1.557   3.838   1.105  0.0635 -0.7513  0.1723
  939MPD2    C313731   1.601   3.951   1.036 -0.3342  0.2113 -0.4471
  939MPD2    C413732   1.707   4.029   1.088  0.5491  0.3618  0.1402
  939MPD2    C513733   1.759   3.984   1.201  0.1255  0.1485  0.5211
  939MPD2     H13734   1.478   3.786   1.052  0.4175 -0.1684 -0.9209
  939MPD2    H113735   1.738   4.120   1.038 -0.0191  1.2848  1.4939
  939MPD2    H213736   1.766   3.860   1.368  0.7801  2.2511 -0.0119
  939MPD2    H313737   1.840   4.046   1.239  0.7915 -0.4565  0.0899
  939MPD2     N13738   1.545   3.978   0.910  0.6641  0.1602  0.2430
  939MPD2    H513739   1.478   3.910   0.875 -0.0321  1.4559 -0.9659
  939MPD2    N113740   1.568   3.684   1.293 -0.1920  0.5821  0.1559
  939MPD2    H713741   1.631   3.652   1.366 -2.1263 -0.6566  1.2914
  940MPD2     C13742   0.027   0.284  13.437 -0.3654  0.0617  1.2257
  940MPD2    C113743   4.637   0.228  13.375 -0.0992 -0.2039 -0.1885
  940MPD2    C213744   4.629   0.237  13.236  0.0992  0.5383 -0.0610
  940MPD2    C313745   0.010   0.306  13.165 -0.6961 -0.6914  0.3520
  940MPD2    C413746   0.118   0.358  13.230 -0.5265 -0.3851  0.6924
  940MPD2    C513747   0.131   0.339  13.365  0.5527 -0.2261  0.1651
  940MPD2     H13748   4.540   0.201  13.185 -0.3581  0.9725  0.4328
  940MPD2    H113749   0.200   0.409  13.181 -0.2324 -0.0043  1.5769
  940MPD2    H213750   0.034   0.267  13.544 -2.0898 -0.2792  1.2822
  940MPD2    H313751   0.223   0.382  13.404 -0.2966 -0.8573  2.8549
  940MPD2     N13752   0.008   0.348  13.029  0.3687 -0.0760  0.1669
  940MPD2    H513753   0.083   0.407  12.993 -0.0669  0.4232  0.0869
  940MPD2    N113754   4.557   0.153  13.466 -0.2993  0.1126 -0.1076
  940MPD2    H713755   4.576   0.155  13.566  0.0897  0.0200 -0.1812
  941MPD2     C13756   3.456   3.486   9.270  0.6600 -0.5570  0.4928
  941MPD2    C113757   3.467   3.459   9.403 -0.1225  0.2204 -0.3588
  941MPD2    C213758   3.380   3.363   9.454  0.0448 -0.6302  0.0401
  941MPD2    C313759   3.274   3.324   9.378 -0.0430  0.3289 -0.1330
  941MPD2    C413760   3.268   3.360   9.249  0.0164 -0.6638 -0.0334
  941MPD2    C513761   3.355   3.444   9.195  0.2727 -0.1380 -0.0440
  941MPD2     H13762   3.383   3.342   9.560 -1.8607  2.1378  0.6374
  941MPD2    H113763   3.190   3.316   9.188  0.1916  0.0766 -0.7921
  941MPD2    H213764   3.523   3.552   9.215  0.8029 -0.2684  1.0093
  941MPD2    H313765   3.356   3.474   9.091  0.2949 -1.0476 -0.3040
  941MPD2     N13766   3.172   3.231   9.413  0.2385  0.2303 -0.0088
  941MPD2    H513767   3.096   3.215   9.347 -1.5563  0.1340  2.0660
  941MPD2    N113768   3.554   3.524   9.492  0.3060 -0.0248  0.3951
  941MPD2    H713769   3.569   3.488   9.585 -0.6937 -0.2572  0.4683
  942MPD2     C13770   4.112   0.294   8.981  0.0016 -0.7096 -0.3475
  942MPD2    C113771   4.222   0.258   9.055  0.1903  0.0914 -0.4917
  942MPD2    C213772   4.305   0.357   9.100 -0.2214  0.1374  0.0392
  942MPD2    C313773   4.275   0.491   9.084  1.0714  0.2741 -0.0627
  942MPD2    C413774   4.166   0.521   8.998 -0.5885 -0.4894 -0.3772
  942MPD2    C513775   4.094   0.422   8.948 -0.1299  0.5516  0.1501
  942MPD2     H13776   4.393   0.328   9.155 -1.1309 -1.0824  0.8736
  942MPD2    H113777   4.149   0.621   8.962 -0.1746  0.6540  2.6187
  942MPD2    H213778   4.041   0.220   8.945 -0.3913 -0.1135 -0.8011
  942MPD2    H313779   4.010   0.451   8.885  0.9962  2.5502 -0.4544
  942MPD2     N13780   4.348   0.593   9.149 -0.2868  0.9953 -0.0056
  942MPD2    H513781   4.304   0.685   9.150 -3.2458 -0.4277  0.0234
  942MPD2    N113782   4.257   0.125   9.089 -0.4959 -0.2374  0.1221
  942MPD2    H713783   4.352   0.117   9.125 -1.0574  0.9270  1.9086
  943MPD2     C13784   2.182   4.580   9.611 -0.1684 -0.6401 -0.2709
  943MPD2    C113785   2.080   4.495   9.614 -0.3869  0.8334  0.2964
  943MPD2    C213786   1.953   4.524   9.566  0.1271  0.2274 -0.4432
  943MPD2    C313787   1.922   4.641   9.507 -0.1778 -0.2139 -0.6067
  943MPD2    C413788   2.031   0.009   9.506  1.0679  0.0771  0.3863
  943MPD2    C513789   2.156   4.703   9.557 -0.6969 -0.7233  0.2830
  943MPD2     H13790   1.875   4.451   9.583 -0.8619  1.4675  0.3091
  943MPD2    H113791   2.015   0.110   9.471  1.0544 -0.6223 -1.6721
  943MPD2    H213792   2.272   4.561   9.668 -0.3979  0.8378  0.6066
  943MPD2    H313793   2.230   0.062   9.572 -1.5322  0.2295 -0.6068
  943MPD2     N13794   1.792   4.681   9.459  0.2526  0.4923 -0.2359
  943MPD2    H513795   1.780   0.060   9.439 -0.4594  0.8144  1.8269
  943MPD2    N113796   2.111   4.371   9.664 -0.5924  0.0325 -0.0719
  943MPD2    H713797   2.206   4.362   9.700  0.9566 -0.9044 -4.4117
  944MPD2     C13798   1.795   2.430  11.169  0.6863 -0.0970  0.7808
  944MPD2    C113799   1.839   2.548  11.106 -0.0076 -0.0664  0.3574
  944MPD2    C213800   1.863   2.658  11.193  0.0644  0.0066  0.6656
  944MPD2    C313801   1.842   2.661  11.326  0.0230  0.2020  0.1831
  944MPD2    C413802   1.791   2.551  11.378  0.1102  0.8814  0.4457
  944MPD2    C513803   1.765   2.442  11.303 -0.4243  0.4426 -0.6580
  944MPD2     H13804   1.896   2.750  11.147 -1.8181  1.0951  1.4721
  944MPD2    H113805   1.757   2.540  11.480 -2.3883 -1.4326 -0.6545
  944MPD2    H213806   1.782   2.337  11.115 -0.8296 -0.1165  1.1920
  944MPD2    H313807   1.736   2.360  11.367  1.8957  0.6351  0.6606
  944MPD2     N13808   1.860   2.782  11.402  0.2806  0.4170  0.7582
  944MPD2    H513809   1.870   2.868  11.350  2.1699  0.4377  1.1751
  944MPD2    N113810   1.863   2.543  10.966  0.1466 -0.2858  0.7287
  944MPD2    H713811   1.836   2.458  10.918 -0.2390 -0.4531  1.2517
    1TCq1    O113812   3.767   3.935  15.182 -0.4024 -0.2910 -0.3093
    1TCq1    C113813   3.863   3.884  15.265 -0.6742  0.0490  0.1633
    1TCq1    O213814   3.867   3.768  15.305 -0.2120  0.4169  0.7212
    1TCq1    C213815   3.987   3.964  15.251 -0.5008 -0.1889 -0.6393
    1TCq1    C313816   4.105   3.900  15.250  0.3582 -0.0152  0.5253
    1TCq1    C413817   4.219   3.980  15.236 -0.3977  0.4916  0.0977
    1TCq1    C513818   4.212   4.113  15.213  0.0225 -0.0685 -0.6134
    1TCq1    C613819   4.084   4.166  15.219  0.3134 -0.8445  0.2126
    1TCq1    C713820   3.972   4.095  15.243  0.1089  0.7041  0.5788
    1TCq1    C813821   4.079   4.309  15.203 -0.2220 -0.4464 -1.0372
    1TCq1    O413822   3.976   4.358  15.245 -0.3490 -0.1695 -0.3147
    1TCq1    C913823   4.349   3.920  15.229 -0.6503 -0.6813 -0.2226
    1TCq1    O513824   4.444   4.003  15.209 -0.4322 -0.0228 -0.2837
    1TCq1    O613825   4.361   3.798  15.256  0.5147  0.1224 -0.2692
    1TCq1    H113826   3.780   4.019  15.133 -2.7061 -0.4387 -1.1880
    1TCq1    H213827   4.110   3.793  15.263 -1.9003 -0.2116 -0.1670
    1TCq1    H313828   4.297   4.178  15.192  0.9431 -0.9012  0.6038
    1TCq1    H413829   3.871   4.135  15.247 -0.7102 -1.2910 -0.1086
    2MPD2     C13830   4.221   0.017  14.984 -0.0322 -0.3305 -0.5466
    2MPD2    C113831   4.281   4.633  14.913 -1.0243 -0.1227  0.1655
    2MPD2    C213832   4.255   4.510  14.963  0.4106 -1.0197 -0.0791
    2MPD2    C313833   4.179   4.488  15.070  0.2104 -0.5712 -0.2379
    2MPD2    C413834   4.119   4.584  15.135 -0.4048 -0.2220  0.1954
    2MPD2    C513835   4.138   4.713  15.093  0.6321  0.3859 -0.8272
    2MPD2     H13836   4.301   4.424  14.916  1.9673  0.2139 -0.8264
    2MPD2    H113837   4.085   4.562  15.236  1.2744 -0.5159  0.7060
    2MPD2    H213838   4.238   0.121  14.961 -0.5920 -0.8012 -3.1010
    2MPD2    H313839   4.102   0.084  15.140  1.7910  0.5541 -0.2598
    2MPD2     N13840   4.166   4.354  15.103 -0.4863  0.1929 -0.0097
    2MPD2    H513841   4.208   4.283  15.044 -1.1599  1.1173 -1.5935
    2MPD2    N113842   4.354   4.660  14.797  0.1251  0.4556 -0.0925
    2MPD2    H713843   4.356   0.037  14.766 -0.1349  1.3156  2.5391
    3TMC2    C113844   4.523   4.618  14.640 -0.6831 -0.5773  0.1190
    3TMC2    C213845   4.630   4.543  14.606 -0.2550 -0.0558 -0.1726
    3TMC2    C313846   4.702   4.586  14.495 -1.0223 -0.4086  0.1272
    3TMC2    C413847   4.482   0.000  14.558 -0.0629  0.4548 -0.1613
    3TMC2    C513848   4.552   0.038  14.448  0.0440 -0.1861  0.1421
    3TMC2    C613849   4.669   4.691  14.412  0.3466  0.6765  0.1731
    3TMC2     C13850   4.441   4.562  14.747  0.5343  0.0034 -0.6403
    3TMC2     O13851   4.479   4.452  14.788 -0.1275 -0.4398 -0.5287
    3TMC2     H13852   4.668   4.460  14.665  0.4493 -0.4245 -1.1649
    3TMC2    H113853   4.402   0.064  14.595  0.5751  0.8432  0.5632
    3TMC2    H213854   0.004   0.004  14.324  1.3243 -1.3316  0.0271
    3TMC2    C713855   4.540   0.177  14.414  0.2281 -0.2529  0.0727
    3TMC2    C813856   0.101   4.503  14.471  0.2861 -0.5420 -0.0193
    3TMC2    O113857   4.513   0.248  14.506  0.1970  0.8204  0.0207
    3TMC2    O213858   0.109   4.390  14.514  0.1846  0.2314  0.0250
    3TMC2    O513859   0.193   4.573  14.406  0.0505 -0.0252 -0.0450
    3TMC2    H513860   0.186   4.670  14.404 -2.3216 -0.2423 -1.5496
    4MPD2     C13861   4.423   0.592  12.983  0.2904 -0.0009 -0.5868
    4MPD2    C113862   4.405   0.524  13.101 -0.0337  0.0546  0.2165
    4MPD2    C213863   4.485   0.555  13.208  0.5646 -0.3413 -0.0500
    4MPD2    C313864   4.589   0.649  13.197  0.3237  0.4683 -1.2979
    4MPD2    C413865   4.610   0.714  13.072  0.2409 -0.5462  0.0652
    4MPD2    C513866   4.524   0.681  12.971  0.0126 -0.2818 -0.3518
    4MPD2     H13867   4.471   0.487  13.291 -0.3994  0.7601  0.6856
    4MPD2    H113868   4.684   0.792  13.059  0.3622 -0.6329  0.2322
    4MPD2    H213869   4.355   0.566  12.903 -0.2441 -0.4448  0.0107
    4MPD2    H313870   4.537   0.736  12.879  1.0047 -0.3934 -0.2819
    4MPD2     N13871   4.671   0.677  13.313  0.1819  0.2593 -0.1920
    4MPD2    H513872   0.043   0.717  13.293  0.1735 -0.1425 -1.0461
    4MPD2    N113873   4.291   0.429  13.107 -0.5047  0.1320  0.1386
    4MPD2    H713874   4.231   0.426  13.025 -0.6844  0.4632  0.2587
    5TCq2    C113875   4.635   0.641  13.438 -0.1674  0.0731 -0.2031
    5TCq2    O213876   4.518   0.630  13.476 -0.0099  0.2542  0.4268
    5TCq2    C213877   0.026   0.636  13.539  0.0628 -0.4444  0.6659
    5TCq2    C313878   0.160   0.629  13.502 -0.1624  0.2992 -0.0369
    5TCq2    C413879   0.253   0.573  13.586  0.1263  0.4483 -0.5509
    5TCq2    C513880   0.222   0.532  13.708  0.0438 -0.4114 -0.2303
    5TCq2    C613881   0.091   0.550  13.752 -0.0853  0.6111 -0.2601
    5TCq2    C713882   4.709   0.591  13.665 -0.4361 -0.0437  0.6568
    5TCq2    C813883   0.056   0.476  13.869 -0.4909 -0.5576  0.2470
    5TCq2    O413884   0.138   0.400  13.924  0.5647 -0.3145 -0.2216
    5TCq2    C913885   0.388   0.558  13.535  0.2883 -0.3254  0.1653
    5TCq2    O513886   0.408   0.600  13.420 -0.5881  0.2073  0.5117
    5TCq2    O613887   0.453   0.470  13.595 -0.2141  0.0709 -0.0159
    5TCq2    H213888   0.191   0.663  13.404  1.9603 -1.9531 -0.1734
    5TCq2    H313889   0.300   0.484  13.766 -0.9853  0.8173  2.1729
    5TCq2    H413890   4.609   0.555  13.686  0.9414 -3.9994  0.3482
    6MPD1     C13891   3.549   1.794  12.571 -0.0568  0.2129  0.1780
    6MPD1    C113892   3.585   1.766  12.705 -0.4889  1.0450 -0.2880
    6MPD1    C213893   3.616   1.643  12.753 -0.1817  1.3796  0.1096
    6MPD1    C313894   3.624   1.532  12.664  0.4496  1.0210  1.2362
    6MPD1    C413895   3.600   1.563  12.531  0.3106 -0.0354 -0.0454
    6MPD1    C513896   3.560   1.689  12.487 -0.1785 -0.1604 -0.7969
    6MPD1     H13897   3.629   1.635  12.861  0.5718 -0.8134 -0.1501
    6MPD1    H113898   3.607   1.490  12.451  3.5270 -0.3118  0.4958
    6MPD1    H213899   3.514   1.892  12.543 -0.5562 -0.9184 -3.1315
    6MPD1    H313900   3.541   1.715  12.384 -1.0582 -2.8943 -1.3270
    6MPD1     N13901   3.654   1.400  12.703  0.3485  0.0235 -0.0556
    6MPD1    H513902   3.661   1.333  12.626  0.4270 -0.6103  0.5053
    6MPD1    N113903   3.555   1.865  12.805  0.3955  0.6642  0.2272
    6MPD1    H613904   3.560   1.961  12.773 -0.3545  1.3364  2.1499
    6MPD1    H713905   3.602   1.858  12.895  2.2590  0.0606 -0.7765
    7MPD2     C13906   3.438   0.699  13.132  0.0631  0.4580 -0.8673
    7MPD2    C113907   3.570   0.721  13.163 -0.1011 -0.4771 -0.1916
    7MPD2    C213908   3.644   0.612  13.201 -0.2358 -0.1676  1.7006
    7MPD2    C313909   3.590   0.483  13.199 -0.0340  0.4768 -0.4927
    7MPD2    C413910   3.461   0.463  13.171 -0.2263  0.3671 -0.0725
    7MPD2    C513911   3.386   0.573  13.128  0.2078 -0.0780 -0.1114
    7MPD2     H13912   3.751   0.621  13.217 -0.1554 -0.5739  1.4083
    7MPD2    H113913   3.425   0.362  13.159 -0.8252  0.6040 -0.2903
    7MPD2    H213914   3.374   0.780  13.098 -0.4377 -0.5476 -2.3442
    7MPD2    H313915   3.286   0.556  13.090 -0.1138  1.4237  0.0288
    7MPD2     N13916   3.673   0.366  13.212  0.0479  0.6923  0.4077
    7MPD2    H513917   3.639   0.281  13.168  1.3790  1.4028 -1.9465
    7MPD2    N113918   3.634   0.839  13.136 -0.2906 -0.0997  0.3351
    7MPD2    H713919   3.735   0.837  13.151  0.0117  0.8619 -1.6878
    8TMC3    C113920   3.897   0.259  13.216  0.0363 -0.3634  0.1339
    8TMC3    C213921   4.028   0.267  13.263 -0.3479 -0.2384 -0.0293
    8TMC3    C313922   4.138   0.267  13.181 -0.2528 -0.6483 -0.6892
    8TMC3    C413923   3.891   0.246  13.078  0.0118 -0.0412 -0.1959
    8TMC3    C513924   4.002   0.252  12.998  0.6934 -0.1042  0.0504
    8TMC3    C613925   4.128   0.262  13.041  0.5713  0.4364 -0.0152
    8TMC3     C13926   3.804   0.365  13.265  0.6949  0.3624  0.1795
    8TMC3     O13927   3.856   0.437  13.346 -0.2622 -0.3956  0.0613
    8TMC3     H13928   4.042   0.296  13.366  1.6853 -2.8296  0.4042
    8TMC3    H113929   3.792   0.253  13.035 -0.4266 -1.8928  0.5208
    8TMC3    H213930   4.215   0.259  12.976 -0.1580 -1.6422 -0.9152
    8TMC3    C713931   3.989   0.345  12.886  0.1820 -0.0226  0.7282
    8TMC3    C813932   4.237   0.361  13.222 -0.4344 -0.0062 -0.0743
    8TMC3    O113933   4.091   0.414  12.870  0.0601 -0.3712 -0.2308
    8TMC3    O213934   4.273   0.372  13.339  0.6258 -0.1935 -0.1585
    9TMC3    C113935   3.694   1.203  12.851 -0.1486  0.1375 -0.2138
    9TMC3    C213936   3.771   1.138  12.755  0.2342 -0.2782  0.2620
    9TMC3    C313937   3.789   1.008  12.789  0.0536 -0.4112 -0.2782
    9TMC3    C413938   3.650   1.154  12.974  1.6473  0.6056 -0.0600
    9TMC3    C513939   3.676   1.021  13.002 -0.1181 -0.0032  0.0852
    9TMC3    C613940   3.735   0.947  12.901  0.7212  0.1820  0.5164
    9TMC3     C13941   3.662   1.347  12.833  0.3548  0.2279 -0.0270
    9TMC3     O13942   3.633   1.405  12.936  0.2748  0.1202 -0.1003
    9TMC3     H13943   3.809   1.183  12.664  0.7195  1.1667  1.1679
    9TMC3    H113944   3.594   1.208  13.049  1.2435  1.9664 -1.3575
    9TMC3    H213945   3.736   0.839  12.910  0.1343 -0.2346 -4.5601
    9TMC3    C713946   3.581   0.945  13.075 -1.0357  0.7682  0.4669
    9TMC3    C813947   3.789   0.917  12.670 -0.7620 -0.0141  0.0109
    9TMC3    O113948   3.463   0.974  13.063  0.0130  0.2153 -0.0746
    9TMC3    O213949   3.716   0.946  12.579  0.4026  0.0807  0.0869
   10MPD2     C13950   3.720   0.414  12.642  0.4075  0.1609 -0.3558
   10MPD2    C113951   3.830   0.442  12.720  0.7703 -1.1810 -0.0636
   10MPD2    C213952   3.881   0.568  12.717  0.4513 -0.1471  0.5518
   10MPD2    C313953   3.829   0.673  12.649  0.2029 -0.0820 -1.0980
   10MPD2    C413954   3.726   0.645  12.561 -0.9357  0.7856 -0.2272
   10MPD2    C513955   3.676   0.513  12.557 -0.2009 -0.1923  0.3239
   10MPD2     H13956   3.957   0.596  12.789  1.9529 -1.0721 -0.6788
   10MPD2    H113957   3.687   0.716  12.488  0.1067  1.2211 -0.3623
   10MPD2    H213958   3.662   0.323  12.646  2.5729 -1.1669  0.7259
   10MPD2    H313959   3.586   0.497  12.497 -0.6421  0.0918  0.9073
   10MPD2     N13960   3.860   0.804  12.693 -0.1910  0.9052 -0.5010
   10MPD2    H513961   3.940   0.812  12.754  0.8652 -0.9436 -1.6452
   10MPD2    N113962   3.871   0.343  12.814 -0.1663  0.3742  0.1994
   10MPD2    H713963   3.816   0.257  12.817  0.3026  0.0175 -1.2877
   11MPD2     C13964   4.487   0.438  14.283 -0.2138  0.6857  0.1394
   11MPD2    C113965   4.563   0.337  14.224  0.0855  0.2045 -0.1895
   11MPD2    C213966   4.616   0.362  14.098 -0.5274  0.2782  0.4916
   11MPD2    C313967   4.597   0.482  14.041  0.4974  0.2122 -0.0962
   11MPD2    C413968   4.508   0.570  14.095  1.4598 -0.1571  0.0692
   11MPD2    C513969   4.452   0.549  14.216 -0.5058 -0.4999  0.1465
   11MPD2     H13970   4.678   0.284  14.057 -0.9654  1.2703 -2.0268
   11MPD2    H113971   4.494   0.664  14.043 -0.2939 -1.6795 -2.1778
   11MPD2    H213972   4.425   0.414  14.369 -0.7854  0.0483 -0.4466
   11MPD2    H313973   4.374   0.615  14.254  1.1887  0.1982  2.4188
   11MPD2     N13974   4.664   0.527  13.928  0.4434 -0.9483 -0.0042
   11MPD2    H513975   4.634   0.608  13.874 -0.1809 -0.6039  0.8625
   11MPD2    N113976   4.583   0.208  14.289  0.1138  0.5474 -0.2547
   11MPD2    H713977   4.608   0.131  14.228 -0.4336 -0.1219  0.3625
    1MPD1     C13978   2.236   1.292   0.076 -0.4688 -0.4377  0.3091
    1MPD1    C113979   2.207   1.258  17.628 -0.2132 -0.2963  0.4008
    1MPD1    C213980   2.280   1.317  17.529  0.6339  0.8210 -0.4129
    1MPD1    C313981   2.364   1.422  17.555 -1.0350  0.4251 -0.4963
    1MPD1    C413982   2.376   1.470  17.679 -1.0025  0.3420 -0.2704
    1MPD1    C513983   2.314   1.404   0.098  0.1255 -0.3944  0.0083
    1MPD1     H13984   2.262   1.286  17.426  0.9555 -1.6303  0.2569
    1MPD1    H113985   2.445   1.552   0.018 -0.7203  0.5619 -2.1270
    1MPD1    H213986   2.184   1.247   0.160  0.3543 -0.1135  0.9921
    1MPD1    H313987   2.321   1.438   0.201 -1.7765 -0.1967  0.0595
    1MPD1     N13988   2.435   1.492  17.450  0.1017  0.4817 -0.0118
    1MPD1    H513989   2.487   1.574  17.475  0.9576  1.0119 -3.5205
    1MPD1    N113990   2.129   1.143  17.601  0.1690  0.7490  0.6146
    1MPD1    H613991   2.097   1.140  17.504 -0.6733 -0.7924  0.9523
    1MPD1    H713992   2.043   1.133  17.654 -0.1018 -0.2776 -0.0187
    2MPD1     C13993   2.624   2.334  17.331  0.6230  0.5192  0.1771
    2MPD1    C113994   2.510   2.265  17.303 -0.0112 -0.8267 -0.4070
    2MPD1    C213995   2.520   2.128  17.288 -0.2453  0.1886 -0.9621
    2MPD1    C313996   2.640   2.059  17.305 -0.4127 -0.1337 -0.0793
    2MPD1    C413997   2.755   2.128  17.337  0.0771 -0.6895  0.1822
    2MPD1    C513998   2.739   2.265  17.352 -0.0974 -0.0701  0.6298
    2MPD1     H13999   2.439   2.059  17.267  1.5574 -2.7504  1.6993
    2MPD1    H114000   2.853   2.081  17.339  0.2276 -0.3168  1.2853
    2MPD1    H214001   2.628   2.441  17.347 -0.3815  0.6784 -0.6474
    2MPD1    H314002   2.823   2.331  17.375  0.9216 -0.8856 -0.7754
    2MPD1     N14003   2.636   1.917  17.283 -0.0109 -0.3974  0.0632
    2MPD1    H514004   2.542   1.887  17.260 -0.5156  0.0778  1.4875
    2MPD1    N114005   2.394   2.343  17.267 -0.5053  0.0248 -0.3295
    2MPD1    H614006   2.373   2.431  17.314  2.4606  0.9681 -0.7825
    2MPD1    H714007   2.312   2.284  17.281  1.4878 -2.5262  0.5279
    3TMC3    C114008   2.688   1.716  17.202  0.9201 -0.8143  0.3025
    3TMC3    C214009   2.692   1.685  17.071 -0.1070 -0.2734 -0.6971
    3TMC3    C314010   2.600   1.608  17.010  0.0058 -0.4237  0.4846
    3TMC3    C414011   2.597   1.650  17.276  0.8272 -0.1414  0.3557
    3TMC3    C514012   2.519   1.548  17.224 -0.3867 -0.1478  0.0748
    3TMC3    C614013   2.515   1.532  17.091  0.4569 -1.4326 -0.5822
    3TMC3     C14014   2.745   1.844  17.255 -0.2490  0.2157 -0.0538
    3TMC3     O14015   2.857   1.879  17.212  0.4842  0.1496 -0.4185
    3TMC3     H14016   2.756   1.743  17.005 -1.3182  2.1686  0.3066
    3TMC3    H114017   2.594   1.684  17.379  1.3494 -3.0917  1.3583
    3TMC3    H214018   2.445   1.465  17.045 -0.1177  0.9461 -3.1831
    3TMC3    C714019   2.430   1.468  17.314  0.2264 -0.5398  0.3227
    3TMC3    C814020   2.545   1.636  16.878 -0.2357 -0.4642 -0.1259
    3TMC3    O114021   2.357   1.384  17.257 -0.4928 -0.8446  0.2948
    3TMC3    O214022   2.427   1.613  16.866 -0.4374  0.3805 -0.1916
    4MPD1     C14023   2.563   1.740  16.380  0.3607 -0.3530 -0.9572
    4MPD1    C114024   2.693   1.728  16.428 -0.1985  0.8423  0.3299
    4MPD1    C214025   2.714   1.721  16.563 -0.3002 -0.1171 -0.2081
    4MPD1    C314026   2.605   1.726  16.655 -0.0980 -0.3344  0.4778
    4MPD1    C414027   2.477   1.742  16.613 -0.1489 -0.2657 -0.2171
    4MPD1    C514028   2.458   1.754  16.479 -0.5707 -0.0505  0.5863
    4MPD1     H14029   2.815   1.716  16.601 -0.6918 -0.7714  0.7474
    4MPD1    H114030   2.391   1.747  16.679  0.3470 -0.5480  0.4476
    4MPD1    H214031   2.543   1.752  16.274 -0.7728  0.1546 -0.6832
    4MPD1    H314032   2.355   1.763  16.447 -0.0576  1.9107 -0.5349
    4MPD1     N14033   2.639   1.681  16.787 -0.0121  0.7107 -0.3236
    4MPD1    H514034   2.735   1.684  16.819  0.0406  2.0794 -0.6050
    4MPD1    N114035   2.806   1.738  16.347 -0.5414  0.1674 -0.4778
    4MPD1    H614036   2.786   1.717  16.249  1.1153 -1.0611 -0.5540
    4MPD1    H714037   2.895   1.700  16.377 -0.2053  1.1360 -0.2620
    1TCq1    O114038   3.250   1.248  12.082  0.1378  0.4396  0.4333
    1TCq1    C114039   3.186   1.319  11.983 -0.0782  0.5971  0.1881
    1TCq1    O214040   3.075   1.363  11.985  0.3289 -0.4257  0.1316
    1TCq1    C214041   3.276   1.360  11.880 -0.3279 -0.7304 -0.1250
    1TCq1    C314042   3.412   1.361  11.900  0.1351 -0.6796 -0.5346
    1TCq1    C414043   3.494   1.404  11.799 -0.8539 -0.0242 -0.2975
    1TCq1    C514044   3.445   1.439  11.682 -0.0170  0.3666  0.0459
    1TCq1    C614045   3.306   1.429  11.658  0.7238 -0.2454  0.7328
    1TCq1    C714046   3.218   1.400  11.758  0.5524 -0.3953 -0.3183
    1TCq1    C814047   3.242   1.492  11.545 -0.1865  0.1710  0.1622
    1TCq1    O414048   3.126   1.519  11.561  0.0004 -0.5242 -0.3953
    1TCq1    C914049   3.624   1.462  11.831 -0.5399  0.2716  0.3692
    1TCq1    O514050   3.651   1.567  11.767  0.4116  0.7036  0.4364
    1TCq1    O614051   3.674   1.440  11.941  0.2532 -0.2818  0.0993
    1TCq1    H114052   3.333   1.203  12.055 -1.0233 -0.2548 -1.9211
    1TCq1    H214053   3.438   1.358  12.006 -2.5062 -1.7380  0.0694
    1TCq1    H314054   3.501   1.496  11.609 -0.7812  0.9113 -0.1171
    1TCq1    H414055   3.111   1.407  11.743  0.2834 -1.9870  0.8388
    2MPD1     C14056   3.262   1.701  11.088 -0.1726 -0.4949 -0.4947
    2MPD1    C114057   3.389   1.648  11.107 -0.1829 -0.1482  0.1143
    2MPD1    C214058   3.403   1.579  11.220  0.6490  0.8427 -0.1287
    2MPD1    C314059   3.306   1.570  11.316 -0.2664 -0.8567 -0.6132
    2MPD1    C414060   3.183   1.639  11.298  0.1188  0.2387  0.2110
    2MPD1    C514061   3.167   1.710  11.183 -0.9197 -0.4403  0.9124
    2MPD1     H14062   3.490   1.515  11.231  1.0462  1.6696  1.5160
    2MPD1    H114063   3.105   1.641  11.374 -0.5572  1.7401 -0.5216
    2MPD1    H214064   3.248   1.747  10.990 -0.4688 -1.9003 -1.1105
    2MPD1    H314065   3.078   1.770  11.170 -0.8887 -0.7433 -0.7038
    2MPD1     N14066   3.326   1.505  11.442  0.0770 -0.5034  0.3573
    2MPD1    H514067   3.422   1.479  11.463  0.4828 -1.9522 -3.2952
    2MPD1    N114068   3.474   1.628  10.995 -0.3133  0.9768  0.2616
    2MPD1    H614069   3.473   1.710  10.935  1.0083  0.9463  0.2051
    2MPD1    H714070   3.568   1.601  11.023 -1.8827 -1.7132  2.9564
    1TCq1    O114071   1.711   0.207   1.005 -0.5553 -0.0449  0.2813
    1TCq1    C114072   1.649   0.295   1.080  0.2779  0.5544  0.1791
    1TCq1    O214073   1.565   0.368   1.040 -0.2593 -0.0579 -0.8645
    1TCq1    C214074   1.660   0.249   1.215  1.1992  0.0131 -0.2398
    1TCq1    C314075   1.783   0.219   1.269  0.2805 -0.1117 -0.2983
    1TCq1    C414076   1.804   0.218   1.403 -0.5687  0.7894  0.5871
    1TCq1    C514077   1.692   0.245   1.487  0.2703  0.7214  0.1359
    1TCq1    C614078   1.570   0.262   1.435  0.6832  0.6160 -0.3474
    1TCq1    C714079   1.549   0.256   1.298  0.1507  0.4892  0.7101
    1TCq1    C814080   1.457   0.291   1.523 -0.2355 -0.4111 -0.0650
    1TCq1    O414081   1.345   0.313   1.475  0.0860 -0.0983  0.1437
    1TCq1    C914082   1.933   0.258   1.446 -0.0949  0.0759  0.2994
    1TCq1    O514083   2.037   0.229   1.377 -0.1690 -0.0351  0.3030
    1TCq1    O614084   1.929   0.323   1.556  0.2369  0.0683  0.2195
    1TCq1    H114085   1.762   0.152   1.069  1.9856  0.6235 -1.1671
    1TCq1    H214086   1.873   0.211   1.209  0.2871  2.2062 -0.5784
    1TCq1    H314087   1.722   0.284   1.584 -0.3003 -0.4464  0.7787
    1TCq1    H414088   1.455   0.290   1.257 -0.0276 -0.4400  0.3620
    2MPD1     C14089   1.279   0.370   2.011 -0.8991  0.3637  0.0201
    2MPD1    C114090   1.413   0.321   2.012 -0.1016 -0.8052  0.4528
    2MPD1    C214091   1.472   0.286   1.889 -0.5223 -0.8095  0.4221
    2MPD1    C314092   1.415   0.307   1.762  0.1670  0.2254  0.0217
    2MPD1    C414093   1.293   0.367   1.761 -0.6988 -0.6517 -0.0518
    2MPD1    C514094   1.223   0.386   1.885  0.0424  0.6506  0.0620
    2MPD1     H14095   1.571   0.241   1.892 -0.0967  0.1836  1.1871
    2MPD1    H114096   1.251   0.402   1.668 -0.3345 -0.9596 -0.3300
    2MPD1    H214097   1.233   0.404   2.103 -0.0016  1.5946  0.0153
    2MPD1    H314098   1.122   0.426   1.879  0.8615  2.9817  1.8507
    2MPD1     N14099   1.497   0.282   1.653 -0.4887 -0.7903 -0.5291
    2MPD1    H514100   1.588   0.249   1.682 -0.1335  2.2571  1.9339
    2MPD1    N114101   1.480   0.285   2.130 -0.8343  0.4420  0.6530
    2MPD1    H614102   1.455   0.345   2.208 -0.6104  1.2225  0.1262
    2MPD1    H714103   1.580   0.290   2.114 -0.6348 -0.0222  1.7551
    1MPD1     C14104   0.436   0.745  12.239  0.3725 -0.6112  0.3611
    1MPD1    C114105   0.563   0.753  12.176  0.4456 -0.8290  0.2476
    1MPD1    C214106   0.607   0.883  12.143 -0.1443 -0.3703  0.5711
    1MPD1    C314107   0.529   0.995  12.176 -0.5154  0.3023  0.2149
    1MPD1    C414108   0.410   0.981  12.249  0.2345  0.6080 -0.7686
    1MPD1    C514109   0.370   0.856  12.277  0.4260 -0.2137  0.1550
    1MPD1     H14110   0.701   0.890  12.090 -1.4549  1.1771 -1.5258
    1MPD1    H114111   0.372   1.070  12.298 -3.0087 -0.1561 -1.8790
    1MPD1    H214112   0.388   0.651  12.263  2.8507 -1.5487  1.5531
    1MPD1    H314113   0.283   0.854  12.341  0.1324  0.6692 -0.2194
    1MPD1     N14114   0.590   1.118  12.144 -0.3739 -0.3087 -0.3733
    1MPD1    H514115   0.670   1.115  12.082 -0.0649 -2.3475  0.1308
    1MPD1    N114116   0.625   0.636  12.119 -0.3384 -0.0484 -0.7670
    1MPD1    H614117   0.724   0.647  12.141 -0.4928 -1.5152  0.7314
    1MPD1    H714118   0.594   0.554  12.172  1.4456 -0.1520  0.1175
    2MPD1     C14119   4.559   1.839  11.270 -0.4750 -0.2811  0.4770
    2MPD1    C114120   4.503   1.792  11.152  0.0726 -0.5254  0.4421
    2MPD1    C214121   4.546   1.672  11.102  0.0449  0.6804  0.7795
    2MPD1    C314122   4.633   1.591  11.178  0.2975 -0.2647 -0.0192
    2MPD1    C414123   4.660   1.628  11.310 -0.8315  0.1579  0.0922
    2MPD1    C514124   4.616   1.752  11.360 -0.0826 -0.7601 -0.1841
    2MPD1     H14125   4.509   1.647  11.004  2.5569  0.2530 -0.0718
    2MPD1    H114126   4.715   1.561  11.376  1.3541  1.0041 -0.8575
    2MPD1    H214127   4.545   1.943  11.300  1.0161  0.1709 -0.4352
    2MPD1    H314128   4.634   1.783  11.462 -1.6867 -0.4134 -0.0202
    2MPD1     N14129   4.683   1.469  11.126 -0.1832 -0.1919  0.2113
    2MPD1    H514130   0.036   1.429  11.185  2.1359  2.7462 -0.6228
    2MPD1    N114131   4.430   1.884  11.070  0.2770 -0.2791  0.0082
    2MPD1    H614132   4.361   1.847  11.006  1.3208  0.4469 -1.5379
    2MPD1    H714133   4.375   1.951  11.123 -0.8214 -2.4845  1.6778
    3MPD1     C14134   4.661   1.015  10.175  0.1206  0.4118  0.2435
    3MPD1    C114135   0.070   1.016  10.212 -0.4258 -0.2911 -0.3193
    3MPD1    C214136   0.100   1.023  10.345  0.0914  0.5912  0.3394
    3MPD1    C314137   0.006   1.051  10.438 -0.1333 -0.7851 -0.5132
    3MPD1    C414138   4.592   1.047  10.402 -0.6316 -0.3957 -0.5232
    3MPD1    C514139   4.560   1.022  10.267  0.1198 -1.0989 -1.0975
    3MPD1     H14140   0.206   1.020  10.369  0.0528 -1.4788  0.2483
    3MPD1    H114141   4.510   1.054  10.473  2.4003 -1.1328  3.0444
    3MPD1    H214142   4.630   1.011  10.071  0.1466 -1.1576  0.2984
    3MPD1    H314143   4.467   1.047  10.216  0.1308 -0.2329 -0.6855
    3MPD1     N14144   0.048   1.067  10.571 -0.4505  0.0116  0.4742
    3MPD1    H514145   0.145   1.090  10.587 -0.2891 -1.4895  1.6242
    3MPD1    N114146   0.167   0.990  10.119  0.1024 -0.1858 -0.3787
    3MPD1    H614147   0.145   1.029  10.027  0.9393 -0.5349 -0.7218
    3MPD1    H714148   0.264   1.009  10.143 -0.0968 -1.0932  1.0839
    4MPD2     C14149   0.464   1.808  11.727  0.2435  0.2376 -0.2898
    4MPD2    C114150   0.584   1.743  11.747 -0.1055  0.0420  0.6198
    4MPD2    C214151   0.677   1.746  11.650  0.5482  1.0247 -0.1216
    4MPD2    C314152   0.655   1.813  11.529 -0.3346 -0.2708 -0.7927
    4MPD2    C414153   0.539   1.872  11.504  0.3138 -0.3633 -0.0898
    4MPD2    C514154   0.441   1.868  11.608 -0.2040 -0.2090 -0.2570
    4MPD2     H14155   0.773   1.698  11.664 -0.0851  0.5075  2.4781
    4MPD2    H114156   0.519   1.935  11.418  1.6622  0.3283  0.1133
    4MPD2    H214157   0.386   1.809  11.802  0.8136 -1.1361  0.3279
    4MPD2    H314158   0.340   1.909  11.601  0.1115  0.8788  1.6978
    4MPD2     N14159   0.757   1.805  11.433 -0.3195  0.5945  0.3225
    4MPD2    H514160   0.832   1.748  11.472 -1.2675 -0.5147  0.5236
    4MPD2    N114161   0.623   1.679  11.870 -0.1708 -0.1834 -0.1868
    4MPD2    H714162   0.720   1.650  11.878  0.1252  0.7540 -0.3792
    5TMC3    C114163   0.611   1.574  12.079  0.8179  0.3736 -0.8089
    5TMC3    C214164   0.541   1.464  12.120 -0.8156 -0.4513  0.3821
    5TMC3    C314165   0.615   1.353  12.131  0.4671  0.7540  0.8758
    5TMC3    C414166   0.747   1.578  12.071  0.4971  0.1479  0.4086
    5TMC3    C514167   0.812   1.458  12.067  0.1887 -0.1806 -0.6272
    5TMC3    C614168   0.753   1.342  12.111  0.7714  0.2321  0.0512
    5TMC3     C14169   0.540   1.652  11.980  0.3167 -0.0638 -0.4348
    5TMC3     O14170   0.419   1.660  11.990 -0.2982  0.6296  0.5701
    5TMC3     H14171   0.436   1.477  12.144 -1.6483  0.2712 -3.6111
    5TMC3    H114172   0.803   1.670  12.056 -2.1630  1.7317  0.1591
    5TMC3    H214173   0.810   1.251  12.122  2.7215  1.3477 -0.8187
    5TMC3    C714174   0.891   1.460  11.938 -0.0346 -0.1386  0.7166
    5TMC3    C814175   0.552   1.244  12.190 -0.2555 -0.5473 -0.2009
    5TMC3    O114176   0.882   1.561  11.875  0.1704  0.0032  0.3322
    5TMC3    O214177   0.452   1.272  12.259  0.0208 -0.4458  0.5586
    6TMC3    C114178   0.011   1.302  10.956  0.5993  0.0847 -0.6005
    6TMC3    C214179   4.667   1.212  10.878  0.2817  0.0298 -0.5176
    6TMC3    C314180   0.033   1.138  10.795 -0.8866 -0.5106  0.0625
    6TMC3    C414181   0.144   1.317  10.964 -0.4302 -0.5173 -0.1107
    6TMC3    C514182   0.227   1.235  10.893 -0.4667  0.3584 -0.0251
    6TMC3    C614183   0.176   1.149  10.798 -0.0286 -0.3957 -0.0618
    6TMC3     C14184   4.639   1.408  11.009 -0.2598  0.2205  0.2892
    6TMC3     O14185   4.529   1.419  10.953 -0.4189 -0.4592 -0.0496
    6TMC3     H14186   4.560   1.199  10.876  0.1099  1.5453 -1.5150
    6TMC3    H114187   0.184   1.393  11.030  2.4342 -0.7921 -1.5151
    6TMC3    H214188   0.243   1.081  10.747  0.2154 -1.0592  1.1712
    6TMC3    C714189   0.371   1.249  10.916  0.4467 -0.4793  0.2073
    6TMC3    C814190   4.683   1.088  10.679  0.2926  0.2409  0.1427
    6TMC3    O114191   0.408   1.276  11.030  0.6537 -0.2498 -0.2821
    6TMC3    O214192   4.563   1.095  10.688  1.0752 -0.0005 -0.3801
    7MPD2     C14193   1.139   1.251  11.545  0.3063 -0.9802  0.1046
    7MPD2    C114194   1.075   1.374  11.546 -0.4593 -0.1174 -0.6626
    7MPD2    C214195   1.021   1.409  11.673  0.0692 -0.4288  1.0247
    7MPD2    C314196   1.023   1.317  11.781 -0.5308 -0.1269  0.8617
    7MPD2    C414197   1.066   1.193  11.763 -0.3877  0.5657 -1.0546
    7MPD2    C514198   1.133   1.162  11.654 -0.3500  0.1212  0.3715
    7MPD2     H14199   0.981   1.509  11.679  2.0996  0.5689 -2.3225
    7MPD2    H114200   1.071   1.119  11.842 -1.5495  1.0361 -0.5460
    7MPD2    H214201   1.192   1.216  11.457  3.5046  1.9462  0.9037
    7MPD2    H314202   1.183   1.066  11.654 -1.7289 -0.6037 -1.2102
    7MPD2     N14203   0.956   1.346  11.903  0.0057 -0.2654  0.0769
    7MPD2    H514204   0.960   1.278  11.978 -1.0564 -1.0734 -0.5851
    7MPD2    N114205   1.075   1.456  11.433 -0.3078 -0.1658  0.4317
    7MPD2    H714206   1.117   1.415  11.350  2.8134 -1.1376  2.4582
    8TMC3    C114207   1.021   1.647  11.301 -0.0382 -0.7156  0.3128
    8TMC3    C214208   0.985   1.564  11.197  0.6421  0.1084 -0.2868
    8TMC3    C314209   0.893   1.613  11.106 -0.0371 -0.1930  0.3498
    8TMC3    C414210   0.976   1.776  11.315 -0.5272  0.6012 -0.2269
    8TMC3    C514211   0.874   1.811  11.234  0.3550  0.8540  0.6193
    8TMC3    C614212   0.836   1.732  11.130  0.2644  0.3486  0.3786
    8TMC3     C14213   1.029   1.588  11.428 -0.0193  0.3862 -0.5821
    8TMC3     O14214   0.977   1.649  11.520  0.1542  0.7145 -0.0741
    8TMC3     H14215   1.013   1.460  11.186  3.3144  0.8315 -0.4916
    8TMC3    H114216   0.992   1.834  11.406  0.4223  2.3206 -1.5029
    8TMC3    H214217   0.742   1.741  11.076  2.0266 -2.7140 -3.1721
    8TMC3    C714218   0.758   1.858  11.305  0.0658  0.3282 -0.8570
    8TMC3    C814219   0.802   1.511  11.056 -0.3618 -0.7415 -0.6055
    8TMC3    O114220   0.669   1.898  11.230 -0.0382 -0.3435  0.7933
    8TMC3    O214221   0.702   1.488  11.120 -0.3257  0.0274 -0.2354
    9MPD2     C14222   0.859   1.282  10.768 -0.5005 -0.2794  0.0189
    9MPD2    C114223   0.795   1.343  10.871 -0.6708  0.0240 -0.3420
    9MPD2    C214224   0.663   1.317  10.880 -0.5881 -0.4184  0.4656
    9MPD2    C314225   0.586   1.247  10.795 -0.1461 -0.6137  0.1418
    9MPD2    C414226   0.653   1.192  10.691 -0.6160  0.1671 -0.0254
    9MPD2    C514227   0.793   1.199  10.686 -1.1033  0.3879 -0.2829
    9MPD2     H14228   0.611   1.368  10.961  2.0181  1.3213  1.0199
    9MPD2    H114229   0.604   1.130  10.616  1.9289 -2.7660  0.7088
    9MPD2    H214230   0.964   1.297  10.745 -0.6951  0.2414 -0.5122
    9MPD2    H314231   0.856   1.151  10.613 -2.3656  1.4210 -2.0419
    9MPD2     N14232   0.445   1.220  10.800  0.1716 -0.3028 -0.1723
    9MPD2    H514233   0.407   1.175  10.717  0.5064  0.4425 -0.7319
    9MPD2    N114234   0.863   1.442  10.951 -0.2010  0.4409  0.2112
    9MPD2    H714235   0.962   1.459  10.937 -0.3822 -0.1475 -1.7933
    1MPD1     C14236   1.188   0.601  16.555 -0.5143 -0.8522  0.3429
    1MPD1    C114237   1.117   0.504  16.484 -0.0905  1.0821  0.0229
    1MPD1    C214238   1.022   0.427  16.551 -0.2013  0.9746 -0.4202
    1MPD1    C314239   1.015   0.442  16.688 -0.1704  0.0348 -0.2869
    1MPD1    C414240   1.101   0.527  16.755 -1.2760  0.2837  0.2449
    1MPD1    C514241   1.180   0.622  16.691  0.0328 -0.1496  0.3438
    1MPD1     H14242   0.953   0.368  16.491 -0.2977  0.4329  0.2093
    1MPD1    H114243   1.093   0.549  16.861  4.8222 -0.9616  0.9390
    1MPD1    H214244   1.252   0.667  16.498  0.0519 -1.7772 -0.1056
    1MPD1    H314245   1.245   0.692  16.743 -1.8735  3.9041 -2.6532
    1MPD1     N14246   0.920   0.373  16.763  0.3998 -0.2124  0.3297
    1MPD1    H514247   0.896   0.394  16.859 -2.1521 -1.0164 -0.1455
    1MPD1    N114248   1.122   0.501  16.345 -0.4453  0.2757 -0.0098
    1MPD1    H614249   1.100   0.406  16.316  0.7866  0.7633 -2.5580
    1MPD1    H714250   1.211   0.540  16.315  0.3069  0.1358  2.0069
    2MPD1     C14251   0.187   4.502  16.369  0.2457  0.2297  0.3688
    2MPD1    C114252   0.256   4.608  16.317 -0.3032 -0.3482  0.4713
    2MPD1    C214253   0.338   4.675  16.408 -0.7244  0.8136  0.5656
    2MPD1    C314254   0.354   4.634  16.540 -0.4229 -0.2952 -0.1812
    2MPD1    C414255   0.279   4.528  16.588  0.4565 -0.1212 -0.2141
    2MPD1    C514256   0.198   4.464  16.501  0.6466 -0.0695 -0.8866
    2MPD1     H14257   0.384   0.047  16.375  0.5923 -0.9223 -2.4784
    2MPD1    H114258   0.279   4.500  16.692 -0.9497 -1.9185 -0.6941
    2MPD1    H214259   0.119   4.448  16.304  1.8307  2.0710 -2.7988
    2MPD1    H314260   0.146   4.375  16.533 -1.5646  1.3011 -0.6174
    2MPD1     N14261   0.436   4.719  16.618 -0.2539 -0.3547 -1.1641
    2MPD1    H514262   0.483   0.073  16.566  0.2933  0.3777  0.3798
    2MPD1    N114263   0.225   4.661  16.187 -0.1623  0.0140  0.2899
    2MPD1    H614264   0.181   4.593  16.125 -2.3396  1.2335  0.5048
    2MPD1    H714265   0.307   4.697  16.139  0.1104  0.0609  0.7955
    3TCq2    C114266   0.464   4.700  16.749 -0.1052 -0.4486 -0.2076
    3TCq2    O214267   0.425   4.612  16.828  0.1969  0.0295 -0.3610
    3TCq2    C214268   0.545   0.084  16.815  0.7249 -0.0717 -0.3979
    3TCq2    C314269   0.557   0.090  16.953  0.1831  0.4447 -0.3614
    3TCq2    C414270   0.651   0.175  17.018 -0.0355  0.4815  0.2803
    3TCq2    C514271   0.743   0.244  16.942 -0.0082 -0.2326  0.4367
    3TCq2    C614272   0.733   0.233  16.805  0.1649  0.5799 -0.8167
    3TCq2    C714273   0.638   0.155  16.739 -0.4956  0.4459  0.1200
    3TCq2    C814274   0.840   0.273  16.711 -0.2295  0.0434 -1.1203
    3TCq2    O414275   0.836   0.220  16.599  0.0821  0.0228  0.2037
    3TCq2    C914276   0.658   0.175  17.160 -0.5290  0.6826 -0.3192
    3TCq2    O514277   0.741   0.250  17.215 -0.7317  0.5032 -0.2357
    3TCq2    O614278   0.589   0.086  17.219 -0.0556 -0.6846 -0.3368
    3TCq2    H214279   0.496   0.029  17.019  0.0673 -1.8600 -2.6302
    3TCq2    H314280   0.835   0.268  16.995  0.5165 -1.9833  0.3398
    3TCq2    H414281   0.632   0.157  16.631 -0.9157 -0.7244  0.1244
    1TCq1    O114282   3.494   4.543  12.888 -0.2242 -0.5743 -1.2189
    1TCq1    C114283   3.419   4.487  12.986 -0.1299  0.4132  0.4879
    1TCq1    O214284   3.323   4.538  13.046  0.7654 -0.0958  0.2395
    1TCq1    C214285   3.475   4.361  13.015 -0.5560 -0.0166  0.2508
    1TCq1    C314286   3.396   4.273  13.083  0.0762  0.0261  0.3698
    1TCq1    C414287   3.456   4.174  13.158 -0.0571  1.0155  0.0410
    1TCq1    C514288   3.590   4.156  13.161 -0.2220  0.0049 -0.5165
    1TCq1    C614289   3.665   4.244  13.087 -0.2128 -0.7472 -0.1886
    1TCq1    C714290   3.612   4.346  13.016  0.1001 -0.5969  0.3346
    1TCq1    C814291   3.806   4.257  13.108  0.2745  0.2116 -0.2199
    1TCq1    O414292   3.870   4.310  13.020  0.0464  0.4575  0.1084
    1TCq1    C914293   3.375   4.100  13.245  0.0471 -0.6607  0.3526
    1TCq1    O514294   3.249   4.109  13.233  0.3448  0.2107 -0.0545
    1TCq1    O614295   3.426   4.005  13.310  0.0231 -0.2186 -0.4397
    1TCq1    H114296   3.550   4.496  12.822  0.1405 -1.1495 -0.4963
    1TCq1    H214297   3.291   4.296  13.099 -0.2476 -0.8899 -0.4319
    1TCq1    H314298   3.631   4.081  13.227 -2.5153 -0.0382  0.8665
    1TCq1    H414299   3.686   4.413  12.974  0.2195 -0.0924  1.3433
    2MPD2     C14300   4.091   4.196  13.170 -0.5125 -0.4106 -0.0130
    2MPD2    C114301   3.984   4.162  13.252 -0.0719 -0.0487  0.6838
    2MPD2    C214302   4.021   4.105  13.372  0.4753 -0.1901  0.2961
    2MPD2    C314303   4.147   4.092  13.419 -0.4938  0.4120  1.3553
    2MPD2    C414304   4.247   4.131  13.339  0.1065  0.0065 -0.4474
    2MPD2    C514305   4.222   4.178  13.211  0.2660  0.6630 -0.2216
    2MPD2     H14306   3.943   4.055  13.428 -0.4911 -1.4928 -2.1955
    2MPD2    H114307   4.351   4.112  13.363  1.0479  1.1248 -3.5817
    2MPD2    H214308   4.084   4.248  13.076 -0.5096 -0.9372 -0.3055
    2MPD2    H314309   4.306   4.195  13.143  1.3908 -0.1799  0.9617
    2MPD2     N14310   4.170   4.032  13.548  0.6793 -0.3171 -0.0142
    2MPD2    H514311   4.087   4.003  13.598  0.0214  0.6014 -0.5501
    2MPD2    N114312   3.846   4.188  13.219  0.4110 -0.2191 -0.6276
    2MPD2    H714313   3.787   4.145  13.290  1.3336 -0.7741 -0.1751
    3TCq1    O114314   4.628   3.938  13.921  0.6052 -0.3712  0.1271
    3TCq1    C114315   4.529   3.864  13.973  0.2530 -0.0976 -0.0116
    3TCq1    O214316   4.536   3.793  14.073  0.2664  0.1356  0.2918
    3TCq1    C214317   4.402   3.892  13.923 -0.3093  0.2060 -0.4338
    3TCq1    C314318   4.304   3.920  14.008  0.6627  0.5720  0.0448
    3TCq1    C414319   4.184   3.959  13.949  0.4710 -0.1577 -0.2006
    3TCq1    C514320   4.170   3.973  13.816  0.1416  0.0942 -0.1766
    3TCq1    C614321   4.278   3.943  13.732 -0.0123 -0.7114  0.4638
    3TCq1    C714322   4.390   3.906  13.789 -0.4244 -0.1797  0.5003
    3TCq1    C814323   4.296   3.994  13.601 -0.1824  0.1822  0.4697
    3TCq1    O414324   4.406   4.025  13.557 -0.8469  0.7506  0.0745
    3TCq1    C914325   4.074   3.986  14.035 -0.1415  0.2873 -1.0858
    3TCq1    O514326   3.960   4.004  13.982  0.3386 -0.6225  0.4731
    3TCq1    O614327   4.097   3.988  14.157  0.4687  0.1973 -0.4531
    3TCq1    H114328   4.605   4.008  13.857 -1.8185 -0.7479  0.5766
    3TCq1    H214329   4.323   3.917  14.114 -1.2757  0.2341  0.3829
    3TCq1    H314330   4.079   4.026  13.790 -0.0470  1.7415  3.7359
    3TCq1    H414331   4.464   3.862  13.723 -2.8740  0.0862 -2.3732
    1MPD2     C14332   3.080   0.211  14.943  0.0918 -0.1863 -0.4932
    1MPD2    C114333   2.956   0.152  14.939 -0.4714 -0.4897 -0.4831
    1MPD2    C214334   2.922   0.054  15.025 -0.1049 -0.9444 -0.5590
    1MPD2    C314335   3.012   0.004  15.114 -0.5361  0.6211  0.5251
    1MPD2    C414336   3.135   0.071  15.127 -0.9500 -0.2737  0.0983
    1MPD2    C514337   3.165   0.178  15.044 -0.1057  0.4189 -0.7123
    1MPD2     H14338   2.828   0.001  15.012 -0.3062 -0.3923 -1.3733
    1MPD2    H114339   3.204   0.036  15.203 -0.0132 -1.0378 -1.1016
    1MPD2    H214340   3.113   0.283  14.868  1.3684 -1.5529 -1.2393
    1MPD2    H314341   3.256   0.233  15.066  1.7201 -1.8934 -2.5405
    1MPD2     N14342   2.990   4.595  15.170 -0.1244  0.0022  0.2604
    1MPD2    H514343   2.903   4.546  15.151  0.4651 -0.6661 -0.7481
    1MPD2    N114344   2.867   0.187  14.833  0.1326 -0.4384  0.3079
    1MPD2    H714345   2.906   0.247  14.761 -0.6129  0.5802  0.7337
    2TMC3    C114346   2.661   0.179  14.709  0.3694 -0.5540  0.4153
    2TMC3    C214347   2.733   0.114  14.608 -0.0648 -0.3283  0.1779
    2TMC3    C314348   2.666   0.026  14.520  0.2632 -0.2384  0.6510
    2TMC3    C414349   2.523   0.149  14.724  0.1316 -0.4319 -0.4783
    2TMC3    C514350   2.464   0.063  14.636  0.6290  0.1796 -0.5663
    2TMC3    C614351   2.533   0.004  14.532  0.2623  0.5432 -0.6050
    2TMC3     C14352   2.731   0.161  14.838  0.0355  0.1888  0.1617
    2TMC3     O14353   2.665   0.116  14.932  0.3111 -0.3882  0.0022
    2TMC3     H14354   2.842   0.107  14.607 -0.1146 -0.9255 -1.7024
    2TMC3    H114355   2.470   0.191  14.809  0.2852  0.9627 -1.0706
    2TMC3    H214356   2.474   4.659  14.468  2.3245  0.5214 -2.4780
    2TMC3    C714357   2.326   0.023  14.655 -0.3231  0.6107  0.6377
    2TMC3    C814358   2.734   4.624  14.499 -0.1149 -0.0573  0.1272
    2TMC3    O114359   2.282   4.647  14.587 -0.7717 -0.1546 -0.0497
    2TMC3    O214360   2.813   4.615  14.408 -0.0808  0.0961 -0.0716
    3TCq1    O114361   1.474   0.715  14.833 -0.7311  0.2222 -0.3640
    3TCq1    C114362   1.574   0.762  14.908 -0.2689 -0.0285  0.4090
    3TCq1    O214363   1.613   0.878  14.914 -0.1260  0.2424  0.7271
    3TCq1    C214364   1.649   0.658  14.973 -0.2835 -0.2437  0.4235
    3TCq1    C314365   1.729   0.699  15.080 -0.0057 -0.2104 -0.0311
    3TCq1    C414366   1.814   0.605  15.129 -0.1070  0.8061 -0.7875
    3TCq1    C514367   1.818   0.480  15.086 -0.1388  0.3156  0.1608
    3TCq1    C614368   1.723   0.443  14.996 -0.4015  0.0684  0.5712
    3TCq1    C714369   1.635   0.530  14.933 -0.1909 -0.5579 -0.2023
    3TCq1    C814370   1.744   0.320  14.926 -0.1233  0.2868  0.2640
    3TCq1    O414371   1.657   0.280  14.847 -0.1765  0.4957  0.5402
    3TCq1    C914372   1.894   0.630  15.250  0.0694  0.7322 -0.0845
    3TCq1    O514373   1.883   0.750  15.295 -0.4331 -0.4143 -0.4789
    3TCq1    O614374   1.987   0.543  15.273  0.7965  0.2392 -0.2423
    3TCq1    H114375   1.438   0.629  14.862 -0.7116  0.3780  0.1320
    3TCq1    H214376   1.733   0.803  15.111  0.1010  0.1549 -1.2650
    3TCq1    H314377   1.875   0.412  15.147 -0.7612 -0.0746  0.3138
    3TCq1    H414378   1.561   0.484  14.868  0.9153 -2.4875 -0.0850
    4MPD2     C14379   1.851   0.054  14.851 -0.2638 -0.8011  0.9368
    4MPD2    C114380   1.925   0.170  14.881  0.9008  0.1653  0.6630
    4MPD2    C214381   2.060   0.175  14.851  0.1535 -0.0293 -0.1680
    4MPD2    C314382   2.121   0.076  14.776  0.0348 -0.8851 -0.1316
    4MPD2    C414383   2.041   4.692  14.741  0.1712  0.4301  0.1232
    4MPD2    C514384   1.912   4.674  14.778 -0.3535  0.1178 -0.1113
    4MPD2     H14385   2.115   0.266  14.870  1.2961 -0.4541 -1.4243
    4MPD2    H114386   2.088   4.610  14.688  0.9852  2.7903 -2.8118
    4MPD2    H214387   1.744   0.048  14.870 -0.1805  0.4953  1.8441
    4MPD2    H314388   1.864   4.586  14.738  1.2067 -0.6671 -0.2513
    4MPD2     N14389   2.256   0.103  14.738  0.0611  0.4060  0.2765
    4MPD2    H514390   2.295   0.187  14.781 -0.9885  0.8850  0.2797
    4MPD2    N114391   1.871   0.285  14.939  0.9867 -0.5232 -0.5558
    4MPD2    H714392   1.939   0.358  14.962 -1.3615  1.1571  1.0456
    5TMC2    C114393   2.875   4.249  15.155 -0.2417 -0.5482  0.1797
    5TMC2    C214394   2.790   4.225  15.259  0.0705 -0.3169 -0.1642
    5TMC2    C314395   2.818   4.296  15.370 -0.1802  0.3342  0.2948
    5TMC2    C414396   2.982   4.327  15.159 -0.1442  0.0760 -0.5146
    5TMC2    C514397   3.017   4.392  15.274 -0.3280  0.1630  0.1555
    5TMC2    C614398   2.924   4.384  15.374 -0.2038 -0.8652 -0.1710
    5TMC2     C14399   2.814   4.236  15.020  0.4329 -0.2765 -0.8420
    5TMC2     O14400   2.691   4.252  15.010 -0.3285  0.0521  0.2879
    5TMC2     H14401   2.709   4.156  15.237 -0.0047 -0.1373 -0.4535
    5TMC2    H114402   3.039   4.352  15.071  1.1298  1.1708  0.6193
    5TMC2    H214403   2.939   4.433  15.469 -0.8443  0.7235 -0.8882
    5TMC2    C714404   3.072   4.523  15.258 -0.1206  0.0053 -0.0097
    5TMC2    C814405   2.788   4.244  15.497  0.0013  0.6156  0.3626
    5TMC2    O114406   3.163   4.569  15.329  0.4254 -0.0785  0.5808
    5TMC2    O214407   2.769   4.312  15.600 -0.4493  0.1217 -0.5099
    5TMC2    O514408   2.822   4.115  15.499  0.5160 -0.1321 -0.2909
    5TMC2    H514409   2.888   4.091  15.430 -0.0908  0.2202 -0.9811
    6MPD2     C14410   2.868   4.371  14.524  0.0803 -0.4118 -0.2814
    6MPD2    C114411   2.777   4.415  14.621 -0.6665 -0.0389 -0.0986
    6MPD2    C214412   2.774   4.356  14.751  0.7175  0.1353 -0.1956
    6MPD2    C314413   2.872   4.263  14.785  0.4617  0.0505  0.9726
    6MPD2    C414414   2.966   4.224  14.692  0.5307 -0.3359  0.0330
    6MPD2    C514415   2.955   4.270  14.561 -0.4633  0.8463  0.1170
    6MPD2     H14416   2.713   4.403  14.828  1.8421  0.4579  0.4887
    6MPD2    H114417   3.030   4.138  14.707 -0.8205 -1.1277  1.2673
    6MPD2    H214418   2.875   4.409  14.423  2.6439  1.8036  0.7309
    6MPD2    H314419   3.021   4.229  14.485  1.4195 -0.2817  2.3573
    6MPD2     N14420   2.906   4.234  14.921 -0.0514 -0.2476  0.0531
    6MPD2    H514421   3.001   4.204  14.938  1.2192  2.6881 -1.7146
    6MPD2    N114422   2.714   4.540  14.604  0.5740  1.0145  0.0572
    6MPD2    H714423   2.658   4.577  14.680 -0.2725 -0.1966  0.0269
  945NH4     N114424   3.748   0.721  15.082  0.1930 -0.2391  0.3050
  945NH4     H214425   3.735   0.685  14.986 -0.6063 -0.8747  0.6512
  945NH4     H314426   3.746   0.646  15.154  2.5775  1.0073  1.6955
  945NH4     H414427   3.672   0.788  15.108 -1.7496 -3.0496  1.8975
  945NH4     H514428   3.837   0.774  15.090  0.8840 -1.1243 -1.5827
  946SOD     NA14429   3.384   4.163  11.454  0.1204  0.0218  0.2114
  947SOD     NA14430   0.496   3.530  17.183  0.4116  0.1886 -0.8271
  948SOD     NA14431   0.014   3.122   0.642 -0.5062  0.4660  0.3959
  949SOD     NA14432   4.589   2.681  17.256 -0.1607 -0.3990  0.0443
  950SOD     NA14433   3.018   2.392  10.150 -0.6888  0.0040  0.4205
  951SOD     NA14434   4.461   1.075   2.636  0.4032 -0.2404 -0.7219
  952SOD     NA14435   1.581   3.827  16.159  0.2295 -0.3469 -0.2601
  953SOD     NA14436   1.482   2.320  13.626 -0.2567  0.2072  0.0358
  954SOD     NA14437   4.099   4.347  11.344 -0.2981  0.5145  0.2565
  955SOD     NA14438   3.143   0.178  11.316 -0.2851  0.7094  0.3620
  956SOD     NA14439   1.090   2.647  14.875  0.0400 -0.3178  0.0505
  957SOD     NA14440   0.894   2.318   3.012  0.4320  0.0864 -0.4942
  958SOD     NA14441   2.987   1.562  15.592  0.3941 -0.2050 -0.4486
  959SOD     NA14442   1.579   0.313  10.420 -0.2949  0.1725  0.0404
  960SOD     NA14443   2.644   3.711  13.190 -0.0318  0.1431  0.2580
  961SOD     NA14444   2.058   1.768  11.356 -0.0575  1.0633  0.3343
  962SOD     NA14445   3.177   1.780  11.926 -0.1487  0.4484 -0.0521
  963SOD     NA14446   1.575   3.276   8.448  0.4072 -0.0204  0.1829
  964SOD     NA14447   3.488   3.438  12.525  0.2111 -0.1027 -0.3921
  965SOD     NA14448   1.853   3.837  10.280 -0.2493  0.3034 -0.2685
  966SOD     NA14449   4.207   4.568  11.069 -0.0769  1.0815 -0.0689
  967SOD     NA14450   0.270   3.496  11.730 -0.2569  0.1969 -0.0488
  968SOD     NA14451   3.761   1.663  11.923 -0.0209  0.5272  0.3808
  969SOD     NA14452   2.439   4.463   7.176  0.0503 -0.1118 -0.1617
  970SOD     NA14453   3.208   3.912   9.313  0.1280  0.0115  0.1187
  971SOD     NA14454   1.815   0.119  10.361  0.1498  0.3137 -0.1491
  972SOD     NA14455   4.485   3.851  14.772 -0.4703 -0.1454 -0.3677
  973SOD     NA14456   1.900   2.781   1.839 -0.2583 -0.4344 -0.4243
  974SOD     NA14457   1.204   0.679   7.484  0.3330 -0.2682 -0.0646
  975SOD     NA14458   3.414   1.702   1.847 -0.2082  0.1189 -0.5675
  976SOD     NA14459   3.205   3.913  13.367  0.0065 -0.4015 -0.1902
  977SOD     NA14460   0.879   0.220  17.366  0.0191 -0.1206 -0.1331
  978SOD     NA14461   2.457   0.776   1.517  0.3208 -0.1494 -0.3174
  979SOD     NA14462   3.709   3.928  11.117 -0.2375 -0.0504 -0.3588
  980SOD     NA14463   3.996   3.931  14.349  0.2471 -0.3967 -0.1672
  981SOD     NA14464   2.129   4.348  10.650  0.5055 -0.1148 -0.0930
  982SOD     NA14465   0.075   0.508  11.170  0.8167 -0.2045  0.5509
  983SOD     NA14466   1.038   4.421   0.467  0.1752 -0.1427  0.6697
  984SOD     NA14467   2.174   2.882   0.970 -0.8166  0.1934  0.1835
  985SOD     NA14468   2.417   3.063   9.454  0.4426  0.3642 -0.3123
  986SOD     NA14469   1.938   2.890  15.067 -0.0522  0.1192 -0.0656
  987SOD     NA14470   1.574   1.265  15.180 -0.0173  0.0401 -0.3005
  988SOD     NA14471   3.935   1.963  17.249 -0.4193 -0.3299  0.1434
  989SOD     NA14472   1.917   2.606   3.359  0.0022  0.4346  0.2747
  990SOD     NA14473   0.539   2.847   8.992  0.0740 -0.2284  0.4117
  991SOD     NA14474   2.563   3.042   9.164  0.0903  0.1015 -0.2658
  992SOD     NA14475   2.827   3.912  13.322 -0.4351  0.2794 -0.1825
  993SOD     NA14476   3.996   3.563  15.252  0.6193 -0.1192 -0.0147
  994SOD     NA14477   2.360   4.185  14.702  0.3497 -0.6198 -0.3601
  995SOD     NA14478   2.573   4.636   9.975  0.4059  0.0050 -0.2487
  996SOD     NA14479   0.147   0.019  15.260 -0.0066  0.0893 -0.3192
  997SOD     NA14480   4.529   4.683   0.462  0.0386 -0.5116  0.0609
  998SOD     NA14481   4.431   4.279   2.858  0.0888  0.6991 -0.7552
  999SOD     NA14482   0.073   2.783   1.738 -0.2635 -0.3038  0.0548
 1000SOD     NA14483   3.874   4.357  11.732 -0.1379 -0.2748 -0.1678
 1001SOD     NA14484   0.610   0.792  13.110  0.1525  0.0882 -0.0910
 1002SOD     NA14485   3.061   3.698  10.344 -0.2641 -0.5319  0.6276
 1003SOD     NA14486   0.570   2.398  13.596  0.1541 -0.3100  0.0041
 1004SOD     NA14487   4.570   4.076  15.052 -0.0432 -0.0487  0.1121
 1005SOD     NA14488   2.149   1.079  15.034 -0.1295  0.0747 -0.4375
 1006SOD     NA14489   2.176   0.468  15.154  0.2617 -0.1672  0.4994
 1007SOD     NA14490   1.713   4.212   7.660 -0.0341  0.4778 -0.5180
 1008SOD     NA14491   0.397   1.645   2.277  0.6420 -1.0580 -0.0549
 1009SOD     NA14492   3.130   3.961  11.432  0.2118 -0.4658  0.2607
 1010SOD     NA14493   1.300   4.488   0.269 -0.6662 -0.0481 -0.2350
 1011SOL     OW14494   3.904   2.215  17.512 -0.6596  0.0515 -0.4775
 1011SOL    HW114495   3.996   2.196  17.492 -0.4464  0.8811 -0.2838
 1011SOL    HW214496   3.860   2.132  17.491  0.2920  0.7340 -5.0968
 1012SOL     OW14497   2.136   3.153   5.499  0.6211 -0.2076  0.1041
 1012SOL    HW114498   2.156   3.242   5.527 -0.1097  0.4865 -1.5752
 1012SOL    HW214499   2.041   3.163   5.493  0.6434  0.2200  0.5006
 1013SOL     OW14500   1.539   3.647   5.155 -0.5489  0.1905  0.0691
 1013SOL    HW114501   1.470   3.713   5.154  0.7661  1.5987  0.8460
 1013SOL    HW214502   1.599   3.667   5.083 -2.4160 -0.7038 -1.7528
 1014SOL     OW14503   1.974   1.870  12.892  0.8779 -0.4336  0.3953
 1014SOL    HW114504   2.058   1.914  12.882  2.1554 -2.1365  3.5627
 1014SOL    HW214505   1.982   1.807  12.821 -1.9334 -1.6934  1.1826
 1015SOL     OW14506   3.070   0.474   2.630 -0.6358  0.3337 -0.4305
 1015SOL    HW114507   2.994   0.518   2.593 -0.7394 -0.6663 -1.3987
 1015SOL    HW214508   3.053   0.480   2.724 -1.0952  1.0602 -0.5563
 1016SOL     OW14509   0.954   1.402   6.033 -0.0937 -0.2193  0.1324
 1016SOL    HW114510   0.962   1.479   5.976  1.0917  0.0187  0.6373
 1016SOL    HW214511   0.922   1.331   5.976  2.0646  0.3859 -1.8489
 1017SOL     OW14512   4.624   3.965   7.385 -0.3795  0.3997  0.3869
 1017SOL    HW114513   4.539   4.006   7.367 -0.8807 -1.0031 -0.4570
 1017SOL    HW214514   4.661   4.010   7.460 -0.0853  0.2763  0.3182
 1018SOL     OW14515   1.429   4.175   3.134 -0.5586 -0.5333  0.3703
 1018SOL    HW114516   1.480   4.237   3.186 -1.0216 -1.0516  1.4296
 1018SOL    HW214517   1.490   4.102   3.131  0.3965  0.2935 -0.2227
 1019SOL     OW14518   3.897   2.000   8.927 -0.4810  0.0270 -0.6674
 1019SOL    HW114519   3.929   2.074   8.874  0.8474  0.6794  1.0313
 1019SOL    HW214520   3.870   2.044   9.008  0.5029  0.1500 -0.4015
 1020SOL     OW14521   3.955   3.677   4.554 -0.3106  0.2785  0.0538
 1020SOL    HW114522   3.962   3.752   4.613  0.8613  0.9877 -0.9845
 1020SOL    HW214523   3.977   3.610   4.619  0.9089  0.3787 -0.2398
 1021SOL     OW14524   1.357   4.125  16.233  0.3174  0.1399  0.0469
 1021SOL    HW114525   1.355   4.141  16.327 -0.2903 -0.8516  0.2126
 1021SOL    HW214526   1.367   4.212  16.196 -0.3919  0.0022 -0.4867
 1022SOL     OW14527   4.298   0.799  13.879 -0.2060 -0.2054 -0.5698
 1022SOL    HW114528   4.248   0.784  13.959 -0.8489 -0.3732 -1.0063
 1022SOL    HW214529   4.226   0.799  13.816 -1.0839 -0.6898  0.4413
 1023SOL     OW14530   4.224   3.235  12.493 -0.1853  0.1379 -0.0068
 1023SOL    HW114531   4.309   3.191  12.483  1.0885  3.1941 -2.6168
 1023SOL    HW214532   4.255   3.325  12.485  0.5948 -0.1733 -0.5677
 1024SOL     OW14533   2.079   0.280  11.861 -0.3024 -0.5340  0.6782
 1024SOL    HW114534   2.083   0.361  11.911  2.0760 -0.1450 -0.1714
 1024SOL    HW214535   2.169   0.274  11.829 -0.8563  0.0359 -1.0066
 1025SOL     OW14536   0.931   1.612   1.769 -0.2241 -0.1115 -0.0629
 1025SOL    HW114537   0.868   1.636   1.700  0.4614 -0.1388 -0.6992
 1025SOL    HW214538   0.954   1.695   1.811  0.5501 -0.1940 -0.3350
 1026SOL     OW14539   4.371   0.837   0.165 -0.1370 -0.1385 -0.0828
 1026SOL    HW114540   4.435   0.873   0.104  1.6557  1.7262  2.8780
 1026SOL    HW214541   4.372   0.743   0.144  0.7030  0.4009 -2.4692
 1027SOL     OW14542   0.201   4.264   5.486 -0.5039  0.1328  0.1591
 1027SOL    HW114543   0.295   4.281   5.480 -0.9632  2.5017  0.0720
 1027SOL    HW214544   0.199   4.170   5.468 -2.1438  0.0128  0.9463
 1028SOL     OW14545   1.316   2.047   1.501 -0.3845  0.1478  0.0911
 1028SOL    HW114546   1.305   2.100   1.581 -0.5650  0.9246 -0.4486
 1028SOL    HW214547   1.268   1.968   1.525 -0.8109  0.1461 -0.7932
 1029SOL     OW14548   0.807   3.220  17.183  0.3390  0.0756  0.3344
 1029SOL    HW114549   0.784   3.142  17.133 -0.4013  1.0742 -0.8591
 1029SOL    HW214550   0.902   3.230  17.173  0.3425  1.1269  1.3269
 1030SOL     OW14551   4.096   0.388  10.459  0.2772 -0.2245  0.2812
 1030SOL    HW114552   4.135   0.474  10.440  2.0912 -1.7067 -2.7347
 1030SOL    HW214553   4.100   0.384  10.555  2.6077 -2.9393  0.0579
 1031SOL     OW14554   2.897   2.051   8.135 -0.1259 -0.0832 -0.1322
 1031SOL    HW114555   2.939   2.086   8.056  0.3524 -1.1442 -0.3434
 1031SOL    HW214556   2.970   2.077   8.191 -1.5793  0.1961  1.6286
 1032SOL     OW14557   2.866   4.140   2.296  0.8152 -0.0289 -0.3153
 1032SOL    HW114558   2.848   4.103   2.382  2.2977  1.0754  0.4646
 1032SOL    HW214559   2.793   4.109   2.243 -1.1206  1.3368  1.5689
 1033SOL     OW14560   1.982   3.055   8.960  0.5451 -0.0260 -0.2553
 1033SOL    HW114561   2.063   3.005   8.972  1.6436  1.9154  0.3903
 1033SOL    HW214562   1.912   2.998   8.992 -0.2717  1.0721 -0.1166
 1034SOL     OW14563   1.587   3.118   6.556 -0.8529 -0.1426  0.2162
 1034SOL    HW114564   1.589   3.183   6.486 -0.7896 -1.7661 -1.2724
 1034SOL    HW214565   1.678   3.091   6.556 -0.5073  1.0197 -0.1435
 1035SOL     OW14566   3.739   4.337  13.909 -0.6176 -0.2360 -0.1721
 1035SOL    HW114567   3.643   4.330  13.909 -0.6713  0.1621 -3.2111
 1035SOL    HW214568   3.754   4.290  13.991  2.3874 -0.2445 -0.7424
 1036SOL     OW14569   2.096   4.376   6.887  0.8967 -0.2581 -0.5536
 1036SOL    HW114570   2.091   4.406   6.796  0.4999 -0.2339 -0.5254
 1036SOL    HW214571   2.007   4.346   6.902  0.3836 -0.7903 -4.6106
 1037SOL     OW14572   4.363   2.940  17.437 -0.4565 -0.6762  0.2933
 1037SOL    HW114573   4.349   3.022  17.390  0.2547 -0.3398  0.6650
 1037SOL    HW214574   4.306   2.878  17.391 -2.2490  0.4383  1.0507
 1038SOL     OW14575   4.094   2.170   7.767  0.0238  0.1352 -0.1459
 1038SOL    HW114576   4.021   2.196   7.824  0.5413 -1.2725  1.1375
 1038SOL    HW214577   4.173   2.181   7.820 -0.6882  0.5387  0.8273
 1039SOL     OW14578   4.514   1.277   8.535  0.1689 -0.0068 -0.2897
 1039SOL    HW114579   4.563   1.339   8.480  0.3095 -0.0162 -0.1731
 1039SOL    HW214580   4.433   1.327   8.539 -0.4394 -0.8207 -2.1150
 1040SOL     OW14581   3.164   0.338   3.365  0.9287 -0.0074 -0.1085
 1040SOL    HW114582   3.104   0.377   3.429  0.3721  1.7866 -1.6892
 1040SOL    HW214583   3.237   0.302   3.414  2.3732  1.6105 -1.0631
 1041SOL     OW14584   4.192   0.420   6.740 -0.2084  0.0597 -0.2141
 1041SOL    HW114585   4.173   0.507   6.775  2.4699  0.8486 -0.6992
 1041SOL    HW214586   4.285   0.423   6.761  0.1812 -0.4477 -1.8529
 1042SOL     OW14587   2.472   0.609  14.692 -0.1645  0.0312  0.0103
 1042SOL    HW114588   2.566   0.624  14.681  0.1429 -0.2380  2.4267
 1042SOL    HW214589   2.454   0.555  14.615  0.1396  1.8169 -1.3368
 1043SOL     OW14590   1.233   1.965   9.403 -0.1117  0.0001 -0.2775
 1043SOL    HW114591   1.142   1.940   9.386 -0.9858  0.2396  3.7895
 1043SOL    HW214592   1.288   1.888   9.410 -2.2872 -1.6540 -1.3161
 1044SOL     OW14593   1.032   3.372   2.480 -0.5695  0.2276  1.0361
 1044SOL    HW114594   1.099   3.361   2.547 -0.8371 -1.3781  1.0540
 1044SOL    HW214595   0.970   3.420   2.534 -0.8340  1.1315 -0.0625
 1045SOL     OW14596   1.397   3.664   6.219  0.3333  0.2260  0.3045
 1045SOL    HW114597   1.465   3.716   6.262  0.8005  0.9487 -1.3203
 1045SOL    HW214598   1.445   3.633   6.142  1.8011  1.6629  0.6343
 1046SOL     OW14599   1.900   3.194   4.967 -0.3721  0.2604  0.2728
 1046SOL    HW114600   1.805   3.182   4.975 -0.4536 -1.5133 -3.1254
 1046SOL    HW214601   1.906   3.288   4.947  0.9243  0.2485  0.6062
 1047SOL     OW14602   0.099   0.551   5.202 -0.1904  0.7121 -0.1573
 1047SOL    HW114603   0.070   0.529   5.291  0.0884 -1.2102 -0.5498
 1047SOL    HW214604   0.014   0.535   5.161 -0.3793  0.1524  0.4532
 1048SOL     OW14605   1.158   0.760   5.037 -0.4955  0.5272  0.2481
 1048SOL    HW114606   1.238   0.757   5.090 -1.3981  0.4296  1.5927
 1048SOL    HW214607   1.100   0.741   5.110  0.6901 -2.2101  0.4752
 1049SOL     OW14608   1.981   2.461   8.701 -0.1287  0.0017  0.1560
 1049SOL    HW114609   1.958   2.382   8.750 -1.4394 -1.0991 -2.2229
 1049SOL    HW214610   1.899   2.510   8.708  0.6216  1.2223  0.3588
 1050SOL     OW14611   3.413   4.377   6.222  0.0022  0.1889  0.0897
 1050SOL    HW114612   3.433   4.460   6.180  1.1940  0.0962  0.4790
 1050SOL    HW214613   3.322   4.391   6.249 -0.7210  0.7702 -2.6913
 1051SOL     OW14614   1.015   4.219  15.582 -0.1075  0.1865  0.3347
 1051SOL    HW114615   0.984   4.129  15.573  1.3099 -0.2098 -0.6590
 1051SOL    HW214616   1.091   4.191  15.633 -0.4306  1.5840  1.5851
 1052SOL     OW14617   0.220   0.879   0.812 -0.0925 -0.4522 -0.1306
 1052SOL    HW114618   0.210   0.790   0.846  3.0091 -0.5855  0.4406
 1052SOL    HW214619   0.157   0.876   0.741 -0.3076  1.5744 -0.0073
 1053SOL     OW14620   0.884   2.994   5.194  0.0941  0.9420 -0.4790
 1053SOL    HW114621   0.865   3.085   5.217 -0.5124  0.9155 -0.8855
 1053SOL    HW214622   0.865   2.998   5.100 -3.1622  0.5389  0.1749
 1054SOL     OW14623   3.447   3.096   2.215  0.5075 -0.0422 -0.0474
 1054SOL    HW114624   3.394   3.175   2.226  0.0058 -0.7408  2.4290
 1054SOL    HW214625   3.454   3.079   2.309  0.9741  2.1723  0.3226
 1055SOL     OW14626   3.658   1.726   2.390  0.2078 -0.1320 -0.0670
 1055SOL    HW114627   3.705   1.725   2.307 -0.0183 -0.5079 -0.1869
 1055SOL    HW214628   3.694   1.806   2.430 -1.6707  1.3287 -1.2805
 1056SOL     OW14629   4.197   1.952  16.511  0.7228  0.2980 -0.3017
 1056SOL    HW114630   4.138   2.018  16.549 -1.0561 -2.3621  1.5575
 1056SOL    HW214631   4.148   1.924  16.433 -2.2154 -1.9999  2.3919
 1057SOL     OW14632   1.816   3.968   3.552 -0.0600 -0.2410 -0.1964
 1057SOL    HW114633   1.755   3.947   3.481 -0.0277  1.3959 -0.7209
 1057SOL    HW214634   1.868   3.888   3.558 -1.0250 -0.7910  0.6208
 1058SOL     OW14635   1.162   0.446   2.872 -0.6246 -0.3639 -0.3708
 1058SOL    HW114636   1.218   0.446   2.949 -1.7947 -1.0356  0.4809
 1058SOL    HW214637   1.125   0.534   2.887  0.7640  0.3410 -1.0949
 1059SOL     OW14638   2.187   3.210   8.413  0.4151 -0.4094  0.1327
 1059SOL    HW114639   2.196   3.217   8.318  1.6608 -1.8700  0.1383
 1059SOL    HW214640   2.181   3.115   8.421  3.2356 -0.9464 -3.9784
 1060SOL     OW14641   0.991   0.725   7.444 -0.3491  0.0154 -0.7471
 1060SOL    HW114642   0.940   0.776   7.507 -0.0744 -1.0557  0.3513
 1060SOL    HW214643   0.927   0.658   7.421 -0.3035 -1.6682  3.9960
 1061SOL     OW14644   1.630   2.871  14.781  0.6733 -0.1509  0.0526
 1061SOL    HW114645   1.704   2.916  14.822  0.4408 -0.0860  0.3975
 1061SOL    HW214646   1.672   2.794  14.742 -2.1876 -2.0953  0.8734
 1062SOL     OW14647   4.446   3.880   1.901  0.1962  0.0262  0.2367
 1062SOL    HW114648   4.491   3.940   1.842  2.7041 -1.5396  0.5513
 1062SOL    HW214649   4.389   3.835   1.839  0.2608  2.0072 -1.2587
 1063SOL     OW14650   1.385   2.445   6.947 -0.7630 -0.4845  0.1272
 1063SOL    HW114651   1.457   2.443   7.010  0.3804 -0.5072 -1.1944
 1063SOL    HW214652   1.417   2.382   6.882 -0.5727  0.2838 -0.5193
 1064SOL     OW14653   4.188   1.534   9.086 -0.4816  0.1434  0.3845
 1064SOL    HW114654   4.255   1.478   9.126  1.2267  1.8322 -0.1289
 1064SOL    HW214655   4.245   1.581   9.025 -1.0529  0.8900  0.4275
 1065SOL     OW14656   2.950   0.068  13.941 -0.2220  0.4965 -0.1879
 1065SOL    HW114657   2.922   0.158  13.923 -2.9648 -0.1068  1.1075
 1065SOL    HW214658   2.962   0.036  13.852 -0.1805 -1.1211  0.3979
 1066SOL     OW14659   1.086   2.889   9.515  0.0923  0.4041 -0.2042
 1066SOL    HW114660   1.146   2.947   9.562 -0.7648  1.6099 -0.5756
 1066SOL    HW214661   1.126   2.869   9.430 -0.5191  1.5765 -0.7715
 1067SOL     OW14662   1.440   3.431  14.248 -0.2795 -0.0551 -0.1312
 1067SOL    HW114663   1.473   3.520  14.238  0.2774 -0.1798  0.5783
 1067SOL    HW214664   1.346   3.442  14.259 -0.1142  1.9895 -0.9033
 1068SOL     OW14665   0.352   4.013   4.834  0.0176 -0.4401 -0.0362
 1068SOL    HW114666   0.342   3.959   4.756  0.5880 -1.5733  0.6780
 1068SOL    HW214667   0.269   4.012   4.881 -0.2770  0.6856 -0.5510
 1069SOL     OW14668   4.570   3.717  15.420  0.0876 -0.3171  0.8070
 1069SOL    HW114669   4.491   3.742  15.373  0.4384  0.3146  0.5577
 1069SOL    HW214670   4.522   3.673  15.490  0.5117 -1.9313  0.0886
 1070SOL     OW14671   3.863   3.245  11.303  0.5996 -0.0472  0.2945
 1070SOL    HW114672   3.820   3.212  11.382  0.1497 -0.0907  0.0314
 1070SOL    HW214673   3.800   3.313  11.276  1.2060 -0.6148 -2.4473
 1071SOL     OW14674   1.193   0.078   3.061 -0.5794 -0.5891  0.1081
 1071SOL    HW114675   1.221   4.707   3.073  0.0154 -0.4240 -0.0358
 1071SOL    HW214676   1.106   0.065   3.024  0.0232 -0.2511 -1.3995
 1072SOL     OW14677   2.366   1.744   1.913 -0.9011 -0.0387  0.1005
 1072SOL    HW114678   2.287   1.720   1.962 -0.7904 -1.4570 -0.4070
 1072SOL    HW214679   2.361   1.669   1.853 -0.9220  0.1792 -0.1683
 1073SOL     OW14680   2.544   3.563   8.510 -0.5721 -0.2770  0.2625
 1073SOL    HW114681   2.516   3.628   8.446 -1.4699  0.4316  1.3685
 1073SOL    HW214682   2.618   3.515   8.476  0.2935 -0.2225  2.0441
 1074SOL     OW14683   4.023   0.236  17.558  0.2005  0.2802  0.2941
 1074SOL    HW114684   3.948   0.259  17.503  1.9912  1.6188 -1.6213
 1074SOL    HW214685   4.071   0.318  17.541  0.2083  0.1104 -0.4790
 1075SOL     OW14686   0.081   2.227   7.605  0.0625 -0.3970  0.9694
 1075SOL    HW114687   0.007   2.170   7.581 -0.6566  1.2436 -0.7367
 1075SOL    HW214688   0.058   2.298   7.545 -0.3174 -1.6768 -0.4255
 1076SOL     OW14689   1.792   3.943   6.728 -0.4847  0.8987  0.5732
 1076SOL    HW114690   1.865   4.005   6.730  0.0541  0.2328  1.2024
 1076SOL    HW214691   1.731   3.991   6.784 -0.3958  0.7460  0.7973
 1077SOL     OW14692   3.081   2.866   6.929 -0.1682 -0.1976  0.5486
 1077SOL    HW114693   3.095   2.949   6.974  2.3404 -0.3509 -0.0018
 1077SOL    HW214694   3.164   2.819   6.931 -0.0177  0.0365 -0.2368
 1078SOL     OW14695   3.287   3.784  17.447  0.2138  0.1953  0.3560
 1078SOL    HW114696   3.362   3.816  17.497 -0.0220 -0.9746  1.4705
 1078SOL    HW214697   3.233   3.862  17.436 -1.2172 -0.9184 -0.5651
 1079SOL     OW14698   3.549   4.256   3.656  0.0273 -0.3449  0.0457
 1079SOL    HW114699   3.574   4.239   3.565  1.2235  1.5620  0.0319
 1079SOL    HW214700   3.457   4.231   3.663  0.2484 -0.8395  1.2985
 1080SOL     OW14701   0.151   3.420   2.024  0.1597 -0.0780  0.3807
 1080SOL    HW114702   0.119   3.432   1.934  1.2364  2.4778  0.3222
 1080SOL    HW214703   0.158   3.325   2.015 -0.2303  0.0102 -0.8158
 1081SOL     OW14704   3.601   0.355   5.238  0.8937  0.0097 -0.6336
 1081SOL    HW114705   3.637   0.268   5.223 -1.5096 -1.0858 -0.1568
 1081SOL    HW214706   3.644   0.375   5.321  2.3257 -0.0988 -1.3598
 1082SOL     OW14707   0.862   2.846   9.334 -0.2736 -0.7397  0.3568
 1082SOL    HW114708   0.941   2.792   9.327  0.9664  1.0314  0.8319
 1082SOL    HW214709   0.854   2.864   9.428 -1.4226  0.9338 -0.0607
 1083SOL     OW14710   2.882   0.922   5.804  0.2344  1.0426  0.5218
 1083SOL    HW114711   2.812   0.858   5.818 -1.0150  2.4161  0.5975
 1083SOL    HW214712   2.889   0.975   5.884  0.2262  0.5264  0.8654
 1084SOL     OW14713   1.013   2.109   5.730  0.0163 -0.4337 -0.3061
 1084SOL    HW114714   0.954   2.147   5.665 -0.2039 -1.3849 -0.6667
 1084SOL    HW214715   1.094   2.149   5.696 -1.4498  1.6875 -1.3292
 1085SOL     OW14716   0.194   3.279   5.239 -0.2186 -0.0927  0.4286
 1085SOL    HW114717   0.184   3.335   5.316 -0.6329 -0.6777  0.8000
 1085SOL    HW214718   0.181   3.194   5.281  3.3132 -1.3807 -1.1296
 1086SOL     OW14719   0.514   3.495   0.631 -0.2043 -0.6210  0.4547
 1086SOL    HW114720   0.514   3.574   0.685  2.2494 -1.0689  1.1252
 1086SOL    HW214721   0.438   3.452   0.670  0.5665 -0.4916  2.1223
 1087SOL     OW14722   4.511   2.557   4.424  0.4351 -0.0936  0.4509
 1087SOL    HW114723   4.486   2.574   4.514 -0.2902  1.7982 -0.1150
 1087SOL    HW214724   4.510   2.461   4.427  1.2669 -0.0736  1.3116
 1088SOL     OW14725   0.115   0.838   0.096 -0.4150  1.1997 -0.0118
 1088SOL    HW114726   0.197   0.874   0.128  0.9983 -1.2583 -0.8849
 1088SOL    HW214727   0.145   0.752   0.065  2.3022  0.3105  5.0852
 1089SOL     OW14728   2.618   0.125  10.048  0.6433  0.0295  0.5981
 1089SOL    HW114729   2.551   0.177  10.093  0.7393  1.5460 -0.9764
 1089SOL    HW214730   2.678   0.193  10.016 -0.5620 -0.2841 -2.3425
 1090SOL     OW14731   1.537   0.707  15.933 -0.2078  0.5787  0.7088
 1090SOL    HW114732   1.452   0.670  15.958 -0.2111  0.6119  0.7472
 1090SOL    HW214733   1.587   0.687  16.011 -1.0021  2.5604  1.7197
 1091SOL     OW14734   0.012   4.389   1.976  0.2749  0.0511  0.3749
 1091SOL    HW114735   0.103   4.360   1.988 -0.0570 -1.6063 -1.0620
 1091SOL    HW214736   0.019   4.435   1.892 -1.3283 -1.6350 -0.6848
 1092SOL     OW14737   1.549   0.242   6.206 -0.0367 -0.5089  0.4730
 1092SOL    HW114738   1.574   0.193   6.127  3.4643  2.4367 -0.2318
 1092SOL    HW214739   1.629   0.241   6.258  2.3524  1.2203 -3.2059
 1093SOL     OW14740   3.361   3.381  16.162 -0.4021  0.2201  0.0570
 1093SOL    HW114741   3.435   3.398  16.104 -0.1032 -0.4471  0.2363
 1093SOL    HW214742   3.346   3.293  16.128 -2.3891  0.2758  0.8078
 1094SOL     OW14743   2.080   4.054   4.484  0.3128  0.7742 -0.0151
 1094SOL    HW114744   2.073   4.083   4.393 -0.8944  2.6968  0.6666
 1094SOL    HW214745   2.106   4.135   4.529  0.0160  1.3397 -0.8508
 1095SOL     OW14746   0.913   2.378  11.710 -0.3823 -0.4987  0.1584
 1095SOL    HW114747   0.886   2.287  11.700  3.2249 -1.2344 -2.5040
 1095SOL    HW214748   0.941   2.377  11.802  0.0870  0.1069  0.0220
 1096SOL     OW14749   2.894   2.501   2.021 -0.0030  0.1287  0.3590
 1096SOL    HW114750   2.910   2.433   1.955  0.0888 -0.4995  1.0241
 1096SOL    HW214751   2.862   2.439   2.087 -4.2146  2.3754  0.4096
 1097SOL     OW14752   0.612   2.339   0.036 -0.3869  0.6092  0.4325
 1097SOL    HW114753   0.641   2.281   0.106  0.2101  1.8610  1.2297
 1097SOL    HW214754   0.541   2.291  17.674  0.1869  1.1461 -1.1499
 1098SOL     OW14755   0.629   3.998   5.118  0.0368  0.1608  0.0950
 1098SOL    HW114756   0.630   4.023   5.026 -1.0409 -0.9512 -0.2140
 1098SOL    HW214757   0.613   3.904   5.128 -0.9550  0.3506  0.3279
 1099SOL     OW14758   0.774   3.244  14.051 -0.1479  0.7692  0.6380
 1099SOL    HW114759   0.800   3.199  13.971 -1.0630 -0.0901  0.8141
 1099SOL    HW214760   0.765   3.338  14.035  1.0475  1.5361  4.4588
 1100SOL     OW14761   2.423   2.025   4.426 -0.0681 -0.0758 -0.4882
 1100SOL    HW114762   2.461   2.049   4.511 -0.7867  0.6134 -0.3625
 1100SOL    HW214763   2.391   1.936   4.440 -0.2195  0.0939  0.2761
 1101SOL     OW14764   2.649   0.556   6.495  0.2845  0.2196  0.6348
 1101SOL    HW114765   2.697   0.638   6.497 -0.5422  0.7683 -1.2035
 1101SOL    HW214766   2.665   0.521   6.407  1.6319  1.2116  0.4921
 1102SOL     OW14767   1.662   2.464   6.141 -0.1999 -0.0087  0.0499
 1102SOL    HW114768   1.688   2.545   6.098 -0.7001  0.3649  0.4392
 1102SOL    HW214769   1.572   2.489   6.162 -0.8381 -0.0977 -2.5739
 1103SOL     OW14770   2.048   3.743   0.055 -0.2047  0.5441 -0.4028
 1103SOL    HW114771   2.137   3.712   0.066  0.1202  1.2725 -0.9607
 1103SOL    HW214772   2.008   3.706   0.134 -1.3736  3.6756  0.4976
 1104SOL     OW14773   4.171   0.952   2.330 -0.1474 -0.0421  0.5087
 1104SOL    HW114774   4.144   0.927   2.418  2.4334  1.0594  1.6097
 1104SOL    HW214775   4.092   0.997   2.300 -0.3314  0.4958  1.8043
 1105SOL     OW14776   3.627   1.206  12.506 -0.3215 -0.1888 -0.1307
 1105SOL    HW114777   3.542   1.206  12.460 -0.3942 -0.9624 -0.0045
 1105SOL    HW214778   3.650   1.113  12.495  0.2850  0.0531 -0.9008
 1106SOL     OW14779   4.136   4.077   8.371  0.0365 -0.1826  0.1807
 1106SOL    HW114780   4.102   4.047   8.455 -0.8445 -0.5842 -0.3217
 1106SOL    HW214781   4.219   4.029   8.369  2.3385  3.7700 -0.7027
 1107SOL     OW14782   1.454   4.081   1.778 -0.0179  0.0496  0.5610
 1107SOL    HW114783   1.377   4.136   1.762 -1.9892 -2.4471  1.4289
 1107SOL    HW214784   1.422   3.991   1.788 -1.3128  0.2295 -2.0553
 1108SOL     OW14785   2.063   0.597  17.642 -0.0530  0.5294  0.2982
 1108SOL    HW114786   2.024   0.540  17.576 -1.2895 -0.2942  1.7175
 1108SOL    HW214787   2.026   0.677  17.606  0.9774  1.2049  0.7271
 1109SOL     OW14788   4.008   2.199   9.880  0.0727  0.6058 -0.3102
 1109SOL    HW114789   4.061   2.256   9.936  0.7505 -0.0403 -0.2926
 1109SOL    HW214790   4.074   2.161   9.821  0.3485  0.6424 -0.0248
 1110SOL     OW14791   2.322   1.726   6.743 -0.6766 -0.3336 -0.1908
 1110SOL    HW114792   2.270   1.688   6.814  0.5705 -1.2484  0.2230
 1110SOL    HW214793   2.367   1.649   6.707 -0.9953 -0.6518  0.0848
 1111SOL     OW14794   3.647   2.449   4.570 -0.2124  0.0627 -0.4945
 1111SOL    HW114795   3.704   2.416   4.500  0.2470  0.6381 -0.3894
 1111SOL    HW214796   3.562   2.447   4.527  0.1950  0.7802 -1.3434
 1112SOL     OW14797   4.417   2.656  17.420  0.1847 -0.2061  0.0813
 1112SOL    HW114798   4.418   2.657  17.516  1.4655 -0.6186  0.0828
 1112SOL    HW214799   4.359   2.729  17.398  3.0249  2.2516  0.6963
 1113SOL     OW14800   4.153   3.226   4.069  0.3288  0.5992 -0.3114
 1113SOL    HW114801   4.248   3.218   4.084  0.5347 -0.5863 -2.1501
 1113SOL    HW214802   4.153   3.156   4.003  2.7622  1.4265 -1.2018
 1114SOL     OW14803   4.611   4.017   2.273  0.1108 -0.3114 -0.3966
 1114SOL    HW114804   4.628   3.999   2.365 -2.4939  1.7333  0.4622
 1114SOL    HW214805   4.693   3.996   2.228  1.3425  2.1257  0.7053
 1115SOL     OW14806   0.979   0.652   6.046  0.6683 -0.1122  0.0448
 1115SOL    HW114807   0.889   0.635   6.074  0.4124  0.0562 -0.6582
 1115SOL    HW214808   1.027   0.664   6.127  1.8582  1.2231 -0.8569
 1116SOL     OW14809   3.826   1.711  15.419 -0.3664  0.2499  0.2515
 1116SOL    HW114810   3.737   1.734  15.447 -0.7525  0.5439 -1.1951
 1116SOL    HW214811   3.803   1.622  15.393  1.1382 -0.5434  1.6297
 1117SOL     OW14812   4.557   2.965   6.954 -0.0494  0.1986  0.5140
 1117SOL    HW114813   4.567   3.045   6.903 -1.5186  0.0678  0.0169
 1117SOL    HW214814   4.640   2.924   6.930 -0.4928 -1.1415  1.2619
 1118SOL     OW14815   3.463   2.857   2.695 -0.3595 -0.2412 -0.9948
 1118SOL    HW114816   3.475   2.763   2.693  0.8312 -0.1143  1.0298
 1118SOL    HW214817   3.373   2.862   2.728 -0.4821 -0.0331 -1.3528
 1119SOL     OW14818   1.782   2.471   4.960 -0.1079  0.6663  0.8174
 1119SOL    HW114819   1.800   2.542   4.898 -2.0690  0.4776  0.0503
 1119SOL    HW214820   1.838   2.508   5.029 -0.1570 -0.1527  1.3013
 1120SOL     OW14821   2.628   0.699   9.166  0.0071 -0.3910 -0.3598
 1120SOL    HW114822   2.702   0.694   9.227 -0.3161 -1.4246 -0.0487
 1120SOL    HW214823   2.587   0.613   9.173  0.2598 -0.3459  1.7534
 1121SOL     OW14824   0.315   3.165   5.636  0.1944  0.4487 -0.1248
 1121SOL    HW114825   0.259   3.134   5.565 -0.7610  0.8705  0.4527
 1121SOL    HW214826   0.271   3.245   5.665  0.6937  1.4346 -2.1117
 1122SOL     OW14827   2.096   3.239   2.830  0.8344 -0.0990 -0.0089
 1122SOL    HW114828   2.188   3.219   2.848  1.9782  2.2736 -3.3406
 1122SOL    HW214829   2.066   3.176   2.764 -1.3862  0.9469  0.0056
 1123SOL     OW14830   4.567   4.331   1.685  0.1376 -0.0681  0.4705
 1123SOL    HW114831   4.623   4.355   1.611 -0.1241  0.5897  0.4927
 1123SOL    HW214832   4.567   4.414   1.731  0.5698  0.0368  0.2865
 1124SOL     OW14833   0.441   1.524   2.080 -0.2495  0.7385 -0.0990
 1124SOL    HW114834   0.508   1.461   2.054 -1.1442 -0.3679  0.2729
 1124SOL    HW214835   0.434   1.572   1.997 -0.1947  1.2171  0.1709
 1125SOL     OW14836   4.144   3.043  11.848 -0.3731 -0.2726 -0.1319
 1125SOL    HW114837   4.072   3.093  11.809 -2.1487 -2.0412  0.8372
 1125SOL    HW214838   4.169   2.984  11.777 -1.3975 -1.0524  0.1498
 1126SOL     OW14839   2.854   0.553  17.167  0.1485 -0.3726 -0.2023
 1126SOL    HW114840   2.827   0.499  17.241 -0.6376 -1.3743 -1.2243
 1126SOL    HW214841   2.926   0.495  17.142  0.1356 -0.4126 -0.1477
 1127SOL     OW14842   2.546   0.178   6.822  0.1173 -0.3591  0.2960
 1127SOL    HW114843   2.594   0.175   6.905  1.7828  0.4221 -0.6283
 1127SOL    HW214844   2.597   0.247   6.779  0.0876 -0.9686 -0.7177
 1128SOL     OW14845   3.343   1.567   5.276  0.3373 -0.1635 -0.8561
 1128SOL    HW114846   3.275   1.526   5.328 -0.1318  0.8297 -0.6865
 1128SOL    HW214847   3.418   1.513   5.299 -0.8587 -0.9130  1.2446
 1129SOL     OW14848   4.468   4.033   3.317  0.0930  0.4925  0.2599
 1129SOL    HW114849   4.478   4.071   3.405  2.5873  2.2912 -0.8000
 1129SOL    HW214850   4.529   3.960   3.320 -2.7430 -1.9055 -1.1429
 1130SOL     OW14851   1.048   3.144   5.926 -0.1658  0.0557  0.6168
 1130SOL    HW114852   0.963   3.117   5.961  0.3558 -0.4263  1.5301
 1130SOL    HW214853   1.015   3.231   5.905  0.4994  0.2123  0.2505
 1131SOL     OW14854   4.079   3.001   4.366  0.2064 -0.0061 -0.4710
 1131SOL    HW114855   4.140   2.961   4.428  1.1433  1.3331 -0.5544
 1131SOL    HW214856   4.098   2.948   4.288  0.9052 -1.3609  0.6163
 1132SOL     OW14857   2.888   4.662   7.819 -0.4444  0.2369  0.3617
 1132SOL    HW114858   2.815   4.611   7.784  0.2865 -0.0499 -0.7374
 1132SOL    HW214859   2.893   0.005   7.746 -1.2570  0.9219  0.8850
 1133SOL     OW14860   0.361   4.033   1.013  0.1165  0.7897 -0.9387
 1133SOL    HW114861   0.415   4.096   1.061 -1.4701  0.0269  1.8174
 1133SOL    HW214862   0.292   4.090   0.978 -0.1708  0.6425 -0.6133
 1134SOL     OW14863   0.017   2.269   2.807 -0.3220 -0.0216 -0.0869
 1134SOL    HW114864   0.029   2.201   2.740 -0.4202 -0.2430  0.1172
 1134SOL    HW214865   0.103   2.292   2.840 -0.8619  0.2490  1.1288
 1135SOL     OW14866   0.537   3.335   8.250  0.5212 -0.0783  0.1114
 1135SOL    HW114867   0.603   3.368   8.310 -1.3687  2.2444  0.9055
 1135SOL    HW214868   0.586   3.263   8.211 -0.1308 -1.6907  2.2656
 1136SOL     OW14869   0.655   2.705   2.675 -0.0780 -0.5670 -0.6538
 1136SOL    HW114870   0.691   2.723   2.588  2.1200  0.2534  0.4109
 1136SOL    HW214871   0.694   2.763   2.740 -3.7686  0.8759  0.2714
 1137SOL     OW14872   2.589   4.641   5.906 -0.6018  0.0285  0.4760
 1137SOL    HW114873   2.523   4.678   5.848  0.5189  0.4666 -0.5033
 1137SOL    HW214874   2.668   4.675   5.865 -0.8179 -0.0307  0.0080
 1138SOL     OW14875   3.552   3.369   4.809  0.5369 -0.5414  0.1475
 1138SOL    HW114876   3.613   3.340   4.742  0.7162 -0.7679  0.4095
 1138SOL    HW214877   3.498   3.421   4.748 -0.6255  0.2482  1.8391
 1139SOL     OW14878   0.344   3.599   4.426  0.3600 -0.0736  0.4641
 1139SOL    HW114879   0.419   3.630   4.477  0.5731 -0.4673  0.3920
 1139SOL    HW214880   0.344   3.666   4.358  0.0309  0.2175  0.7482
 1140SOL     OW14881   2.932   0.561   6.826 -0.0042 -0.3579  0.2510
 1140SOL    HW114882   2.960   0.555   6.918  0.2518  0.4190  0.2193
 1140SOL    HW214883   2.991   0.493   6.794 -0.1363  0.2273 -1.2089
 1141SOL     OW14884   0.738   3.554  16.609 -0.6701 -0.0277 -0.1861
 1141SOL    HW114885   0.824   3.525  16.581 -0.2237  1.5954 -0.4591
 1141SOL    HW214886   0.760   3.587  16.696 -1.1149  0.2827 -0.1918
 1142SOL     OW14887   1.311   0.913  13.454  0.4007 -0.4619 -0.2027
 1142SOL    HW114888   1.341   0.994  13.414 -1.7082 -0.6920 -2.3075
 1142SOL    HW214889   1.221   0.912  13.421  0.9422 -0.9310 -1.6916
 1143SOL     OW14890   0.363   0.272  16.245  0.1646  0.4566 -0.0345
 1143SOL    HW114891   0.376   0.339  16.177  1.3451 -2.2287 -2.4561
 1143SOL    HW214892   0.268   0.260  16.246  0.1570  0.4324 -0.6173
 1144SOL     OW14893   2.308   0.617   8.351  0.2156  0.3654  0.4234
 1144SOL    HW114894   2.228   0.646   8.307  0.4087 -0.2485 -0.3153
 1144SOL    HW214895   2.318   0.671   8.430 -1.4079 -0.6877  1.3401
 1145SOL     OW14896   1.419   4.661  16.381  0.2239  0.1907  0.2408
 1145SOL    HW114897   1.513   4.661  16.396 -0.6022  1.6763  5.3340
 1145SOL    HW214898   1.385   4.594  16.440  0.0839  0.9148  0.9857
 1146SOL     OW14899   0.717   1.840   6.130 -0.4833  0.0947 -0.7390
 1146SOL    HW114900   0.685   1.919   6.087  1.6791 -0.8238 -4.0363
 1146SOL    HW214901   0.682   1.777   6.067  1.0522 -1.0372 -0.4580
 1147SOL     OW14902   3.954   3.558   2.288 -0.4241 -0.4345 -0.1085
 1147SOL    HW114903   3.998   3.601   2.215 -0.4640  0.6817  0.5196
 1147SOL    HW214904   4.006   3.478   2.285 -0.0644 -0.0972 -2.8539
 1148SOL     OW14905   0.822   2.446   0.967  0.3795  0.1331 -0.3759
 1148SOL    HW114906   0.869   2.390   0.905 -0.2961  0.5762 -1.2949
 1148SOL    HW214907   0.753   2.477   0.908  0.5130 -0.3547 -0.7891
 1149SOL     OW14908   1.686   2.183   3.619  0.0554 -0.1995  0.3204
 1149SOL    HW114909   1.590   2.189   3.626  0.0114 -0.0563 -0.3880
 1149SOL    HW214910   1.695   2.211   3.528 -1.5886 -1.0370 -0.1132
 1150SOL     OW14911   0.304   0.164  15.330  1.0501  0.5836  0.7986
 1150SOL    HW114912   0.303   0.239  15.270  0.9478  0.0293  0.1114
 1150SOL    HW214913   0.376   0.199  15.383  0.4241  0.0004  2.0168
 1151SOL     OW14914   3.073   1.401   8.454  0.0673  0.2546  0.5449
 1151SOL    HW114915   3.089   1.491   8.427 -1.8447  0.6768  0.7958
 1151SOL    HW214916   3.139   1.384   8.521  0.0646 -0.2369  0.4202
 1152SOL     OW14917   1.101   3.079   3.847 -0.3414  0.4711  0.3711
 1152SOL    HW114918   1.129   3.014   3.783 -0.5844 -1.7659  2.5327
 1152SOL    HW214919   1.181   3.109   3.890 -0.2826 -0.1988  0.7350
 1153SOL     OW14920   0.372   3.410   4.178 -0.5746 -0.5653 -0.6649
 1153SOL    HW114921   0.375   3.478   4.111 -1.3936 -2.5632 -2.7170
 1153SOL    HW214922   0.285   3.416   4.218 -1.6258 -0.6870 -2.9397
 1154SOL     OW14923   3.171   1.292   0.737 -0.2666  0.2390  0.3408
 1154SOL    HW114924   3.222   1.219   0.771 -0.2333  0.1076  0.0089
 1154SOL    HW214925   3.207   1.286   0.649 -0.8998  1.5463 -0.0070
 1155SOL     OW14926   4.645   0.876   4.223 -0.1198  0.0022  0.5087
 1155SOL    HW114927   4.612   0.965   4.213  1.3397  0.5434  0.4390
 1155SOL    HW214928   0.011   0.873   4.180  0.2643  2.0986  1.1132
 1156SOL     OW14929   2.018   3.757   1.612 -0.1936 -0.0206 -0.4799
 1156SOL    HW114930   2.087   3.789   1.554 -0.9621  1.1473 -0.7551
 1156SOL    HW214931   2.064   3.760   1.696 -0.0819 -3.1467 -0.4429
 1157SOL     OW14932   3.565   3.229   7.277  0.2643 -0.1740 -0.1941
 1157SOL    HW114933   3.639   3.173   7.301  1.9658  2.0698 -0.1991
 1157SOL    HW214934   3.565   3.299   7.342 -1.9304 -1.9610  1.7311
 1158SOL     OW14935   1.213   0.497   8.312  0.0964 -0.6343 -0.4615
 1158SOL    HW114936   1.287   0.558   8.310 -0.6015  0.1879 -1.7306
 1158SOL    HW214937   1.188   0.512   8.403 -1.8006  0.8713 -1.2131
 1159SOL     OW14938   3.144   2.795   5.015  0.3657  0.5037  0.2269
 1159SOL    HW114939   3.220   2.854   5.012 -0.7821  1.9344 -0.9514
 1159SOL    HW214940   3.156   2.745   5.096 -0.2812 -0.9362 -0.5776
 1160SOL     OW14941   4.623   3.127   6.376 -0.3228 -0.3209  0.3552
 1160SOL    HW114942   4.650   3.193   6.441  1.9261 -0.8789 -0.0138
 1160SOL    HW214943   4.652   3.041   6.407 -0.1142 -0.5787 -0.5561
 1161SOL     OW14944   0.759   3.028  14.973  0.2116  0.7334 -0.5611
 1161SOL    HW114945   0.689   2.970  14.941  0.8769  0.1693 -1.0139
 1161SOL    HW214946   0.736   3.116  14.945 -1.6547 -0.0046 -1.3711
 1162SOL     OW14947   3.731   1.543   7.094 -0.5006 -0.1414 -0.0706
 1162SOL    HW114948   3.763   1.494   7.170  2.0225  1.2461 -0.2399
 1162SOL    HW214949   3.817   1.530   7.052  0.8750 -2.2923  3.3971
 1163SOL     OW14950   2.738   0.541   5.130  0.5015 -0.2190 -0.3203
 1163SOL    HW114951   2.731   0.534   5.225 -0.3536  2.9090 -0.1394
 1163SOL    HW214952   2.668   0.603   5.109 -2.0026 -1.9662  2.8212
 1164SOL     OW14953   3.656   3.166   6.334  0.2521  0.2463  0.5139
 1164SOL    HW114954   3.639   3.230   6.403 -1.8364 -1.3413  1.4789
 1164SOL    HW214955   3.565   3.138   6.323  1.1210 -3.1974  2.0563
 1165SOL     OW14956   1.425   3.817   5.479 -0.3453  0.1311 -0.3117
 1165SOL    HW114957   1.512   3.810   5.439  0.2516  0.8873  0.8482
 1165SOL    HW214958   1.364   3.809   5.407 -0.0232 -3.2059 -0.2174
 1166SOL     OW14959   0.065   4.295  14.194  0.2760 -0.1109  0.8320
 1166SOL    HW114960   0.019   4.215  14.218 -2.2922  1.5556  1.4502
 1166SOL    HW214961   0.139   4.278  14.252  2.1172 -0.4258 -1.6073
 1167SOL     OW14962   2.843   2.937   8.982 -0.1968 -0.0911 -0.2285
 1167SOL    HW114963   2.842   3.000   8.910  0.1122 -0.7117 -0.7762
 1167SOL    HW214964   2.811   2.990   9.055 -1.2474 -0.7213 -0.2301
 1168SOL     OW14965   2.011   2.087   7.442 -0.2006  0.1858  0.0664
 1168SOL    HW114966   2.005   2.002   7.484  1.0498  0.1771  0.2285
 1168SOL    HW214967   1.918   2.108   7.446 -0.1250  0.5324  0.0553
 1169SOL     OW14968   1.554   2.048   2.513  0.4385  0.0619 -0.2980
 1169SOL    HW114969   1.554   1.953   2.504 -0.0297  0.1120 -0.8685
 1169SOL    HW214970   1.533   2.067   2.421  3.0612 -1.8145 -1.2917
 1170SOL     OW14971   3.468   2.679   3.075 -0.4284  0.7603  0.8138
 1170SOL    HW114972   3.447   2.660   2.984  0.2775  0.7556  0.6509
 1170SOL    HW214973   3.399   2.741   3.097 -0.4332  0.9713  0.2004
 1171SOL     OW14974   2.341   3.076  14.189  0.0863 -0.2189  0.0315
 1171SOL    HW114975   2.329   3.033  14.105  0.1112  0.7235 -0.4526
 1171SOL    HW214976   2.249   3.076  14.216 -0.0787  1.3798 -0.5446
 1172SOL     OW14977   0.776   0.836   8.424 -0.2027  0.6238 -0.0489
 1172SOL    HW114978   0.819   0.920   8.411  0.0266  0.8370  2.0731
 1172SOL    HW214979   0.694   0.872   8.457  0.4993  0.4963  1.8799
 1173SOL     OW14980   2.739   0.206   8.836 -0.2408  0.3094  0.0135
 1173SOL    HW114981   2.795   0.215   8.913 -0.4619  3.1279 -0.1588
 1173SOL    HW214982   2.750   0.293   8.798  1.1191  0.1694  0.0579
 1174SOL     OW14983   3.274   0.306  16.614 -0.4005  0.1524 -0.0901
 1174SOL    HW114984   3.323   0.369  16.667  0.1220 -0.4760  0.1762
 1174SOL    HW214985   3.215   0.277  16.684  0.0950  0.6797  0.5415
 1175SOL     OW14986   1.953   1.175   6.583  0.4309 -0.1242 -0.2337
 1175SOL    HW114987   2.037   1.138   6.611  0.4106 -0.2309 -0.3160
 1175SOL    HW214988   1.896   1.098   6.583  0.2921 -0.0223 -0.1190
 1176SOL     OW14989   0.356   1.313   5.353 -0.5369  0.0391 -0.6670
 1176SOL    HW114990   0.364   1.383   5.417  0.0041  0.1705 -0.8772
 1176SOL    HW214991   0.262   1.294   5.348 -0.6245 -0.0830  1.5283
 1177SOL     OW14992   0.034   0.185  15.724  0.6124 -0.1857  0.0423
 1177SOL    HW114993   0.050   0.228  15.639 -0.6246  0.1840 -0.0062
 1177SOL    HW214994   0.074   0.102  15.700 -0.4655 -0.3831 -1.0595
 1178SOL     OW14995   0.452   0.677   8.460 -0.3814 -0.0666  0.0337
 1178SOL    HW114996   0.418   0.641   8.542 -0.3614 -0.5105 -0.1532
 1178SOL    HW214997   0.540   0.640   8.454  0.9445  3.0183  0.3648
 1179SOL     OW14998   2.793   3.531  11.966 -0.1374  0.1477 -0.2625
 1179SOL    HW114999   2.847   3.524  12.044 -1.8879  2.7386  1.1715
 1179SOL    HW215000   2.712   3.533  12.017 -0.4056 -1.2282 -0.6303
 1180SOL     OW15001   0.980   4.171   1.071  0.0123  0.8934 -0.5266
 1180SOL    HW115002   0.988   4.134   1.159 -3.6745  2.5151  0.5020
 1180SOL    HW215003   0.886   4.156   1.056 -0.0419  0.3557  0.3259
 1181SOL     OW15004   2.710   2.413   7.606  0.1910 -0.0260  0.5384
 1181SOL    HW115005   2.716   2.495   7.654 -4.1825 -0.0989  1.1346
 1181SOL    HW215006   2.767   2.370   7.670  1.8189  3.5363  1.4582
 1182SOL     OW15007   4.541   0.836  13.750 -0.5053  0.2566 -0.8047
 1182SOL    HW115008   4.589   0.864  13.828 -0.2357 -3.4592  0.3836
 1182SOL    HW215009   4.451   0.833  13.783 -0.0460  0.9811  0.4838
 1183SOL     OW15010   0.915   1.250  12.766  0.0918 -0.3255 -0.4683
 1183SOL    HW115011   0.975   1.194  12.716  0.5024  0.4724 -0.8726
 1183SOL    HW215012   0.845   1.186  12.778  0.0711 -0.3859 -0.9192
 1184SOL     OW15013   2.879   2.509   1.436 -0.1909  0.6837 -0.7088
 1184SOL    HW115014   2.801   2.455   1.426  0.3020  0.3115 -2.5077
 1184SOL    HW215015   2.875   2.558   1.354 -1.0430  1.9284  0.0826
 1185SOL     OW15016   4.089   3.529   6.237  0.6203  0.3614  0.2893
 1185SOL    HW115017   4.052   3.617   6.233  0.5473  0.3030 -0.3449
 1185SOL    HW215018   4.032   3.497   6.307 -1.7274 -1.5945 -2.5037
 1186SOL     OW15019   2.733   0.288   7.019 -0.0600  0.0640  0.0771
 1186SOL    HW115020   2.821   0.294   6.980 -1.1082 -0.8219 -2.4661
 1186SOL    HW215021   2.738   0.294   7.114  0.0799  1.2983 -0.0014
 1187SOL     OW15022   1.246   1.248   4.300 -0.0777 -0.3728  0.0079
 1187SOL    HW115023   1.301   1.190   4.248 -0.5482 -1.5141  0.7978
 1187SOL    HW215024   1.283   1.333   4.275  1.7748 -0.6734  1.7445
 1188SOL     OW15025   3.684   1.720   7.413  0.0680  0.1853  0.2949
 1188SOL    HW115026   3.703   1.745   7.504  0.3480 -0.6752  0.4746
 1188SOL    HW215027   3.768   1.712   7.368  0.2395  3.3907  0.0531
 1189SOL     OW15028   0.048   0.050   4.806 -0.4639  0.8631 -0.1173
 1189SOL    HW115029   4.678   0.065   4.839 -0.5260  1.7124 -0.6773
 1189SOL    HW215030   0.082   0.136   4.779  0.1389  1.1046  1.3786
 1190SOL     OW15031   2.127   1.564   6.915  0.3962  0.4467 -0.6010
 1190SOL    HW115032   2.188   1.491   6.910  1.3788  1.2822 -0.6033
 1190SOL    HW215033   2.126   1.574   7.010 -1.1106  0.5561 -0.6243
 1191SOL     OW15034   0.914   0.416   3.869  0.0462 -0.0867 -0.0554
 1191SOL    HW115035   0.897   0.481   3.937 -1.7242 -3.4428  2.6994
 1191SOL    HW215036   0.876   0.464   3.795 -2.1503 -1.5605  0.1184
 1192SOL     OW15037   4.381   1.386  15.683  0.3311  0.5157 -0.8753
 1192SOL    HW115038   4.347   1.336  15.609 -0.2112 -0.9040  0.3324
 1192SOL    HW215039   4.321   1.360  15.753  0.0576  1.5189 -0.7287
 1193SOL     OW15040   4.550   3.403   3.599 -0.4466 -0.3481  0.0353
 1193SOL    HW115041   4.473   3.348   3.613 -1.5027  1.2621  0.4917
 1193SOL    HW215042   4.599   3.324   3.577 -0.3079 -0.5000  0.9073
 1194SOL     OW15043   4.438   1.549   0.652  0.1214 -0.3348 -0.0210
 1194SOL    HW115044   4.377   1.611   0.612 -0.6672 -0.9344  0.2433
 1194SOL    HW215045   4.508   1.614   0.654  1.0892 -1.4110  0.7488
 1195SOL     OW15046   4.203   4.418  15.961  0.0094 -0.2576  0.3365
 1195SOL    HW115047   4.179   4.486  15.899  0.2077  0.8848  1.5045
 1195SOL    HW215048   4.252   4.359  15.905  2.4254  0.6409  1.5175
 1196SOL     OW15049   2.533   2.994  10.890 -0.4868 -0.4073  0.4787
 1196SOL    HW115050   2.490   3.079  10.894  1.4254  0.5790  0.0137
 1196SOL    HW215051   2.565   2.990  10.981  1.6884  1.8172 -0.1768
 1197SOL     OW15052   1.002   0.428   0.129  0.4351 -0.0493 -0.6116
 1197SOL    HW115053   1.073   0.481   0.165  0.4034 -0.5440  0.1791
 1197SOL    HW215054   0.925   0.471   0.167  0.4986  1.0175 -1.6591
 1198SOL     OW15055   3.150   3.890   7.739 -0.3898 -0.0950  0.3999
 1198SOL    HW115056   3.169   3.933   7.823  0.0866  1.8780 -0.7322
 1198SOL    HW215057   3.216   3.922   7.678  1.8533 -0.2794  2.7184
 1199SOL     OW15058   2.266   1.738   3.671 -0.1607  0.5976  0.6752
 1199SOL    HW115059   2.270   1.664   3.611 -2.4506  1.2728 -0.2974
 1199SOL    HW215060   2.278   1.693   3.755  0.1791  3.2354  2.0367
 1200SOL     OW15061   2.932   4.541   9.705 -0.1873  0.0088 -0.7014
 1200SOL    HW115062   2.911   4.508   9.618  2.0788 -0.4234 -1.0951
 1200SOL    HW215063   2.909   4.465   9.758 -0.8114  0.2786 -0.5909
 1201SOL     OW15064   0.532   2.174   2.588  0.4142 -0.1515 -0.0626
 1201SOL    HW115065   0.510   2.247   2.529  1.4034  1.1301  1.1374
 1201SOL    HW215066   0.538   2.229   2.666 -3.4365 -1.8273  1.4078
 1202SOL     OW15067   3.059   0.023   1.059 -0.3366 -0.0101  0.4538
 1202SOL    HW115068   3.133   4.707   1.010 -0.5411  0.0149  0.1301
 1202SOL    HW215069   3.074   4.694   1.140  0.5279 -0.1587  0.2150
 1203SOL     OW15070   1.829   2.124   1.093 -0.2600  0.0615 -0.2507
 1203SOL    HW115071   1.753   2.068   1.107 -0.0283 -0.3282 -0.5472
 1203SOL    HW215072   1.890   2.073   1.040  2.2933  1.8528  0.9946
 1204SOL     OW15073   3.473   4.632   5.188  0.0542 -0.2299 -0.3978
 1204SOL    HW115074   3.429   4.575   5.125  0.8277 -0.2517 -0.9048
 1204SOL    HW215075   3.392   4.671   5.223  0.4096 -1.7710  2.1587
 1205SOL     OW15076   4.100   0.374  10.726 -0.2264  0.2051 -0.6737
 1205SOL    HW115077   4.084   0.454  10.776  2.6258  0.4008 -0.1105
 1205SOL    HW215078   4.162   0.323  10.778 -0.7392 -1.4623 -1.6763
 1206SOL     OW15079   3.096   4.504   0.029  0.2733 -0.2691  0.0119
 1206SOL    HW115080   3.030   4.450  17.665  1.7372 -1.6014 -0.5275
 1206SOL    HW215081   3.121   4.446   0.101  1.1602 -0.3918 -0.4090
 1207SOL     OW15082   2.863   4.053   7.540  0.2664  0.1991 -0.0853
 1207SOL    HW115083   2.910   4.136   7.544  1.3277 -0.3931 -0.1379
 1207SOL    HW215084   2.926   3.990   7.503 -0.3669  0.5656 -1.8000
 1208SOL     OW15085   1.149   3.133   5.077 -0.1710 -0.1890  0.1157
 1208SOL    HW115086   1.139   3.176   5.162 -4.5722 -0.9299 -0.0013
 1208SOL    HW215087   1.190   3.206   5.031 -0.4893  0.4273  0.8135
 1209SOL     OW15088   0.398   0.815   1.678 -0.4095 -0.2928  0.4151
 1209SOL    HW115089   0.302   0.811   1.682 -0.5208 -0.4128 -2.5072
 1209SOL    HW215090   0.413   0.789   1.587 -1.3444 -0.6824  0.3710
 1210SOL     OW15091   1.297   2.216   8.448  0.0394 -0.1824 -0.2928
 1210SOL    HW115092   1.210   2.190   8.417  0.0925 -0.0230 -0.5697
 1210SOL    HW215093   1.339   2.205   8.363  1.7561  2.1009  0.2552
 1211SOL     OW15094   2.181   0.898   8.609  0.0282 -0.4707  0.0338
 1211SOL    HW115095   2.134   0.854   8.539 -0.7113  1.0458 -0.4105
 1211SOL    HW215096   2.270   0.876   8.580 -0.1063  0.8461 -1.3941
 1212SOL     OW15097   3.335   2.976   4.941  0.1672 -0.2708  0.1291
 1212SOL    HW115098   3.411   2.966   4.883 -0.3230  0.5129 -0.6568
 1212SOL    HW215099   3.345   3.071   4.949 -0.6280 -0.3514  2.0019
 1213SOL     OW15100   4.271   4.389   8.260 -0.0657 -0.0924 -0.0844
 1213SOL    HW115101   4.316   4.414   8.341 -0.7697 -0.0384  0.2900
 1213SOL    HW215102   4.276   4.468   8.206 -1.6392  1.0085  1.3593
 1214SOL     OW15103   4.139   3.429   3.313  0.0989  0.1148  0.4083
 1214SOL    HW115104   4.213   3.427   3.251 -0.0969  1.2843  0.1450
 1214SOL    HW215105   4.176   3.384   3.389 -1.1275 -3.9296 -1.3995
 1215SOL     OW15106   1.876   0.102   3.198  0.2660 -0.4386  0.9563
 1215SOL    HW115107   1.850   0.153   3.121 -0.8453  0.5364  1.9752
 1215SOL    HW215108   1.858   0.015   3.162  0.7121 -0.2636  0.2908
 1216SOL     OW15109   4.165   2.530   4.019 -0.0409 -0.1026  0.1016
 1216SOL    HW115110   4.137   2.440   4.000 -0.1671  0.1158 -0.7583
 1216SOL    HW215111   4.251   2.522   4.061 -0.0251 -1.4169 -0.1857
 1217SOL     OW15112   2.272   3.084   3.200 -0.1768 -0.0090  0.0566
 1217SOL    HW115113   2.277   3.180   3.196  1.2178  0.0036  2.2554
 1217SOL    HW215114   2.289   3.062   3.108  1.6256 -1.8247  0.8157
 1218SOL     OW15115   3.150   3.218  12.782 -0.3608  0.3132 -0.0880
 1218SOL    HW115116   3.104   3.237  12.864 -2.2631  2.5266 -1.6845
 1218SOL    HW215117   3.178   3.128  12.801  2.3426  1.0757 -0.4104
 1219SOL     OW15118   2.647   1.390   0.153 -0.1947  0.1861 -0.0775
 1219SOL    HW115119   2.726   1.359   0.197 -0.7100 -1.1089 -0.0759
 1219SOL    HW215120   2.637   1.478   0.188 -0.7356 -0.0829  0.4390
 1220SOL     OW15121   1.546   4.499   4.318 -0.3961  0.1402 -0.1396
 1220SOL    HW115122   1.526   4.406   4.309  0.4658 -0.1780  1.2659
 1220SOL    HW215123   1.460   4.539   4.309  0.2502  1.8988  1.5651
 1221SOL     OW15124   2.419   2.401   6.498 -0.1010  0.8549 -0.2637
 1221SOL    HW115125   2.364   2.463   6.449 -0.6498 -1.6483 -2.7775
 1221SOL    HW215126   2.344   2.347   6.525  1.9384 -2.9139 -2.1499
 1222SOL     OW15127   4.689   0.691   2.703 -0.0950 -0.4043  0.6888
 1222SOL    HW115128   0.026   0.644   2.642 -0.9312  1.9791 -1.9573
 1222SOL    HW215129   4.653   0.759   2.645 -0.8226 -1.3401  0.0602
 1223SOL     OW15130   0.690   3.955   2.311 -0.3236 -0.0765  0.2290
 1223SOL    HW115131   0.767   3.975   2.365  0.0923 -3.4771  0.8606
 1223SOL    HW215132   0.689   4.024   2.244  0.0100  0.0147  0.3164
 1224SOL     OW15133   3.408   2.082   4.559  0.5623  0.2214  0.2317
 1224SOL    HW115134   3.347   2.129   4.615  0.0060 -1.5914  1.1643
 1224SOL    HW215135   3.397   1.992   4.589 -0.7498  0.0113 -0.9031
 1225SOL     OW15136   2.876   3.946   3.119 -0.1290 -0.2092 -0.2374
 1225SOL    HW115137   2.805   3.889   3.148 -0.2161  0.0685  0.1034
 1225SOL    HW215138   2.951   3.911   3.167 -0.8175 -1.6019 -0.1813
 1226SOL     OW15139   0.365   4.475   9.023  0.4194 -0.7385  0.2455
 1226SOL    HW115140   0.451   4.505   8.991 -1.7739  3.0560 -2.1997
 1226SOL    HW215141   0.312   4.491   8.944  1.3521 -0.8934 -0.4192
 1227SOL     OW15142   1.172   2.841   4.711  0.0002  0.1124 -0.0761
 1227SOL    HW115143   1.174   2.761   4.658  1.7077 -0.2995  0.5958
 1227SOL    HW215144   1.256   2.886   4.701 -0.9332  1.8260 -0.2799
 1228SOL     OW15145   1.445   3.679  16.816  1.2318 -0.0043 -0.2811
 1228SOL    HW115146   1.537   3.690  16.837  0.6644 -1.3194  2.8916
 1228SOL    HW215147   1.453   3.630  16.735  1.5859 -0.9274  0.3156
 1229SOL     OW15148   4.068   1.078   7.015  0.2869 -0.1796  0.5905
 1229SOL    HW115149   4.151   1.031   7.003 -0.0028 -0.1112 -1.6108
 1229SOL    HW215150   4.041   1.048   7.102  0.7260 -2.2952 -0.0020
 1230SOL     OW15151   3.955   3.439  11.019 -0.1722  0.3414  0.2402
 1230SOL    HW115152   4.029   3.395  11.060 -0.6421 -1.2141 -0.5784
 1230SOL    HW215153   3.891   3.439  11.090 -2.0857 -2.5467 -1.4600
 1231SOL     OW15154   1.600   2.551  10.557  0.1001  0.5782  0.1226
 1231SOL    HW115155   1.621   2.458  10.565 -0.5358  0.4161 -0.1592
 1231SOL    HW215156   1.641   2.571  10.473  1.4748 -0.9333  0.4275
 1232SOL     OW15157   4.411   0.512   3.401  0.0821  0.2069  0.2116
 1232SOL    HW115158   4.344   0.544   3.340  1.6234  2.1984 -0.4358
 1232SOL    HW215159   4.364   0.461   3.467  2.2610 -1.3782  0.5202
 1233SOL     OW15160   1.388   1.862  15.884 -0.0467  0.6784  0.4349
 1233SOL    HW115161   1.395   1.849  15.979 -0.8287 -0.8041  0.2927
 1233SOL    HW215162   1.332   1.939  15.881  0.8300  1.2709 -0.6363
 1234SOL     OW15163   0.280   3.065   6.647  0.0167 -0.1633  0.0412
 1234SOL    HW115164   0.339   3.038   6.577  0.7975  2.0260 -0.1384
 1234SOL    HW215165   0.272   2.988   6.703  1.1993 -1.3583 -1.4292
 1235SOL     OW15166   0.595   2.622   8.965  0.4912 -0.4644 -0.1601
 1235SOL    HW115167   0.560   2.561   8.900 -1.7586  1.0216 -0.3716
 1235SOL    HW215168   0.594   2.555   9.034  0.0324 -0.3479 -0.0507
 1236SOL     OW15169   1.770   1.419   9.648 -0.1711 -0.0353  0.0756
 1236SOL    HW115170   1.787   1.434   9.555 -0.9188 -2.7453 -0.4902
 1236SOL    HW215171   1.808   1.495   9.693  0.0414  0.5973 -1.1882
 1237SOL     OW15172   1.193   2.888   5.924 -0.2992  0.4439 -0.3126
 1237SOL    HW115173   1.164   2.979   5.913  0.1310  0.6087 -0.0834
 1237SOL    HW215174   1.105   2.856   5.906  1.3805 -3.0348 -2.1632
 1238SOL     OW15175   2.531   2.248  10.173  0.3253  0.1506  0.2435
 1238SOL    HW115176   2.439   2.256  10.146  0.1346 -0.4708  0.7184
 1238SOL    HW215177   2.527   2.183  10.243  3.6612 -0.2082  0.1055
 1239SOL     OW15178   0.935   4.114   3.738 -0.2337 -0.4368  0.3928
 1239SOL    HW115179   0.841   4.127   3.728 -0.0348  1.5687  1.0409
 1239SOL    HW215180   0.970   4.189   3.786 -0.1651  0.1572 -0.5794
 1240SOL     OW15181   1.335   0.643  11.022 -0.2265  0.0850  0.5582
 1240SOL    HW115182   1.269   0.611  10.960 -0.4476  0.1376  0.7647
 1240SOL    HW215183   1.348   0.559  11.065  0.5330 -0.3946 -0.6130
 1241SOL     OW15184   1.160   2.078   3.336 -0.1294  0.3871 -0.6502
 1241SOL    HW115185   1.131   2.129   3.412  0.6467  0.6861 -0.5590
 1241SOL    HW215186   1.117   1.993   3.348  1.7815 -0.2369  1.8103
 1242SOL     OW15187   3.886   2.840  17.152  0.7606 -0.5504  0.2122
 1242SOL    HW115188   3.801   2.878  17.173  0.9420 -0.0834  0.0903
 1242SOL    HW215189   3.927   2.857  17.236 -0.1112 -1.5996  0.8577
 1243SOL     OW15190   1.342   3.435   7.685 -0.6439  0.8684  0.1650
 1243SOL    HW115191   1.254   3.413   7.655 -0.7376  0.5600  0.6584
 1243SOL    HW215192   1.387   3.352   7.672 -0.3497  0.7133  2.1972
 1244SOL     OW15193   2.168   3.698   7.557  0.0686  0.5515  0.2340
 1244SOL    HW115194   2.148   3.765   7.491 -1.1512 -1.6892 -1.6931
 1244SOL    HW215195   2.253   3.679   7.517 -0.2135 -1.8933  0.7748
 1245SOL     OW15196   3.502   2.147  15.074  0.3506 -0.0439 -0.1082
 1245SOL    HW115197   3.522   2.129  15.166 -0.8946  2.5865  0.6768
 1245SOL    HW215198   3.575   2.101  15.034 -0.5877 -2.3103  0.7770
 1246SOL     OW15199   1.342   3.838   8.147 -0.3210  0.0664  0.5971
 1246SOL    HW115200   1.433   3.809   8.159 -0.2798 -0.4368 -1.0033
 1246SOL    HW215201   1.344   3.917   8.201  0.6917 -0.1547  0.8862
 1247SOL     OW15202   4.069   3.481   1.308 -0.4820  0.0539  0.3359
 1247SOL    HW115203   4.164   3.495   1.313 -0.5110  0.6525 -0.6772
 1247SOL    HW215204   4.042   3.462   1.398  2.3849  0.1548  1.2393
 1248SOL     OW15205   4.698   3.960   8.606  0.2237  0.5596  0.3781
 1248SOL    HW115206   0.013   3.871   8.600  0.3568  0.7451 -1.7885
 1248SOL    HW215207   0.001   3.994   8.519 -1.0292  0.3093 -0.0469
 1249SOL     OW15208   1.808   3.353   3.769  0.0428  0.8356 -0.6400
 1249SOL    HW115209   1.880   3.353   3.706  1.1133 -0.0702  0.5683
 1249SOL    HW215210   1.746   3.418   3.735  1.1817  1.2186 -1.9931
 1250SOL     OW15211   4.686   3.257   9.368 -0.7394  1.0159 -0.3682
 1250SOL    HW115212   4.606   3.289   9.411 -1.4184  1.8799 -2.2671
 1250SOL    HW215213   0.005   3.342   9.345  0.9205  0.0796 -1.0411
 1251SOL     OW15214   0.245   4.147   6.842  0.1485 -0.0156 -0.0106
 1251SOL    HW115215   0.161   4.118   6.804  0.2945 -0.3783 -0.0565
 1251SOL    HW215216   0.232   4.152   6.936 -0.6029  1.0052 -0.1566
 1252SOL     OW15217   2.568   1.461  13.781  0.2671  0.1861  0.4350
 1252SOL    HW115218   2.639   1.521  13.759 -0.0803  0.0926 -0.9560
 1252SOL    HW215219   2.555   1.399  13.709  1.3982  1.3154 -0.7359
 1253SOL     OW15220   1.371   2.062   9.647 -0.8172  0.0182 -0.7484
 1253SOL    HW115221   1.452   2.021   9.620 -0.7063 -1.0218  1.1854
 1253SOL    HW215222   1.316   2.027   9.577  0.8268 -1.7689 -1.1332
 1254SOL     OW15223   3.215   1.778   5.689  0.0900 -0.3005 -0.1845
 1254SOL    HW115224   3.219   1.846   5.621 -0.0416 -2.0853 -1.9993
 1254SOL    HW215225   3.244   1.831   5.763  1.1927 -1.5130  0.2341
 1255SOL     OW15226   1.465   2.172   8.685  0.2681  0.4371 -0.2411
 1255SOL    HW115227   1.381   2.184   8.730  0.1207  0.0694 -0.4193
 1255SOL    HW215228   1.424   2.167   8.599 -2.6156 -1.4999  1.2422
 1256SOL     OW15229   4.632   3.603  17.139  0.3615 -0.8540  0.0269
 1256SOL    HW115230   4.621   3.694  17.113 -0.5749 -0.8084  0.5946
 1256SOL    HW215231   4.696   3.577  17.072  1.0417  1.2271 -0.1032
 1257SOL     OW15232   0.932   1.188   5.239 -0.0427 -0.0176 -0.6353
 1257SOL    HW115233   0.957   1.172   5.148 -1.5693 -2.7924 -0.5756
 1257SOL    HW215234   0.943   1.282   5.254  0.7522 -0.4334  1.3609
 1258SOL     OW15235   0.254   4.661   6.560 -0.2662 -0.3506  0.1834
 1258SOL    HW115236   0.234   0.033   6.541 -2.6324 -1.1795 -1.3009
 1258SOL    HW215237   0.301   4.670   6.643 -0.3050 -2.2334  0.4165
 1259SOL     OW15238   4.107   1.636   2.365 -0.2384  0.1640 -0.8200
 1259SOL    HW115239   4.123   1.664   2.275 -2.7510  0.6939 -1.0961
 1259SOL    HW215240   4.163   1.560   2.378 -1.7326 -0.7155  0.5115
 1260SOL     OW15241   3.376   3.262   4.997  0.6538 -0.7843  0.3996
 1260SOL    HW115242   3.368   3.347   5.041  0.6489 -1.2907  1.3713
 1260SOL    HW215243   3.435   3.285   4.926  0.4330 -1.5296 -0.0242
 1261SOL     OW15244   2.603   0.745  12.706  0.2470  0.0829 -0.1209
 1261SOL    HW115245   2.524   0.742  12.760 -0.0978 -0.3310 -0.6424
 1261SOL    HW215246   2.654   0.674  12.745 -2.1932 -0.4151  2.1839
 1262SOL     OW15247   2.842   3.293   7.164  0.1177  0.4565 -0.0458
 1262SOL    HW115248   2.767   3.303   7.223  0.2119  1.6135 -0.1377
 1262SOL    HW215249   2.863   3.385   7.151 -0.2897  0.4581 -0.7296
 1263SOL     OW15250   1.498   2.221   1.992 -0.5692  0.2231 -0.1122
 1263SOL    HW115251   1.557   2.151   1.963 -0.4771 -0.2873  1.2966
 1263SOL    HW215252   1.417   2.170   1.998 -1.6805  2.0670  0.6340
 1264SOL     OW15253   2.794   2.286   9.442 -0.2378  0.0028  0.2698
 1264SOL    HW115254   2.790   2.373   9.403  1.3672  1.0502  2.4564
 1264SOL    HW215255   2.759   2.233   9.370  1.2049 -0.8116  0.1615
 1265SOL     OW15256   4.328   3.220   7.079 -0.9752 -0.6396 -0.6126
 1265SOL    HW115257   4.406   3.172   7.107 -2.0084  0.0893  3.5515
 1265SOL    HW215258   4.369   3.272   7.010  0.9945 -1.0270  0.2685
 1266SOL     OW15259   4.208   0.285  10.218 -0.4603  0.1602 -0.9643
 1266SOL    HW115260   4.297   0.306  10.246 -0.5351 -1.6901  0.6487
 1266SOL    HW215261   4.164   0.353  10.268  0.6092  0.2991 -0.1975
 1267SOL     OW15262   0.706   2.347  13.092  0.3077 -0.3030 -0.4291
 1267SOL    HW115263   0.735   2.428  13.135  1.3160  0.2820 -2.2347
 1267SOL    HW215264   0.781   2.296  13.125  1.0984  0.5219 -0.9633
 1268SOL     OW15265   2.788   0.276   5.316  0.2610 -0.3994 -0.0960
 1268SOL    HW115266   2.798   0.182   5.326  0.0848 -0.3989  0.0755
 1268SOL    HW215267   2.813   0.294   5.225  0.0737  0.8208  0.0957
 1269SOL     OW15268   2.934   1.465  10.620 -0.1272 -0.5104  0.2702
 1269SOL    HW115269   2.981   1.547  10.617 -2.5195  0.9932  3.2281
 1269SOL    HW215270   2.992   1.404  10.666 -1.0152 -0.1110  1.9397
 1270SOL     OW15271   4.223   0.269   2.461 -0.2296 -0.4306  0.2413
 1270SOL    HW115272   4.265   0.218   2.392  0.5461 -1.0375  1.1697
 1270SOL    HW215273   4.296   0.294   2.517  1.5671 -0.2656 -2.1878
 1271SOL     OW15274   4.614   2.771   5.879 -0.3945  0.1386 -0.4021
 1271SOL    HW115275   4.576   2.849   5.838  0.3839  0.2818 -0.8646
 1271SOL    HW215276   4.621   2.798   5.970  1.4622  1.0761 -0.8155
 1272SOL     OW15277   0.097   3.714  11.477 -0.7286  0.0643 -0.3691
 1272SOL    HW115278   0.148   3.737  11.399  0.2704  1.5274  0.6932
 1272SOL    HW215279   0.154   3.752  11.544 -1.8837 -1.2776  1.3491
 1273SOL     OW15280   2.401   2.870   7.307  0.0850 -0.0626  0.2231
 1273SOL    HW115281   2.476   2.921   7.338  0.9136 -0.6624 -0.7600
 1273SOL    HW215282   2.391   2.800   7.372 -2.7183 -0.1280 -0.2728
 1274SOL     OW15283   3.004   0.348   1.352  0.0813 -0.4514 -0.3857
 1274SOL    HW115284   3.065   0.412   1.316  0.3296 -0.8172 -0.6134
 1274SOL    HW215285   3.045   0.322   1.434  0.4767 -2.1878 -1.1530
 1275SOL     OW15286   0.111   0.032  17.008  0.0779 -0.1323 -0.5045
 1275SOL    HW115287   0.174   0.103  17.015 -0.0584 -0.1080  0.5556
 1275SOL    HW215288   0.101   0.027  16.913 -3.1103  0.7927 -0.2285
 1276SOL     OW15289   3.575   3.945  10.410  0.4424  0.1396 -0.4971
 1276SOL    HW115290   3.553   4.004  10.338  1.0770  1.4606  0.4069
 1276SOL    HW215291   3.639   3.892  10.363  1.3269  1.1461 -0.4192
 1277SOL     OW15292   0.854   4.240   7.866 -0.6681 -0.4512  0.0913
 1277SOL    HW115293   0.917   4.287   7.920 -1.2852  0.7221 -0.2030
 1277SOL    HW215294   0.780   4.254   7.924  1.1793  2.1377  1.7999
 1278SOL     OW15295   1.622   3.506   2.528 -0.1048  0.6477  0.1650
 1278SOL    HW115296   1.641   3.558   2.450 -0.6333  0.2785 -0.2137
 1278SOL    HW215297   1.529   3.495   2.507 -0.1324  1.4390 -0.1364
 1279SOL     OW15298   3.141   1.506   9.010 -0.0683 -0.0259  0.1324
 1279SOL    HW115299   3.224   1.550   8.989 -1.4684  1.8508 -1.4223
 1279SOL    HW215300   3.126   1.530   9.102  1.7951  0.4119  0.3230
 1280SOL     OW15301   2.919   3.442   4.054 -0.4328  0.1333  0.3310
 1280SOL    HW115302   3.009   3.443   4.086 -0.5766 -1.1785  0.7704
 1280SOL    HW215303   2.922   3.490   3.971  0.2534  1.7968  1.3207
 1281SOL     OW15304   2.494   0.827   6.722  0.3543 -0.3561 -0.4371
 1281SOL    HW115305   2.581   0.808   6.686 -0.6530 -0.7193 -2.6612
 1281SOL    HW215306   2.523   0.882   6.795  2.5224 -1.7568 -0.2317
 1282SOL     OW15307   3.420   3.849   9.313  0.3606 -0.1121 -0.0277
 1282SOL    HW115308   3.483   3.777   9.327 -0.9363 -1.1117  0.6595
 1282SOL    HW215309   3.466   3.919   9.358 -1.4533  0.5902  0.7101
 1283SOL     OW15310   4.379   0.136   2.273 -0.5535  0.1315 -0.2503
 1283SOL    HW115311   4.395   0.064   2.334 -2.9716  0.5453  0.8877
 1283SOL    HW215312   4.426   0.106   2.195  0.7941 -1.6184  1.2329
 1284SOL     OW15313   3.129   0.341   8.427 -0.5105 -0.2828  0.2220
 1284SOL    HW115314   3.053   0.293   8.396  1.8255 -2.2958 -2.4273
 1284SOL    HW215315   3.192   0.271   8.444  1.8095  1.2194 -2.1162
 1285SOL     OW15316   1.677   1.523   2.622 -0.2786 -0.5746 -0.2716
 1285SOL    HW115317   1.657   1.529   2.529  0.4067 -0.4886 -0.4087
 1285SOL    HW215318   1.763   1.564   2.617 -0.3133 -0.2293  1.7206
 1286SOL     OW15319   0.665   1.246   9.105  0.1642 -0.2538  0.1189
 1286SOL    HW115320   0.614   1.168   9.128  0.9686 -0.4267  1.3860
 1286SOL    HW215321   0.750   1.221   9.143  0.4021 -0.4936 -0.5777
 1287SOL     OW15322   2.077   3.641  14.389 -0.7086 -0.7233 -0.8487
 1287SOL    HW115323   2.173   3.646  14.395 -0.7870 -1.7147  1.1772
 1287SOL    HW215324   2.071   3.572  14.323 -2.1086 -1.7705  0.3830
 1288SOL     OW15325   4.584   2.685  12.275 -0.1597 -0.0280  0.3097
 1288SOL    HW115326   4.512   2.686  12.338  1.1827  0.3770  1.8264
 1288SOL    HW215327   4.636   2.758  12.308 -0.9906 -0.1697  1.9042
 1289SOL     OW15328   3.987   0.449  15.477 -0.3315 -0.4968 -0.2606
 1289SOL    HW115329   3.967   0.360  15.446 -1.4839 -0.5595  0.6358
 1289SOL    HW215330   4.067   0.431  15.527 -0.0194  0.1413 -0.5434
 1290SOL     OW15331   2.358   0.386   8.528 -0.5179 -0.0908 -0.8243
 1290SOL    HW115332   2.291   0.448   8.499  1.0082  2.1161  0.2980
 1290SOL    HW215333   2.330   0.381   8.620  1.5489  0.3929 -0.1449
 1291SOL     OW15334   2.162   0.256   2.890 -0.0682  0.1043 -0.2514
 1291SOL    HW115335   2.231   0.268   2.956 -0.8207 -2.0228  0.9324
 1291SOL    HW215336   2.082   0.266   2.941 -1.8900  0.2232 -3.1397
 1292SOL     OW15337   0.159   2.377  14.295  0.0554 -0.1697  0.2364
 1292SOL    HW115338   0.131   2.451  14.241 -2.1113 -2.2291 -1.4475
 1292SOL    HW215339   0.248   2.361  14.262  0.2277 -1.4760  1.3524
 1293SOL     OW15340   0.948   4.173   7.595 -0.9459  0.0680 -0.4117
 1293SOL    HW115341   0.928   4.215   7.678 -1.8891 -1.8732  0.3273
 1293SOL    HW215342   0.973   4.251   7.545  2.3798  0.0570  1.2333
 1294SOL     OW15343   2.248   2.472  16.088  0.0035 -0.4804 -0.2981
 1294SOL    HW115344   2.230   2.417  16.012  2.5070 -1.1621 -0.3981
 1294SOL    HW215345   2.269   2.559  16.056  0.8282 -0.7300 -0.4227
 1295SOL     OW15346   1.194   2.985   8.931  0.3788 -0.8386 -0.2947
 1295SOL    HW115347   1.124   2.983   8.996 -0.0791 -1.1569 -0.7987
 1295SOL    HW215348   1.263   2.960   8.993  1.1964  1.6483 -0.2226
 1296SOL     OW15349   0.034   0.754  16.081 -0.3917 -0.0823  0.0398
 1296SOL    HW115350   4.718   0.842  16.089 -1.8029 -0.8627  2.3990
 1296SOL    HW215351   4.672   0.707  16.065 -0.7556  0.5153  0.1531
 1297SOL     OW15352   4.515   0.971  12.030 -0.3890  0.2484  0.1424
 1297SOL    HW115353   4.424   0.941  12.024 -0.0970 -0.5991 -0.0913
 1297SOL    HW215354   4.523   1.004  11.940  0.9064 -0.2062  0.0952
 1298SOL     OW15355   4.472   2.396   5.990 -0.1539  0.1089 -0.3309
 1298SOL    HW115356   4.496   2.375   6.080 -0.2822  0.4877 -0.2100
 1298SOL    HW215357   4.421   2.476   6.002 -2.1933 -1.4085  1.2841
 1299SOL     OW15358   0.759   4.429   8.795 -0.1798  0.2519  0.1432
 1299SOL    HW115359   0.701   4.484   8.847  0.0984 -0.7068  1.4681
 1299SOL    HW215360   0.708   4.350   8.780 -1.0713  0.9326 -0.3924
 1300SOL     OW15361   3.051   1.588   6.216 -0.0216  0.0218 -0.1959
 1300SOL    HW115362   3.018   1.530   6.285 -2.4751 -0.5183 -1.8180
 1300SOL    HW215363   2.978   1.650   6.208  0.8703  1.0774 -0.0652
 1301SOL     OW15364   4.239   1.207  10.374  0.6034 -0.3782 -0.1729
 1301SOL    HW115365   4.164   1.162  10.413  1.2803 -1.5129 -0.1940
 1301SOL    HW215366   4.285   1.231  10.454  0.0153 -2.8038  0.8738
 1302SOL     OW15367   3.719   0.261   2.330  0.2363  0.3156 -0.3483
 1302SOL    HW115368   3.721   0.213   2.248 -1.1380  0.8092 -0.6552
 1302SOL    HW215369   3.813   0.278   2.343 -0.0622 -0.0721  2.3796
 1303SOL     OW15370   0.752   1.210  17.410  0.0242 -0.0611 -0.0390
 1303SOL    HW115371   0.838   1.252  17.414 -0.0543  0.0182  0.8548
 1303SOL    HW215372   0.770   1.116  17.404  0.6993 -0.1082  2.4845
 1304SOL     OW15373   1.611   0.382   0.484  0.3326  0.3585  0.2302
 1304SOL    HW115374   1.677   0.371   0.552 -0.3917  1.1268  1.0613
 1304SOL    HW215375   1.592   0.474   0.503 -0.2484  0.7723 -2.3636
 1305SOL     OW15376   2.248   0.494   8.834  0.4321  0.2664  0.3682
 1305SOL    HW115377   2.339   0.465   8.826 -0.6935 -2.5457 -2.3037
 1305SOL    HW215378   2.248   0.588   8.818  0.0467  0.0285 -1.0368
 1306SOL     OW15379   3.727   3.161  10.834 -0.2952 -0.0109 -0.0697
 1306SOL    HW115380   3.698   3.207  10.913 -0.5875 -2.3625  1.1830
 1306SOL    HW215381   3.725   3.236  10.774  1.1309 -0.4374 -0.6554
 1307SOL     OW15382   3.240   0.925  16.794  0.2441 -0.4436 -0.4185
 1307SOL    HW115383   3.276   0.994  16.738 -2.3621 -0.4961 -2.1624
 1307SOL    HW215384   3.148   0.945  16.806  0.3813 -0.6439  0.9202
 1308SOL     OW15385   0.115   3.914   9.924 -0.2894 -0.0936  0.5445
 1308SOL    HW115386   0.049   3.845   9.920 -1.4529  0.8914  2.7430
 1308SOL    HW215387   0.181   3.876   9.865 -1.6330 -1.0536 -0.3341
 1309SOL     OW15388   3.989   2.250  14.527  0.2690  0.2402  0.2493
 1309SOL    HW115389   3.915   2.230  14.584 -0.3195  0.6808 -0.3644
 1309SOL    HW215390   4.055   2.187  14.558  0.9354  1.8841  2.2088
 1310SOL     OW15391   3.212   0.780   2.992 -0.0301  0.7142  0.2823
 1310SOL    HW115392   3.189   0.870   2.969  1.4516  1.0239  0.0431
 1310SOL    HW215393   3.282   0.772   2.927  0.9448 -0.7118  1.5327
 1311SOL     OW15394   0.066   3.906   6.358  0.3370  0.6032  0.1363
 1311SOL    HW115395   0.018   3.919   6.276 -1.9320  0.2263  1.3917
 1311SOL    HW215396   0.104   3.990   6.381 -0.3141  1.1226 -0.7079
 1312SOL     OW15397   0.452   0.224   3.170  0.2647 -0.3270 -0.0195
 1312SOL    HW115398   0.523   0.227   3.234 -0.6763 -0.6316  1.0339
 1312SOL    HW215399   0.472   0.306   3.125 -1.1424 -0.8551 -1.6269
 1313SOL     OW15400   0.452   0.525   1.125  0.5227 -0.8660  0.0901
 1313SOL    HW115401   0.539   0.515   1.086  0.8960  1.4880  0.3468
 1313SOL    HW215402   0.475   0.570   1.206 -0.9115  1.9237 -1.0730
 1314SOL     OW15403   2.405   3.839   5.498 -0.2454 -0.5309 -0.4577
 1314SOL    HW115404   2.491   3.817   5.536  0.0568  0.8330 -0.3541
 1314SOL    HW215405   2.402   3.935   5.505 -1.0352 -0.5335 -0.7760
 1315SOL     OW15406   3.720   4.581   1.253  0.5903  0.4700  0.0136
 1315SOL    HW115407   3.774   4.592   1.331  0.1923  0.0294  0.3510
 1315SOL    HW215408   3.743   4.493   1.224 -2.5197  0.2163 -1.6769
 1316SOL     OW15409   4.610   0.780   7.250 -0.4138 -0.0261 -0.4208
 1316SOL    HW115410   4.577   0.748   7.334  1.2922  1.5967  0.8633
 1316SOL    HW215411   4.701   0.762   7.272  0.0650  1.0396 -1.4653
 1317SOL     OW15412   3.941   1.570  12.331  0.1249 -0.2881  0.0666
 1317SOL    HW115413   4.031   1.593  12.351  0.0206  1.5961 -1.6752
 1317SOL    HW215414   3.928   1.502  12.398  0.8610  1.6467  2.1403
 1318SOL     OW15415   0.424   0.538  16.985  0.3850  0.1639  0.5110
 1318SOL    HW115416   0.429   0.610  17.048 -0.7339  0.5837  0.1281
 1318SOL    HW215417   0.436   0.579  16.899  2.6093  1.1529  1.3002
 1319SOL     OW15418   2.430   4.410  14.603  0.2021 -1.1392 -0.2638
 1319SOL    HW115419   2.375   4.487  14.613 -0.7708 -2.1313  2.1770
 1319SOL    HW215420   2.459   4.388  14.691  0.1032 -1.4029 -0.2959
 1320SOL     OW15421   3.183   0.366  17.254  0.2917  0.4941 -0.0394
 1320SOL    HW115422   3.190   0.279  17.294  1.8878  1.0370  0.8396
 1320SOL    HW215423   3.127   0.356  17.177  1.2637  2.8629 -1.0420
 1321SOL     OW15424   1.617   0.781   6.519 -0.1593 -0.7241 -0.2344
 1321SOL    HW115425   1.593   0.694   6.488  0.2733 -1.3685  1.2247
 1321SOL    HW215426   1.554   0.797   6.590 -0.4068 -0.9330 -0.4075
 1322SOL     OW15427   2.180   3.141   4.759 -0.0582 -0.2232 -0.1798
 1322SOL    HW115428   2.150   3.229   4.739 -2.2948 -1.4071 -2.0179
 1322SOL    HW215429   2.231   3.140   4.840  0.8523  1.2649 -0.7298
 1323SOL     OW15430   2.238   2.835  16.479 -0.3395 -0.2600  0.2859
 1323SOL    HW115431   2.211   2.807  16.566  0.5934  1.3529  1.0793
 1323SOL    HW215432   2.330   2.851  16.500 -0.7492  1.7011  0.5510
 1324SOL     OW15433   1.436   0.426  14.222  0.1776 -0.1990 -0.0817
 1324SOL    HW115434   1.490   0.448  14.297  0.4883 -0.2080 -0.3015
 1324SOL    HW215435   1.499   0.417  14.150 -0.5506 -4.0991 -0.2512
 1325SOL     OW15436   1.428   3.360  14.865  0.1797 -0.6031 -0.2871
 1325SOL    HW115437   1.468   3.315  14.939 -2.4269 -0.2161  1.3642
 1325SOL    HW215438   1.425   3.448  14.903  0.1562 -0.3922 -0.7742
 1326SOL     OW15439   0.845   2.510  14.625 -0.0760  0.2523  0.3845
 1326SOL    HW115440   0.758   2.541  14.602 -0.4283  0.2440  1.7315
 1326SOL    HW215441   0.828   2.416  14.631  0.0710  0.0807 -1.6402
 1327SOL     OW15442   3.533   1.515   6.627 -0.2440 -0.6447  0.0235
 1327SOL    HW115443   3.521   1.508   6.532 -0.9001  1.6974 -0.0804
 1327SOL    HW215444   3.479   1.450   6.672  0.0463 -1.0055 -0.1461
 1328SOL     OW15445   1.667   2.416   9.382  0.3560  0.0262  0.3814
 1328SOL    HW115446   1.624   2.396   9.465 -1.0831  0.1849 -0.3381
 1328SOL    HW215447   1.612   2.475   9.332  1.8187  1.2635  0.2305
 1329SOL     OW15448   3.747   2.094   7.180 -0.3560 -0.0923  0.7228
 1329SOL    HW115449   3.655   2.067   7.187 -0.5386  0.1388 -0.8259
 1329SOL    HW215450   3.781   2.040   7.109  0.6102 -0.6542  1.6058
 1330SOL     OW15451   4.516   4.088  15.680 -0.2564  0.1299 -0.9636
 1330SOL    HW115452   4.545   4.063  15.592  0.4849 -0.7852 -0.4532
 1330SOL    HW215453   4.452   4.019  15.699  1.0009 -0.5651  0.7217
 1331SOL     OW15454   1.117   3.283   6.590 -0.1795 -0.3127 -0.3885
 1331SOL    HW115455   1.205   3.260   6.620 -0.3734  0.6876  0.9588
 1331SOL    HW215456   1.111   3.370   6.629  0.7858 -0.8087  0.8784
 1332SOL     OW15457   0.266   3.728   9.457  0.6289  0.1999  0.3223
 1332SOL    HW115458   0.214   3.654   9.488 -0.3506  1.1054  0.8173
 1332SOL    HW215459   0.229   3.803   9.504  0.0154 -0.3986  0.7875
 1333SOL     OW15460   0.588   1.911  10.955 -0.1505 -0.0410  0.1955
 1333SOL    HW115461   0.628   1.884  11.038  1.2536  0.8991 -0.1722
 1333SOL    HW215462   0.494   1.902  10.967  0.0573 -1.6030  0.5815
 1334SOL     OW15463   1.603   4.327   7.192  0.0243 -0.0594 -0.1645
 1334SOL    HW115464   1.670   4.341   7.125 -0.8048 -1.2768 -1.2386
 1334SOL    HW215465   1.596   4.232   7.186 -1.1902  0.0563 -0.6527
 1335SOL     OW15466   1.522   4.612   7.680  0.0803  0.0687  0.6623
 1335SOL    HW115467   1.586   4.661   7.629 -1.5523  1.0973 -0.4066
 1335SOL    HW215468   1.580   4.588   7.753  2.4703 -1.0550 -1.6215
 1336SOL     OW15469   2.055   2.640   7.871  0.0301 -0.2721  0.3058
 1336SOL    HW115470   2.064   2.708   7.804  0.5044  1.4188  2.1215
 1336SOL    HW215471   2.110   2.574   7.829 -1.1487 -0.2949 -1.2308
 1337SOL     OW15472   2.427   4.449   5.740  0.1725 -0.0180 -0.1326
 1337SOL    HW115473   2.410   4.441   5.646  1.2185  0.3337 -0.3505
 1337SOL    HW215474   2.522   4.436   5.736  0.1273 -0.6793  0.9823
 1338SOL     OW15475   2.303   2.751  10.064  0.1214  0.2573 -0.1273
 1338SOL    HW115476   2.331   2.659  10.072  1.4547  0.8613  2.0841
 1338SOL    HW215477   2.322   2.766   9.972 -0.4692  3.3259  0.2569
 1339SOL     OW15478   4.595   1.512   9.690 -0.3179  0.0825 -0.4865
 1339SOL    HW115479   4.506   1.525   9.659 -0.3245  0.7079 -0.2114
 1339SOL    HW215480   4.587   1.569   9.766 -1.7578 -4.2800  2.6155
 1340SOL     OW15481   4.335   4.086   2.996  0.7066 -0.6465 -0.0670
 1340SOL    HW115482   4.250   4.109   2.960 -0.1487 -3.0329  0.4791
 1340SOL    HW215483   4.300   4.041   3.072  0.2459 -2.4281 -1.3434
 1341SOL     OW15484   2.618   1.659   2.997 -0.1347 -0.4859 -0.3054
 1341SOL    HW115485   2.676   1.730   2.970 -0.0811 -0.2405  0.4812
 1341SOL    HW215486   2.587   1.624   2.913 -0.4828  2.8760 -1.5770
 1342SOL     OW15487   4.213   2.860  10.069 -0.0197  0.2391  0.3107
 1342SOL    HW115488   4.157   2.879  10.144  0.0900 -1.6787  0.8612
 1342SOL    HW215489   4.287   2.842  10.127 -0.5003  0.9275  1.1284
 1343SOL     OW15490   0.260   4.287   2.105 -0.3741 -0.6601  0.3190
 1343SOL    HW115491   0.240   4.298   2.198 -0.6979  0.1239  0.1561
 1343SOL    HW215492   0.355   4.289   2.093 -0.2590 -2.2171  0.9668
 1344SOL     OW15493   1.780   4.515   0.170 -0.4326 -0.0803 -0.6921
 1344SOL    HW115494   1.842   4.537   0.240  0.7340  2.0889 -2.3905
 1344SOL    HW215495   1.834   4.536   0.093  1.3529 -0.0322  0.5821
 1345SOL     OW15496   1.021   0.445   4.986  0.2205  0.2174  0.1138
 1345SOL    HW115497   1.056   0.531   4.966 -2.3517  1.3223  0.3253
 1345SOL    HW215498   1.032   0.446   5.081  0.2732  0.5167  0.1029
 1346SOL     OW15499   0.395   4.691  15.120  0.5787 -0.0850 -0.1401
 1346SOL    HW115500   0.391   0.023  15.039 -1.1695  0.0117  0.0277
 1346SOL    HW215501   0.477   0.010  15.150  0.8068 -2.5303  2.3455
 1347SOL     OW15502   4.125   4.503   6.538  0.0314  0.4604  0.3245
 1347SOL    HW115503   4.052   4.563   6.549 -0.4042  0.0681 -0.3980
 1347SOL    HW215504   4.105   4.467   6.452  0.0921  1.1682  0.0071
 1348SOL     OW15505   2.063   2.990   2.687  0.1119  0.1714 -0.0741
 1348SOL    HW115506   2.040   2.946   2.768 -1.2432  0.7074 -0.1718
 1348SOL    HW215507   1.981   2.966   2.645 -0.5127  2.0497  0.0658
 1349SOL     OW15508   4.449   0.215   0.454 -0.4523  0.0785  0.8430
 1349SOL    HW115509   4.435   0.242   0.545  1.0987 -0.7002  1.3221
 1349SOL    HW215510   4.395   0.275   0.402 -1.5329 -2.2944 -0.7630
 1350SOL     OW15511   4.673   2.069   1.257  0.2643 -0.0984 -0.3034
 1350SOL    HW115512   0.022   2.004   1.274  0.3906  0.1536  0.1321
 1350SOL    HW215513   4.595   2.015   1.272 -0.3325  0.8790  0.1079
 1351SOL     OW15514   3.085   4.355   3.463  0.2644 -0.6892 -0.8360
 1351SOL    HW115515   3.065   4.284   3.403  0.2817 -1.5550  0.1855
 1351SOL    HW215516   3.005   4.344   3.515  0.1356 -0.4243 -0.9729
 1352SOL     OW15517   1.894   3.405  17.204  0.0939 -0.2116  0.6032
 1352SOL    HW115518   1.841   3.384  17.282 -1.1319 -1.3110 -0.5142
 1352SOL    HW215519   1.916   3.491  17.238  1.7197 -0.0405 -0.9302
 1353SOL     OW15520   2.419   0.676   7.420 -0.1003  0.2973 -0.1797
 1353SOL    HW115521   2.453   0.765   7.411  0.7767 -0.0700 -0.4525
 1353SOL    HW215522   2.491   0.616   7.400 -1.6932 -1.1289 -1.7009
 1354SOL     OW15523   4.229   0.938  12.078  0.4931 -0.2157 -0.1952
 1354SOL    HW115524   4.235   0.858  12.130 -0.2468  1.4207  2.4068
 1354SOL    HW215525   4.161   0.993  12.117  0.6238 -0.7712  0.8199
 1355SOL     OW15526   1.005   2.035   3.708  0.1244  0.0245 -0.1986
 1355SOL    HW115527   1.018   1.954   3.658  0.7875  0.6028 -0.9770
 1355SOL    HW215528   0.926   2.009   3.756 -1.8989  1.6885 -2.6024
 1356SOL     OW15529   1.824   1.111   1.118 -0.2153  0.0627 -0.6553
 1356SOL    HW115530   1.917   1.132   1.116 -0.0722 -0.5630 -0.6641
 1356SOL    HW215531   1.801   1.104   1.210  0.5989 -0.1853 -0.4781
 1357SOL     OW15532   3.407   1.823   3.289  0.1496  0.1560  0.5282
 1357SOL    HW115533   3.411   1.837   3.194  1.9265 -0.9101  0.4536
 1357SOL    HW215534   3.496   1.791   3.306  0.2729  0.2663  0.0995
 1358SOL     OW15535   2.219   1.137   9.866  0.1765  0.4466  0.1235
 1358SOL    HW115536   2.172   1.175   9.940 -1.3143 -0.6758 -0.2492
 1358SOL    HW215537   2.296   1.193   9.871  2.4390 -2.7951  1.7542
 1359SOL     OW15538   0.916   3.351   7.792  0.4866 -0.5156 -0.1110
 1359SOL    HW115539   0.837   3.299   7.775  0.3836 -0.9215  1.6935
 1359SOL    HW215540   0.977   3.307   7.733 -0.4111 -2.2103  0.2065
 1360SOL     OW15541   2.598   2.702   6.597 -0.3073  0.8292 -0.0921
 1360SOL    HW115542   2.513   2.722   6.635 -0.6998 -0.5014 -0.2572
 1360SOL    HW215543   2.657   2.683   6.670 -1.0376 -0.9270  0.0481
 1361SOL     OW15544   1.590   2.458   2.918 -0.2668 -0.1048 -0.5283
 1361SOL    HW115545   1.609   2.364   2.919 -1.0894 -0.2836 -3.2982
 1361SOL    HW215546   1.536   2.465   2.998  1.0717  2.2262  0.1558
 1362SOL     OW15547   1.192   2.421  14.941  0.1282  0.0830 -0.0735
 1362SOL    HW115548   1.183   2.381  14.855 -0.0252 -0.7879  0.3446
 1362SOL    HW215549   1.235   2.354  14.995 -1.5349 -1.2870 -0.4244
 1363SOL     OW15550   1.408   1.329   8.490 -0.1057 -0.1905  0.0893
 1363SOL    HW115551   1.404   1.415   8.449 -1.2927  0.6581  2.0321
 1363SOL    HW215552   1.498   1.300   8.477  0.2019  0.3649  1.0130
 1364SOL     OW15553   4.296   0.059   6.511 -0.6622  0.7999  1.1862
 1364SOL    HW115554   4.362   4.709   6.507  0.0453  1.6774 -2.2485
 1364SOL    HW215555   4.246   0.042   6.431  0.7276 -0.4848  0.5923
 1365SOL     OW15556   3.853   2.392   1.419 -0.0853  0.2268  0.1271
 1365SOL    HW115557   3.851   2.449   1.342 -0.5970 -1.4423 -1.1179
 1365SOL    HW215558   3.943   2.363   1.428  0.0230  0.3727 -0.4747
 1366SOL     OW15559   0.597   1.455   8.006 -0.3531 -0.4315 -0.0388
 1366SOL    HW115560   0.657   1.521   7.971 -1.4373 -0.0125 -1.0950
 1366SOL    HW215561   0.516   1.498   7.981 -0.5112 -1.5873 -1.4891
 1367SOL     OW15562   0.691   0.168   6.424 -0.4130 -0.8011 -0.5091
 1367SOL    HW115563   0.654   0.173   6.512 -1.6038 -0.3178 -1.0341
 1367SOL    HW215564   0.652   0.086   6.393 -0.2225 -1.7294  1.7735
 1368SOL     OW15565   1.241   0.906  10.358 -0.7382  0.0790 -0.2121
 1368SOL    HW115566   1.272   0.955  10.281 -1.5224  1.0918  0.1220
 1368SOL    HW215567   1.254   0.818  10.322 -4.3551 -0.1152 -1.0147
 1369SOL     OW15568   0.948   3.550   9.196  0.2533 -0.5337  0.7593
 1369SOL    HW115569   0.989   3.466   9.218  0.2577 -0.6558  0.2912
 1369SOL    HW215570   0.858   3.519   9.206  0.3557 -0.4155  1.9800
 1370SOL     OW15571   2.644   3.421   6.031  0.3166 -0.5960 -0.1488
 1370SOL    HW115572   2.686   3.501   6.061 -0.8493 -0.0208 -0.0391
 1370SOL    HW215573   2.556   3.459   6.024  1.1624  1.3015 -0.3116
 1371SOL     OW15574   3.695   2.903   2.850 -0.3870  0.0404  0.3631
 1371SOL    HW115575   3.601   2.902   2.830 -0.7566 -0.0645  2.1187
 1371SOL    HW215576   3.721   2.811   2.858  0.9388  0.4744  1.0095
 1372SOL     OW15577   1.913   3.481  15.187  0.3067  0.3855  0.4225
 1372SOL    HW115578   1.860   3.503  15.110 -3.0570 -0.9430  2.3299
 1372SOL    HW215579   1.899   3.556  15.245 -2.0404  1.1866 -1.1728
 1373SOL     OW15580   0.463   2.780   7.474 -0.3047 -0.0304 -0.0270
 1373SOL    HW115581   0.490   2.808   7.562 -0.7315  1.5218 -0.3831
 1373SOL    HW215582   0.529   2.714   7.452  1.3685  2.1910 -1.7641
 1374SOL     OW15583   2.133   0.969  12.969 -0.3623  0.5464 -0.1894
 1374SOL    HW115584   2.204   1.009  12.920  1.7602 -0.5811  1.9496
 1374SOL    HW215585   2.093   0.912  12.903  0.1599 -0.2870  0.2058
 1375SOL     OW15586   2.336   4.096   8.246 -0.4912 -0.5266  0.4923
 1375SOL    HW115587   2.254   4.090   8.196  0.0420  0.4005 -0.4752
 1375SOL    HW215588   2.334   4.190   8.264 -1.3598 -0.3146 -0.7141
 1376SOL     OW15589   3.687   1.596   9.366  0.1266  0.3053 -0.1575
 1376SOL    HW115590   3.655   1.663   9.306  2.3721  0.4190 -1.2080
 1376SOL    HW215591   3.703   1.528   9.300 -0.0151 -0.8646  0.9951
 1377SOL     OW15592   0.141   3.476   5.442 -0.4468  0.0933 -0.0978
 1377SOL    HW115593   0.087   3.555   5.441  0.8331  0.9807  1.6905
 1377SOL    HW215594   0.145   3.452   5.534 -0.9615 -3.0496 -0.8788
 1378SOL     OW15595   2.555   0.413   3.930 -0.3656  0.1736 -0.5555
 1378SOL    HW115596   2.616   0.348   3.965 -1.3089 -0.0840  0.6159
 1378SOL    HW215597   2.615   0.488   3.927  1.7028 -1.4229  0.5566
 1379SOL     OW15598   2.737   3.922   8.209 -0.1464 -0.2909  0.5016
 1379SOL    HW115599   2.774   3.956   8.127  0.7773 -1.5009  0.4260
 1379SOL    HW215600   2.749   4.000   8.263  2.0426 -1.5600  1.8179
 1380SOL     OW15601   4.457   0.731   3.106  0.0238  0.0953 -0.0584
 1380SOL    HW115602   4.366   0.730   3.136 -0.7180  2.7385 -2.1943
 1380SOL    HW215603   4.462   0.638   3.085  1.6521 -0.2157  1.7891
 1381SOL     OW15604   3.437   2.822   6.490  0.1290 -0.5702  0.9393
 1381SOL    HW115605   3.525   2.788   6.473  1.2841  2.6933  0.3205
 1381SOL    HW215606   3.463   2.901   6.536  1.5112 -0.1273 -0.6193
 1382SOL     OW15607   1.600   1.059   9.700  0.0327 -0.2274  0.4249
 1382SOL    HW115608   1.592   1.109   9.619  2.5209  1.8422  1.4560
 1382SOL    HW215609   1.563   0.973   9.682  0.3151 -0.4977  1.1049
 1383SOL     OW15610   3.131   0.083  11.860 -0.0821  0.4667 -0.1352
 1383SOL    HW115611   3.206   0.092  11.919 -0.7920 -2.3343  1.1733
 1383SOL    HW215612   3.058   0.105  11.918  0.2447  2.5338 -0.5032
 1384SOL     OW15613   3.456   4.696   7.876 -0.1110 -0.1661 -0.0508
 1384SOL    HW115614   3.525   4.671   7.815 -1.9447  0.1393 -2.2264
 1384SOL    HW215615   3.478   4.638   7.950  2.2735 -0.2151 -0.7897
 1385SOL     OW15616   2.801   1.349   3.570  0.1001  0.1100  0.1442
 1385SOL    HW115617   2.827   1.389   3.653 -0.5952  0.4067  0.2211
 1385SOL    HW215618   2.872   1.292   3.543  0.5207 -0.1494  1.7859
 1386SOL     OW15619   2.096   3.366   5.896 -0.2144 -0.1168  0.9239
 1386SOL    HW115620   2.064   3.277   5.888  1.2292 -0.6756  1.4031
 1386SOL    HW215621   2.027   3.421   5.860  1.3824  1.3313  0.0729
 1387SOL     OW15622   3.193   0.238  14.509 -0.1951 -0.5199  0.2715
 1387SOL    HW115623   3.120   0.278  14.557 -1.3087 -1.3115 -0.7629
 1387SOL    HW215624   3.141   0.181  14.452  1.1155 -0.9477 -0.4867
 1388SOL     OW15625   0.058   4.591   1.411  0.1537 -0.1356  0.2680
 1388SOL    HW115626   0.127   4.616   1.473 -0.9217  1.8520  0.6557
 1388SOL    HW215627   0.063   4.495   1.415  0.0183 -0.0297  3.2947
 1389SOL     OW15628   3.939   1.460   6.923  0.0594 -0.4988 -0.4063
 1389SOL    HW115629   3.892   1.504   6.853 -0.8232 -0.7238  0.0437
 1389SOL    HW215630   4.031   1.475   6.904  0.2445  0.5657  1.3461
 1390SOL     OW15631   1.023   0.469   8.098  0.4549  0.0914 -0.2832
 1390SOL    HW115632   1.091   0.476   8.165 -0.6312 -0.9339  0.9367
 1390SOL    HW215633   0.979   0.549   8.125  1.0639 -0.3048  1.8945
 1391SOL     OW15634   3.933   2.107   2.068  0.1745 -0.3293 -0.3810
 1391SOL    HW115635   3.905   2.028   2.021 -1.2772  0.0617 -0.1829
 1391SOL    HW215636   3.976   2.165   2.005  0.0250 -0.2267 -0.3905
 1392SOL     OW15637   4.032   0.294   3.036  0.3285  0.6639  0.5737
 1392SOL    HW115638   3.966   0.275   2.969  2.4404  2.2003 -1.9194
 1392SOL    HW215639   4.109   0.273   2.983 -0.8924 -1.0079 -0.5181
 1393SOL     OW15640   2.236   2.530  11.835 -0.2092 -0.5238 -0.4478
 1393SOL    HW115641   2.170   2.489  11.779 -2.1019  1.4981  0.2983
 1393SOL    HW215642   2.304   2.534  11.768 -0.0033 -1.5847 -0.2993
 1394SOL     OW15643   0.239   0.174   1.945  0.0769  0.5815 -0.0190
 1394SOL    HW115644   0.328   0.196   1.970  0.6928 -3.7224  1.4471
 1394SOL    HW215645   0.247   0.079   1.940  2.6152  0.6790  2.2735
 1395SOL     OW15646   3.201   2.484   2.180 -0.3512  0.1477  0.1335
 1395SOL    HW115647   3.180   2.410   2.123  0.0358 -0.7966  1.2153
 1395SOL    HW215648   3.146   2.460   2.255 -2.7686  0.9579 -1.3887
 1396SOL     OW15649   4.647   3.687   6.949 -0.1444  0.3005 -0.6254
 1396SOL    HW115650   4.702   3.618   6.987 -0.4014 -0.5720 -1.8318
 1396SOL    HW215651   4.588   3.714   7.019  0.4046  1.0874 -0.4798
 1397SOL     OW15652   3.385   0.333   7.867 -0.3883  0.3640 -0.2302
 1397SOL    HW115653   3.310   0.351   7.810 -0.1719  0.8686 -0.3542
 1397SOL    HW215654   3.335   0.285   7.933 -0.0635 -1.1886 -1.1045
 1398SOL     OW15655   1.894   2.451   1.113 -0.1798  0.0722  0.4374
 1398SOL    HW115656   1.979   2.496   1.122  0.2123 -0.5370 -0.2425
 1398SOL    HW215657   1.901   2.405   1.029  1.2887 -0.7449  1.0056
 1399SOL     OW15658   3.383   4.515   7.634 -0.5739 -0.3011 -0.2638
 1399SOL    HW115659   3.299   4.486   7.670 -1.2854  0.5202 -1.2615
 1399SOL    HW215660   3.391   4.606   7.661  2.2131 -1.1062  1.5674
 1400SOL     OW15661   2.390   3.291   8.178 -0.3058  0.4511 -0.0097
 1400SOL    HW115662   2.415   3.330   8.095  1.1526  0.1434  0.2925
 1400SOL    HW215663   2.476   3.288   8.219 -0.9001  1.0977  1.2936
 1401SOL     OW15664   1.859   1.781   5.590 -0.0241 -0.4057  0.4750
 1401SOL    HW115665   1.801   1.782   5.667 -0.2783 -0.4852  0.2830
 1401SOL    HW215666   1.881   1.689   5.600  0.2306 -0.7166 -2.9813
 1402SOL     OW15667   0.991   0.088   0.429  0.6268  0.3436  0.2664
 1402SOL    HW115668   1.068   0.048   0.470 -0.8082 -0.7063  1.9191
 1402SOL    HW215669   1.028   0.141   0.358 -0.3291  1.0608  0.3097
 1403SOL     OW15670   2.788   1.532   4.843  0.3105 -0.1522 -0.0693
 1403SOL    HW115671   2.735   1.607   4.874 -2.2640 -1.3416 -1.5875
 1403SOL    HW215672   2.854   1.573   4.788  0.3683  0.1090  0.1915
 1404SOL     OW15673   0.043   2.789   2.333 -0.8622 -0.1822 -0.0407
 1404SOL    HW115674   0.017   2.704   2.369 -0.8557  0.0463  0.5065
 1404SOL    HW215675   0.124   2.799   2.382 -0.1624 -1.4819 -0.9471
 1405SOL     OW15676   2.466   0.186   2.501  0.1205 -0.1483  0.0934
 1405SOL    HW115677   2.465   0.122   2.430 -0.1768 -0.2388  0.1779
 1405SOL    HW215678   2.562   0.182   2.510  0.2142 -1.6329 -1.6214
 1406SOL     OW15679   0.013   1.759   8.165  0.5695  0.1533 -0.0022
 1406SOL    HW115680   0.059   1.796   8.089 -0.4135  1.0567 -0.1606
 1406SOL    HW215681   0.075   1.777   8.237  1.0476 -2.2828  0.1751
 1407SOL     OW15682   2.070   3.877   9.553 -0.1520  0.2511 -0.1692
 1407SOL    HW115683   2.079   3.905   9.462 -1.3801 -0.6537 -0.5679
 1407SOL    HW215684   2.162   3.874   9.581 -0.5543 -1.5478  0.9741
 1408SOL     OW15685   2.513   2.912   6.345 -0.4102 -0.1902  0.0756
 1408SOL    HW115686   2.492   3.005   6.337  0.8563  0.0657 -0.1993
 1408SOL    HW215687   2.587   2.912   6.284  0.2580 -0.7799  0.8816
 1409SOL     OW15688   1.259   3.874   1.231  0.0944  0.2515  0.2964
 1409SOL    HW115689   1.239   3.906   1.143  1.7073  0.8360  0.1421
 1409SOL    HW215690   1.289   3.784   1.215  1.6344  0.7582  0.2991
 1410SOL     OW15691   0.590   2.276   4.666 -0.1089 -0.2362 -0.1283
 1410SOL    HW115692   0.597   2.205   4.730  1.8594  1.4929  1.5664
 1410SOL    HW215693   0.648   2.245   4.597  0.0928  0.4748 -0.2789
 1411SOL     OW15694   1.128   4.610   8.014 -0.2627 -0.2435  0.1376
 1411SOL    HW115695   1.140   4.662   7.934  1.6825  0.5799  0.9850
 1411SOL    HW215696   1.216   4.576   8.029  0.3557  1.2673 -0.0976
 1412SOL     OW15697   1.157   2.566  11.333 -0.3682 -0.8592 -0.3039
 1412SOL    HW115698   1.144   2.621  11.256 -1.3070 -1.0518 -0.2789
 1412SOL    HW215699   1.081   2.509  11.345 -0.5811 -0.6141 -0.5086
 1413SOL     OW15700   3.982   1.590   1.716  0.1189  0.1343 -0.1194
 1413SOL    HW115701   4.055   1.587   1.655  0.2500 -1.8699  0.1230
 1413SOL    HW215702   4.031   1.610   1.796  0.0961  1.0404 -0.3340
 1414SOL     OW15703   1.719   0.064  11.260 -0.1414  0.4249 -1.2262
 1414SOL    HW115704   1.652   0.024  11.316 -1.5145  0.5687 -2.7722
 1414SOL    HW215705   1.793   0.070  11.320 -0.0513 -0.3567 -1.2658
 1415SOL     OW15706   3.731   2.127  16.253 -0.1809  0.1254 -0.7706
 1415SOL    HW115707   3.643   2.092  16.266 -0.0030  0.8607  2.3966
 1415SOL    HW215708   3.725   2.147  16.159  0.4765 -0.3286 -0.9084
 1416SOL     OW15709   1.123   3.743   8.423 -0.6359  0.0079 -0.9409
 1416SOL    HW115710   1.060   3.671   8.431 -0.3815  0.0761  1.4534
 1416SOL    HW215711   1.178   3.704   8.491 -1.3744  1.8626  0.6962
 1417SOL     OW15712   2.001   4.133   6.676 -0.3880 -0.3473  0.3449
 1417SOL    HW115713   2.025   4.148   6.584  1.0999 -0.2036  0.7539
 1417SOL    HW215714   1.947   4.211   6.687  1.2676  0.8139  0.3570
 1418SOL     OW15715   2.456   4.640   6.757  0.2194 -0.3556 -0.9718
 1418SOL    HW115716   2.484   0.010   6.776  2.7896 -1.4517  0.3349
 1418SOL    HW215717   2.412   4.649   6.673 -1.3020 -0.0337 -0.1460
 1419SOL     OW15718   0.964   2.159   6.960 -0.2148 -0.1841 -0.0774
 1419SOL    HW115719   1.014   2.105   6.899 -3.0372 -1.3847 -1.3817
 1419SOL    HW215720   1.015   2.239   6.948  0.0295 -0.2102  0.7949
 1420SOL     OW15721   1.754   2.323   6.828 -0.7131  0.1734 -0.3115
 1420SOL    HW115722   1.791   2.292   6.910 -1.4690 -1.4863 -0.6105
 1420SOL    HW215723   1.819   2.290   6.766  0.7507  1.2814  0.6312
 1421SOL     OW15724   2.917   3.844   6.215 -0.1508  0.5297 -0.3466
 1421SOL    HW115725   2.991   3.855   6.274 -0.7929  1.3003  0.3240
 1421SOL    HW215726   2.888   3.935   6.215 -1.9188 -0.0145  1.9795
 1422SOL     OW15727   1.845   4.537   6.237  0.2633 -0.4090 -0.3167
 1422SOL    HW115728   1.840   4.578   6.151  0.5109 -1.3241 -0.7698
 1422SOL    HW215729   1.915   4.476   6.216  0.5734 -0.2154  0.1600
 1423SOL     OW15730   3.130   1.592   3.996 -0.6113  0.3766 -0.8593
 1423SOL    HW115731   3.110   1.538   3.920 -0.9125  0.3902 -0.7895
 1423SOL    HW215732   3.108   1.682   3.971  1.0982  1.1819  0.5042
 1424SOL     OW15733   1.249   2.729   2.018  0.5601 -0.1944 -0.3979
 1424SOL    HW115734   1.232   2.736   1.924  0.3786 -4.1285 -0.6227
 1424SOL    HW215735   1.344   2.736   2.003  0.5658 -0.6042 -0.5382
 1425SOL     OW15736   0.122   4.464   0.928  0.1290  0.2985  0.0301
 1425SOL    HW115737   0.071   4.386   0.950  2.6320 -1.3465 -0.0942
 1425SOL    HW215738   0.195   4.449   0.988 -0.4714  0.0096  0.6945
 1426SOL     OW15739   0.938   4.658  12.654 -0.4473 -0.1073  0.1348
 1426SOL    HW115740   0.876   4.597  12.694  1.2481 -1.5210  0.5835
 1426SOL    HW215741   1.024   4.636  12.690 -1.0941 -1.4595  0.8467
 1427SOL     OW15742   2.167   1.700   5.556 -0.0856 -0.1852 -0.1118
 1427SOL    HW115743   2.191   1.785   5.517 -1.6288  0.5811  0.6184
 1427SOL    HW215744   2.236   1.647   5.516  2.0049  2.1326  0.3767
 1428SOL     OW15745   4.400   1.407  14.112 -0.1314 -0.0547 -0.3385
 1428SOL    HW115746   4.409   1.313  14.096  1.7761  0.0655 -0.0302
 1428SOL    HW215747   4.471   1.432  14.172 -0.3965  2.3276 -1.0124
 1429SOL     OW15748   4.154   4.314   4.560 -0.2641 -0.3251  0.1608
 1429SOL    HW115749   4.202   4.384   4.516 -0.3961 -0.5444 -0.3329
 1429SOL    HW215750   4.181   4.232   4.518 -2.1161 -1.0507  0.3752
 1430SOL     OW15751   1.626   1.464   9.315  0.1646  0.2641  0.0511
 1430SOL    HW115752   1.649   1.557   9.322  3.2603 -0.6713  2.6850
 1430SOL    HW215753   1.715   1.430   9.304 -0.4190 -0.9052 -1.0380
 1431SOL     OW15754   0.367   3.948  14.324  0.0254 -0.1220  0.3194
 1431SOL    HW115755   0.349   3.941  14.230 -1.2015 -1.0168  0.6116
 1431SOL    HW215756   0.395   4.039  14.315  1.5423 -0.8829 -2.7478
 1432SOL     OW15757   0.076   4.622  13.691 -0.0023  0.3308 -0.4941
 1432SOL    HW115758   0.071   4.582  13.778 -0.3006 -0.5753 -0.9246
 1432SOL    HW215759   0.160   4.667  13.702 -0.2160  1.1088 -2.0141
 1433SOL     OW15760   1.567   2.190   5.476 -0.0548 -0.1302  0.0687
 1433SOL    HW115761   1.646   2.136   5.473 -0.3042 -0.5378  1.0206
 1433SOL    HW215762   1.580   2.231   5.561  0.1861 -2.3933  1.1086
 1434SOL     OW15763   2.688   4.393   5.670  0.5129  1.1871  0.3817
 1434SOL    HW115764   2.723   4.338   5.741  0.3325 -1.5659 -1.6817
 1434SOL    HW215765   2.756   4.377   5.604  1.6936  1.6781  1.4699
 1435SOL     OW15766   3.560   2.986   7.037  0.5172 -0.2716  0.0464
 1435SOL    HW115767   3.497   2.993   7.108 -0.5412 -1.9044 -0.7414
 1435SOL    HW215768   3.588   3.077   7.024  0.9960 -0.5639 -1.0384
 1436SOL     OW15769   0.157   2.263   4.430 -0.3757 -0.2350 -0.4081
 1436SOL    HW115770   0.200   2.295   4.509 -2.0782  0.1067  0.3710
 1436SOL    HW215771   0.239   2.240   4.386  0.2666  0.2110  0.5644
 1437SOL     OW15772   2.601   2.267   4.898  0.2957  0.0126 -0.7015
 1437SOL    HW115773   2.635   2.204   4.961 -0.4568 -0.2752 -0.5836
 1437SOL    HW215774   2.631   2.349   4.936 -0.0726 -0.1317 -0.1040
 1438SOL     OW15775   1.470   2.488   8.682  0.0751 -0.0655 -0.3133
 1438SOL    HW115776   1.479   2.413   8.623 -0.9318 -1.7869  1.7009
 1438SOL    HW215777   1.400   2.471   8.745  1.7248 -2.1185  0.9686
 1439SOL     OW15778   0.343   4.623   1.500  0.5080  0.9661  1.0025
 1439SOL    HW115779   0.404   4.651   1.568  1.7920  3.1274 -1.0375
 1439SOL    HW215780   0.401   4.597   1.429 -1.1388  0.5836 -0.2123
 1440SOL     OW15781   4.290   1.558  12.954 -0.2195 -0.3135 -0.5161
 1440SOL    HW115782   4.219   1.622  12.950  1.7503  1.9813  1.2929
 1440SOL    HW215783   4.308   1.545  13.047  1.1946  0.0998 -0.7323
 1441SOL     OW15784   2.412   0.696  12.879  0.0338 -0.7341 -0.9241
 1441SOL    HW115785   2.369   0.631  12.935 -1.2393 -1.5395 -2.8264
 1441SOL    HW215786   2.403   0.777  12.929  0.9992 -0.9450 -0.4283
 1442SOL     OW15787   0.580   1.297   9.516  0.0252 -0.2048 -0.6601
 1442SOL    HW115788   0.487   1.274   9.510  0.2951 -2.0494  2.2902
 1442SOL    HW215789   0.584   1.389   9.493  1.7953 -0.2049 -0.3320
 1443SOL     OW15790   1.055   1.033   3.463 -0.1175 -0.3705 -0.7207
 1443SOL    HW115791   1.139   1.002   3.497 -0.1791  1.2868  0.9473
 1443SOL    HW215792   0.991   0.978   3.508  0.4748 -1.7269 -1.5225
 1444SOL     OW15793   2.619   1.053   4.737 -0.0255 -0.5101  0.3435
 1444SOL    HW115794   2.559   1.096   4.676 -0.4104 -1.2544  0.1976
 1444SOL    HW215795   2.657   1.136   4.766 -1.1690 -0.0181  0.4056
 1445SOL     OW15796   2.854   3.042   7.957 -0.2466  0.1772  0.5068
 1445SOL    HW115797   2.872   3.115   8.016  0.6613  0.6677 -0.3895
 1445SOL    HW215798   2.782   3.073   7.902 -1.2943  1.8287  2.8061
 1446SOL     OW15799   3.433   3.280  10.216 -0.7482  0.0524  0.5765
 1446SOL    HW115800   3.437   3.237  10.131 -1.3926  2.4450 -0.6855
 1446SOL    HW215801   3.413   3.368  10.184 -2.9871 -1.4680 -2.2185
 1447SOL     OW15802   1.762   0.603   8.554  0.3008 -0.5735 -0.0552
 1447SOL    HW115803   1.693   0.538   8.544 -2.0095  1.9309 -0.5158
 1447SOL    HW215804   1.828   0.572   8.617  0.2964 -0.9632 -0.2443
 1448SOL     OW15805   1.088   1.094  13.722 -0.0012  0.2342  0.1824
 1448SOL    HW115806   1.031   1.085  13.798 -2.1939 -4.8927 -2.0538
 1448SOL    HW215807   1.124   1.005  13.714 -1.2778 -0.2373 -0.4421
 1449SOL     OW15808   1.694   2.573  10.296  0.2763  0.5573  0.7479
 1449SOL    HW115809   1.612   2.591  10.251  0.0635  0.2774  1.0226
 1449SOL    HW215810   1.725   2.510  10.231 -2.9162 -0.3487  0.0905
 1450SOL     OW15811   1.260   2.282   5.565 -0.2255  0.3399  0.1246
 1450SOL    HW115812   1.244   2.286   5.470  0.4173 -2.5870 -0.1279
 1450SOL    HW215813   1.348   2.246   5.570 -0.2734  0.2574  0.3521
 1451SOL     OW15814   3.354   0.404  10.151 -0.0600  0.1242  0.0267
 1451SOL    HW115815   3.318   0.444  10.072 -0.7375  0.9688  0.7629
 1451SOL    HW215816   3.426   0.358  10.108 -1.0846 -1.4328  0.0028
 1452SOL     OW15817   1.645   1.320  17.005 -0.0833 -0.0354  0.4346
 1452SOL    HW115818   1.649   1.361  16.919  1.8869 -0.5940  0.2682
 1452SOL    HW215819   1.723   1.349  17.052  1.4427 -1.3890 -1.2776
 1453SOL     OW15820   4.674   4.509   6.044 -0.5889  0.8140 -0.3508
 1453SOL    HW115821   4.615   4.582   6.065 -3.7225 -1.5092 -1.1071
 1453SOL    HW215822   4.626   4.438   6.086 -0.3080  1.1408  0.5189
 1454SOL     OW15823   1.145   3.118  12.334 -0.2169  0.5721 -0.0360
 1454SOL    HW115824   1.085   3.139  12.262  1.6122 -0.1644 -1.7897
 1454SOL    HW215825   1.116   3.028  12.351 -0.3554  0.4703 -0.8106
 1455SOL     OW15826   3.416   0.683   6.368  0.1100 -0.1028  0.7418
 1455SOL    HW115827   3.373   0.700   6.284 -2.4583 -2.2970  1.6426
 1455SOL    HW215828   3.492   0.628   6.347 -1.4845 -1.5614 -1.1752
 1456SOL     OW15829   2.594   3.734   4.366  0.1463  0.1400  0.1927
 1456SOL    HW115830   2.611   3.677   4.441 -0.2423 -1.6597 -1.0955
 1456SOL    HW215831   2.613   3.675   4.293 -2.0292 -0.9691  0.5291
 1457SOL     OW15832   3.858   2.036   4.178  0.0345 -0.0493 -0.0977
 1457SOL    HW115833   3.783   2.087   4.149 -0.3871 -0.1879  0.7525
 1457SOL    HW215834   3.853   2.044   4.273  1.8951  2.4584 -0.1992
 1458SOL     OW15835   2.586   0.733   3.617  0.3114  0.3253  0.1800
 1458SOL    HW115836   2.602   0.812   3.668  0.1204  0.1495  0.5123
 1458SOL    HW215837   2.546   0.772   3.539 -1.9148 -1.8675  0.2160
 1459SOL     OW15838   4.602   0.342   5.127  0.1306  0.2212  0.4057
 1459SOL    HW115839   4.512   0.335   5.159  0.6353 -1.3990  1.4697
 1459SOL    HW215840   4.580   0.364   5.037 -0.6435  0.0048  0.5419
 1460SOL     OW15841   0.156   1.924   1.336 -0.0503  0.0251 -0.0765
 1460SOL    HW115842   0.166   1.968   1.420 -1.4535 -0.6239  0.4339
 1460SOL    HW215843   0.157   1.833   1.366 -1.4922  0.3093  0.8484
 1461SOL     OW15844   1.297   4.362   3.984 -0.7784  0.0612 -0.7352
 1461SOL    HW115845   1.270   4.451   4.007  0.0108 -0.1173  0.9240
 1461SOL    HW215846   1.387   4.369   4.016 -0.6099 -1.6031 -0.8170
 1462SOL     OW15847   4.175   3.059   2.474 -0.1607 -0.0379 -0.1264
 1462SOL    HW115848   4.265   3.026   2.472  0.9503  3.0636 -0.7465
 1462SOL    HW215849   4.138   2.982   2.430  0.8762 -0.1052 -0.8731
 1463SOL     OW15850   0.027   4.213   0.960 -0.0332 -0.1052  0.2525
 1463SOL    HW115851   0.094   4.181   0.901 -1.9022 -1.9587 -0.8514
 1463SOL    HW215852   4.698   4.136   0.989  1.0587 -0.0294  2.3024
 1464SOL     OW15853   2.527   1.396   3.588 -0.2331 -0.2354  0.3233
 1464SOL    HW115854   2.616   1.365   3.570  0.3336  1.9727 -0.8059
 1464SOL    HW215855   2.487   1.321   3.631 -2.9400  1.4228  0.7423
 1465SOL     OW15856   1.558   2.818   8.847  0.0139  0.2998  0.7225
 1465SOL    HW115857   1.625   2.825   8.916 -0.0691  1.7405  0.6526
 1465SOL    HW215858   1.497   2.750   8.877 -1.5657  1.7504  0.8463
 1466SOL     OW15859   2.632   0.400   7.670  0.1749 -0.2877 -0.4437
 1466SOL    HW115860   2.615   0.488   7.705  0.1145 -0.1872 -0.7266
 1466SOL    HW215861   2.727   0.394   7.677  0.1757  0.2924  0.0388
 1467SOL     OW15862   4.473   3.097  12.574  0.3663 -0.0839  0.5110
 1467SOL    HW115863   4.547   3.043  12.544 -0.1079 -0.4627  0.0190
 1467SOL    HW215864   4.512   3.184  12.569 -0.5121  0.3293  0.8993
 1468SOL     OW15865   0.841   4.046   2.905  0.3479 -0.8853 -0.2261
 1468SOL    HW115866   0.822   3.956   2.931 -0.3721 -0.2784  1.3556
 1468SOL    HW215867   0.766   4.061   2.847  0.9348  0.4523 -0.6408
 1469SOL     OW15868   0.972   4.669   0.140  0.1539 -0.0666 -0.2651
 1469SOL    HW115869   0.888   4.669   0.185  0.6805  1.0947  0.7281
 1469SOL    HW215870   1.012   4.588   0.171  2.1139  0.0042 -2.5702
 1470SOL     OW15871   3.293   2.166   6.134  0.5731  0.4266 -0.4630
 1470SOL    HW115872   3.316   2.244   6.083 -0.2949  0.0369 -1.4593
 1470SOL    HW215873   3.345   2.092   6.102 -0.5557 -0.5033 -0.1444
 1471SOL     OW15874   1.559   1.834   0.511  0.0460 -0.2767 -0.6967
 1471SOL    HW115875   1.482   1.809   0.460  0.3356 -0.3268 -1.1166
 1471SOL    HW215876   1.637   1.820   0.457  1.1389  2.2817  0.2260
 1472SOL     OW15877   2.423   1.233   3.808  0.0475  0.1762 -0.3546
 1472SOL    HW115878   2.356   1.185   3.857  1.4237 -2.2356 -0.8200
 1472SOL    HW215879   2.499   1.228   3.866 -1.1852 -0.4147  1.2266
 1473SOL     OW15880   3.605   3.700  15.276  0.4378  0.3795  0.7087
 1473SOL    HW115881   3.653   3.783  15.278 -0.3827  0.8803 -0.8604
 1473SOL    HW215882   3.648   3.651  15.206 -2.5600  0.8210 -1.4142
 1474SOL     OW15883   2.498   2.049   3.418  0.5224  0.0320 -0.2675
 1474SOL    HW115884   2.506   1.955   3.433  4.0304  0.3065 -0.3899
 1474SOL    HW215885   2.590   2.074   3.415  0.9516 -1.4682  0.6978
 1475SOL     OW15886   3.293   2.080   5.826 -0.2558  1.0776 -0.5086
 1475SOL    HW115887   3.235   2.152   5.850 -2.9038 -0.6181 -1.7854
 1475SOL    HW215888   3.338   2.112   5.749 -0.4784 -2.1525 -1.9677
 1476SOL     OW15889   3.098   1.723  11.735  0.1950  0.0244 -0.4527
 1476SOL    HW115890   3.116   1.644  11.685  0.0136 -0.2163 -0.1346
 1476SOL    HW215891   3.006   1.716  11.707  0.5444 -1.9639 -1.0850
 1477SOL     OW15892   3.228   1.495  13.801 -0.4137  0.1611  0.0750
 1477SOL    HW115893   3.292   1.507  13.872 -0.6293 -0.3212  0.3551
 1477SOL    HW215894   3.278   1.448  13.734  0.9285  1.5779  0.0805
 1478SOL     OW15895   3.422   1.739   7.745  0.0340 -0.8110  0.5231
 1478SOL    HW115896   3.458   1.826   7.762 -1.0401 -0.6321  1.8629
 1478SOL    HW215897   3.333   1.760   7.771 -0.8558 -1.5037 -2.0081
 1479SOL     OW15898   2.447   2.944  11.392 -0.2123  0.0834 -0.7970
 1479SOL    HW115899   2.522   2.989  11.433 -1.3727 -1.2800  2.8036
 1479SOL    HW215900   2.387   3.018  11.386 -0.0268  0.4096  1.4578
 1480SOL     OW15901   3.732   1.569   3.455  0.2894  0.2248 -0.0436
 1480SOL    HW115902   3.721   1.646   3.399 -1.0069 -0.1009 -0.2369
 1480SOL    HW215903   3.739   1.503   3.385 -1.7088  1.8264 -1.7366
 1481SOL     OW15904   1.360   3.051   4.678 -0.3101  0.1106  0.1523
 1481SOL    HW115905   1.385   3.131   4.631  0.1826 -0.7983 -1.1094
 1481SOL    HW215906   1.395   3.059   4.767  0.0768 -2.0293  0.1721
 1482SOL     OW15907   0.144   0.446   3.213  0.4682 -0.3107 -0.1282
 1482SOL    HW115908   0.095   0.519   3.174  1.9733  1.3825  1.1282
 1482SOL    HW215909   0.073   0.409   3.265  0.1843 -0.0132 -0.3025
 1483SOL     OW15910   4.264   0.334   3.572 -0.2047 -0.0549  0.0799
 1483SOL    HW115911   4.179   0.309   3.607 -1.1166  1.3897 -1.1074
 1483SOL    HW215912   4.298   0.257   3.526  1.5964  0.3279  0.7528
 1484SOL     OW15913   1.579   2.027   0.816  0.0486  0.1853  0.1282
 1484SOL    HW115914   1.603   2.014   0.908 -0.8571  2.3339  0.6931
 1484SOL    HW215915   1.528   2.108   0.821  1.5565  1.1947 -0.9801
 1485SOL     OW15916   4.042   0.882  16.296 -0.0650  0.4858 -0.4232
 1485SOL    HW115917   4.105   0.866  16.225 -2.4369 -1.0415 -2.1643
 1485SOL    HW215918   4.017   0.802  16.343 -1.0957  1.4002  0.5832
 1486SOL     OW15919   4.453   4.251   4.697  0.3202  0.3424 -0.0315
 1486SOL    HW115920   4.417   4.246   4.608 -1.8118  0.4440  0.8235
 1486SOL    HW215921   4.471   4.160   4.721 -0.9837  0.0798 -0.0016
 1487SOL     OW15922   0.611   4.352   8.392  0.2173 -0.2660  0.4776
 1487SOL    HW115923   0.615   4.400   8.310 -0.7867  2.0038  1.7771
 1487SOL    HW215924   0.516   4.345   8.386  0.4182 -1.6212 -0.9504
 1488SOL     OW15925   2.397   1.798  15.883 -0.8258 -0.2570 -0.2183
 1488SOL    HW115926   2.475   1.758  15.845 -0.7972  0.3388 -0.8057
 1488SOL    HW215927   2.428   1.847  15.959  0.5619  0.0804 -0.9907
 1489SOL     OW15928   0.845   4.416  15.324 -0.0107  0.2853 -0.0678
 1489SOL    HW115929   0.811   4.343  15.273 -0.6118 -0.8957  2.0486
 1489SOL    HW215930   0.780   4.482  15.299 -1.1591 -0.8452 -0.0604
 1490SOL     OW15931   4.401   1.159   5.196  0.0015  0.8839 -0.5835
 1490SOL    HW115932   4.394   1.087   5.258  1.5041  0.3048 -1.0726
 1490SOL    HW215933   4.361   1.111   5.124 -0.6465 -0.2704  0.5418
 1491SOL     OW15934   3.913   1.480  17.313  0.3269  0.1269 -0.0429
 1491SOL    HW115935   3.896   1.386  17.322 -0.1794  0.3107  0.8470
 1491SOL    HW215936   3.992   1.489  17.366  0.7624 -0.1907 -0.6307
 1492SOL     OW15937   0.755   1.970   2.164  0.4006 -0.1706 -0.3587
 1492SOL    HW115938   0.738   1.887   2.120 -1.7480  0.2256 -0.3013
 1492SOL    HW215939   0.683   1.979   2.226  1.0033 -0.2764  0.3563
 1493SOL     OW15940   2.778   2.361   4.603 -0.2723  0.0261  0.4870
 1493SOL    HW115941   2.868   2.388   4.591 -0.1026 -0.6138  0.3115
 1493SOL    HW215942   2.746   2.432   4.659 -3.7761 -1.4497  0.3738
 1494SOL     OW15943   0.794   0.673   6.715 -0.2761 -0.1109  0.3927
 1494SOL    HW115944   0.727   0.612   6.686  0.6704 -0.5712 -0.8278
 1494SOL    HW215945   0.858   0.613   6.752  0.0722 -0.5698 -0.9714
 1495SOL     OW15946   1.804   1.433   6.010 -1.1820 -0.1663  0.0184
 1495SOL    HW115947   1.743   1.388   5.952  1.1013 -0.3815 -2.2382
 1495SOL    HW215948   1.889   1.415   5.969 -0.3776  2.6848  0.4154
 1496SOL     OW15949   4.397   0.769   2.089  0.7569  0.9758  0.2933
 1496SOL    HW115950   4.308   0.802   2.101  0.3565  0.7818 -2.2284
 1496SOL    HW215951   4.402   0.779   1.994 -3.3870  0.7526  0.0715
 1497SOL     OW15952   1.782   0.213   7.142  0.3797 -0.0410  0.2620
 1497SOL    HW115953   1.691   0.191   7.122  0.2658  1.0910 -0.4619
 1497SOL    HW215954   1.807   0.267   7.067 -1.4692  0.3747 -0.0517
 1498SOL     OW15955   3.125   0.459  17.508 -0.0593  0.1294  0.8399
 1498SOL    HW115956   3.074   0.532  17.473 -0.4776 -0.4942  0.1517
 1498SOL    HW215957   3.163   0.432  17.425 -0.0375  0.6946  0.6730
 1499SOL     OW15958   3.953   0.756   0.001 -0.0605  0.3167  0.2568
 1499SOL    HW115959   3.858   0.741  17.675  0.4751 -2.1296 -2.1599
 1499SOL    HW215960   3.988   0.755  17.593 -0.6770 -0.9536  0.0132
 1500SOL     OW15961   0.404   2.519   7.758  0.0692  0.0055  0.1563
 1500SOL    HW115962   0.487   2.472   7.760  0.0434 -0.1516 -2.6728
 1500SOL    HW215963   0.398   2.533   7.663  1.3775 -0.9851 -0.0737
 1501SOL     OW15964   4.463   0.562   5.326  0.0771  0.2193  0.1480
 1501SOL    HW115965   4.527   0.506   5.371 -1.2271  0.2043  1.9909
 1501SOL    HW215966   4.515   0.642   5.327 -0.1465  0.3823 -1.1043
 1502SOL     OW15967   3.513   0.797   7.528 -0.1394 -0.2483  0.3593
 1502SOL    HW115968   3.481   0.877   7.570  0.2252  0.0708  0.0325
 1502SOL    HW215969   3.513   0.735   7.601 -1.5863 -0.8879 -0.1776
 1503SOL     OW15970   3.606   0.144  11.495 -0.1287 -0.3729 -0.3154
 1503SOL    HW115971   3.613   0.209  11.425  2.7821 -0.9136 -0.5267
 1503SOL    HW215972   3.671   0.078  11.472  1.4117  1.3922 -0.9589
 1504SOL     OW15973   2.365   4.398   2.852  0.2121  0.5205 -0.1918
 1504SOL    HW115974   2.372   4.493   2.864 -0.8697  0.5693  0.0601
 1504SOL    HW215975   2.335   4.374   2.940  0.0364  1.7908  0.0992
 1505SOL     OW15976   4.661   0.331  12.180  0.7124  0.0174 -0.2431
 1505SOL    HW115977   4.592   0.346  12.245  2.3272  0.1394  1.4331
 1505SOL    HW215978   4.694   0.420  12.187  1.0020 -0.0260 -0.9814
 1506SOL     OW15979   0.789   2.284   8.435  0.2706 -0.1737  0.9837
 1506SOL    HW115980   0.749   2.206   8.396  1.8515 -0.8872  0.8058
 1506SOL    HW215981   0.727   2.309   8.504  0.4206 -3.7139  2.4373
 1507SOL     OW15982   3.629   1.085   7.795  0.2931  0.0549  0.5833
 1507SOL    HW115983   3.702   1.110   7.852  0.5984 -1.0031  0.6459
 1507SOL    HW215984   3.614   0.996   7.825 -1.2922  0.8381  2.0398
 1508SOL     OW15985   3.710   1.585   1.542 -0.0282  0.1571  0.5594
 1508SOL    HW115986   3.787   1.588   1.599 -0.3406 -0.2287  1.0133
 1508SOL    HW215987   3.654   1.644   1.592  1.2266  1.0256  0.9211
 1509SOL     OW15988   1.296   3.969   3.475  0.0804 -0.1310  0.3924
 1509SOL    HW115989   1.215   3.959   3.524  0.1489  0.7411  0.6884
 1509SOL    HW215990   1.318   3.889   3.427 -1.3569  1.8376 -3.5674
 1510SOL     OW15991   1.628   1.295   4.305  0.4020  0.1458  0.3966
 1510SOL    HW115992   1.615   1.306   4.399  0.5404  0.1336  0.4175
 1510SOL    HW215993   1.707   1.345   4.286  0.9026  0.3189  2.8573
 1511SOL     OW15994   1.240   0.470  12.909 -0.1395  0.5462 -0.0625
 1511SOL    HW115995   1.218   0.514  12.826  0.6630  0.8870 -0.0975
 1511SOL    HW215996   1.283   0.390  12.877  0.2365  0.3629  0.9252
 1512SOL     OW15997   1.602   3.558   2.237  0.4372 -0.6461 -0.2888
 1512SOL    HW115998   1.513   3.534   2.264  0.4496  0.1915  0.5222
 1512SOL    HW215999   1.591   3.554   2.142 -0.4481 -2.1357 -0.1156
 1513SOL     OW16000   4.695   3.277   8.389  0.5880 -0.6624 -0.3136
 1513SOL    HW116001   0.025   3.267   8.308  0.9909  1.8674 -0.3798
 1513SOL    HW216002   0.022   3.215   8.445  0.6413 -0.6935 -0.3918
 1514SOL     OW16003   0.891   1.739   7.519 -0.0226  0.1785 -0.1020
 1514SOL    HW116004   0.805   1.767   7.552  0.6170 -2.6719  3.8819
 1514SOL    HW216005   0.871   1.775   7.432 -1.3247  2.0252  0.9614
 1515SOL     OW16006   1.977   0.541  11.662 -0.5227  0.1001 -0.7149
 1515SOL    HW116007   2.033   0.534  11.739  0.5919 -0.8649 -1.6194
 1515SOL    HW216008   2.020   0.482  11.600 -0.3306 -0.5679  0.0493
 1516SOL     OW16009   2.162   2.487   7.146  0.0838  0.3458 -0.8383
 1516SOL    HW116010   2.217   2.471   7.070 -3.2068 -1.6553 -2.8250
 1516SOL    HW216011   2.122   2.572   7.130 -1.1009  0.3475  2.0624
 1517SOL     OW16012   4.411   0.449   1.781  0.1482  0.1716  0.3918
 1517SOL    HW116013   4.331   0.469   1.830 -0.8162 -1.6226 -0.4571
 1517SOL    HW216014   4.367   0.397   1.714 -1.0515  1.1580  0.4143
 1518SOL     OW16015   0.913   3.255   4.054  0.3365  0.0453  0.3209
 1518SOL    HW116016   0.996   3.220   4.020 -0.6883 -1.1204 -1.0044
 1518SOL    HW216017   0.856   3.209   3.992  0.6774 -1.6099  1.2310
 1519SOL     OW16018   2.176   1.142   3.926 -0.6215 -0.2160 -0.0265
 1519SOL    HW116019   2.142   1.073   3.870 -0.6837 -1.2459  1.2837
 1519SOL    HW216020   2.167   1.111   4.016 -1.8409 -1.0751 -0.4487
 1520SOL     OW16021   3.527   1.475   7.809  0.6045  0.2151 -0.0935
 1520SOL    HW116022   3.484   1.454   7.892 -1.0412 -1.7873 -1.4405
 1520SOL    HW216023   3.485   1.560   7.798  0.5070  0.3176  1.0316
 1521SOL     OW16024   4.299   4.331  16.578  0.2199 -0.4806  0.0287
 1521SOL    HW116025   4.353   4.332  16.499  0.5308  1.0877  0.2614
 1521SOL    HW216026   4.221   4.374  16.545  1.2531  0.2426 -1.4715
 1522SOL     OW16027   4.200   1.985   8.461 -0.2100  0.1072 -0.0100
 1522SOL    HW116028   4.245   2.003   8.544 -0.3265  1.9203 -0.3442
 1522SOL    HW216029   4.116   1.952   8.493  0.7236 -1.6178  0.6936
 1523SOL     OW16030   4.670   3.045   8.156  0.0279  0.1471 -0.0108
 1523SOL    HW116031   0.023   3.107   8.143 -1.0397  1.1937 -1.0196
 1523SOL    HW216032   4.710   2.972   8.203  3.7553  0.8789 -2.0177
 1524SOL     OW16033   1.494   2.236   6.790  0.0452 -0.6000  0.2948
 1524SOL    HW116034   1.501   2.142   6.771  3.1683 -0.7987  2.4912
 1524SOL    HW216035   1.585   2.264   6.796 -0.3678  0.8043 -0.0687
 1525SOL     OW16036   1.153   1.106   9.057  0.6337  0.2425 -0.1480
 1525SOL    HW116037   1.100   1.026   9.060 -0.1053  0.7008 -1.1539
 1525SOL    HW216038   1.181   1.123   9.147  0.0257 -1.6858  0.4144
 1526SOL     OW16039   0.373   0.702  13.191 -0.0349  0.3439  0.2967
 1526SOL    HW116040   0.382   0.648  13.270  1.2192  0.0792 -0.0262
 1526SOL    HW216041   0.296   0.755  13.211 -0.5298  0.1071 -0.9641
 1527SOL     OW16042   3.722   3.271  16.528 -0.5949 -0.0073 -0.1014
 1527SOL    HW116043   3.667   3.210  16.578  3.3445 -3.1850  0.4256
 1527SOL    HW216044   3.705   3.350  16.578  1.1026 -0.9796  2.0531
 1528SOL     OW16045   2.485   4.360  16.413 -0.1120 -0.5238 -0.4916
 1528SOL    HW116046   2.555   4.304  16.378  1.5707  0.6372  1.0114
 1528SOL    HW216047   2.466   4.422  16.344 -0.4538 -0.1305 -0.0388
 1529SOL     OW16048   4.604   4.176  13.172 -0.6566 -0.0890  0.2475
 1529SOL    HW116049   4.680   4.231  13.191 -0.1252 -1.2505  1.4960
 1529SOL    HW216050   4.582   4.144  13.260  0.2639  2.4637  1.4059
 1530SOL     OW16051   0.034   2.438   2.035 -0.3600 -0.0771  0.2348
 1530SOL    HW116052   0.025   2.416   2.128 -4.2525  1.6643  0.2946
 1530SOL    HW216053   4.706   2.367   1.992 -1.2890 -0.7134  2.3086
 1531SOL     OW16054   1.712   0.778   2.633  0.3494  0.2412  0.3383
 1531SOL    HW116055   1.623   0.755   2.661  1.1173 -2.0869  0.9568
 1531SOL    HW216056   1.732   0.696   2.587 -0.1807  0.5367 -0.3978
 1532SOL     OW16057   0.929   1.074  13.138 -0.1885  0.2660 -0.0445
 1532SOL    HW116058   0.970   1.123  13.210  0.8306 -0.6207 -0.0189
 1532SOL    HW216059   0.872   1.144  13.105  0.6672 -0.0963 -2.2937
 1533SOL     OW16060   0.235   0.616   0.897 -0.1485  0.1996 -0.0967
 1533SOL    HW116061   0.226   0.523   0.919 -1.9435 -0.0447 -1.7903
 1533SOL    HW216062   0.281   0.659   0.969 -0.2184  0.0426  0.0424
 1534SOL     OW16063   2.685   1.959   5.997 -0.0010  0.3263  0.5532
 1534SOL    HW116064   2.704   2.028   6.061  0.2136  2.0584 -1.3942
 1534SOL    HW216065   2.655   2.000   5.916 -2.1560 -0.8254  0.7615
 1535SOL     OW16066   4.014   1.934   5.538  0.3968  0.5193 -0.2853
 1535SOL    HW116067   3.993   1.926   5.445  0.6572 -3.1453 -0.0372
 1535SOL    HW216068   3.959   1.868   5.580 -0.7166  0.5330 -1.7034
 1536SOL     OW16069   1.065   1.085   7.491 -0.5220  0.2564 -0.1711
 1536SOL    HW116070   1.061   1.144   7.566  1.2268  0.0596  0.0686
 1536SOL    HW216071   1.135   1.028   7.521 -2.2503 -0.9059  1.7013
 1537SOL     OW16072   0.339   3.230  13.528  0.2112  0.0413 -0.1358
 1537SOL    HW116073   0.286   3.151  13.541 -2.2801  1.4750 -1.5425
 1537SOL    HW216074   0.414   3.192  13.574 -0.7611 -1.9402 -0.1737
 1538SOL     OW16075   2.783   0.910  14.551  0.1380 -0.1252  0.0774
 1538SOL    HW116076   2.837   0.896  14.629  0.8849 -0.0528 -0.4224
 1538SOL    HW216077   2.707   0.956  14.586  0.8396  0.8717  0.2913
 1539SOL     OW16078   4.450   0.648   3.976  0.2047  0.3328  0.0694
 1539SOL    HW116079   4.539   0.613   3.980 -1.4046 -3.7690  0.4248
 1539SOL    HW216080   4.401   0.570   4.004  0.5519 -0.5722 -1.8681
 1540SOL     OW16081   0.468   2.323  13.239 -0.0256  0.1847  0.0662
 1540SOL    HW116082   0.397   2.373  13.199 -0.5211  0.0949  0.8306
 1540SOL    HW216083   0.544   2.353  13.189  0.3600  3.1078  2.3865
 1541SOL     OW16084   0.786   3.188   7.290  0.0606  0.1613  0.6990
 1541SOL    HW116085   0.799   3.281   7.272  0.3927 -0.0375 -0.0869
 1541SOL    HW216086   0.732   3.154   7.218  0.6377 -0.6936  0.6679
 1542SOL     OW16087   3.992   0.068  14.078  0.3375 -0.6726  0.4451
 1542SOL    HW116088   3.982   0.072  13.983  0.1325 -0.3850  0.4787
 1542SOL    HW216089   3.959   4.700  14.098  0.3696 -0.9921 -0.8966
 1543SOL     OW16090   0.848   1.302   7.396 -0.8907 -0.2632 -0.3578
 1543SOL    HW116091   0.875   1.338   7.480 -1.2572  1.1927 -0.8625
 1543SOL    HW216092   0.931   1.282   7.351 -0.5124 -1.9142  1.1156
 1544SOL     OW16093   1.148   3.540  15.056  0.2290  0.2353  0.3110
 1544SOL    HW116094   1.125   3.451  15.029  1.4209  0.1493 -0.4363
 1544SOL    HW216095   1.239   3.542  15.025 -0.0568 -1.4210 -0.6590
 1545SOL     OW16096   3.089   2.188  10.093  0.5406 -0.4021 -0.6016
 1545SOL    HW116097   3.097   2.130  10.017  1.8522 -3.2707  1.7732
 1545SOL    HW216098   3.129   2.142  10.166  0.2405  0.4742  0.1158
 1546SOL     OW16099   3.861   2.751  13.792 -0.3877  0.3576 -0.2283
 1546SOL    HW116100   3.928   2.687  13.817  0.2879  1.4815  0.7984
 1546SOL    HW216101   3.877   2.814  13.861 -1.2550  0.2373  0.0776
 1547SOL     OW16102   2.246   3.414   5.579  0.5117  0.2746 -0.3234
 1547SOL    HW116103   2.308   3.369   5.636 -0.9995 -1.6960 -0.2514
 1547SOL    HW216104   2.210   3.483   5.635  1.3627  0.3236  0.1594
 1548SOL     OW16105   1.840   3.632   7.333 -0.0739  0.1372 -0.2453
 1548SOL    HW116106   1.796   3.597   7.410 -2.7341  2.4387 -0.6970
 1548SOL    HW216107   1.827   3.565   7.265  1.8754 -1.2508  0.7344
 1549SOL     OW16108   2.570   0.674   7.668  0.3672  0.1846  0.1149
 1549SOL    HW116109   2.558   0.651   7.576 -0.1435  0.1316  0.1982
 1549SOL    HW216110   2.506   0.742   7.688  0.7441  0.4396  0.4758
 1550SOL     OW16111   3.789   0.960   7.324  0.5437 -0.5042  0.1489
 1550SOL    HW116112   3.718   0.997   7.377 -0.2701 -0.7904 -0.7507
 1550SOL    HW216113   3.746   0.942   7.241  0.8729 -1.1867  0.1285
 1551SOL     OW16114   2.762   3.931   2.153  0.2118  0.1228  0.7061
 1551SOL    HW116115   2.841   3.899   2.197 -0.7118 -2.2000  0.6482
 1551SOL    HW216116   2.711   3.852   2.142 -0.3802  0.2304  2.6727
 1552SOL     OW16117   0.407   0.756   4.575  0.0065  0.2476 -0.2514
 1552SOL    HW116118   0.467   0.734   4.647 -0.7692  2.9049  1.1937
 1552SOL    HW216119   0.412   0.851   4.578 -1.4072  0.3096  0.0213
 1553SOL     OW16120   3.888   2.136   6.905 -0.1629  0.2135 -0.0732
 1553SOL    HW116121   3.854   2.050   6.929  0.6225 -0.8742 -2.8482
 1553SOL    HW216122   3.874   2.140   6.810  0.3166  0.0807 -0.1548
 1554SOL     OW16123   0.172   3.312   0.980  0.4469  0.4028 -0.1553
 1554SOL    HW116124   0.199   3.231   1.023 -0.5819  0.4593  0.5916
 1554SOL    HW216125   0.225   3.377   1.027 -0.7679  0.1730  1.5096
 1555SOL     OW16126   1.583   4.599   5.661  0.0223 -0.1300  0.2180
 1555SOL    HW116127   1.520   4.670   5.671  0.7515  1.0133 -3.1916
 1555SOL    HW216128   1.580   4.581   5.567 -2.3030  0.1547  0.2354
 1556SOL     OW16129   4.424   4.214  10.820 -0.3490  0.1835  0.3378
 1556SOL    HW116130   4.361   4.142  10.828 -0.9179  0.6352 -0.1670
 1556SOL    HW216131   4.458   4.217  10.909 -0.1044 -0.6163  0.2749
 1557SOL     OW16132   1.112   2.505   8.871  0.0087 -0.0603  0.8817
 1557SOL    HW116133   1.163   2.583   8.854 -1.8248  0.7591 -0.8150
 1557SOL    HW216134   1.075   2.478   8.787  1.2134  1.0207  0.0212
 1558SOL     OW16135   0.932   3.933   0.456  0.1108 -0.3414  0.2137
 1558SOL    HW116136   0.910   3.894   0.371  1.2470 -2.7770  1.0294
 1558SOL    HW216137   0.944   3.854   0.509 -2.1476 -1.0183 -0.3123
 1559SOL     OW16138   2.472   0.072   2.814  0.4018  0.0959  0.5264
 1559SOL    HW116139   2.550   0.037   2.771  0.6099 -1.2842  2.0105
 1559SOL    HW216140   2.474   0.168   2.810 -1.6584  0.1147 -0.0557
 1560SOL     OW16141   4.110   3.462  16.516  0.1034 -0.0768  0.0845
 1560SOL    HW116142   4.110   3.367  16.507 -1.4798  0.0797 -1.3584
 1560SOL    HW216143   4.195   3.480  16.475  1.0354  1.4782  2.6577
 1561SOL     OW16144   4.550   2.072   7.725  0.2265  0.2080  0.0170
 1561SOL    HW116145   4.610   2.143   7.751  1.3329 -0.4543 -0.7180
 1561SOL    HW216146   4.482   2.070   7.792  0.7463  2.3608  0.6109
 1562SOL     OW16147   3.048   2.481   5.957  0.6945 -0.6354 -0.3974
 1562SOL    HW116148   3.000   2.534   6.021  0.9019 -0.4936 -0.3584
 1562SOL    HW216149   3.123   2.533   5.928  0.2621 -0.7588 -1.7330
 1563SOL     OW16150   3.161   3.009  15.817  0.2554 -0.3146  0.0303
 1563SOL    HW116151   3.088   2.947  15.822 -0.2146 -0.0947 -3.9501
 1563SOL    HW216152   3.192   3.011  15.727 -0.2308 -0.2466 -0.1369
 1564SOL     OW16153   0.635   2.334   9.900  0.0269  0.2562  0.6196
 1564SOL    HW116154   0.662   2.270   9.966  2.2802  0.3440 -0.2315
 1564SOL    HW216155   0.683   2.407   9.939  2.4501 -1.5415  0.9524
 1565SOL     OW16156   0.814   1.894  13.516 -0.0288 -0.0537 -0.9069
 1565SOL    HW116157   0.769   1.933  13.441 -0.2665  1.4326  0.0115
 1565SOL    HW216158   0.891   1.864  13.468 -1.1336 -1.3571 -1.9078
 1566SOL     OW16159   3.553   3.641  12.638  0.0768 -0.0327 -0.2252
 1566SOL    HW116160   3.591   3.725  12.612  1.9098 -0.3946  1.2294
 1566SOL    HW216161   3.468   3.676  12.662  1.3030  1.2378  2.2374
 1567SOL     OW16162   4.522   0.999   2.841  0.2740 -0.0205 -0.4727
 1567SOL    HW116163   4.576   0.973   2.915 -1.0779  1.5982  1.0981
 1567SOL    HW216164   4.446   1.035   2.887  0.5775  0.8991 -0.6888
 1568SOL     OW16165   4.042   3.001   0.775  0.3753 -0.0993  0.3688
 1568SOL    HW116166   4.043   2.909   0.749 -0.1728 -0.2928  1.0047
 1568SOL    HW216167   4.106   3.001   0.847 -0.2968 -1.9075  0.9698
 1569SOL     OW16168   3.412   0.593   3.470  0.2272 -0.2651 -0.2544
 1569SOL    HW116169   3.488   0.574   3.415 -0.1314 -1.7609 -0.2188
 1569SOL    HW216170   3.344   0.597   3.404 -1.1227  2.4304  1.2629
 1570SOL     OW16171   2.492   4.115   0.868 -0.7166  0.2650 -0.3683
 1570SOL    HW116172   2.501   4.209   0.886 -0.1720 -0.0017  0.7384
 1570SOL    HW216173   2.521   4.071   0.948 -2.0755  0.0494  0.0174
 1571SOL     OW16174   0.006   2.562   7.221  0.3525  0.3924  0.3536
 1571SOL    HW116175   4.685   2.644   7.193 -1.5971 -0.4768  0.6106
 1571SOL    HW216176   4.652   2.503   7.239  0.8842 -0.6970 -0.9634
 1572SOL     OW16177   0.356   1.942  11.203 -0.1311 -0.1429 -0.7412
 1572SOL    HW116178   0.445   1.915  11.224 -0.8503 -0.9438  1.1918
 1572SOL    HW216179   0.365   2.037  11.196 -1.0646  0.3257  4.3464
 1573SOL     OW16180   2.770   3.610  16.750  0.6404 -0.4662  0.4218
 1573SOL    HW116181   2.682   3.573  16.740 -0.0623  1.7252 -1.7097
 1573SOL    HW216182   2.809   3.527  16.778  1.1570 -0.4331 -0.2026
 1574SOL     OW16183   3.176   3.175   1.847  0.1141 -0.3467  0.3464
 1574SOL    HW116184   3.220   3.124   1.915  1.3573  0.0847 -0.1340
 1574SOL    HW216185   3.091   3.131   1.843  0.0293  0.0183 -1.8349
 1575SOL     OW16186   0.122   0.466  16.393  0.2866  0.1076  0.2395
 1575SOL    HW116187   0.077   0.525  16.454  1.3161  0.3154  0.7901
 1575SOL    HW216188   0.055   0.446  16.328 -0.4261 -0.4298  1.1319
 1576SOL     OW16189   2.302   4.286   5.969 -0.2089 -0.3018 -0.2130
 1576SOL    HW116190   2.347   4.333   5.899  2.1429 -1.0511  0.7939
 1576SOL    HW216191   2.348   4.202   5.968 -2.0590 -1.3171 -0.1006
 1577SOL     OW16192   1.510   0.061   3.532 -0.3319  0.3960 -0.2035
 1577SOL    HW116193   1.424   0.026   3.505 -0.2680 -0.9170  1.2732
 1577SOL    HW216194   1.543   0.092   3.448 -1.7067 -2.1417 -1.7111
 1578SOL     OW16195   3.826   3.033  16.416  0.5475 -0.1933 -0.3574
 1578SOL    HW116196   3.793   3.121  16.433  0.3815 -0.2084 -0.6028
 1578SOL    HW216197   3.845   3.001  16.505 -0.5736 -1.1650 -0.4684
 1579SOL     OW16198   2.218   0.648  12.644  0.6826 -0.4734  0.1381
 1579SOL    HW116199   2.216   0.741  12.624  1.4323 -0.1898  1.3703
 1579SOL    HW216200   2.285   0.644  12.712 -1.0533 -0.0931  1.8681
 1580SOL     OW16201   0.080   3.849  17.043  0.0070  0.0931 -0.4505
 1580SOL    HW116202   0.035   3.850  16.959 -1.9912 -1.1944  0.6076
 1580SOL    HW216203   0.013   3.887  17.100  0.8875  0.7621  0.1414
 1581SOL     OW16204   3.927   0.289   2.641  0.4241 -0.3689 -0.3723
 1581SOL    HW116205   4.017   0.287   2.674  0.2354 -1.1460  0.0958
 1581SOL    HW216206   3.948   0.298   2.548  2.8147 -0.1508  0.1831
 1582SOL     OW16207   0.484   0.340  17.566  1.0442  0.0269 -0.0948
 1582SOL    HW116208   0.455   0.345  17.475 -1.5098 -0.4663  0.7142
 1582SOL    HW216209   0.537   0.420  17.569  0.6701  0.2911 -0.4908
 1583SOL     OW16210   1.150   0.431  14.176 -0.1390 -0.1492  0.2651
 1583SOL    HW116211   1.239   0.468  14.180 -0.0382 -0.2330 -1.0009
 1583SOL    HW216212   1.156   0.382  14.257  1.5692  2.1379  1.5261
 1584SOL     OW16213   0.468   0.870   4.144  0.2664 -0.0331  0.3281
 1584SOL    HW116214   0.478   0.803   4.077  1.9728  0.6154 -0.0648
 1584SOL    HW216215   0.520   0.844   4.220 -0.7244  0.8913  1.3210
 1585SOL     OW16216   3.202   0.391   3.109  0.4694 -0.3846  0.0425
 1585SOL    HW116217   3.194   0.359   3.199 -1.4785  0.9765  0.3534
 1585SOL    HW216218   3.193   0.306   3.065  0.9994 -0.3364 -0.1487
 1586SOL     OW16219   1.779   4.247   6.301 -0.0788 -0.4918 -0.0666
 1586SOL    HW116220   1.727   4.302   6.243 -0.9011  0.1710  1.2987
 1586SOL    HW216221   1.733   4.247   6.385  0.9706 -1.0681  0.5226
 1587SOL     OW16222   3.042   3.077   2.731  0.0283 -0.4834  0.0008
 1587SOL    HW116223   2.953   3.061   2.698  0.0430  0.0342 -0.2907
 1587SOL    HW216224   3.070   3.133   2.659  1.2122  0.6316  1.3517
 1588SOL     OW16225   2.066   0.120  10.133  0.0324 -0.0974 -0.0269
 1588SOL    HW116226   2.075   0.025  10.142  1.2190 -0.0909 -1.0814
 1588SOL    HW216227   2.130   0.139  10.202  1.6738 -0.9445 -1.3146
 1589SOL     OW16228   2.709   1.091  12.107 -0.0506 -0.0873 -0.1959
 1589SOL    HW116229   2.671   1.095  12.195  1.2040 -0.9606  0.3981
 1589SOL    HW216230   2.641   1.135  12.055 -2.9763 -3.4047  0.8095
 1590SOL     OW16231   0.628   0.488  10.407 -0.2591  0.7526  0.4411
 1590SOL    HW116232   0.652   0.561  10.350  1.1064 -1.1757 -1.4297
 1590SOL    HW216233   0.654   0.414  10.352 -0.9974  1.4322 -0.8210
 1591SOL     OW16234   2.961   2.856  12.734  0.2982 -0.0230  0.0905
 1591SOL    HW116235   2.876   2.869  12.776  0.2883  1.0797 -0.2641
 1591SOL    HW216236   3.014   2.825  12.808  1.6403  1.9544 -0.0287
 1592SOL     OW16237   4.429   0.609   6.315  0.4523  0.5674 -0.4990
 1592SOL    HW116238   4.482   0.646   6.386  0.7777 -0.1110 -0.3888
 1592SOL    HW216239   4.442   0.669   6.242  1.0717  0.6099 -0.3494
 1593SOL     OW16240   4.412   2.119  16.573 -0.4538  0.1718  0.5661
 1593SOL    HW116241   4.353   2.049  16.546  1.3547 -0.7542 -1.0249
 1593SOL    HW216242   4.362   2.193  16.537  2.0658  1.4668 -0.3732
 1594SOL     OW16243   0.488   0.886  14.731 -0.2390  0.3399 -0.3229
 1594SOL    HW116244   0.439   0.959  14.767  1.7942  1.0685  0.9293
 1594SOL    HW216245   0.541   0.850  14.802 -0.9045 -0.6103 -0.3060
 1595SOL     OW16246   3.400   2.209  14.832  0.3801 -0.1810  0.2529
 1595SOL    HW116247   3.444   2.198  14.916  3.0189  1.3156 -0.9191
 1595SOL    HW216248   3.464   2.268  14.791 -1.5654  0.7152 -1.4671
 1596SOL     OW16249   0.417   0.001   5.510  0.2372  0.5076  0.3440
 1596SOL    HW116250   0.414   0.029   5.602 -0.4881  0.7133  0.2614
 1596SOL    HW216251   0.366   4.640   5.512  1.3256 -0.2321 -2.6073
 1597SOL     OW16252   0.000   1.334   4.169 -0.0001 -0.3696  0.5190
 1597SOL    HW116253   0.016   1.261   4.109  0.6617  0.2958 -0.1207
 1597SOL    HW216254   4.643   1.379   4.134  1.6657  0.0113 -2.6824
 1598SOL     OW16255   3.468   0.053  13.836  0.2738  0.1985  0.3517
 1598SOL    HW116256   3.540   0.028  13.895  2.2807 -1.9409 -3.0081
 1598SOL    HW216257   3.453   0.139  13.875 -0.6780  0.7341 -1.2490
 1599SOL     OW16258   3.406   4.059   2.456 -0.4966  0.3511  0.0149
 1599SOL    HW116259   3.363   3.982   2.419 -0.5987  0.8101 -0.8240
 1599SOL    HW216260   3.492   4.057   2.413 -2.1891 -1.0482 -3.2791
 1600SOL     OW16261   2.360   0.339  11.799 -0.0904 -0.8549  0.2554
 1600SOL    HW116262   2.437   0.359  11.746 -0.6192  1.6900  0.4212
 1600SOL    HW216263   2.386   0.376  11.883  1.0003 -0.5117 -0.2381
 1601SOL     OW16264   4.645   1.111   4.786  0.2453 -0.1667  0.2955
 1601SOL    HW116265   4.623   1.041   4.723 -2.1225 -0.2521  1.2493
 1601SOL    HW216266   4.716   1.062   4.829  0.3535  0.5460  0.9125
 1602SOL     OW16267   0.985   2.517  17.362  0.3300  0.5590  0.1627
 1602SOL    HW116268   0.946   2.457  17.426  3.2130 -1.2325  0.1959
 1602SOL    HW216269   1.026   2.589  17.411 -1.6633 -0.5529  3.4925
 1603SOL     OW16270   3.728   1.870   7.656 -0.6381 -0.3865  0.1054
 1603SOL    HW116271   3.720   1.870   7.751  0.5151 -0.3617  0.1935
 1603SOL    HW216272   3.821   1.851   7.643 -0.3917  0.9206 -0.0099
 1604SOL     OW16273   3.939   1.513   4.180  0.4645  0.0057  0.5843
 1604SOL    HW116274   3.983   1.495   4.097  0.9296 -0.4407  0.9266
 1604SOL    HW216275   3.933   1.608   4.174 -0.6093 -0.0378  0.8813
 1605SOL     OW16276   4.358   3.502  12.417  0.1793 -0.4907 -0.8125
 1605SOL    HW116277   4.404   3.438  12.472 -0.0258 -0.1214 -0.2109
 1605SOL    HW216278   4.432   3.530  12.364 -0.4071  0.9470 -0.8565
 1606SOL     OW16279   0.517   0.539   6.400  0.0472  0.2135 -0.0495
 1606SOL    HW116280   0.473   0.614   6.360 -0.8913 -1.1013 -1.4854
 1606SOL    HW216281   0.474   0.462   6.362 -1.0926  0.8119  0.0240
 1607SOL     OW16282   1.228   1.760  10.521 -0.2031  0.1378  0.4320
 1607SOL    HW116283   1.158   1.716  10.569  0.5297 -0.3178  1.0801
 1607SOL    HW216284   1.304   1.703  10.531  0.0479  0.3554 -0.1919
 1608SOL     OW16285   4.202   4.328   7.043  0.2832  0.1909 -0.8708
 1608SOL    HW116286   4.278   4.304   6.990 -2.1966 -0.2908 -4.2463
 1608SOL    HW216287   4.140   4.255   7.033  0.5784 -0.2060  0.1859
 1609SOL     OW16288   4.532   3.679   5.352 -0.0209 -0.1393  0.4057
 1609SOL    HW116289   4.610   3.674   5.406  1.6565  0.0892 -2.0079
 1609SOL    HW216290   4.534   3.599   5.299  0.6543  1.7308 -2.3810
 1610SOL     OW16291   4.115   0.704   7.034 -0.0802  0.2207  1.3367
 1610SOL    HW116292   4.166   0.632   7.071  0.8995  1.4241  2.3187
 1610SOL    HW216293   4.103   0.763   7.109  0.5303  1.0583  0.7732
 1611SOL     OW16294   1.687   0.212  16.328 -0.2422 -0.4017  0.2529
 1611SOL    HW116295   1.755   0.242  16.389  0.7712  1.1417 -1.6524
 1611SOL    HW216296   1.615   0.176  16.380  0.4234 -0.3541  1.2104
 1612SOL     OW16297   1.397   0.482  12.081 -0.3738 -0.7168  0.0567
 1612SOL    HW116298   1.411   0.392  12.110  1.6304  0.0840  1.5711
 1612SOL    HW216299   1.477   0.521  12.116  0.8794 -0.7314 -2.8293
 1613SOL     OW16300   4.373   2.448  11.233 -0.3725  0.3136  0.7167
 1613SOL    HW116301   4.461   2.465  11.199  0.3813 -0.8110  2.1129
 1613SOL    HW216302   4.319   2.503  11.177 -0.5765 -0.5959  0.0131
 1614SOL     OW16303   2.076   1.252   7.175 -0.3789 -0.3977  0.1541
 1614SOL    HW116304   2.016   1.256   7.250  0.0780  0.4117  0.4749
 1614SOL    HW216305   2.013   1.286   7.111 -1.4418 -0.0835  1.3594
 1615SOL     OW16306   0.248   3.187   4.017  0.2466 -0.1108 -0.2210
 1615SOL    HW116307   0.186   3.230   3.957 -0.9541  1.0978  1.8821
 1615SOL    HW216308   0.308   3.254   4.049  1.3473  0.3951 -3.3356
 1616SOL     OW16309   0.015   0.197   2.950 -0.9065  0.6182 -0.6104
 1616SOL    HW116310   0.008   0.135   3.022 -0.4538  0.7685 -0.4339
 1616SOL    HW216311   0.098   0.242   2.971 -1.1059  1.0742 -0.7943
 1617SOL     OW16312   2.237   0.220   2.604 -0.0545 -0.3547 -0.3785
 1617SOL    HW116313   2.276   0.289   2.659 -0.6935  0.6097 -1.1423
 1617SOL    HW216314   2.317   0.183   2.567  0.7062 -0.3628  1.2520
 1618SOL     OW16315   1.902   0.571   1.705 -0.0582 -0.1264 -0.1066
 1618SOL    HW116316   1.926   0.598   1.793  2.7757  1.1567 -1.2650
 1618SOL    HW216317   1.923   0.478   1.698  1.3718  0.2518 -0.8844
 1619SOL     OW16318   4.326   2.604   7.177  0.3356 -0.1566  0.6433
 1619SOL    HW116319   4.411   2.641   7.153  0.4357 -0.7656  0.0706
 1619SOL    HW216320   4.273   2.642   7.107  0.2775  1.5786  1.6185
 1620SOL     OW16321   1.371   1.817   1.670 -0.0988  0.0119  0.1426
 1620SOL    HW116322   1.281   1.848   1.658  0.8637  2.1579 -1.5128
 1620SOL    HW216323   1.400   1.895   1.717  1.5067 -0.0223 -0.7827
 1621SOL     OW16324   4.417   1.585   7.993 -0.5844  0.5502  0.0267
 1621SOL    HW116325   4.379   1.658   8.042  2.3218  1.6355  0.6179
 1621SOL    HW216326   4.425   1.625   7.906 -0.3651  0.4093 -0.0164
 1622SOL     OW16327   2.722   0.917   4.200 -0.1795 -0.3133 -0.1648
 1622SOL    HW116328   2.636   0.959   4.203  0.5274  0.9889  1.5845
 1622SOL    HW216329   2.701   0.825   4.215  0.1757 -0.3862 -0.1249
 1623SOL     OW16330   1.094   1.628   6.900 -0.1323 -0.2290 -0.2315
 1623SOL    HW116331   1.187   1.647   6.915 -0.1289 -1.2673  1.1012
 1623SOL    HW216332   1.097   1.543   6.856  0.0382  0.9012 -2.3959
 1624SOL     OW16333   2.321   3.427   7.713 -0.4899 -0.5303 -0.1993
 1624SOL    HW116334   2.239   3.463   7.748  0.0369 -0.7184  1.2447
 1624SOL    HW216335   2.330   3.482   7.635  1.1592 -1.3384 -0.5554
 1625SOL     OW16336   1.099   0.181   3.692 -0.1582  0.4703 -0.2394
 1625SOL    HW116337   1.006   0.162   3.679 -0.3613  0.1320  1.7314
 1625SOL    HW216338   1.128   0.112   3.752 -0.8222  0.4257  0.0277
 1626SOL     OW16339   1.986   4.377   8.759  0.1607 -0.3478  0.3467
 1626SOL    HW116340   1.958   4.290   8.732  0.3925  0.4714 -2.5409
 1626SOL    HW216341   2.015   4.367   8.850 -1.6604 -2.0219  0.7534
 1627SOL     OW16342   1.730   4.499   6.902  0.1562 -0.0990  0.6131
 1627SOL    HW116343   1.777   4.579   6.880 -1.8756  0.3937 -1.9985
 1627SOL    HW216344   1.650   4.530   6.945  2.3956 -1.1085  5.4424
 1628SOL     OW16345   1.787   1.835   0.689 -0.1643 -0.4855 -0.4552
 1628SOL    HW116346   1.709   1.872   0.647 -0.4829  1.0593  1.5022
 1628SOL    HW216347   1.768   1.837   0.783  0.4011  0.2232 -0.3542
 1629SOL     OW16348   1.890   3.822   3.934  0.4097  0.4876  0.1187
 1629SOL    HW116349   1.803   3.849   3.905 -0.2528  0.4723  2.0657
 1629SOL    HW216350   1.922   3.782   3.853 -0.6269 -0.0127 -0.0450
 1630SOL     OW16351   1.320   2.403  14.318 -0.3700  0.2378 -0.6940
 1630SOL    HW116352   1.366   2.470  14.369 -1.0011  0.6893 -0.7130
 1630SOL    HW216353   1.334   2.331  14.379  0.2515 -1.1656 -2.4977
 1631SOL     OW16354   1.190   4.624   2.762 -0.2855 -0.4458 -0.1494
 1631SOL    HW116355   1.140   4.705   2.756  1.6187  0.7362 -0.1137
 1631SOL    HW216356   1.275   4.652   2.727 -0.1040 -0.0348  0.6114
 1632SOL     OW16357   1.372   0.954   7.102 -0.2182 -0.4244  0.2500
 1632SOL    HW116358   1.362   0.998   7.018 -1.9825  2.8082  2.1175
 1632SOL    HW216359   1.373   1.040   7.145  1.0536 -0.2112 -0.2057
 1633SOL     OW16360   4.369   0.717  16.289 -0.8262 -0.1903 -0.4628
 1633SOL    HW116361   4.353   0.811  16.297  1.4432  0.1291  0.1775
 1633SOL    HW216362   4.281   0.698  16.255 -0.8206  0.0968 -0.6465
 1634SOL     OW16363   4.166   1.494   3.401 -0.0534  0.5896  0.2795
 1634SOL    HW116364   4.244   1.485   3.455  0.6873  0.4314 -0.8190
 1634SOL    HW216365   4.197   1.531   3.318  2.0348 -0.7788  0.4511
 1635SOL     OW16366   1.387   3.350   3.744 -0.1996  0.1839 -0.1928
 1635SOL    HW116367   1.431   3.354   3.659  0.9649 -0.2038  0.3894
 1635SOL    HW216368   1.366   3.444   3.751 -1.1504  0.1423 -2.5811
 1636SOL     OW16369   0.239   2.792   7.063 -0.4521  0.7716  0.0773
 1636SOL    HW116370   0.227   2.821   7.153  1.9281  0.0653  0.6051
 1636SOL    HW216371   0.333   2.773   7.064 -0.5107  0.7060  2.9234
 1637SOL     OW16372   1.210   1.209   3.966 -0.0576 -0.3204 -0.3034
 1637SOL    HW116373   1.306   1.203   3.961 -0.0140  0.8325 -0.6416
 1637SOL    HW216374   1.205   1.299   3.999 -2.0155 -0.3599 -0.4943
 1638SOL     OW16375   3.263   2.827  13.795  0.2275  0.4411 -0.9214
 1638SOL    HW116376   3.344   2.813  13.746  0.7226  1.5998 -0.4362
 1638SOL    HW216377   3.305   2.845  13.879  1.0111 -1.8877 -0.8017
 1639SOL     OW16378   0.017   1.513   8.964  0.2148  0.2054 -0.2167
 1639SOL    HW116379   4.691   1.516   8.881  1.2908 -0.3538 -0.8262
 1639SOL    HW216380   0.018   1.600   9.004  0.1681  0.0983  0.0188
 1640SOL     OW16381   2.945   2.921   5.218  0.0794 -0.0807  0.3395
 1640SOL    HW116382   2.865   2.886   5.180 -0.7973  0.9710  1.1844
 1640SOL    HW216383   3.002   2.913   5.142  1.3894  2.0832  1.0861
 1641SOL     OW16384   1.825   4.637   5.058 -0.5805 -0.4197  0.5090
 1641SOL    HW116385   1.802   4.711   5.116 -0.7047  0.8832 -1.2169
 1641SOL    HW216386   1.872   4.688   4.992  1.6123  0.7732  2.9480
 1642SOL     OW16387   3.054   3.776   0.198  0.0429  0.0715  0.0765
 1642SOL    HW116388   2.971   3.761   0.242  0.0870  1.4538  0.6261
 1642SOL    HW216389   3.020   3.817   0.118 -2.0879 -2.9584 -0.5620
 1643SOL     OW16390   3.862   2.460   5.464 -0.7402 -0.0798 -0.3198
 1643SOL    HW116391   3.844   2.403   5.539 -0.1610 -0.1638 -0.2372
 1643SOL    HW216392   3.799   2.531   5.473 -1.8713 -1.2446  1.0219
 1644SOL     OW16393   0.338   2.281   1.933 -0.2684  0.1582  0.4169
 1644SOL    HW116394   0.257   2.234   1.948  0.0551 -0.6026 -0.2687
 1644SOL    HW216395   0.411   2.230   1.967  1.7602  2.1681 -0.8572
 1645SOL     OW16396   4.447   2.651  17.070 -0.0543 -0.5009 -0.3047
 1645SOL    HW116397   4.393   2.574  17.088 -2.4652  0.7199 -2.3284
 1645SOL    HW216398   4.478   2.626  16.983  0.0881 -2.4406  0.3140
 1646SOL     OW16399   0.929   3.855   0.869  0.4222 -0.1335 -0.2517
 1646SOL    HW116400   0.841   3.893   0.872 -0.2642 -1.8029  0.7667
 1646SOL    HW216401   0.908   3.777   0.819 -0.0354 -0.4187  0.3840
 1647SOL     OW16402   1.791   1.101   4.204 -0.5150 -0.0960  0.1164
 1647SOL    HW116403   1.724   1.151   4.251  1.9696  2.9454  0.3976
 1647SOL    HW216404   1.829   1.049   4.275  1.6698  2.1845  0.6146
 1648SOL     OW16405   3.105   2.044  10.978  0.1897 -0.3047  0.3867
 1648SOL    HW116406   3.184   2.029  11.030  1.3511  0.7287 -1.0913
 1648SOL    HW216407   3.039   2.007  11.038 -0.0927 -1.8391 -0.8584
 1649SOL     OW16408   0.399   3.692   1.645  0.4680 -0.0502 -0.0797
 1649SOL    HW116409   0.386   3.750   1.720 -0.7861 -1.3648  0.7091
 1649SOL    HW216410   0.310   3.683   1.611  0.9864 -3.7115 -0.5270
 1650SOL     OW16411   3.198   3.130   2.953  0.1138  1.1073  0.7494
 1650SOL    HW116412   3.142   3.100   2.882 -0.1945 -0.1053  1.4974
 1650SOL    HW216413   3.231   3.212   2.918  0.4184  0.9840  0.7470
 1651SOL     OW16414   2.221   0.639   2.072 -0.5193  0.4084  0.2440
 1651SOL    HW116415   2.275   0.621   1.995 -0.8465  0.9538 -0.1181
 1651SOL    HW216416   2.282   0.697   2.118  1.8661 -0.6609 -1.5930
 1652SOL     OW16417   4.044   4.225   4.268 -0.0386 -0.3578 -0.2857
 1652SOL    HW116418   4.122   4.251   4.316  0.3114 -0.9424 -0.5404
 1652SOL    HW216419   4.062   4.239   4.175  1.8962 -0.2940  0.0948
 1653SOL     OW16420   0.257   0.327   5.680 -0.1966 -0.0703  0.0373
 1653SOL    HW116421   0.280   0.320   5.587  3.8196  0.9454  0.9971
 1653SOL    HW216422   0.256   0.423   5.685  0.0059  0.1209 -3.3300
 1654SOL     OW16423   3.780   3.296   2.496 -0.1399  0.0178 -0.3045
 1654SOL    HW116424   3.769   3.240   2.419 -1.1478 -0.0725 -0.0952
 1654SOL    HW216425   3.861   3.338   2.467  0.5990 -1.4919 -0.4614
 1655SOL     OW16426   1.379   2.478   7.946 -0.2151 -0.7122 -0.1430
 1655SOL    HW116427   1.313   2.547   7.951  2.2931  1.5283  2.3667
 1655SOL    HW216428   1.356   2.427   8.024  2.1771  0.2041  1.1693
 1656SOL     OW16429   3.144   3.015   3.433  0.7706  0.1174  0.2059
 1656SOL    HW116430   3.098   3.094   3.461  0.6407 -0.0723  0.5288
 1656SOL    HW216431   3.207   3.061   3.378  1.4748  0.1817  1.0734
 1657SOL     OW16432   0.028   0.342   4.636 -0.2647  0.2546 -0.1246
 1657SOL    HW116433   0.108   0.347   4.583  0.2018 -0.4754  0.5112
 1657SOL    HW216434   0.064   0.317   4.721 -1.4132 -2.0648 -0.3334
 1658SOL     OW16435   3.310   2.521   4.726  0.2066 -0.5876  1.7294
 1658SOL    HW116436   3.388   2.522   4.781  0.0117  2.1589  1.9862
 1658SOL    HW216437   3.335   2.459   4.658  0.3700  0.9569  0.3798
 1659SOL     OW16438   0.169   4.191  14.960  0.6725  0.4230  0.1962
 1659SOL    HW116439   0.206   4.195  15.049  0.5185 -0.5512  0.3032
 1659SOL    HW216440   0.130   4.106  14.976  0.8003  0.2743 -0.3006
 1660SOL     OW16441   0.412   2.233   6.634  0.3227 -0.0193  0.1854
 1660SOL    HW116442   0.446   2.167   6.695  1.5496  0.0973 -0.3530
 1660SOL    HW216443   0.467   2.306   6.663 -0.1446 -0.4257  2.0777
 1661SOL     OW16444   4.410   1.334   6.202  0.0735  0.4521  0.5322
 1661SOL    HW116445   4.329   1.349   6.250  0.0112  0.2765  0.4854
 1661SOL    HW216446   4.469   1.403   6.233 -0.6054  2.0156 -1.6828
 1662SOL     OW16447   2.632   4.588   9.760 -0.3041  0.5833 -0.0433
 1662SOL    HW116448   2.582   4.623   9.686 -0.6725 -0.5655 -0.3260
 1662SOL    HW216449   2.714   4.569   9.715  0.8189  1.8654  1.4433
 1663SOL     OW16450   4.608   1.531   8.718  0.8231  0.1707 -0.1839
 1663SOL    HW116451   4.620   1.502   8.627  2.6495  0.9880 -0.1997
 1663SOL    HW216452   4.598   1.624   8.697  1.3384 -0.2918 -2.5379
 1664SOL     OW16453   1.190   0.646  12.041  0.2994  0.3526 -0.3187
 1664SOL    HW116454   1.257   0.582  12.063 -1.0032 -1.0246 -0.3710
 1664SOL    HW216455   1.245   0.724  12.045  2.1507 -0.9482 -0.9445
 1665SOL     OW16456   3.167   1.729   4.915  0.1031 -0.3307  0.0988
 1665SOL    HW116457   3.262   1.740   4.920  0.3663 -2.1639 -1.0121
 1665SOL    HW216458   3.141   1.778   4.994  0.4938 -1.8682  1.1771
 1666SOL     OW16459   1.010   0.762   5.774  0.0905 -0.4487 -0.0948
 1666SOL    HW116460   1.010   0.692   5.839 -1.9149 -0.1697  0.2152
 1666SOL    HW216461   0.919   0.792   5.777 -0.3766 -1.8482  0.2106
 1667SOL     OW16462   3.145   2.187  12.130  0.0100  1.0405 -0.4969
 1667SOL    HW116463   3.236   2.216  12.134  0.2680  0.0297  0.9504
 1667SOL    HW216464   3.113   2.257  12.074 -0.5833  0.9124 -0.3144
 1668SOL     OW16465   2.515   3.053   2.458  0.2707  0.1585  0.1909
 1668SOL    HW116466   2.438   3.087   2.504  0.6326  1.3317 -0.0693
 1668SOL    HW216467   2.491   3.088   2.372  1.3426 -2.6527 -1.2514
 1669SOL     OW16468   3.756   3.663  16.843  0.0175 -0.0990  0.1840
 1669SOL    HW116469   3.836   3.705  16.876  0.4472  1.5175 -2.9183
 1669SOL    HW216470   3.691   3.719  16.886 -0.2018 -0.2251  0.0105
 1670SOL     OW16471   0.263   0.911   2.097 -0.2181 -0.4306  0.1649
 1670SOL    HW116472   0.284   0.828   2.054  1.8291  0.9333 -1.4992
 1670SOL    HW216473   0.287   0.979   2.034 -0.6208 -1.2716 -0.9036
 1671SOL     OW16474   1.605   0.841   3.077 -0.0520 -0.2613 -0.1300
 1671SOL    HW116475   1.630   0.905   3.011 -0.3746 -0.1900 -0.1837
 1671SOL    HW216476   1.528   0.803   3.034 -0.3885 -2.4122  2.3701
 1672SOL     OW16477   1.100   1.797  13.394 -0.0300  0.3070  0.5557
 1672SOL    HW116478   1.104   1.760  13.306 -1.2989  1.3035  0.0787
 1672SOL    HW216479   1.094   1.717  13.446  0.4480 -0.1067 -0.0297
 1673SOL     OW16480   2.591   4.309   6.122  0.2169  0.7367  0.6875
 1673SOL    HW116481   2.498   4.289   6.114  0.2842  0.8941 -0.5470
 1673SOL    HW216482   2.607   4.269   6.207  2.0065  1.5222  0.7227
 1674SOL     OW16483   1.393   3.977  16.714  0.4051  0.3338  0.5805
 1674SOL    HW116484   1.483   3.992  16.745  1.1042 -2.1553 -0.2157
 1674SOL    HW216485   1.385   3.882  16.710 -0.0907  0.4791 -1.9654
 1675SOL     OW16486   0.343   3.496  14.145  0.0209  0.1477 -0.8206
 1675SOL    HW116487   0.247   3.498  14.152  0.1219  0.3118  0.4832
 1675SOL    HW216488   0.361   3.588  14.129 -1.6495  0.6827  0.3173
 1676SOL     OW16489   2.661   0.785  11.557  0.6627  0.3876 -0.0722
 1676SOL    HW116490   2.720   0.710  11.563 -0.8646 -0.9353 -1.4840
 1676SOL    HW216491   2.673   0.813  11.466 -1.5958  2.4782  0.2771
 1677SOL     OW16492   3.684   4.164  11.028  0.4694 -0.0509 -0.0239
 1677SOL    HW116493   3.596   4.199  11.023 -0.3464 -2.2085 -0.8216
 1677SOL    HW216494   3.738   4.243  11.019  0.1895  0.1020 -0.3718
 1678SOL     OW16495   2.198   4.591  10.655 -0.2578  0.2784 -0.1411
 1678SOL    HW116496   2.226   4.622  10.569 -0.7792  1.3442  0.0812
 1678SOL    HW216497   2.137   4.662  10.674 -1.0761 -0.1267 -1.2392
 1679SOL     OW16498   1.595   1.511  12.887 -0.1447 -0.6114  0.0418
 1679SOL    HW116499   1.655   1.496  12.814 -0.6066  3.5508 -1.1765
 1679SOL    HW216500   1.636   1.578  12.941 -1.0067  0.2193 -0.3319
 1680SOL     OW16501   2.442   4.010   0.282 -0.2139  0.1856  0.7274
 1680SOL    HW116502   2.492   3.942   0.237 -0.4494  0.2666  0.3384
 1680SOL    HW216503   2.353   3.974   0.278  0.7749 -2.1861  0.4706
 1681SOL     OW16504   1.315   0.063  16.159 -0.1231 -0.3692 -0.4126
 1681SOL    HW116505   1.392   0.053  16.103 -0.0940  1.8449 -0.7620
 1681SOL    HW216506   1.336   0.003  16.231 -0.2709  0.0466 -0.0252
 1682SOL     OW16507   1.863   3.670   2.639 -0.3636  0.6548 -0.4381
 1682SOL    HW116508   1.866   3.711   2.552  0.4003  0.3852 -0.5411
 1682SOL    HW216509   1.914   3.592   2.618 -1.9509 -0.6129  0.4931
 1683SOL     OW16510   4.084   2.455   6.137  0.5063 -0.2240 -0.0491
 1683SOL    HW116511   4.015   2.451   6.071  0.9417 -0.4052 -0.4945
 1683SOL    HW216512   4.047   2.525   6.192  3.3305  1.2342 -0.0039
 1684SOL     OW16513   2.783   3.779   0.211  0.1151  0.1598  0.0341
 1684SOL    HW116514   2.784   3.843   0.140 -4.1291  0.2650  0.0597
 1684SOL    HW216515   2.688   3.768   0.203 -0.0022  2.0184 -1.1023
 1685SOL     OW16516   3.004   4.690   5.453  0.2013 -0.3946  0.4623
 1685SOL    HW116517   3.055   4.667   5.531  1.2539 -2.3623 -0.8047
 1685SOL    HW216518   2.968   0.052   5.487  3.3812  0.6847  1.2494
 1686SOL     OW16519   1.392   4.597   8.404 -0.4060 -0.3199 -0.2635
 1686SOL    HW116520   1.360   4.631   8.488  0.5247 -0.8048  0.2860
 1686SOL    HW216521   1.487   4.604   8.409 -0.3013 -0.6891 -1.7220
 1687SOL     OW16522   3.978   3.304   7.144  0.2180  0.1441  0.6112
 1687SOL    HW116523   4.006   3.356   7.068  1.1889 -0.5666  0.4788
 1687SOL    HW216524   4.050   3.325   7.204  0.8303  1.6437 -0.6421
 1688SOL     OW16525   3.961   2.920  17.408  0.5036 -0.4522 -0.0541
 1688SOL    HW116526   3.965   3.014  17.391 -0.9987 -0.4550 -0.4861
 1688SOL    HW216527   3.920   2.922  17.494  0.3309  0.1382 -0.1438
 1689SOL     OW16528   0.728   0.791  14.635 -0.0513  0.3503  0.1672
 1689SOL    HW116529   0.706   0.718  14.692  0.2624  1.0802  1.2439
 1689SOL    HW216530   0.644   0.836  14.629 -0.3169 -0.6122 -3.0155
 1690SOL     OW16531   1.740   3.940   2.227  0.5449  1.1936  0.0447
 1690SOL    HW116532   1.688   4.013   2.259 -2.2472 -1.8241  2.3579
 1690SOL    HW216533   1.681   3.888   2.172  0.4499  0.9250  0.3995
 1691SOL     OW16534   3.294   2.725   7.031 -0.9919  0.2903 -0.7696
 1691SOL    HW116535   3.327   2.779   7.104  0.6370 -1.9499  0.1592
 1691SOL    HW216536   3.219   2.685   7.076  1.3536 -1.2089  1.8259
 1692SOL     OW16537   4.470   2.029   4.471 -0.1123  0.0985  0.0562
 1692SOL    HW116538   4.376   2.021   4.458  0.0792  1.2284 -2.0492
 1692SOL    HW216539   4.497   1.940   4.448  0.2447 -0.0883  1.2132
 1693SOL     OW16540   2.163   0.065  13.678 -0.0330  0.0275  0.1014
 1693SOL    HW116541   2.252   0.099  13.672  0.1843 -0.1699  2.2138
 1693SOL    HW216542   2.110   0.144  13.683  0.1415  0.1740 -0.3423
 1694SOL     OW16543   2.396   3.100   5.039 -0.1552  0.3382  0.2725
 1694SOL    HW116544   2.406   3.005   5.039 -1.6381  0.1863 -0.7800
 1694SOL    HW216545   2.366   3.115   5.129 -2.5460 -0.2778 -0.4184
 1695SOL     OW16546   0.176   0.420   7.747  0.0324 -0.3131  0.0702
 1695SOL    HW116547   0.232   0.396   7.820  0.6944 -0.8849 -0.6286
 1695SOL    HW216548   0.231   0.390   7.674 -1.6782  0.8966 -1.7136
 1696SOL     OW16549   2.846   4.108  12.869  0.2349  0.0436 -0.1647
 1696SOL    HW116550   2.851   4.204  12.875  0.1059 -0.0392  1.3595
 1696SOL    HW216551   2.938   4.081  12.864  0.2872  0.6147 -2.2993
 1697SOL     OW16552   0.631   3.034   2.957  0.2878 -0.0109  0.1501
 1697SOL    HW116553   0.636   3.027   3.053 -0.6765 -1.8721  0.0702
 1697SOL    HW216554   0.594   3.122   2.956 -0.4431 -0.3788 -3.9742
 1698SOL     OW16555   1.855   0.363   5.546 -0.2277  0.3428 -0.2786
 1698SOL    HW116556   1.916   0.290   5.534 -0.7705 -0.0419 -0.6574
 1698SOL    HW216557   1.918   0.420   5.591 -0.4015  1.3214 -1.2794
 1699SOL     OW16558   4.050   2.514  17.533 -0.6093  0.5707 -0.5866
 1699SOL    HW116559   4.030   2.579  17.467  3.1297  2.2017 -0.0995
 1699SOL    HW216560   4.122   2.462  17.496 -0.7996 -0.1424  0.0413
 1700SOL     OW16561   3.665   0.893   6.632  0.1343  0.1341 -0.5844
 1700SOL    HW116562   3.742   0.949   6.621 -1.4285  2.0374 -1.6788
 1700SOL    HW216563   3.600   0.961   6.651  0.7544  1.0423 -1.7090
 1701SOL     OW16564   0.453   3.334   5.140  0.4685  0.1914 -0.0027
 1701SOL    HW116565   0.361   3.314   5.157  0.8620 -1.1106  0.5374
 1701SOL    HW216566   0.485   3.261   5.087 -0.2079 -1.3613  1.7374
 1702SOL     OW16567   2.048   3.426  11.030  0.1812  0.1520 -0.3566
 1702SOL    HW116568   1.980   3.465  11.085 -0.3954 -1.4330  0.0466
 1702SOL    HW216569   2.092   3.498  10.983  0.9634 -0.2112 -0.1713
 1703SOL     OW16570   2.000   1.559   3.607 -0.3395 -0.0042 -0.4959
 1703SOL    HW116571   2.027   1.555   3.515 -1.7269 -0.4135 -0.9022
 1703SOL    HW216572   1.982   1.471   3.640  0.8731 -1.1537 -2.8599
 1704SOL     OW16573   1.825   1.799   8.420  0.3756 -0.3012 -0.0118
 1704SOL    HW116574   1.854   1.723   8.368  2.5669 -1.4481  2.9074
 1704SOL    HW216575   1.805   1.869   8.358 -0.0148 -1.2028 -0.9227
 1705SOL     OW16576   0.917   2.148   6.049  0.4892  0.3822 -0.8881
 1705SOL    HW116577   0.827   2.178   6.045  0.1791  0.0726  3.8232
 1705SOL    HW216578   0.943   2.136   5.958 -2.2891  2.2332 -1.8999
 1706SOL     OW16579   0.686   2.594   6.640  0.1298  0.2874  0.3064
 1706SOL    HW116580   0.655   2.562   6.555 -2.6656  2.1679  0.6124
 1706SOL    HW216581   0.606   2.614   6.688  0.3728  2.0800 -0.0482
 1707SOL     OW16582   4.529   0.562  11.994  0.3140 -0.3368  0.7327
 1707SOL    HW116583   4.458   0.590  12.051  1.0186  0.3572  1.2742
 1707SOL    HW216584   4.599   0.628  11.991  1.2140 -1.2947  0.4948
 1708SOL     OW16585   0.156   1.605   9.397 -0.0348  0.7617  0.3414
 1708SOL    HW116586   0.170   1.564   9.482  1.8313  0.0377 -0.3085
 1708SOL    HW216587   0.167   1.527   9.343  0.0037  0.4772  0.7652
 1709SOL     OW16588   1.779   0.343  16.577 -0.3015 -0.7499  0.0818
 1709SOL    HW116589   1.724   0.271  16.608 -1.3788 -0.9042 -2.1680
 1709SOL    HW216590   1.808   0.381  16.660  1.0102  0.6671 -1.0152
 1710SOL     OW16591   3.002   2.149   5.623  0.4403  0.0399  0.3159
 1710SOL    HW116592   3.086   2.174   5.585 -0.7429  4.3141  0.4266
 1710SOL    HW216593   3.027   2.154   5.715  0.8204 -1.8036  0.3129
 1711SOL     OW16594   2.468   3.444  17.579  0.2819  0.3111  0.3522
 1711SOL    HW116595   2.479   3.451  17.674 -0.5874 -3.0699  0.6867
 1711SOL    HW216596   2.496   3.353  17.580 -1.1637 -0.1234  0.0490
 1712SOL     OW16597   2.455   1.678   9.641  0.0228 -0.5316 -0.1314
 1712SOL    HW116598   2.389   1.718   9.585  2.2570 -1.2241 -3.2389
 1712SOL    HW216599   2.407   1.693   9.722  2.5207 -2.0801  1.6330
 1713SOL     OW16600   0.842   2.413   2.812 -0.0413  0.1227 -0.2046
 1713SOL    HW116601   0.802   2.483   2.761  0.9366  0.2486 -0.7860
 1713SOL    HW216602   0.849   2.346   2.744 -2.1634  0.1069 -0.4069
 1714SOL     OW16603   1.851   0.409   2.415  0.2062  0.1173  0.1371
 1714SOL    HW116604   1.870   0.408   2.509  0.6834  0.5827  0.0500
 1714SOL    HW216605   1.941   0.429   2.389 -0.3952 -0.4813 -2.4571
 1715SOL     OW16606   0.209   4.050   2.445  0.0603  0.0685  0.7113
 1715SOL    HW116607   0.204   4.003   2.529  1.3774  1.4331  1.5522
 1715SOL    HW216608   0.271   4.120   2.467  1.8198 -1.1787 -0.2685
 1716SOL     OW16609   0.906   1.024   0.481 -0.0196  0.0116 -0.3737
 1716SOL    HW116610   0.998   1.048   0.496  0.8686 -2.1894 -2.2705
 1716SOL    HW216611   0.863   1.055   0.561 -0.9944  0.5166 -1.1060
 1717SOL     OW16612   0.048   1.662  10.520 -0.1594  0.2900 -0.9006
 1717SOL    HW116613   0.069   1.661  10.427  1.6708 -0.7258 -0.4837
 1717SOL    HW216614   0.007   1.747  10.533 -0.1677 -0.1943  2.3722
 1718SOL     OW16615   0.140   2.859   8.710 -0.9577  0.1908  0.3430
 1718SOL    HW116616   0.220   2.909   8.696 -1.2291  0.4290 -0.3550
 1718SOL    HW216617   0.172   2.781   8.666  0.3884  0.8256  0.2180
 1719SOL     OW16618   1.494   1.507   7.785  0.2240 -0.1223 -0.1750
 1719SOL    HW116619   1.470   1.440   7.721 -0.2656  0.7823 -0.9447
 1719SOL    HW216620   1.498   1.450   7.862 -0.4052 -1.9812 -1.5191
 1720SOL     OW16621   3.774   3.800   4.823 -0.1890 -0.0108 -0.1412
 1720SOL    HW116622   3.716   3.788   4.748 -0.2024  1.2469 -0.3334
 1720SOL    HW216623   3.738   3.747   4.894  0.7284  0.0337  0.3571
 1721SOL     OW16624   1.767   1.482   7.001  0.6032  0.4880 -0.0816
 1721SOL    HW116625   1.787   1.393   6.971  0.5007  0.7021 -0.7801
 1721SOL    HW216626   1.824   1.496   7.076  0.5555  1.2810 -0.1927
 1722SOL     OW16627   1.058   3.440   5.581  0.1733 -0.0891  0.2446
 1722SOL    HW116628   1.107   3.494   5.643 -1.4053  0.9202  0.6040
 1722SOL    HW216629   1.061   3.500   5.507  3.1777  0.1974  0.5818
 1723SOL     OW16630   1.796   0.896   2.041 -0.6305 -0.6073 -0.1569
 1723SOL    HW116631   1.710   0.870   2.008 -0.5178 -0.0839 -0.8606
 1723SOL    HW216632   1.820   0.845   2.119  0.2754  0.2412  0.1119
 1724SOL     OW16633   1.232   4.574   4.287 -0.3557 -0.4444  0.1704
 1724SOL    HW116634   1.212   4.661   4.321 -1.4052 -0.2442 -0.9546
 1724SOL    HW216635   1.213   4.579   4.193 -0.2421  2.9637  0.3149
 1725SOL     OW16636   4.462   4.707   2.012 -0.0289 -0.0239  0.0363
 1725SOL    HW116637   4.470   4.653   1.934 -0.2656 -0.3382  0.2261
 1725SOL    HW216638   4.468   0.074   1.972  3.5103 -0.2093  0.2433
 1726SOL     OW16639   3.856   0.364  16.738 -0.3304  0.2949  0.2141
 1726SOL    HW116640   3.893   0.284  16.699 -1.2894 -0.0921  0.1057
 1726SOL    HW216641   3.835   0.406  16.655 -0.3963 -0.9657 -0.4192
 1727SOL     OW16642   1.024   4.111  10.430 -0.2325 -0.4804 -0.0538
 1727SOL    HW116643   1.095   4.175  10.434 -0.2688 -0.4090 -0.5868
 1727SOL    HW216644   0.987   4.111  10.342 -0.1809 -0.1767 -0.0753
 1728SOL     OW16645   3.617   1.587  17.499 -0.2681  0.2823 -0.2813
 1728SOL    HW116646   3.681   1.656  17.516  0.3019 -0.4049  0.3807
 1728SOL    HW216647   3.659   1.532  17.565 -0.8490  1.9630  1.4875
 1729SOL     OW16648   1.597   2.682   3.683 -0.3540  0.2204 -0.2238
 1729SOL    HW116649   1.511   2.710   3.712 -0.9019  0.3550 -2.0040
 1729SOL    HW216650   1.600   2.617   3.754 -1.9856  1.0853  0.6253
 1730SOL     OW16651   4.414   3.984   7.627  0.3186  0.5602  0.5113
 1730SOL    HW116652   4.337   3.968   7.681  0.2343 -0.7729 -0.0044
 1730SOL    HW216653   4.470   3.913   7.659 -0.3950  0.4370  1.4747
 1731SOL     OW16654   1.707   1.340   0.755  0.1589  0.4702  0.2055
 1731SOL    HW116655   1.782   1.380   0.711  0.5379  1.9276  2.1865
 1731SOL    HW216656   1.762   1.283   0.808  0.6756 -0.4014 -1.2428
 1732SOL     OW16657   2.285   3.493   2.508  0.3830  0.3716 -0.2841
 1732SOL    HW116658   2.193   3.474   2.526  0.4312 -1.2240 -1.6163
 1732SOL    HW216659   2.275   3.558   2.438 -2.6613 -0.2936 -0.4637
 1733SOL     OW16660   0.273   3.289   9.367  0.0923 -0.0414 -0.4491
 1733SOL    HW116661   0.279   3.380   9.339 -1.3267 -0.0153 -0.6558
 1733SOL    HW216662   0.180   3.276   9.384  0.0696  3.2360  1.8451
 1734SOL     OW16663   0.410   1.619   1.820  0.0191  0.2077 -0.3039
 1734SOL    HW116664   0.345   1.683   1.792  1.2991  1.4940 -0.3155
 1734SOL    HW216665   0.452   1.606   1.735  0.1729 -4.2975  0.4345
 1735SOL     OW16666   0.975   2.529   4.407  0.7786 -0.3141 -0.0646
 1735SOL    HW116667   0.895   2.539   4.458  0.2107 -1.1085 -0.8089
 1735SOL    HW216668   0.952   2.570   4.324  0.4062 -0.2012  0.0973
 1736SOL     OW16669   4.422   4.654   3.015  0.0815  0.2157 -0.5664
 1736SOL    HW116670   4.505   4.620   3.049 -0.6286 -1.9980 -1.0179
 1736SOL    HW216671   4.361   4.589   3.051  0.6002  1.6102  2.7653
 1737SOL     OW16672   0.937   1.805   9.078 -0.0055 -0.2531 -0.5829
 1737SOL    HW116673   1.015   1.752   9.091 -0.4904 -0.7850  0.1812
 1737SOL    HW216674   0.874   1.742   9.115 -1.0400  1.4967  0.5911
 1738SOL     OW16675   4.085   1.889   3.201  0.1112  0.1844 -0.1613
 1738SOL    HW116676   4.121   1.912   3.115 -1.8253 -0.1186 -1.0446
 1738SOL    HW216677   4.146   1.939   3.256  1.2650 -0.1458 -1.1517
 1739SOL     OW16678   3.000   2.767  15.530 -0.2243 -0.3119 -0.6783
 1739SOL    HW116679   3.066   2.747  15.597 -1.8317  1.9624  1.6159
 1739SOL    HW216680   3.050   2.828  15.476  0.7902 -1.2126 -0.7755
 1740SOL     OW16681   2.091   3.458  12.780 -0.2612  0.1970  0.0456
 1740SOL    HW116682   2.165   3.515  12.803 -0.2947  0.7449 -1.1839
 1740SOL    HW216683   2.141   3.413  12.712 -1.0533 -0.9793  0.2576
 1741SOL     OW16684   0.744   3.664   8.665 -0.1787  0.1982  0.4131
 1741SOL    HW116685   0.779   3.753   8.657  0.9684 -0.4842 -2.1167
 1741SOL    HW216686   0.662   3.669   8.615  0.0713 -0.6566 -0.0685
 1742SOL     OW16687   4.064   4.009   2.158 -0.6205 -0.2425  0.1599
 1742SOL    HW116688   4.055   4.022   2.252 -1.1571 -1.0838  0.2258
 1742SOL    HW216689   4.021   4.089   2.127 -1.1213 -0.5690  0.0081
 1743SOL     OW16690   3.709   2.383   3.133  0.3808 -0.1623 -0.6429
 1743SOL    HW116691   3.799   2.354   3.121  0.7002  0.8939 -0.7638
 1743SOL    HW216692   3.666   2.352   3.053  0.4618 -0.4468 -0.5773
 1744SOL     OW16693   0.304   4.533   4.451 -0.9639  0.1707  0.1782
 1744SOL    HW116694   0.395   4.512   4.472 -1.8552 -2.1411  1.8402
 1744SOL    HW216695   0.301   4.627   4.467  1.8643  0.3474 -0.3866
 1745SOL     OW16696   2.550   1.660   8.081 -0.6890  0.9788  0.3205
 1745SOL    HW116697   2.590   1.738   8.120  0.7525  0.0825  0.6531
 1745SOL    HW216698   2.485   1.640   8.149 -0.4846 -1.2497 -0.1699
 1746SOL     OW16699   2.659   1.384   4.517  0.1533 -0.5447  0.6107
 1746SOL    HW116700   2.626   1.473   4.509 -1.0081 -1.1682 -1.4723
 1746SOL    HW216701   2.730   1.392   4.453  0.2848 -1.5365  0.6295
 1747SOL     OW16702   3.815   4.493  10.140  0.1145 -0.3502  0.5578
 1747SOL    HW116703   3.898   4.512  10.098 -0.2399  1.1103  0.4899
 1747SOL    HW216704   3.752   4.506  10.069  0.6902 -0.2397  0.0688
 1748SOL     OW16705   3.283   3.937   3.765  0.1722 -0.7117 -0.1088
 1748SOL    HW116706   3.235   4.018   3.783  3.3764  0.6130  2.4604
 1748SOL    HW216707   3.334   3.938   3.846  0.7328  0.8604 -0.4735
 1749SOL     OW16708   2.246   2.505   7.706 -0.2190  0.0549  0.3680
 1749SOL    HW116709   2.192   2.444   7.656  1.9900 -0.8058 -0.9462
 1749SOL    HW216710   2.274   2.565   7.636  0.0165 -0.6821 -0.1619
 1750SOL     OW16711   2.030   2.431   9.002  0.3791  0.1294 -0.1260
 1750SOL    HW116712   1.938   2.456   9.005  0.1849 -0.8075  1.9480
 1750SOL    HW216713   2.032   2.361   8.937 -1.5943  2.1050 -2.2886
 1751SOL     OW16714   1.865   1.544   1.906  0.7423 -0.1914  0.5222
 1751SOL    HW116715   1.883   1.541   1.812 -0.9200 -0.5631  0.2106
 1751SOL    HW216716   1.820   1.628   1.901 -0.8102 -1.0317  0.2023
 1752SOL     OW16717   2.245   3.477  13.407  0.0596  0.0705  0.5614
 1752SOL    HW116718   2.211   3.542  13.468 -0.8840  1.5346 -1.5497
 1752SOL    HW216719   2.165   3.446  13.365 -1.3292  0.7021  2.7552
 1753SOL     OW16720   4.007   1.274  14.514 -0.0542 -0.5140  0.0655
 1753SOL    HW116721   4.052   1.330  14.577 -0.0487  0.8333 -1.1361
 1753SOL    HW216722   4.042   1.288  14.426 -0.5825  1.5363  0.1959
 1754SOL     OW16723   1.466   0.628   9.223 -0.1333  0.2824  0.4622
 1754SOL    HW116724   1.416   0.554   9.257 -0.5875 -0.3312 -1.4939
 1754SOL    HW216725   1.391   0.671   9.181  0.1319 -1.2435 -1.5778
 1755SOL     OW16726   1.016   3.947   5.528  0.8034  0.0352  0.3029
 1755SOL    HW116727   0.992   3.944   5.436  1.2844 -0.8312  0.1966
 1755SOL    HW216728   0.973   3.870   5.566  0.1873 -0.7759 -2.0790
 1756SOL     OW16729   3.581   2.696   4.377  0.4149 -0.6518  0.5524
 1756SOL    HW116730   3.676   2.688   4.379  0.4776  0.1148  0.5257
 1756SOL    HW216731   3.545   2.688   4.465 -0.7464 -1.6597 -0.0010
 1757SOL     OW16732   2.377   1.373   6.302 -0.3040 -0.2739  0.2726
 1757SOL    HW116733   2.301   1.393   6.247  0.5658 -1.0205 -1.1757
 1757SOL    HW216734   2.412   1.461   6.316  4.5140 -2.1872  0.0718
 1758SOL     OW16735   1.295   3.621   8.653 -0.1487  0.2757  0.2288
 1758SOL    HW116736   1.333   3.707   8.673 -2.3538  1.7059 -1.7368
 1758SOL    HW216737   1.226   3.612   8.719  0.1396  0.6490  0.5795
 1759SOL     OW16738   4.297   4.132  12.572  0.1899  0.0021  0.3491
 1759SOL    HW116739   4.271   4.064  12.635  1.2633 -0.9170 -0.1966
 1759SOL    HW216740   4.234   4.200  12.596  1.3250  1.1035  0.2047
 1760SOL     OW16741   2.386   0.448   6.375 -0.0233 -0.5288 -0.5585
 1760SOL    HW116742   2.299   0.409   6.375  0.7527 -2.2738  0.9754
 1760SOL    HW216743   2.382   0.507   6.451 -2.3296 -0.7514 -0.5211
 1761SOL     OW16744   1.324   1.488  12.260  0.1242 -0.0864  0.3411
 1761SOL    HW116745   1.368   1.465  12.342 -1.7094 -3.0192  0.5298
 1761SOL    HW216746   1.308   1.401  12.223  0.2331 -0.5793  1.4512
 1762SOL     OW16747   1.311   0.506  14.808  0.0276  0.2083  0.2341
 1762SOL    HW116748   1.228   0.476  14.846  0.0795 -0.7615 -0.4316
 1762SOL    HW216749   1.332   0.434  14.748 -2.9018 -2.1384  1.9730
 1763SOL     OW16750   4.447   1.823   5.858 -0.5760 -0.0889  0.6680
 1763SOL    HW116751   4.441   1.728   5.862 -4.6090  0.1268 -0.2853
 1763SOL    HW216752   4.459   1.844   5.765 -2.7719 -1.7043  0.0109
 1764SOL     OW16753   0.840   3.723  11.425 -0.1142 -0.3730 -0.3457
 1764SOL    HW116754   0.882   3.706  11.341 -1.8354 -0.2821 -1.2148
 1764SOL    HW216755   0.907   3.778  11.466  1.9635 -1.0940 -2.7874
 1765SOL     OW16756   3.078   0.895  13.019 -0.1569  0.0066 -0.0606
 1765SOL    HW116757   3.093   0.988  13.002 -2.3760  0.4385  0.4171
 1765SOL    HW216758   3.149   0.859  12.965  0.1789  0.3174  0.1735
 1766SOL     OW16759   2.882   2.898  14.998  0.3639  0.2324 -0.0604
 1766SOL    HW116760   2.904   2.895  15.091 -0.6265  3.0583  0.2484
 1766SOL    HW216761   2.904   2.990  14.984 -1.6475  1.0724  2.1246
 1767SOL     OW16762   2.400   4.258   1.307  0.0716  0.6864  0.3718
 1767SOL    HW116763   2.339   4.318   1.351  0.6366 -0.1453  2.3086
 1767SOL    HW216764   2.468   4.258   1.374 -0.2262 -0.1714  0.6727
 1768SOL     OW16765   1.863   1.415  17.610  0.2218  0.1930  0.0591
 1768SOL    HW116766   1.878   1.404   0.024  1.6071  0.5153 -0.1335
 1768SOL    HW216767   1.953   1.428  17.582  0.8352  0.6114  2.1779
 1769SOL     OW16768   4.129   0.596  13.478 -0.0004  0.4783  0.6401
 1769SOL    HW116769   4.141   0.511  13.521 -0.2487  0.1902  0.1411
 1769SOL    HW216770   4.038   0.580  13.451 -0.0873  0.3003  1.0359
 1770SOL     OW16771   3.813   2.403   7.660 -0.1933 -0.5191  0.2048
 1770SOL    HW116772   3.750   2.428   7.592  1.2414 -0.1639 -1.0025
 1770SOL    HW216773   3.807   2.308   7.650 -1.4687 -0.3106 -1.0478
 1771SOL     OW16774   0.488   0.580  11.311  0.8345  0.9440  0.0783
 1771SOL    HW116775   0.530   0.543  11.233  1.1905  2.8966 -0.6529
 1771SOL    HW216776   0.524   0.522  11.378  0.1585 -1.9723 -2.0845
 1772SOL     OW16777   0.411   0.270   9.005  0.6405 -0.1497 -0.2595
 1772SOL    HW116778   0.375   0.355   8.979 -0.9585 -1.6134 -2.8821
 1772SOL    HW216779   0.337   0.210   8.996  2.4797 -2.8870  3.1221
 1773SOL     OW16780   1.923   2.904   3.859 -0.0039  0.6384  0.1356
 1773SOL    HW116781   1.888   2.881   3.773 -0.4947  0.4019  0.3999
 1773SOL    HW216782   1.843   2.883   3.907 -0.7246 -0.2023 -1.4368
 1774SOL     OW16783   3.862   4.295   4.540 -0.6705 -0.0169  0.6677
 1774SOL    HW116784   3.956   4.314   4.547 -0.7812  1.2719 -1.4022
 1774SOL    HW216785   3.861   4.200   4.531 -0.9121  0.0175  0.3303
 1775SOL     OW16786   3.908   0.247   5.790 -0.1392 -0.0439  0.7118
 1775SOL    HW116787   3.957   0.218   5.713 -0.3678  2.7145 -0.4528
 1775SOL    HW216788   3.822   0.205   5.789  0.3489 -1.0750  1.5448
 1776SOL     OW16789   2.129   2.150   4.486 -0.2215  0.2089  0.5555
 1776SOL    HW116790   2.200   2.099   4.525 -0.4562  1.3186  2.4413
 1776SOL    HW216791   2.064   2.141   4.556 -0.2494  0.4585  0.5636
 1777SOL     OW16792   3.073   1.476   7.047 -0.7224 -0.0121  0.2501
 1777SOL    HW116793   3.097   1.484   7.139 -0.4078  0.8852  0.0854
 1777SOL    HW216794   3.075   1.382   7.026  0.4453 -0.1490  1.0245
 1778SOL     OW16795   1.949   1.983   5.094  0.4916  0.1801  0.3444
 1778SOL    HW116796   1.884   2.050   5.073  0.7727  0.2135 -0.4378
 1778SOL    HW216797   1.998   2.023   5.166  0.0396 -0.1748  0.8532
 1779SOL     OW16798   2.276   0.533   4.595 -0.1469  0.3898  0.1999
 1779SOL    HW116799   2.215   0.570   4.531 -0.1978 -0.2450 -0.1095
 1779SOL    HW216800   2.227   0.514   4.675 -2.1116  0.9976 -0.8472
 1780SOL     OW16801   3.906   2.167   3.423 -0.3274  0.1714 -0.2288
 1780SOL    HW116802   3.866   2.232   3.482 -1.6621 -1.3649  0.5721
 1780SOL    HW216803   3.981   2.221   3.400  0.6756 -1.8821 -1.8111
 1781SOL     OW16804   0.639   1.323   2.392  0.2937 -0.3081  0.0912
 1781SOL    HW116805   0.593   1.267   2.329 -1.6992  0.9717  0.4421
 1781SOL    HW216806   0.585   1.303   2.468 -1.4811 -2.1336 -1.6259
 1782SOL     OW16807   3.270   4.598   2.483 -0.6392  0.1336  0.0531
 1782SOL    HW116808   3.299   4.609   2.573 -0.9401  2.2990 -0.1224
 1782SOL    HW216809   3.219   4.678   2.474 -2.8038 -1.1271  1.0474
 1783SOL     OW16810   3.239   4.400   2.702  0.9205 -0.3666 -0.2795
 1783SOL    HW116811   3.302   4.410   2.631  0.3339  2.6432 -0.3577
 1783SOL    HW216812   3.264   4.311   2.729 -0.6916 -0.8629 -0.4214
 1784SOL     OW16813   1.234   2.030   6.691  0.1416 -0.0808  0.1797
 1784SOL    HW116814   1.239   2.096   6.621  0.3063 -0.6089 -0.3038
 1784SOL    HW216815   1.247   1.947   6.646  1.7674  0.7012 -0.8410
 1785SOL     OW16816   3.134   0.565   1.252 -0.5550  0.2621  1.0300
 1785SOL    HW116817   3.185   0.630   1.299 -0.7003  1.6321 -0.7023
 1785SOL    HW216818   3.056   0.618   1.232 -0.1369  0.5346  0.1094
 1786SOL     OW16819   4.572   4.156  13.763 -0.7157  0.1998  0.2930
 1786SOL    HW116820   4.619   4.236  13.785 -1.5228  1.3335 -2.0355
 1786SOL    HW216821   4.561   4.160  13.668  3.2246 -0.3300 -0.1731
 1787SOL     OW16822   1.036   3.124   4.748  0.1975 -0.5149 -0.6504
 1787SOL    HW116823   0.985   3.079   4.680  0.1418 -1.5014  0.0566
 1787SOL    HW216824   1.120   3.078   4.744  2.1386  3.0277 -0.7285
 1788SOL     OW16825   4.308   0.256   1.151 -0.1432  0.4177 -0.1143
 1788SOL    HW116826   4.356   0.335   1.178  0.7800 -0.7446  1.6659
 1788SOL    HW216827   4.292   0.276   1.059 -1.7682  1.6431  0.4364
 1789SOL     OW16828   2.253   1.226   9.362 -0.3939  0.0184 -0.4039
 1789SOL    HW116829   2.209   1.225   9.446  0.6276 -2.5333  0.0802
 1789SOL    HW216830   2.221   1.144   9.324 -0.7991  0.5519 -1.2245
 1790SOL     OW16831   0.829   2.132  13.700  0.5154 -0.4434 -0.2596
 1790SOL    HW116832   0.789   2.052  13.666 -1.2131  0.7187 -0.9783
 1790SOL    HW216833   0.768   2.200  13.671  1.1970  0.8344  1.3190
 1791SOL     OW16834   0.727   3.759  12.699 -0.0578  0.6442  0.2853
 1791SOL    HW116835   0.660   3.777  12.765  2.5786 -0.4464  3.2883
 1791SOL    HW216836   0.777   3.692  12.747  0.6216  2.0289  1.4868
 1792SOL     OW16837   1.710   0.887   1.745 -0.1271 -0.3259  0.2058
 1792SOL    HW116838   1.625   0.905   1.785 -0.8649 -1.3485 -0.9135
 1792SOL    HW216839   1.704   0.795   1.718 -0.2596 -0.3984  0.4775
 1793SOL     OW16840   0.225   0.634  11.050  0.2097  0.3999 -0.0753
 1793SOL    HW116841   0.277   0.714  11.039  2.1322 -0.6266  1.6298
 1793SOL    HW216842   0.263   0.580  10.981  2.8429  2.7152 -0.4248
 1794SOL     OW16843   0.724   0.615   1.628  0.4512  0.3750  0.0208
 1794SOL    HW116844   0.735   0.563   1.548  2.5994 -1.5239  1.5522
 1794SOL    HW216845   0.629   0.618   1.626  0.4396 -0.4268 -0.5173
 1795SOL     OW16846   0.871   1.359   5.431 -0.3375 -0.7037 -0.6165
 1795SOL    HW116847   0.781   1.369   5.402 -0.3994 -0.1559 -0.2462
 1795SOL    HW216848   0.911   1.417   5.366 -0.5567  1.0388  0.8064
 1796SOL     OW16849   2.130   1.290   9.659  0.6664 -0.0383 -0.2781
 1796SOL    HW116850   2.150   1.227   9.728 -0.7956 -1.7673 -1.4167
 1796SOL    HW216851   2.167   1.376   9.679 -0.9631  0.4099  0.8452
 1797SOL     OW16852   3.961   0.897   3.243 -0.6229  0.1946  0.3343
 1797SOL    HW116853   3.915   0.858   3.317  1.7624 -0.6337  1.3820
 1797SOL    HW216854   4.028   0.935   3.300  1.0536  0.3193 -1.7107
 1798SOL     OW16855   4.031   0.489  17.263  0.3022 -0.5891 -0.1449
 1798SOL    HW116856   4.066   0.476  17.175  1.1213 -1.5540  0.3274
 1798SOL    HW216857   3.940   0.461  17.255 -0.0443  0.6674 -0.6907
 1799SOL     OW16858   0.042   0.032  16.718  0.8344  0.3139  0.2291
 1799SOL    HW116859   0.090   0.086  16.655 -0.8685  0.7217 -0.7068
 1799SOL    HW216860   4.679   0.022  16.670  0.0807 -0.6047  1.7085
 1800SOL     OW16861   0.746   4.125   6.368  0.7178 -0.2456 -0.3484
 1800SOL    HW116862   0.733   4.098   6.459  2.9832  3.0895  0.9728
 1800SOL    HW216863   0.660   4.123   6.328 -0.9975  0.5191  3.2865
 1801SOL     OW16864   3.276   0.687   6.615 -0.0839 -0.4373 -0.3931
 1801SOL    HW116865   3.317   0.692   6.528 -1.1526 -0.4602 -0.8995
 1801SOL    HW216866   3.311   0.605   6.650  1.9154  0.8255  0.5730
 1802SOL     OW16867   0.635   1.374   2.004  0.2375  0.4191  0.4123
 1802SOL    HW116868   0.709   1.432   1.989  2.3179 -1.8619  1.9053
 1802SOL    HW216869   0.642   1.314   1.930 -0.4140  0.5223  0.2654
 1803SOL     OW16870   0.293   3.839   1.835  0.1393  0.2690  0.3570
 1803SOL    HW116871   0.305   3.845   1.930  1.8549 -1.5436  0.2279
 1803SOL    HW216872   0.254   3.926   1.823  1.9698  1.0057 -0.1860
 1804SOL     OW16873   2.201   4.517  17.369 -0.1226  0.1370 -0.4924
 1804SOL    HW116874   2.112   4.531  17.338 -0.3480  1.3036  0.7035
 1804SOL    HW216875   2.227   4.431  17.335  0.1554 -0.4018  1.0909
 1805SOL     OW16876   2.114   2.648   8.872 -0.0090  0.1008 -0.0252
 1805SOL    HW116877   2.106   2.572   8.930  0.8140  1.1800  1.5098
 1805SOL    HW216878   2.088   2.608   8.789  0.9199 -1.4867  0.4299
 1806SOL     OW16879   1.545   2.421   4.859  0.4188  0.5370 -0.6282
 1806SOL    HW116880   1.501   2.457   4.936 -1.3611  0.3740 -1.5632
 1806SOL    HW216881   1.634   2.428   4.892 -0.5296  0.9576  1.7826
 1807SOL     OW16882   4.272   3.409  10.019 -0.0459  0.2931  0.1691
 1807SOL    HW116883   4.251   3.434  10.109  2.5079 -1.2128  1.1743
 1807SOL    HW216884   4.203   3.345   9.999 -0.1253 -0.4864  2.9121
 1808SOL     OW16885   1.587   0.539  16.536 -0.2335 -0.0779 -0.6219
 1808SOL    HW116886   1.670   0.493  16.523  1.0611  1.4705  2.0856
 1808SOL    HW216887   1.605   0.602  16.606 -0.5993 -0.6958  0.0279
 1809SOL     OW16888   2.978   3.837   1.800  0.0939  0.0283  1.2514
 1809SOL    HW116889   3.012   3.769   1.858 -2.6037 -2.0715  0.3679
 1809SOL    HW216890   2.893   3.798   1.780 -0.2217  0.5171  1.6412
 1810SOL     OW16891   0.998   4.192   5.636 -0.1953  0.4243 -0.0478
 1810SOL    HW116892   1.001   4.102   5.603 -0.6779  0.7980 -1.1134
 1810SOL    HW216893   0.940   4.182   5.712 -1.0011  0.4550 -0.6589
 1811SOL     OW16894   0.956   3.846  11.189  0.6101 -0.2435  0.2512
 1811SOL    HW116895   0.952   3.941  11.198 -0.0366 -0.3444  1.0279
 1811SOL    HW216896   0.954   3.833  11.094  1.9183 -2.0059  0.4644
 1812SOL     OW16897   2.854   1.946   4.816 -0.3735  0.2683 -0.0812
 1812SOL    HW116898   2.887   1.912   4.899 -0.1877 -0.5187 -0.4755
 1812SOL    HW216899   2.765   1.913   4.826 -0.4433  0.5998  0.3558
 1813SOL     OW16900   4.148   1.138   1.791 -0.0853 -0.0738  0.1673
 1813SOL    HW116901   4.178   1.218   1.748  0.4172 -0.7128 -0.6799
 1813SOL    HW216902   4.157   1.159   1.884  1.6452  1.9596 -0.4599
 1814SOL     OW16903   1.850   0.422  17.534  0.0295  0.1460  0.1763
 1814SOL    HW116904   1.801   0.498  17.565 -1.1612  0.5156 -2.6212
 1814SOL    HW216905   1.802   0.408  17.452  1.7012  2.2529 -1.1515
 1815SOL     OW16906   1.344   2.507   7.238 -0.2065  0.3599  0.5520
 1815SOL    HW116907   1.356   2.443   7.168  1.1186  0.7719  0.4102
 1815SOL    HW216908   1.304   2.448   7.302 -0.1931 -0.5783 -0.2973
 1816SOL     OW16909   0.438   3.570   8.054 -0.6162  0.0816  0.3277
 1816SOL    HW116910   0.440   3.500   8.120 -1.9284 -0.2438  0.0118
 1816SOL    HW216911   0.353   3.554   8.014 -1.3440 -0.7001  2.1770
 1817SOL     OW16912   2.698   4.194   3.880  0.0894  0.2720 -0.3470
 1817SOL    HW116913   2.616   4.191   3.831 -0.4085  1.7219  0.3996
 1817SOL    HW216914   2.694   4.282   3.917 -0.7185 -0.1498  0.5650
 1818SOL     OW16915   1.372   1.740   0.267  0.6593 -0.0428 -0.0510
 1818SOL    HW116916   1.279   1.720   0.281  0.5210  0.3692 -0.3891
 1818SOL    HW216917   1.403   1.650   0.273  0.0813 -0.3115 -1.0932
 1819SOL     OW16918   0.035   2.489   3.740 -0.4810 -0.3182  0.2042
 1819SOL    HW116919   0.079   2.418   3.693  0.3316 -0.7137  1.5619
 1819SOL    HW216920   0.083   2.472   3.821  0.4841 -1.0473 -0.5218
 1820SOL     OW16921   3.058   3.223   7.568 -0.1982  0.3031 -0.1367
 1820SOL    HW116922   3.086   3.288   7.504  1.6105  0.8063  1.1563
 1820SOL    HW216923   3.131   3.161   7.572 -0.6042 -0.1813 -0.2745
 1821SOL     OW16924   0.115   4.342   1.495  0.0103  0.3157 -0.3115
 1821SOL    HW116925   0.113   4.295   1.412 -1.8834 -0.4722  0.1913
 1821SOL    HW216926   0.168   4.283   1.548  1.9855  1.3023 -1.1508
 1822SOL     OW16927   1.365   1.882   1.230  0.0502 -0.1249 -0.0197
 1822SOL    HW116928   1.371   1.795   1.271  2.3734 -1.2283 -2.7163
 1822SOL    HW216929   1.399   1.929   1.306 -1.5102  1.5261 -0.3711
 1823SOL     OW16930   3.273   4.711   4.383  0.0885 -0.1447 -0.1931
 1823SOL    HW116931   3.238   4.716   4.472  2.7307  2.0213  0.7229
 1823SOL    HW216932   3.309   0.079   4.369 -1.3535  0.3399 -0.8692
 1824SOL     OW16933   0.186   0.080   4.423 -0.1214  0.1388 -0.6963
 1824SOL    HW116934   0.247   0.130   4.369  1.7850  0.4629  1.7148
 1824SOL    HW216935   0.209   0.104   4.513  0.8812  0.6192 -1.0726
 1825SOL     OW16936   3.710   2.539   8.855  0.4292  0.1810  0.0259
 1825SOL    HW116937   3.632   2.486   8.871 -1.6100  3.3433  0.5083
 1825SOL    HW216938   3.731   2.513   8.765  0.6080  3.8259 -1.0079
 1826SOL     OW16939   1.867   0.637   6.788  0.0538 -0.4664 -0.0492
 1826SOL    HW116940   1.829   0.687   6.861  1.1094  0.0560  0.1520
 1826SOL    HW216941   1.822   0.553   6.794  0.0742 -0.5241 -0.7095
 1827SOL     OW16942   3.478   1.281   4.707  1.0212 -0.0944  0.2735
 1827SOL    HW116943   3.567   1.317   4.716  0.9611  0.1550 -0.0994
 1827SOL    HW216944   3.423   1.359   4.703 -1.9641 -2.1172  2.4522
 1828SOL     OW16945   1.469   2.561   3.937 -0.2394 -0.4326 -0.0396
 1828SOL    HW116946   1.453   2.518   4.021 -0.0773 -2.1286 -0.8648
 1828SOL    HW216947   1.524   2.500   3.888  0.1462  1.1555 -1.5584
 1829SOL     OW16948   0.725   3.248  15.804 -0.1972  0.0856  0.3360
 1829SOL    HW116949   0.711   3.228  15.896 -0.4806  1.1249  0.5233
 1829SOL    HW216950   0.741   3.161  15.768 -0.5850 -0.1784  0.8022
 1830SOL     OW16951   1.288   0.781   2.269  0.0765  0.4312 -0.0085
 1830SOL    HW116952   1.260   0.872   2.281 -1.6290 -0.3295  1.7700
 1830SOL    HW216953   1.315   0.789   2.178 -0.7910 -0.9533 -0.3822
 1831SOL     OW16954   0.324   3.354   2.406 -0.1459  0.1163  0.4332
 1831SOL    HW116955   0.264   3.294   2.362 -1.1085  0.9089  0.6548
 1831SOL    HW216956   0.359   3.405   2.333 -1.0242  0.4965  0.2703
 1832SOL     OW16957   2.508   3.229   6.335  0.2343 -0.0893  0.0010
 1832SOL    HW116958   2.458   3.222   6.417  1.5246  1.1253  0.8811
 1832SOL    HW216959   2.444   3.247   6.265  0.1449 -0.3530  0.0128
 1833SOL     OW16960   1.888   1.662   9.726  0.2919  0.3638  0.5529
 1833SOL    HW116961   1.935   1.707   9.796 -2.3244  0.4397  2.2691
 1833SOL    HW216962   1.824   1.726   9.693 -0.3094 -0.4454  0.1595
 1834SOL     OW16963   3.006   2.779   3.341  0.1024  0.4630  0.7080
 1834SOL    HW116964   2.980   2.828   3.263 -0.4582  1.3936  1.4841
 1834SOL    HW216965   3.054   2.845   3.390 -0.3740  1.9560 -0.8177
 1835SOL     OW16966   1.730   2.146   1.626  0.0460  0.3913 -0.5223
 1835SOL    HW116967   1.787   2.069   1.619 -0.8247 -0.2731 -0.3720
 1835SOL    HW216968   1.734   2.170   1.534 -0.1859  0.5516 -0.4890
 1836SOL     OW16969   0.775   1.405   2.630  0.3871  0.3081 -0.2205
 1836SOL    HW116970   0.695   1.451   2.657  0.4429  0.1600  0.2049
 1836SOL    HW216971   0.743   1.356   2.555 -1.0834  1.6642 -0.4716
 1837SOL     OW16972   2.917   4.026  11.354  0.1358 -0.0669  0.3425
 1837SOL    HW116973   2.910   4.116  11.322 -0.5661 -0.5665 -0.9015
 1837SOL    HW216974   2.845   4.030  11.417  1.6751 -0.0752  2.0930
 1838SOL     OW16975   3.506   0.713  12.059  0.4722 -0.2749 -0.2826
 1838SOL    HW116976   3.477   0.764  11.983  0.7947  0.6514  0.2149
 1838SOL    HW216977   3.600   0.707  12.040  0.6150  0.5343  0.1325
 1839SOL     OW16978   3.495   4.463   3.298 -0.1689 -0.2264 -0.2156
 1839SOL    HW116979   3.478   4.488   3.388  0.4259  1.1422 -0.4922
 1839SOL    HW216980   3.591   4.467   3.295 -0.1353 -0.3561  0.8187
 1840SOL     OW16981   4.465   3.884   2.553 -0.5463  0.3889  0.5458
 1840SOL    HW116982   4.501   3.821   2.490 -0.0260 -0.1022  1.3363
 1840SOL    HW216983   4.387   3.834   2.577 -0.9468  0.9845  0.4727
 1841SOL     OW16984   3.623   0.960   4.763  0.2049 -0.2684 -0.0095
 1841SOL    HW116985   3.602   0.980   4.854 -0.5238  1.4810 -0.5699
 1841SOL    HW216986   3.637   0.865   4.763 -0.6535 -0.3913  0.4041
 1842SOL     OW16987   1.829   3.846   8.729  0.3762  0.2338  0.8033
 1842SOL    HW116988   1.917   3.878   8.751  1.2006 -0.1803 -1.8114
 1842SOL    HW216989   1.842   3.754   8.705 -1.2545 -0.0719  1.1158
 1843SOL     OW16990   1.168   3.321   9.553  0.2979 -0.3433  0.1281
 1843SOL    HW116991   1.157   3.338   9.647 -0.7147  0.6892 -0.1714
 1843SOL    HW216992   1.260   3.342   9.537 -0.4927  0.7862 -2.8837
 1844SOL     OW16993   2.547   3.902   3.637  0.1322  0.2619 -0.1778
 1844SOL    HW116994   2.474   3.960   3.617 -0.6596 -0.1786  1.4422
 1844SOL    HW216995   2.508   3.815   3.636 -1.3560  0.9277 -0.0706
 1845SOL     OW16996   0.359   3.294   6.794 -0.1987  0.1346 -0.2555
 1845SOL    HW116997   0.339   3.212   6.749 -2.0556 -0.6619  2.0664
 1845SOL    HW216998   0.448   3.281   6.828 -0.4635  2.2158  1.1935
 1846SOL     OW16999   3.317   1.203   4.416 -0.2361 -0.2750  0.3763
 1846SOL    HW117000   3.352   1.204   4.505  0.0731  1.1050  0.2256
 1846SOL    HW217001   3.302   1.109   4.404  0.7910 -0.0204 -2.6639
 1847SOL     OW17002   0.356   4.376   4.721  0.3292  0.1571  0.3241
 1847SOL    HW117003   0.423   4.430   4.680 -0.4471  1.8303  1.2900
 1847SOL    HW217004   0.356   4.297   4.666  0.0701  0.5632 -0.2624
 1848SOL     OW17005   1.124   4.631  12.201  0.4046  0.1960 -0.5861
 1848SOL    HW117006   1.044   4.587  12.172 -0.9557  0.6321  2.5165
 1848SOL    HW217007   1.084   4.696  12.258  0.3743 -1.0547  0.8119
 1849SOL     OW17008   1.381   2.478   9.461 -0.1039 -0.1597  0.2034
 1849SOL    HW117009   1.302   2.450   9.507 -0.7969 -0.8392 -1.3890
 1849SOL    HW217010   1.444   2.429   9.514  0.5005  1.6337  1.1603
 1850SOL     OW17011   0.111   2.105  14.354  0.3310  0.1758  0.3112
 1850SOL    HW117012   0.151   2.132  14.436  0.2706 -0.5883  0.5847
 1850SOL    HW217013   0.080   2.191  14.322 -1.7080 -0.9823 -0.8274
 1851SOL     OW17014   2.825   3.952  10.495  0.0289  0.1767  0.3082
 1851SOL    HW117015   2.915   3.920  10.493 -0.3608 -0.8584 -1.5053
 1851SOL    HW217016   2.790   3.889  10.558 -0.8173  1.4820  1.1286
 1852SOL     OW17017   1.899   1.469  14.944  0.4489 -0.2267  0.4267
 1852SOL    HW117018   1.891   1.407  14.871 -0.0132 -2.2991  2.2348
 1852SOL    HW217019   1.936   1.533  14.883 -1.7565  0.5924 -0.0551
 1853SOL     OW17020   4.684   1.645  12.966  0.3709 -0.1807  0.3445
 1853SOL    HW117021   4.637   1.651  13.049 -2.2378  0.8948 -1.2126
 1853SOL    HW217022   4.695   1.551  12.952 -0.9615 -0.4701  1.2520
 1854SOL     OW17023   2.658   1.681  10.172 -0.8060 -0.2501  0.0109
 1854SOL    HW117024   2.657   1.690  10.077  2.0659 -1.7733 -0.1749
 1854SOL    HW217025   2.641   1.588  10.186 -1.3676 -0.4447 -1.9721
 1855SOL     OW17026   2.758   0.520   6.203  0.9590 -0.2227 -0.3032
 1855SOL    HW117027   2.749   0.612   6.178  1.2491 -0.0132  0.3691
 1855SOL    HW217028   2.845   0.497   6.171  0.6406 -2.8078  0.6494
 1856SOL     OW17029   2.510   1.538   8.634 -0.6509 -0.7496 -0.3239
 1856SOL    HW117030   2.417   1.521   8.647 -0.2416 -0.3659  3.0970
 1856SOL    HW217031   2.557   1.455   8.630 -0.9135 -0.7976 -2.5871
 1857SOL     OW17032   0.314   2.188   2.834  0.5395  0.2141 -0.2685
 1857SOL    HW117033   0.378   2.256   2.815 -0.0117  0.8726  0.2388
 1857SOL    HW217034   0.302   2.188   2.929 -2.1679 -0.9893 -0.5887
 1858SOL     OW17035   3.152   3.768   3.202 -0.1296 -0.8432 -0.4923
 1858SOL    HW117036   3.204   3.734   3.275 -0.2746  0.2451  0.1256
 1858SOL    HW217037   3.227   3.785   3.145  1.1077 -2.2723  0.6841
 1859SOL     OW17038   1.614   0.084   0.193 -0.1253 -0.3886 -0.6364
 1859SOL    HW117039   1.709   0.081   0.206 -0.1030 -0.5794 -0.8444
 1859SOL    HW217040   1.621   0.131   0.110 -1.2404 -0.4691 -0.7808
 1860SOL     OW17041   0.740   3.511   4.739 -0.3401 -0.5962  0.0506
 1860SOL    HW117042   0.696   3.461   4.670 -1.0381  0.4763 -0.2881
 1860SOL    HW217043   0.810   3.547   4.684 -0.5505  0.6082  0.5669
 1861SOL     OW17044   3.599   3.071  15.987  0.2276  0.1924 -0.6045
 1861SOL    HW117045   3.680   3.120  15.998 -0.3289  0.7230  1.1252
 1861SOL    HW217046   3.598   3.064  15.892 -1.1717  0.2920 -0.5986
 1862SOL     OW17047   0.354   0.365   7.942 -0.0089  0.1291  0.0943
 1862SOL    HW117048   0.395   0.280   7.962  1.0653  0.6574  0.0965
 1862SOL    HW217049   0.336   0.395   8.031  0.2086 -2.6176  1.0770
 1863SOL     OW17050   4.688   0.698  16.361 -0.2310 -0.6184 -0.8654
 1863SOL    HW117051   0.011   0.672  16.279 -0.1294 -2.8694 -0.1226
 1863SOL    HW217052   4.702   0.792  16.355  2.3100 -1.1272 -3.0109
 1864SOL     OW17053   0.770   2.498   2.344  0.3863  0.1589 -0.7163
 1864SOL    HW117054   0.680   2.479   2.317  0.5460  0.4327 -1.4517
 1864SOL    HW217055   0.811   2.412   2.337  0.1865  0.0138 -0.0571
 1865SOL     OW17056   0.836   0.778   8.680  0.0733  0.0051 -0.1090
 1865SOL    HW117057   0.812   0.778   8.588 -1.5046  1.0351  0.2989
 1865SOL    HW217058   0.806   0.691   8.706 -0.4544  0.2322  0.0216
 1866SOL     OW17059   2.203   1.807  15.595 -0.1290  0.1308  0.0588
 1866SOL    HW117060   2.265   1.880  15.583  0.9551 -0.8133 -0.0328
 1866SOL    HW217061   2.248   1.723  15.594  0.8839  0.6765 -0.2870
 1867SOL     OW17062   4.676   3.658   6.246  0.1227  0.0308  0.0730
 1867SOL    HW117063   0.007   3.580   6.269  0.7840  0.7244  0.9653
 1867SOL    HW217064   4.712   3.737   6.285 -0.1715 -1.0336  2.4825
 1868SOL     OW17065   1.836   1.893  16.750  0.4479 -0.5092  0.1947
 1868SOL    HW117066   1.806   1.970  16.702  0.7440 -1.0542 -0.8745
 1868SOL    HW217067   1.758   1.876  16.802  0.4281 -1.5353 -0.1567
 1869SOL     OW17068   2.619   0.444   3.086 -0.5614  0.2718 -0.5662
 1869SOL    HW117069   2.714   0.442   3.070 -0.5423 -1.7659 -0.2230
 1869SOL    HW217070   2.610   0.519   3.144  0.8407 -1.2552  1.6624
 1870SOL     OW17071   0.040   2.569   1.183 -0.0995  0.7864 -0.0774
 1870SOL    HW117072   4.686   2.522   1.143  0.3303 -0.6715  0.8379
 1870SOL    HW217073   0.090   2.551   1.103  1.0921 -2.9301  1.4718
 1871SOL     OW17074   0.105   1.084   9.780  0.1104 -0.0330  0.4093
 1871SOL    HW117075   0.039   1.152   9.768 -0.5218 -0.1193  3.5329
 1871SOL    HW217076   0.053   1.005   9.796 -2.6408  2.2153  2.5100
 1872SOL     OW17077   3.915   3.414   8.349 -0.0925 -0.1782 -0.5717
 1872SOL    HW117078   3.929   3.403   8.255 -3.3118  0.6183 -1.1353
 1872SOL    HW217079   3.820   3.408   8.339 -0.0828 -0.7303 -0.3827
 1873SOL     OW17080   1.833   2.053   5.490 -0.1944  0.0839 -0.2495
 1873SOL    HW117081   1.910   2.085   5.442  1.7296 -2.1282  1.3726
 1873SOL    HW217082   1.866   1.966   5.513 -0.3468  0.0780 -0.0591
 1874SOL     OW17083   2.184   0.087  12.030  0.5052  0.3336 -0.0690
 1874SOL    HW117084   2.201   0.011  11.974 -3.8814 -0.3964 -0.4188
 1874SOL    HW217085   2.141   0.155  11.978  0.4164 -0.3329 -0.8563
 1875SOL     OW17086   1.865   2.150  12.280 -0.2445  0.6525 -0.7764
 1875SOL    HW117087   1.848   2.118  12.368  3.5444  1.6158  0.3041
 1875SOL    HW217088   1.775   2.136  12.251 -0.4479 -0.6397  0.5263
 1876SOL     OW17089   4.496   1.741   8.314 -0.7131  0.3519  0.7427
 1876SOL    HW117090   4.471   1.833   8.315 -0.4565  0.4471 -1.0317
 1876SOL    HW217091   4.544   1.733   8.232 -0.7770  0.9301  0.6499
 1877SOL     OW17092   3.176   4.282   0.206 -0.2463 -0.5838 -0.5212
 1877SOL    HW117093   3.256   4.240   0.175  0.6398  0.0564  0.9693
 1877SOL    HW217094   3.139   4.197   0.232 -0.2924 -0.7330 -1.0687
 1878SOL     OW17095   1.572   1.975   6.379  0.1763  0.1914  0.2156
 1878SOL    HW117096   1.625   2.038   6.330  1.2604 -0.4670  0.5180
 1878SOL    HW217097   1.515   1.939   6.311  1.4756 -2.0584  0.2728
 1879SOL     OW17098   3.178   0.748   0.114 -0.0454  0.3242  0.0258
 1879SOL    HW117099   3.187   0.838   0.083 -0.6188 -0.0436 -1.2370
 1879SOL    HW217100   3.114   0.758   0.185  2.1125 -0.6615  2.1150
 1880SOL     OW17101   4.233   2.827   8.559 -0.1093  0.6808  0.5894
 1880SOL    HW117102   4.164   2.799   8.499  1.3052 -1.1010 -0.1915
 1880SOL    HW217103   4.254   2.741   8.596 -1.1247  0.1213 -0.1384
 1881SOL     OW17104   3.281   0.506   0.045  0.2787  0.6550  0.2400
 1881SOL    HW117105   3.246   0.590   0.072 -0.7022 -0.2329  1.7294
 1881SOL    HW217106   3.249   0.512  17.636  0.1728  1.3199  0.3244
 1882SOL     OW17107   1.424   1.589   3.907 -0.2229  0.0086  0.5417
 1882SOL    HW117108   1.451   1.653   3.841  1.0869  0.1558  1.2289
 1882SOL    HW217109   1.412   1.648   3.981  0.8917  0.7877  0.0893
 1883SOL     OW17110   4.349   0.687  17.235 -0.3692  0.2662  0.2388
 1883SOL    HW117111   4.269   0.697  17.184 -0.3518  2.1042  0.5427
 1883SOL    HW217112   4.368   0.594  17.238 -0.8089  0.1349 -1.2733
 1884SOL     OW17113   3.184   3.649  13.407  0.1892  0.1075 -0.2722
 1884SOL    HW117114   3.221   3.603  13.482  0.0095 -1.4561 -1.1645
 1884SOL    HW217115   3.094   3.671  13.432  1.4927  3.1476  1.7268
 1885SOL     OW17116   2.274   3.135   1.994  0.2077 -0.0935 -0.1068
 1885SOL    HW117117   2.256   3.228   1.980 -0.2915  0.0101  1.2215
 1885SOL    HW217118   2.244   3.092   1.914  3.8045  0.3008 -1.6544
 1886SOL     OW17119   1.666   1.999  17.570 -0.3584 -0.6602  0.1104
 1886SOL    HW117120   1.717   1.918  17.561  2.6279  1.4405 -1.7534
 1886SOL    HW217121   1.582   1.962  17.596  0.3795 -1.3238  1.5641
 1887SOL     OW17122   3.760   3.076   1.212  0.1235 -0.3100 -0.0964
 1887SOL    HW117123   3.805   3.104   1.133 -0.7931  1.3062 -0.0540
 1887SOL    HW217124   3.667   3.062   1.195 -0.6325  1.9143  2.0587
 1888SOL     OW17125   3.273   1.456  14.300  0.0079 -0.2130  0.3300
 1888SOL    HW117126   3.281   1.450  14.204  0.6274  2.2813  0.2208
 1888SOL    HW217127   3.224   1.376  14.315  1.4736 -0.9550  1.1503
 1889SOL     OW17128   4.478   2.194  11.326 -0.1213 -0.0250 -0.2064
 1889SOL    HW117129   4.482   2.275  11.275 -0.4472  0.6776  0.8809
 1889SOL    HW217130   4.413   2.137  11.285  0.3276 -3.3439  3.6750
 1890SOL     OW17131   2.003   4.164   3.136  0.1505 -0.1048  0.6830
 1890SOL    HW117132   1.928   4.151   3.195  0.1953 -2.5254  0.2201
 1890SOL    HW217133   1.955   4.193   3.058  0.2478 -4.4657 -1.0262
 1891SOL     OW17134   2.144   3.402   0.021 -0.4157 -0.9144 -0.0050
 1891SOL    HW117135   2.108   3.462  17.636  2.3971  0.7739  0.0128
 1891SOL    HW217136   2.075   3.338   0.038 -1.5934  0.8296  1.8093
 1892SOL     OW17137   0.203   2.752  10.760  0.4941 -0.4407  0.1309
 1892SOL    HW117138   0.247   2.827  10.721  0.2202  1.5643  3.6586
 1892SOL    HW217139   0.111   2.770  10.740  0.8755  0.1215 -1.0733
 1893SOL     OW17140   1.243   0.899   7.579 -0.2603  0.0102 -0.0559
 1893SOL    HW117141   1.338   0.913   7.575 -0.3879  1.0583  0.7808
 1893SOL    HW217142   1.225   0.891   7.672  0.5599 -1.9687 -0.0646
 1894SOL     OW17143   3.052   0.631   8.823 -0.0054  0.4846  0.2952
 1894SOL    HW117144   3.072   0.681   8.744  0.1991  0.3165  0.2421
 1894SOL    HW217145   3.052   0.706   8.882  0.9160 -0.8917  2.0378
 1895SOL     OW17146   2.084   2.520   3.504  0.3931  0.2106  0.3850
 1895SOL    HW117147   2.127   2.476   3.431  0.3970 -1.7122  1.5316
 1895SOL    HW217148   2.163   2.547   3.551 -0.7036 -0.3311  2.5245
 1896SOL     OW17149   3.704   3.113   4.370  0.5646  0.4709 -0.3149
 1896SOL    HW117150   3.657   3.193   4.345 -0.8209 -1.0986 -2.6923
 1896SOL    HW217151   3.636   3.048   4.353  0.7409  0.4144 -0.7862
 1897SOL     OW17152   3.570   0.138  13.109  0.6898 -0.0645 -0.0589
 1897SOL    HW117153   3.615   0.128  13.025 -1.2251 -0.6491 -1.0369
 1897SOL    HW217154   3.596   0.062  13.161 -1.0766 -1.6213 -1.4460
 1898SOL     OW17155   1.769   3.957   8.975  0.0788 -0.0321  0.3714
 1898SOL    HW117156   1.812   4.041   8.966 -0.1628  0.2774  2.0902
 1898SOL    HW217157   1.748   3.933   8.885 -1.8088  0.7372  0.6026
 1899SOL     OW17158   0.742   3.665   6.105 -0.7897 -0.3843  0.1649
 1899SOL    HW117159   0.790   3.731   6.155 -1.8927  2.0992 -2.0390
 1899SOL    HW217160   0.794   3.588   6.124  0.4956  0.2701 -0.7466
 1900SOL     OW17161   4.580   1.046  11.772 -0.1266  0.3994 -0.5642
 1900SOL    HW117162   4.602   1.122  11.719  0.5229  0.4144 -0.2596
 1900SOL    HW217163   4.499   1.019  11.727  0.2033  1.3561 -1.7285
 1901SOL     OW17164   2.303   3.633   0.111 -0.4105  0.1253  0.2091
 1901SOL    HW117165   2.249   3.553   0.111  0.5548 -0.5294  1.3747
 1901SOL    HW217166   2.370   3.606   0.174  0.5997  0.3350 -0.7695
 1902SOL     OW17167   4.617   1.404   2.458 -0.0600  0.1846  0.6805
 1902SOL    HW117168   4.560   1.479   2.444  0.0842  0.4173  1.3417
 1902SOL    HW217169   4.656   1.396   2.371  2.1897  0.1888  1.6857
 1903SOL     OW17170   3.387   1.033   4.661  0.0033 -0.2422  0.0088
 1903SOL    HW117171   3.397   1.125   4.687  0.1783  0.5466 -2.8000
 1903SOL    HW217172   3.471   1.004   4.698  1.7477  1.5697 -2.4802
 1904SOL     OW17173   2.403   1.088   8.992 -0.2099 -0.0836 -0.1269
 1904SOL    HW117174   2.363   1.025   9.053  0.4238 -0.9970 -0.6459
 1904SOL    HW217175   2.487   1.113   9.032  0.5998 -3.1275  0.1454
 1905SOL     OW17176   3.116   3.276   2.487  0.0993 -0.1697  0.2625
 1905SOL    HW117177   3.071   3.339   2.431 -0.4518  1.0466  2.0799
 1905SOL    HW217178   3.166   3.223   2.425 -0.6105  0.1403 -0.5729
 1906SOL     OW17179   0.260   4.220   5.929  0.3754 -0.3146  0.6497
 1906SOL    HW117180   0.233   4.308   5.903  0.4132 -0.0616  1.4559
 1906SOL    HW217181   0.346   4.255   5.953  1.4732 -2.3678 -0.3338
 1907SOL     OW17182   4.204   1.172   8.851  0.0934 -0.1960  0.1910
 1907SOL    HW117183   4.131   1.115   8.874  0.0538  0.1676  0.9422
 1907SOL    HW217184   4.210   1.138   8.762  0.5290 -1.5095  0.7272
 1908SOL     OW17185   3.830   2.043   5.871 -0.7023  0.1445 -0.8232
 1908SOL    HW117186   3.903   2.017   5.927 -3.1536  0.0652  2.3236
 1908SOL    HW217187   3.791   1.959   5.848  0.3255 -0.7972  0.8786
 1909SOL     OW17188   2.028   3.377   0.966  0.1403 -0.0077  0.1425
 1909SOL    HW117189   1.998   3.322   0.893 -1.0013  0.4304  0.2858
 1909SOL    HW217190   2.121   3.371   0.942  0.0447 -0.4429 -0.1306
 1910SOL     OW17191   2.510   2.870  15.815 -0.4456 -0.3031  0.2643
 1910SOL    HW117192   2.454   2.934  15.771  0.7624  1.6880  1.6202
 1910SOL    HW217193   2.583   2.869  15.752  0.2847 -1.6729  1.1488
 1911SOL     OW17194   3.971   0.659   2.010 -0.0615  0.2641  0.2835
 1911SOL    HW117195   4.005   0.640   2.098 -2.1159 -0.8541  0.8365
 1911SOL    HW217196   4.032   0.727   1.980  0.6663 -0.9070 -0.9233
 1912SOL     OW17197   2.054   2.103   5.339 -0.7044 -1.0307  0.0170
 1912SOL    HW117198   2.054   2.182   5.285  1.9479  0.5967  2.3485
 1912SOL    HW217199   2.143   2.121   5.371 -1.1432  1.4857 -0.2052
 1913SOL     OW17200   3.210   0.295   7.207  0.1191  0.1970  0.1742
 1913SOL    HW117201   3.292   0.246   7.214 -1.1516 -1.6123  2.3558
 1913SOL    HW217202   3.157   0.227   7.248 -1.5109  1.1511 -0.3679
 1914SOL     OW17203   3.207   0.316  15.364  0.0868 -0.9687  0.0977
 1914SOL    HW117204   3.162   0.249  15.415  1.9414 -2.8080 -0.6510
 1914SOL    HW217205   3.248   0.259  15.298 -0.3870  0.7036 -1.6447
 1915SOL     OW17206   2.405   1.371   5.882 -0.6070  0.0277 -0.0765
 1915SOL    HW117207   2.428   1.371   5.975 -4.1255  0.7449  0.8226
 1915SOL    HW217208   2.433   1.457   5.850  0.5112  0.3136  1.6715
 1916SOL     OW17209   0.148   1.628   4.440  0.0331  0.1221 -0.0798
 1916SOL    HW117210   0.089   1.599   4.509  0.9561 -1.2720  0.1313
 1916SOL    HW217211   0.210   1.554   4.440 -0.5534 -0.3722  0.6585
 1917SOL     OW17212   0.311   0.730   1.413  0.0993 -0.5259 -0.1453
 1917SOL    HW117213   0.263   0.800   1.368 -1.3509 -1.1117  0.5068
 1917SOL    HW217214   0.266   0.654   1.374  0.6629 -1.0775  0.2746
 1918SOL     OW17215   1.050   2.317   7.337  0.4680  0.6679  0.3743
 1918SOL    HW117216   1.102   2.375   7.394  0.8316  0.4005  0.3177
 1918SOL    HW217217   1.122   2.271   7.294  1.0893  0.4527  1.6361
 1919SOL     OW17218   1.037   4.557   2.030 -0.0624  0.5263 -0.6918
 1919SOL    HW117219   1.097   4.490   2.062  0.6350  1.4702 -0.0108
 1919SOL    HW217220   1.085   4.639   2.017  0.0567  0.4862 -0.5096
 1920SOL     OW17221   4.542   1.356  13.062  0.2178  0.2265  0.5969
 1920SOL    HW117222   4.482   1.414  13.109  0.4509 -0.8403  2.2322
 1920SOL    HW217223   4.622   1.388  13.102  0.6129  0.7504 -0.6358
 1921SOL     OW17224   0.523   3.228  15.184 -0.2037  0.1283 -0.0550
 1921SOL    HW117225   0.498   3.168  15.113  0.8890 -1.5647  0.9798
 1921SOL    HW217226   0.563   3.310  15.155  1.4918 -1.5094 -2.3165
 1922SOL     OW17227   1.634   1.740   7.793  0.0825  0.1041 -0.2021
 1922SOL    HW117228   1.655   1.748   7.700  3.0484 -0.0764  0.4450
 1922SOL    HW217229   1.575   1.665   7.785 -1.8307  1.3484  2.3304
 1923SOL     OW17230   3.636   2.532   2.599 -0.2032  0.9567 -0.0595
 1923SOL    HW117231   3.561   2.487   2.559 -1.7397  0.0765  3.7625
 1923SOL    HW217232   3.675   2.562   2.517 -2.9137 -2.8771 -2.7764
 1924SOL     OW17233   0.537   2.007   8.978  0.1848  0.5708 -0.3049
 1924SOL    HW117234   0.477   1.950   8.929  0.3773  0.7212 -0.7106
 1924SOL    HW217235   0.520   1.984   9.069  0.1232  1.5639 -0.0672
 1925SOL     OW17236   1.993   1.951   1.907  0.6490  0.9281  0.3608
 1925SOL    HW117237   1.971   2.038   1.940  2.4428  1.1652  0.8979
 1925SOL    HW217238   2.004   1.903   1.989 -0.5100 -0.8204 -0.4945
 1926SOL     OW17239   1.270   0.691   8.050  0.6856  0.1982  0.0743
 1926SOL    HW117240   1.218   0.740   8.114 -0.6978  1.3976 -1.9683
 1926SOL    HW217241   1.362   0.698   8.076  0.7822  1.0554 -0.4822
 1927SOL     OW17242   2.454   3.589  13.276 -0.2436 -0.0109  0.1905
 1927SOL    HW117243   2.389   3.584  13.206  1.2202  2.8595 -1.3769
 1927SOL    HW217244   2.403   3.555  13.349  1.6635 -0.1864  1.4387
 1928SOL     OW17245   1.693   0.788  15.498 -0.2464  1.1066  0.7647
 1928SOL    HW117246   1.770   0.758  15.449 -0.0133  1.5597  0.8513
 1928SOL    HW217247   1.648   0.832  15.426 -0.3116 -0.9633 -0.4425
 1929SOL     OW17248   1.619   1.416   5.600  0.0772  0.4227  0.3389
 1929SOL    HW117249   1.586   1.505   5.608  1.0306  1.0783 -3.0997
 1929SOL    HW217250   1.566   1.386   5.526 -1.4512  1.0568  1.1701
 1930SOL     OW17251   1.975   3.377   1.340  0.1216  0.4422 -0.2965
 1930SOL    HW117252   1.886   3.343   1.340  0.4650 -0.4512 -0.0305
 1930SOL    HW217253   2.019   3.316   1.282 -2.2680 -1.8517  0.3001
 1931SOL     OW17254   4.681   4.329  16.002 -0.4821 -0.6143  0.3123
 1931SOL    HW117255   4.708   4.406  15.952 -2.4839  0.2969  0.6514
 1931SOL    HW217256   4.588   4.341  16.019 -1.0197 -3.1795 -0.7199
 1932SOL     OW17257   2.415   3.413   4.030 -0.2103  0.1046  0.3441
 1932SOL    HW117258   2.371   3.403   4.114  0.4467  0.9087  0.7820
 1932SOL    HW217259   2.346   3.392   3.967 -0.4929 -2.0629  1.4036
 1933SOL     OW17260   0.498   4.360   5.966  0.7261  0.6877  0.1445
 1933SOL    HW117261   0.542   4.394   6.043  1.4005 -1.9303  0.9326
 1933SOL    HW217262   0.508   4.438   5.912 -0.3454  1.4752  1.0878
 1934SOL     OW17263   2.358   3.917  10.311  0.3152 -0.0517  0.0035
 1934SOL    HW117264   2.298   3.859  10.262  1.3885 -1.7600  0.7196
 1934SOL    HW217265   2.308   3.998  10.323  1.8712  0.6364  1.6222
 1935SOL     OW17266   0.049   2.669   0.704  0.0493  0.5979 -0.7830
 1935SOL    HW117267   0.096   2.752   0.693 -2.6545  1.9201 -2.3523
 1935SOL    HW217268   4.681   2.705   0.693 -0.1881  0.0375 -0.7249
 1936SOL     OW17269   1.451   1.455  15.267  0.1661  0.6209 -0.4863
 1936SOL    HW117270   1.493   1.516  15.326 -0.0804  1.2232 -0.9355
 1936SOL    HW217271   1.372   1.423  15.310  0.9194 -1.1325 -0.4025
 1937SOL     OW17272   0.718   2.326   2.071  0.2767  0.8026 -0.1695
 1937SOL    HW117273   0.651   2.327   2.138  1.1484 -0.7332  0.7169
 1937SOL    HW217274   0.679   2.390   2.010  0.3510  0.4661 -0.5742
 1938SOL     OW17275   0.121   0.136   7.057  0.7562 -0.2055 -0.2743
 1938SOL    HW117276   0.059   0.206   7.079  2.3376  1.8006 -2.2752
 1938SOL    HW217277   0.187   0.187   7.010  1.0170  1.4712  1.8711
 1939SOL     OW17278   2.855   1.294   4.984  0.4774 -0.3989  0.0006
 1939SOL    HW117279   2.948   1.276   4.968  0.4831 -1.3680  1.1372
 1939SOL    HW217280   2.843   1.385   4.956  0.3333 -0.7567 -1.0920
 1940SOL     OW17281   3.603   1.520   2.672 -0.3273  0.2388 -0.1022
 1940SOL    HW117282   3.597   1.439   2.723 -0.9634  1.0594  1.1205
 1940SOL    HW217283   3.642   1.483   2.592 -0.0051 -1.6294  0.9250
 1941SOL     OW17284   0.277   0.566   7.317  0.0844 -0.0797  0.1931
 1941SOL    HW117285   0.252   0.646   7.365  1.6822  1.2288 -1.1633
 1941SOL    HW217286   0.293   0.599   7.229  2.3264 -1.6878  0.0204
 1942SOL     OW17287   2.767   2.306   5.599 -0.1993  0.3541 -0.1361
 1942SOL    HW117288   2.803   2.380   5.647 -0.8167  0.4069  0.2492
 1942SOL    HW217289   2.839   2.244   5.605 -0.2659  0.1706 -1.2050
 1943SOL     OW17290   3.341   1.427   9.601 -0.4920  0.2574  0.0058
 1943SOL    HW117291   3.331   1.333   9.613  0.8898 -0.1303 -1.8784
 1943SOL    HW217292   3.388   1.439   9.518  0.1116  1.4731  0.5245
 1944SOL     OW17293   1.006   1.672   8.005 -0.8666 -0.0487 -0.3878
 1944SOL    HW117294   1.050   1.708   7.928 -1.1861  0.5034 -0.3185
 1944SOL    HW217295   1.085   1.648   8.053 -0.5955 -1.9871 -1.8378
 1945SOL     OW17296   0.369   2.790   5.794 -0.2048  0.1563  0.1016
 1945SOL    HW117297   0.409   2.733   5.859 -1.1182 -1.5835 -0.8679
 1945SOL    HW217298   0.346   2.867   5.846 -2.4866 -2.5310  3.0402
 1946SOL     OW17299   3.662   1.844   6.633 -0.4954 -0.0890  0.0497
 1946SOL    HW117300   3.634   1.881   6.717  0.7509 -1.5891  1.1131
 1946SOL    HW217301   3.577   1.828   6.593 -0.4745  1.5598 -0.6780
 1947SOL     OW17302   2.259   3.334   3.134 -0.3383  0.0472 -0.2441
 1947SOL    HW117303   2.283   3.367   3.047  2.4628 -0.2312  0.4195
 1947SOL    HW217304   2.197   3.395   3.174  0.8519  1.4276 -0.4877
 1948SOL     OW17305   4.160   0.587   4.420  0.1314 -0.2609  1.1053
 1948SOL    HW117306   4.248   0.554   4.402  1.2350  1.5967  3.0927
 1948SOL    HW217307   4.137   0.528   4.493 -1.0007 -0.8783  0.2442
 1949SOL     OW17308   1.102   4.559   1.659 -0.3028 -0.0832 -0.6281
 1949SOL    HW117309   1.095   4.604   1.574 -0.1189  1.4464  0.1673
 1949SOL    HW217310   1.193   4.530   1.646  0.3075  1.3699  0.3796
 1950SOL     OW17311   4.709   0.539   3.974 -0.0145  0.5474 -0.6053
 1950SOL    HW117312   4.699   0.502   3.887 -1.5725 -0.3632 -0.0429
 1950SOL    HW217313   0.062   0.487   4.009 -2.1709 -0.2271  2.7674
 1951SOL     OW17314   2.305   2.442   6.912  0.2544  0.3842 -0.2763
 1951SOL    HW117315   2.318   2.359   6.867 -0.4377  0.1679 -0.0878
 1951SOL    HW217316   2.229   2.477   6.865  1.2992 -0.9121 -2.8708
 1952SOL     OW17317   1.362   2.325   3.536 -0.0404 -0.5626 -0.3147
 1952SOL    HW117318   1.269   2.338   3.518 -0.4637 -0.5578  1.8228
 1952SOL    HW217319   1.373   2.230   3.542 -0.8641 -0.6845 -0.7723
 1953SOL     OW17320   0.113   0.303   2.172 -0.2314  0.3024 -0.3899
 1953SOL    HW117321   0.133   0.249   2.096  2.4629 -2.2088  2.0789
 1953SOL    HW217322   0.058   0.240   2.219  0.5524  0.6100  0.9207
 1954SOL     OW17323   3.919   3.129   6.549 -0.4488  0.4822  0.1557
 1954SOL    HW117324   3.841   3.088   6.512 -1.0151  0.8573  0.9263
 1954SOL    HW217325   3.881   3.173   6.625  0.1183 -0.1412  0.8070
 1955SOL     OW17326   3.683   2.097  15.960  0.5318 -0.0225 -0.4828
 1955SOL    HW117327   3.668   2.004  15.980  0.5060  0.1988  0.5499
 1955SOL    HW217328   3.595   2.104  15.923  0.3162 -2.8275 -0.5160
 1956SOL     OW17329   3.310   0.591   6.969 -0.1040  0.1229 -0.5274
 1956SOL    HW117330   3.370   0.606   7.042  0.1327  1.6392 -1.0276
 1956SOL    HW217331   3.311   0.682   6.938 -2.1313  1.1281  2.3583
 1957SOL     OW17332   4.265   0.966   3.109  0.1033  0.1080  0.2947
 1957SOL    HW117333   4.219   0.960   3.194 -0.2821 -0.5304  0.0423
 1957SOL    HW217334   4.237   1.053   3.082  0.4846  0.2553  0.3824
 1958SOL     OW17335   4.399   3.437   7.497  0.0813 -0.9255  0.8347
 1958SOL    HW117336   4.371   3.433   7.405 -0.6137  0.9435  0.9817
 1958SOL    HW217337   4.485   3.396   7.483  1.9544  3.0372  0.9150
 1959SOL     OW17338   2.843   0.837   7.135  0.2232 -0.2896  0.0182
 1959SOL    HW117339   2.936   0.816   7.146  0.0166  0.0724  2.4801
 1959SOL    HW217340   2.806   0.751   7.156  1.1773 -1.2968 -2.3866
 1960SOL     OW17341   2.848   4.287   3.559 -0.0009 -1.0350  0.2399
 1960SOL    HW117342   2.765   4.314   3.520 -0.5938 -2.7767  0.2814
 1960SOL    HW217343   2.828   4.194   3.569  0.5786 -0.9713  2.1028
 1961SOL     OW17344   3.862   4.010   4.598  0.2027 -0.2877 -0.2722
 1961SOL    HW117345   3.790   3.960   4.559 -0.2727  1.3788 -1.5232
 1961SOL    HW217346   3.846   4.008   4.692 -0.1998 -1.6943 -0.3666
 1962SOL     OW17347   0.177   0.642   2.488 -0.1980  0.8645  0.0203
 1962SOL    HW117348   0.212   0.727   2.460  1.8629  1.3041  4.0150
 1962SOL    HW217349   0.160   0.605   2.401  0.8843 -2.2173  1.1332
 1963SOL     OW17350   3.168   1.817   9.718  0.2133  0.7903  0.4796
 1963SOL    HW117351   3.146   1.876   9.645  1.3479  1.2990  0.5396
 1963SOL    HW217352   3.148   1.878   9.790  1.0999  1.7707 -0.0965
 1964SOL     OW17353   4.206   2.740   4.546  0.4570  0.3163 -0.0046
 1964SOL    HW117354   4.150   2.757   4.623 -1.1949  0.3071 -1.1971
 1964SOL    HW217355   4.202   2.647   4.523  0.1541  0.2243  0.4100
 1965SOL     OW17356   3.082   3.164  15.370  0.3659 -0.1887 -0.1757
 1965SOL    HW117357   3.077   3.224  15.445  1.3681  0.3074 -0.5018
 1965SOL    HW217358   3.103   3.226  15.299  0.2852  1.3481  1.1440
 1966SOL     OW17359   0.906   3.248   8.362  0.1971  0.3435  0.0986
 1966SOL    HW117360   0.998   3.269   8.374  0.7703 -2.3993  0.4863
 1966SOL    HW217361   0.886   3.249   8.455 -0.1475 -2.2633  0.0572
 1967SOL     OW17362   2.887   3.111  15.670  0.0398 -0.7711  0.3215
 1967SOL    HW117363   2.899   3.017  15.683  0.8683 -0.6289  0.5991
 1967SOL    HW217364   2.979   3.139  15.675 -0.6398  1.3048  1.2067
 1968SOL     OW17365   2.083   0.910  14.584  0.4177 -0.6224 -0.2376
 1968SOL    HW117366   2.114   0.824  14.613  2.3095  0.0509 -0.2701
 1968SOL    HW217367   2.064   0.897  14.492 -0.5405 -0.4266 -0.0698
 1969SOL     OW17368   3.140   1.114   2.037  0.6803  0.4680 -0.4648
 1969SOL    HW117369   3.143   1.059   1.958  0.2375 -1.3557  0.8024
 1969SOL    HW217370   3.046   1.130   2.038  0.5418 -0.3149 -0.5663
 1970SOL     OW17371   1.285   3.507   7.970  0.1244  0.3685  0.0819
 1970SOL    HW117372   1.233   3.549   7.902  1.0261  0.9267 -0.2638
 1970SOL    HW217373   1.359   3.474   7.919  0.1867 -0.3866  0.6693
 1971SOL     OW17374   3.420   3.824   1.054  0.2839 -0.1863 -0.1077
 1971SOL    HW117375   3.366   3.754   1.017  1.6940 -0.9381 -0.7518
 1971SOL    HW217376   3.360   3.899   1.058  0.5587  0.1104 -1.5178
 1972SOL     OW17377   4.002   3.866  17.522  0.1704 -0.6441 -0.1055
 1972SOL    HW117378   4.025   3.785  17.477 -1.4243 -1.0201 -0.2571
 1972SOL    HW217379   4.022   3.837  17.611  2.0237  2.6728  0.5796
 1973SOL     OW17380   2.946   3.187   9.117 -0.4261  0.2311  0.0536
 1973SOL    HW117381   2.896   3.263   9.147 -0.2350  0.8356 -1.1537
 1973SOL    HW217382   2.889   3.124   9.160 -0.1296 -1.1168 -1.5422
 1974SOL     OW17383   1.855   4.319  14.769  0.0594  0.0397 -0.0829
 1974SOL    HW117384   1.889   4.232  14.750 -1.3996 -0.3965 -0.7033
 1974SOL    HW217385   1.930   4.351  14.818 -0.7200  0.1160  1.0667
 1975SOL     OW17386   2.033   3.709  11.892  0.0178 -0.2582  0.0797
 1975SOL    HW117387   1.976   3.745  11.824 -1.4596  0.1668  1.5446
 1975SOL    HW217388   2.113   3.749  11.857 -0.3898  0.9160  0.4734
 1976SOL     OW17389   2.854   3.092   8.319 -0.1230 -0.0684 -0.7498
 1976SOL    HW117390   2.934   3.077   8.369  0.0589 -1.1795 -1.3719
 1976SOL    HW217391   2.883   3.158   8.257 -1.2999 -1.5285 -2.8647
 1977SOL     OW17392   1.766   3.757   1.691 -0.2616 -0.0886  0.0481
 1977SOL    HW117393   1.744   3.683   1.634  0.4005  0.7163 -1.2462
 1977SOL    HW217394   1.861   3.756   1.678 -0.1999  0.0403  0.4787
 1978SOL     OW17395   4.026   1.298  14.238  0.1750 -0.6600  0.1693
 1978SOL    HW117396   4.098   1.236  14.232  2.3769  2.2626 -3.1638
 1978SOL    HW217397   4.044   1.351  14.162  2.2175 -1.8266 -0.1467
 1979SOL     OW17398   1.660   1.672  11.848  0.7367 -0.0652 -0.2547
 1979SOL    HW117399   1.591   1.609  11.826 -1.8857  2.0194  2.0952
 1979SOL    HW217400   1.737   1.619  11.869  0.8738 -0.0922 -0.8231
 1980SOL     OW17401   1.389   1.089   0.232  0.7729  0.3056 -0.5151
 1980SOL    HW117402   1.467   1.134   0.198  0.9456 -0.5334 -1.2096
 1980SOL    HW217403   1.386   1.012   0.175 -3.5704 -0.2946  0.5670
 1981SOL     OW17404   1.796   0.727   9.562  0.0619 -0.6832  0.3973
 1981SOL    HW117405   1.802   0.732   9.467 -1.7392 -0.4365  0.3070
 1981SOL    HW217406   1.849   0.802   9.588  1.6512 -2.2026  1.6208
 1982SOL     OW17407   4.718   4.617  10.324 -0.4555  0.5364 -0.4926
 1982SOL    HW117408   4.674   4.699  10.299 -0.7977  0.0179 -1.5796
 1982SOL    HW217409   0.016   4.628  10.418 -1.3700  1.8825 -0.4675
 1983SOL     OW17410   0.482   3.095   8.977  0.3545 -0.2334 -0.3082
 1983SOL    HW117411   0.469   3.122   8.886  0.2851  0.7675  0.0010
 1983SOL    HW217412   0.404   3.141   9.006 -0.1455 -1.5243  0.3637
 1984SOL     OW17413   1.850   2.698   2.414 -1.1480 -0.5442  0.0025
 1984SOL    HW117414   1.927   2.740   2.374 -1.4433 -1.4107 -1.4994
 1984SOL    HW217415   1.795   2.776   2.408 -0.1497  0.2452  0.9436
 1985SOL     OW17416   0.552   0.468  11.068 -0.2765 -0.1381 -0.1116
 1985SOL    HW117417   0.504   0.454  10.987  1.2034  0.7544 -1.1450
 1985SOL    HW217418   0.627   0.409  11.066  0.4385  0.7373  0.5001
 1986SOL     OW17419   3.056   4.411   6.638  0.0414 -0.4830 -0.9353
 1986SOL    HW117420   3.096   4.498   6.637  2.3088 -1.5171  0.4408
 1986SOL    HW217421   2.963   4.423   6.658  0.4047  0.7302  0.0962
 1987SOL     OW17422   3.125   0.210  11.089  0.5448 -0.2277 -0.5859
 1987SOL    HW117423   3.100   0.135  11.036  1.3315 -0.5288 -0.5211
 1987SOL    HW217424   3.069   0.285  11.066 -0.2218 -1.1242 -1.6123
 1988SOL     OW17425   4.198   1.914   7.618  0.2277 -0.4242 -0.0657
 1988SOL    HW117426   4.169   1.976   7.685  0.5474  1.2651 -1.4865
 1988SOL    HW217427   4.134   1.940   7.553  0.4741 -1.6366 -0.7800
 1989SOL     OW17428   4.030   3.704  11.128 -0.6278 -1.1823 -0.4494
 1989SOL    HW117429   3.939   3.696  11.157 -0.7490  3.1143  0.2667
 1989SOL    HW217430   4.070   3.629  11.173  0.0411 -0.3309  0.3915
 1990SOL     OW17431   4.233   4.145  17.365 -0.7419  0.4746 -0.1373
 1990SOL    HW117432   4.194   4.150  17.452  0.3477  2.5799  0.2318
 1990SOL    HW217433   4.167   4.181  17.307 -0.6543 -1.0575 -1.1901
 1991SOL     OW17434   2.444   4.352  11.610  0.1435 -0.0395  0.3141
 1991SOL    HW117435   2.439   4.425  11.672 -0.5536  1.8893 -2.0009
 1991SOL    HW217436   2.438   4.397  11.526 -2.0892 -2.5855 -0.8487
 1992SOL     OW17437   1.266   2.120   6.925  0.0953  0.4686  0.3113
 1992SOL    HW117438   1.341   2.173   6.898  1.1019  0.1315  2.4115
 1992SOL    HW217439   1.249   2.078   6.841  0.8403 -1.8521  1.3049
 1993SOL     OW17440   1.138   0.369  16.006  0.1350 -0.1827 -0.2501
 1993SOL    HW117441   1.114   0.338  16.093 -1.1319 -0.6290 -0.7717
 1993SOL    HW217442   1.083   0.317  15.948  0.5523 -1.2040  0.2798
 1994SOL     OW17443   4.303   2.014  15.000 -0.8030  0.3547 -0.0044
 1994SOL    HW117444   4.387   2.050  15.030 -0.8878  0.4131  0.1629
 1994SOL    HW217445   4.239   2.077  15.032 -1.4803  0.4264 -1.5063
 1995SOL     OW17446   3.807   4.496   6.453 -0.2936 -0.5419  0.4154
 1995SOL    HW117447   3.877   4.432   6.456  1.5705  1.4492 -0.6247
 1995SOL    HW217448   3.850   4.575   6.487 -1.4109 -0.9568  2.8512
 1996SOL     OW17449   3.449   0.730  10.117  0.4634  0.8273 -0.6615
 1996SOL    HW117450   3.490   0.763  10.037  0.6986 -1.1772 -1.3702
 1996SOL    HW217451   3.355   0.748  10.113  0.2153 -0.0256  1.3281
 1997SOL     OW17452   2.088   4.121   7.568 -0.1476 -0.4266 -0.0994
 1997SOL    HW117453   2.120   4.107   7.657  0.1329 -1.5749 -0.3840
 1997SOL    HW217454   2.167   4.116   7.515 -0.0734  1.0350 -0.1125
 1998SOL     OW17455   0.462   1.522   8.653  0.7643 -0.1408  0.1682
 1998SOL    HW117456   0.484   1.440   8.697 -0.1121 -1.0170 -1.0094
 1998SOL    HW217457   0.380   1.492   8.613  1.0401  1.2288 -1.4593
 1999SOL     OW17458   2.455   3.599   6.519 -0.1592  0.3684 -0.1661
 1999SOL    HW117459   2.376   3.548   6.499 -0.5031  0.8783 -0.1282
 1999SOL    HW217460   2.520   3.539   6.555  0.5550  0.6023 -1.0856
 2000SOL     OW17461   0.338   4.674   5.167 -0.3711  0.3551 -0.3558
 2000SOL    HW117462   0.317   4.672   5.074  1.2976 -1.3468 -0.6938
 2000SOL    HW217463   0.275   4.618   5.212 -0.7851  1.2365  0.1477
 2001SOL     OW17464   3.767   1.324   2.950  0.2068  0.5064  0.2761
 2001SOL    HW117465   3.684   1.306   2.906 -0.0680  1.6790  0.3095
 2001SOL    HW217466   3.752   1.263   3.022  0.8157  1.5656  1.3275
 2002SOL     OW17467   0.135   1.878   3.064  0.3183  0.3600  0.5099
 2002SOL    HW117468   0.208   1.816   3.074  0.8607  0.9260  0.0308
 2002SOL    HW217469   0.186   1.955   3.087 -0.0067 -0.1896  3.0983
 2003SOL     OW17470   0.591   1.149   4.103 -0.5250 -0.1103 -0.5203
 2003SOL    HW117471   0.570   1.072   4.156  2.2598 -0.9818 -0.6873
 2003SOL    HW217472   0.510   1.199   4.110 -0.0129  0.4983  0.9309
 2004SOL     OW17473   1.791   0.447   9.390  0.2825 -0.3987  0.2475
 2004SOL    HW117474   1.709   0.416   9.427 -0.0153  1.1177  0.8526
 2004SOL    HW217475   1.772   0.530   9.346  1.6415  0.0417  0.4742
 2005SOL     OW17476   2.198   1.946   1.719 -0.0279  0.4460  0.2835
 2005SOL    HW117477   2.253   1.989   1.784 -1.7410 -1.9238  3.2993
 2005SOL    HW217478   2.118   1.937   1.769 -0.4206 -0.0952 -0.4361
 2006SOL     OW17479   1.849   0.597  13.943  0.1538 -0.9965  0.9080
 2006SOL    HW117480   1.874   0.677  13.897  4.7335 -2.8069  0.2682
 2006SOL    HW217481   1.912   0.607  14.014  1.9708 -2.1243 -0.5408
 2007SOL     OW17482   1.065   3.876   1.688  0.1148  0.7385 -0.1323
 2007SOL    HW117483   1.003   3.885   1.760  0.6967 -0.4534  0.5031
 2007SOL    HW217484   1.026   3.916   1.610 -0.3168 -1.0742 -0.8558
 2008SOL     OW17485   3.779   4.396  15.804 -0.4120  0.5158 -0.4353
 2008SOL    HW117486   3.727   4.316  15.818 -2.9251  2.6815  2.7657
 2008SOL    HW217487   3.836   4.392  15.881 -0.8607 -1.2751 -0.1968
 2009SOL     OW17488   0.413   3.291  11.313  0.1025  0.9421 -0.5514
 2009SOL    HW117489   0.479   3.260  11.252  0.6396  1.3825 -0.1918
 2009SOL    HW217490   0.371   3.207  11.332 -1.9602  2.1281  0.1256
 2010SOL     OW17491   2.878   3.285  10.287  0.0636 -0.2692  0.6643
 2010SOL    HW117492   2.897   3.211  10.230  1.0969 -0.9599  1.9027
 2010SOL    HW217493   2.785   3.265  10.300 -0.3455  1.6087  0.5881
 2011SOL     OW17494   3.164   2.147   7.608 -0.3608 -0.0001  0.3452
 2011SOL    HW117495   3.121   2.232   7.615  1.0470  0.7754 -0.6218
 2011SOL    HW217496   3.143   2.116   7.520  0.4828 -0.6228  0.3626
 2012SOL     OW17497   2.003   1.940  15.450 -0.1328 -0.7016 -0.4328
 2012SOL    HW117498   1.992   1.874  15.381  1.8718  0.0810 -1.5040
 2012SOL    HW217499   2.057   1.896  15.516 -1.1836  0.2160  1.0171
 2013SOL     OW17500   0.132   3.707  14.345  1.1223  0.0872  0.3279
 2013SOL    HW117501   0.144   3.738  14.255 -1.7671  0.3020  0.0333
 2013SOL    HW217502   0.072   3.772  14.381 -2.4716 -1.8474 -2.1203
 2014SOL     OW17503   1.734   2.982   4.671  0.4099 -0.1747 -0.4479
 2014SOL    HW117504   1.667   2.978   4.740 -2.0508 -0.5310 -2.8329
 2014SOL    HW217505   1.813   2.960   4.719 -0.1406 -1.4085 -0.0929
 2015SOL     OW17506   3.994   2.593  13.071  0.4872 -0.4441  0.2153
 2015SOL    HW117507   3.999   2.688  13.064 -1.9799 -0.3175  0.0177
 2015SOL    HW217508   3.900   2.580  13.082  0.0612  1.9801 -0.5305
 2016SOL     OW17509   4.564   1.780   6.486 -0.3382 -0.0535  0.0454
 2016SOL    HW117510   4.626   1.814   6.421 -1.8997  0.2118 -1.2970
 2016SOL    HW217511   4.534   1.856   6.536 -0.5451 -0.9814  1.3331
 2017SOL     OW17512   0.299   4.184  11.144  0.0972 -0.2808 -0.3684
 2017SOL    HW117513   0.343   4.191  11.228  0.9724 -1.5385 -0.7348
 2017SOL    HW217514   0.337   4.107  11.103 -0.6555  0.8563 -3.2050
 2018SOL     OW17515   3.375   2.140   2.939  0.4411 -0.0352  0.1225
 2018SOL    HW117516   3.417   2.059   2.968 -0.2682 -0.6402 -0.5268
 2018SOL    HW217517   3.362   2.131   2.845 -3.3751  2.7525  0.3415
 2019SOL     OW17518   0.221   0.137   3.444 -0.1525  0.8466 -0.5340
 2019SOL    HW117519   0.235   0.079   3.369 -0.1225 -1.8249  1.5226
 2019SOL    HW217520   0.137   0.179   3.424 -1.1499 -0.1909  1.3989
 2020SOL     OW17521   4.436   3.251   2.382  0.5088 -0.2582 -0.2655
 2020SOL    HW117522   4.478   3.232   2.466  1.3166 -0.7031 -0.7719
 2020SOL    HW217523   4.465   3.175   2.331  1.5228  0.8270 -1.3146
 2021SOL     OW17524   2.657   1.294   3.949 -0.6330 -0.0552  0.5603
 2021SOL    HW117525   2.664   1.385   3.975  0.5973 -0.5351  1.9015
 2021SOL    HW217526   2.716   1.252   4.011  0.0848 -0.3628 -0.3374
 2022SOL     OW17527   4.388   3.049   3.775  0.6152  0.1591  0.1061
 2022SOL    HW117528   4.368   3.036   3.682  0.9245 -1.6844  0.3092
 2022SOL    HW217529   4.472   3.003   3.781  1.5265  1.6481 -0.9209
 2023SOL     OW17530   2.522   2.494   4.502  0.1139  0.4352  0.1752
 2023SOL    HW117531   2.498   2.421   4.446  1.1771  1.2452 -1.3194
 2023SOL    HW217532   2.474   2.457   4.576 -0.8385 -0.3819 -0.8516
 2024SOL     OW17533   1.540   2.695   1.688  0.8207 -0.0108  0.6949
 2024SOL    HW117534   1.558   2.606   1.658 -1.3582 -0.4414  0.7100
 2024SOL    HW217535   1.548   2.749   1.609 -0.8502 -1.1259 -0.2288
 2025SOL     OW17536   0.658   2.855  15.989 -0.7409 -0.2669  0.0681
 2025SOL    HW117537   0.690   2.828  16.075 -0.7344  1.2194  0.5258
 2025SOL    HW217538   0.602   2.929  16.014  0.5280  0.8961 -0.5322
 2026SOL     OW17539   1.528   1.871  15.464  0.2332  0.1021 -0.0292
 2026SOL    HW117540   1.524   1.777  15.449  0.2354  0.1976 -0.6186
 2026SOL    HW217541   1.545   1.905  15.376 -0.4769  0.4396 -0.0296
 2027SOL     OW17542   0.744   4.581   6.464 -0.0832 -0.7028  0.4549
 2027SOL    HW117543   0.662   4.534   6.476 -0.4290 -0.2212 -0.0356
 2027SOL    HW217544   0.794   4.508   6.425  2.2487  1.1505 -0.0372
 2028SOL     OW17545   2.908   0.240  11.352 -0.0704  0.5789 -0.0709
 2028SOL    HW117546   2.855   0.320  11.344 -0.0178  0.4785 -1.4985
 2028SOL    HW217547   2.858   0.185  11.412 -2.4110  1.1149 -1.4972
 2029SOL     OW17548   2.969   1.451   1.174  0.2649  0.8393 -0.2520
 2029SOL    HW117549   3.052   1.458   1.126  0.1934 -0.2603 -0.5326
 2029SOL    HW217550   2.935   1.377   1.124 -0.3226 -0.4141  2.0233
 2030SOL     OW17551   0.589   2.319   7.542  0.3822  0.1625  0.0813
 2030SOL    HW117552   0.525   2.263   7.498  1.4137 -0.3531 -0.7623
 2030SOL    HW217553   0.654   2.250   7.553 -1.0737 -1.0376  1.1900
 2031SOL     OW17554   3.029   3.329   5.746 -1.5769 -0.1483 -0.1902
 2031SOL    HW117555   3.111   3.280   5.753 -0.8112  1.2854  1.0764
 2031SOL    HW217556   2.981   3.291   5.820 -0.4529 -0.5408  0.3313
 2032SOL     OW17557   1.719   3.525   2.818 -0.0496  0.2538  0.3857
 2032SOL    HW117558   1.638   3.564   2.785 -0.6505 -0.6514  0.7902
 2032SOL    HW217559   1.778   3.574   2.761  0.9327 -1.6324 -0.2160
 2033SOL     OW17560   3.968   4.719   7.831  0.2397  0.0084  0.0644
 2033SOL    HW117561   4.058   4.703   7.802 -0.2524 -1.0321 -0.8725
 2033SOL    HW217562   3.976   4.707   7.926  0.4291 -1.2405 -0.1079
 2034SOL     OW17563   4.648   3.171   3.509  0.5013 -0.0672 -0.1530
 2034SOL    HW117564   4.554   3.159   3.492  0.1777  2.0021  0.1979
 2034SOL    HW217565   4.690   3.102   3.457  3.5345  1.6370  0.0325
 2035SOL     OW17566   0.132   3.081   5.440 -0.1086 -0.4266 -0.0156
 2035SOL    HW117567   0.048   3.111   5.406 -1.4151 -2.8223  1.1040
 2035SOL    HW217568   0.091   3.005   5.481 -0.8175  0.0711  0.2113
 2036SOL     OW17569   3.481   3.816   2.777  0.1168  0.7414  0.6891
 2036SOL    HW117570   3.568   3.834   2.739 -0.8494 -0.5676 -2.1788
 2036SOL    HW217571   3.507   3.794   2.866  1.9040  2.3937  0.5701
 2037SOL     OW17572   1.821   0.348  16.862  0.0539  0.3908  0.1882
 2037SOL    HW117573   1.861   0.330  16.947 -0.2597  0.0930  0.2757
 2037SOL    HW217574   1.860   0.432  16.840  0.5394  0.4492  1.2882
 2038SOL     OW17575   4.087   2.518   6.802  0.2140  0.1060 -0.2870
 2038SOL    HW117576   4.106   2.596   6.854 -1.9853 -1.0897  2.3158
 2038SOL    HW217577   4.171   2.473   6.793 -0.6498 -1.7692  1.1884
 2039SOL     OW17578   2.887   1.483   7.418 -0.1164 -0.5938  0.4698
 2039SOL    HW117579   2.956   1.446   7.364  0.4353 -0.9855  1.4494
 2039SOL    HW217580   2.932   1.509   7.498  0.0785  0.2497  0.0953
 2040SOL     OW17581   1.432   1.843   2.686 -0.4533  0.2726  0.3996
 2040SOL    HW117582   1.507   1.855   2.745 -0.8187 -1.6474  1.2203
 2040SOL    HW217583   1.463   1.806   2.603  1.9389  1.5035  0.7117
 2041SOL     OW17584   0.976   0.075   2.697  0.6339 -0.3273 -0.5292
 2041SOL    HW117585   0.961   0.166   2.674 -0.2408 -0.2127  0.5225
 2041SOL    HW217586   0.944   0.035   2.616  1.2074 -0.2890 -0.7794
 2042SOL     OW17587   1.127   3.240   3.586  0.0296  0.4708 -0.0818
 2042SOL    HW117588   1.140   3.334   3.601  3.2280 -0.2620  1.7167
 2042SOL    HW217589   1.143   3.209   3.675  2.9433 -2.5751 -1.6952
 2043SOL     OW17590   2.849   0.276   6.435  0.6007  0.5095  0.3465
 2043SOL    HW117591   2.889   0.254   6.519 -1.8173  1.3542  1.7198
 2043SOL    HW217592   2.912   0.335   6.392  0.1704 -0.2755 -1.3445
 2044SOL     OW17593   3.430   3.624  12.134 -0.1219  0.1120  0.0097
 2044SOL    HW117594   3.393   3.573  12.062 -1.7047  2.3899 -0.7865
 2044SOL    HW217595   3.434   3.712  12.096  1.2668 -0.7580 -1.8296
 2045SOL     OW17596   3.933   1.289   2.310  0.7326 -0.1785 -0.5777
 2045SOL    HW117597   3.928   1.198   2.281  3.1420 -0.9107  1.2977
 2045SOL    HW217598   3.954   1.351   2.240  0.5016  0.5581  0.0082
 2046SOL     OW17599   4.354   4.220  11.932 -0.1276 -0.3280  0.7351
 2046SOL    HW117600   4.286   4.285  11.949  1.2066  1.1958  0.1893
 2046SOL    HW217601   4.334   4.193  11.842 -1.7289  0.2016  0.9400
 2047SOL     OW17602   3.029   3.208   5.504  0.1084 -0.3935  0.2653
 2047SOL    HW117603   2.949   3.155   5.500 -0.8208  1.1233 -1.3406
 2047SOL    HW217604   3.028   3.242   5.593 -1.7442  0.2555  0.0095
 2048SOL     OW17605   2.228   0.773  14.769 -0.0416  0.2492 -0.4802
 2048SOL    HW117606   2.297   0.708  14.756 -1.3255 -1.0094 -0.9876
 2048SOL    HW217607   2.255   0.827  14.843 -0.4387  1.4577 -1.2134
 2049SOL     OW17608   0.059   3.692   5.065 -0.0824  0.2693  0.7537
 2049SOL    HW117609   0.053   3.728   4.976 -0.4752  1.0593  1.0964
 2049SOL    HW217610   0.053   3.598   5.049 -1.1927  0.0637  2.3695
 2050SOL     OW17611   2.383   1.406  12.722  0.8852 -0.3198  0.3672
 2050SOL    HW117612   2.378   1.473  12.654  2.9347  1.1206  1.6348
 2050SOL    HW217613   2.469   1.418  12.762  0.4056  3.2462  0.3149
 2051SOL     OW17614   3.301   0.473   4.176 -0.1967  0.2148  0.1176
 2051SOL    HW117615   3.349   0.552   4.198  1.9667 -1.5013  1.5301
 2051SOL    HW217616   3.371   0.419   4.139  0.0264  2.1246 -2.2692
 2052SOL     OW17617   3.372   2.304   6.904  0.9353  0.1973 -0.1068
 2052SOL    HW117618   3.389   2.397   6.892 -1.6174  0.9962  2.2304
 2052SOL    HW217619   3.341   2.293   6.994  0.3065  1.3557 -0.1811
 2053SOL     OW17620   1.881   1.378   1.397 -0.5456  0.2642 -0.2480
 2053SOL    HW117621   1.869   1.304   1.457 -0.9244 -0.2296 -0.9266
 2053SOL    HW217622   1.833   1.346   1.321 -0.0056 -0.3621 -0.3209
 2054SOL     OW17623   4.125   3.681  10.094  0.1949  0.3943  0.2742
 2054SOL    HW117624   4.078   3.643  10.020 -1.5706  2.5971  0.2632
 2054SOL    HW217625   4.129   3.612  10.160 -2.1686  0.3434  0.3544
 2055SOL     OW17626   4.369   2.336   2.753  0.3120 -0.0008  0.0056
 2055SOL    HW117627   4.300   2.312   2.692  1.3636 -2.4982 -0.1835
 2055SOL    HW217628   4.361   2.293   2.839  1.1607 -1.2190 -0.5263
 2056SOL     OW17629   4.412   1.441   3.025 -0.0853 -0.2602  0.1416
 2056SOL    HW117630   4.385   1.532   3.041  0.6986 -0.4756  2.6712
 2056SOL    HW217631   4.405   1.408   3.114  0.5059 -0.5574  0.0793
 2057SOL     OW17632   1.437   2.380   4.142  0.1017  0.0676  0.4990
 2057SOL    HW117633   1.511   2.319   4.144  0.6387  0.7026 -0.1936
 2057SOL    HW217634   1.426   2.380   4.237 -2.1264  3.3249  0.2626
 2058SOL     OW17635   0.671   1.272  14.792  0.0460 -0.7014  0.3538
 2058SOL    HW117636   0.751   1.223  14.770 -0.1537 -0.4474 -0.9430
 2058SOL    HW217637   0.609   1.200  14.781 -0.9971  0.1076  0.9462
 2059SOL     OW17638   4.259   1.820   8.011  0.3253 -0.1810  0.2088
 2059SOL    HW117639   4.208   1.869   8.075  0.9673  0.8231 -0.0455
 2059SOL    HW217640   4.345   1.864   8.008 -0.3859  1.2537  0.7332
 2060SOL     OW17641   0.742   0.920   5.968 -0.3344  0.3815  0.1875
 2060SOL    HW117642   0.672   0.855   5.972 -0.2627  0.3952  1.5924
 2060SOL    HW217643   0.723   0.966   5.886  1.2555  0.4048 -0.1611
 2061SOL     OW17644   2.085   1.976   1.242 -0.1169  0.1336 -0.3422
 2061SOL    HW117645   2.006   1.930   1.270  1.9291 -3.2535 -0.1760
 2061SOL    HW217646   2.113   2.014   1.324 -0.5993 -1.0878  0.3934
 2062SOL     OW17647   3.437   1.330  10.997  0.2862  0.2433  0.0216
 2062SOL    HW117648   3.428   1.425  11.008  0.4430 -0.0148  2.3293
 2062SOL    HW217649   3.430   1.316  10.902 -0.1579  1.0702 -0.0729
 2063SOL     OW17650   4.695   1.175   3.911  0.0092  0.1721 -0.8635
 2063SOL    HW117651   4.644   1.098   3.935  0.1597  0.4822  0.4470
 2063SOL    HW217652   0.007   1.160   3.822 -3.2631 -0.2300 -1.9514
 2064SOL     OW17653   0.183   0.811   3.549  0.0341  0.1536  0.2177
 2064SOL    HW117654   0.093   0.808   3.582  0.1651  1.3251  0.6472
 2064SOL    HW217655   0.178   0.799   3.454 -1.1311  0.3660  0.2543
 2065SOL     OW17656   3.997   0.075   7.533 -0.3356  0.1937  0.1260
 2065SOL    HW117657   3.992   0.080   7.629  0.2122 -0.7516  0.2131
 2065SOL    HW217658   4.088   0.049   7.521 -0.6660 -0.3588 -1.1412
 2066SOL     OW17659   0.303   3.742  11.273 -0.5332  0.2912 -0.3616
 2066SOL    HW117660   0.309   3.832  11.306  1.4762  0.1994 -0.4906
 2066SOL    HW217661   0.390   3.731  11.235 -0.0648  2.4906  0.0503
 2067SOL     OW17662   3.319   3.989   5.547 -0.3113  0.1928 -0.2934
 2067SOL    HW117663   3.390   3.937   5.585 -0.1603 -0.4567 -1.4640
 2067SOL    HW217664   3.279   3.917   5.498 -0.7686  1.1262 -1.3049
 2068SOL     OW17665   1.875   2.777  16.886  0.7115 -0.1634  0.4255
 2068SOL    HW117666   1.783   2.780  16.912  1.1835 -0.5552  2.1519
 2068SOL    HW217667   1.877   2.855  16.831  1.1452  0.5111  1.4029
 2069SOL     OW17668   2.150   1.360   1.536 -0.4155  0.3930 -0.1158
 2069SOL    HW117669   2.126   1.431   1.596 -1.8948  1.2420 -1.7432
 2069SOL    HW217670   2.123   1.406   1.457  2.1903  1.6553 -0.3030
 2070SOL     OW17671   2.378   2.338   4.726 -0.5352 -0.0165 -0.0049
 2070SOL    HW117672   2.311   2.279   4.760  0.2216 -0.6847  0.3386
 2070SOL    HW217673   2.453   2.299   4.771 -0.2326  0.4940 -0.0720
 2071SOL     OW17674   2.754   0.827   4.982 -0.1600 -0.4085 -0.0107
 2071SOL    HW117675   2.790   0.891   5.043 -0.3263  2.2196 -2.7028
 2071SOL    HW217676   2.664   0.832   5.013 -0.1256 -1.7331  0.3266
 2072SOL     OW17677   3.381   1.391  12.345 -0.1317 -0.6019 -0.3111
 2072SOL    HW117678   3.433   1.453  12.295 -0.9153 -0.8829 -1.4830
 2072SOL    HW217679   3.302   1.446  12.347 -0.5896 -1.3619  2.4876
 2073SOL     OW17680   1.737   2.618   6.794 -0.0690 -0.3020 -0.2930
 2073SOL    HW117681   1.734   2.669   6.875  3.2497 -2.2052  1.0500
 2073SOL    HW217682   1.756   2.531   6.829 -0.8447 -1.0610 -1.7654
 2074SOL     OW17683   4.152   3.079  17.619  0.2713 -0.1108  0.0751
 2074SOL    HW117684   4.095   3.020  17.669  1.6523 -0.0501  1.7475
 2074SOL    HW217685   4.125   3.059  17.530  1.4836 -0.4138 -0.2140
 2075SOL     OW17686   1.093   0.700   3.031  0.2649 -0.8178 -0.3242
 2075SOL    HW117687   1.084   0.789   2.996  3.5378  0.4405  2.0468
 2075SOL    HW217688   1.020   0.701   3.093 -0.1147  1.6642 -0.7959
 2076SOL     OW17689   3.738   2.731   9.308  0.5022  0.3252 -0.0549
 2076SOL    HW117690   3.738   2.763   9.218 -1.9853  1.1032  0.2454
 2076SOL    HW217691   3.711   2.639   9.299 -0.8926  0.6537  0.8609
 2077SOL     OW17692   0.282   2.785  11.434 -0.3316 -0.2067 -0.2287
 2077SOL    HW117693   0.307   2.828  11.516 -0.9207  0.8998 -0.6227
 2077SOL    HW217694   0.298   2.692  11.448  3.2437  0.4190 -0.2449
 2078SOL     OW17695   0.259   1.958   2.714 -0.3792 -0.2145 -0.5299
 2078SOL    HW117696   0.276   2.038   2.764  0.1793 -1.0387  0.6117
 2078SOL    HW217697   0.215   1.992   2.636 -0.5520 -0.9469 -0.7480
 2079SOL     OW17698   4.201   2.110   6.672 -0.3088 -0.1531 -0.0899
 2079SOL    HW117699   4.119   2.061   6.669  0.3804 -1.3184  0.0514
 2079SOL    HW217700   4.243   2.061   6.743  1.5753  1.8895  0.2146
 2080SOL     OW17701   3.519   2.629  14.940 -0.7142  0.0733  0.2729
 2080SOL    HW117702   3.452   2.584  14.991 -2.2865  1.0217 -0.9543
 2080SOL    HW217703   3.554   2.677  15.015 -0.8654  0.4612  0.0918
 2081SOL     OW17704   2.165   3.655   6.709 -0.4351  0.5162 -0.0142
 2081SOL    HW117705   2.095   3.592   6.691 -0.8774  1.5486 -1.9883
 2081SOL    HW217706   2.114   3.724   6.751 -2.0082 -1.5062  1.4197
 2082SOL     OW17707   1.421   2.224  10.358  0.8872  0.6325 -0.2378
 2082SOL    HW117708   1.447   2.223  10.450  1.3992  1.2956 -0.3730
 2082SOL    HW217709   1.412   2.316  10.331 -1.1532  0.0080 -1.6368
 2083SOL     OW17710   2.342   3.841   6.574  0.2829  0.0108 -0.2401
 2083SOL    HW117711   2.257   3.817   6.609  1.7652 -0.9251  2.6776
 2083SOL    HW217712   2.381   3.755   6.555  1.3961  0.2503  1.0190
 2084SOL     OW17713   2.727   3.207   6.172  0.1518  0.3607 -0.6692
 2084SOL    HW117714   2.665   3.223   6.243  1.8005  2.3923  0.2827
 2084SOL    HW217715   2.706   3.286   6.122 -2.3723 -0.7589 -1.4017
 2085SOL     OW17716   3.725   1.117   3.136 -0.1241  0.2883 -0.0726
 2085SOL    HW117717   3.764   1.045   3.086 -0.0322 -0.5491  1.2290
 2085SOL    HW217718   3.672   1.066   3.197  1.2091 -1.1118 -0.1011
 2086SOL     OW17719   1.165   2.268   5.284  0.4346 -0.5670 -0.0925
 2086SOL    HW117720   1.152   2.343   5.227  0.3845 -0.4744  0.0397
 2086SOL    HW217721   1.077   2.263   5.321  0.0105 -0.8196 -1.1462
 2087SOL     OW17722   4.319   3.548   6.091 -0.1390  0.0204  0.0567
 2087SOL    HW117723   4.239   3.561   6.142 -0.9160 -0.5412 -1.0228
 2087SOL    HW217724   4.316   3.457   6.061  0.1961 -0.9878  3.0147
 2088SOL     OW17725   3.050   4.246   2.911  0.3626 -0.0085 -0.2076
 2088SOL    HW117726   3.074   4.272   3.000 -0.3566  2.4288 -0.7228
 2088SOL    HW217727   3.135   4.237   2.869 -0.2144 -1.0163 -1.1520
 2089SOL     OW17728   3.362   4.206   6.993  0.1001 -0.4591  0.2965
 2089SOL    HW117729   3.377   4.300   6.983  2.9343 -1.0578 -1.0227
 2089SOL    HW217730   3.444   4.173   7.029 -0.3998  0.2474  2.0948
 2090SOL     OW17731   4.179   2.974  12.783  0.6119  0.4826 -0.2216
 2090SOL    HW117732   4.185   3.067  12.808  1.9435 -0.2547  2.1960
 2090SOL    HW217733   4.121   2.998  12.711 -2.0740  0.7825  2.0564
 2091SOL     OW17734   2.495   2.777   9.474  0.3198  0.0878 -0.1074
 2091SOL    HW117735   2.453   2.831   9.541  2.4918  0.0643  1.2574
 2091SOL    HW217736   2.554   2.840   9.432 -0.1009  1.6395  1.6280
 2092SOL     OW17737   1.574   3.844   9.370  0.5256  0.5630 -0.4181
 2092SOL    HW117738   1.645   3.840   9.434  2.0324  2.9191 -1.9079
 2092SOL    HW217739   1.582   3.923   9.316 -1.1068  1.3151  0.4443
 2093SOL     OW17740   2.904   1.807   5.931 -0.2849 -0.0512 -0.1881
 2093SOL    HW117741   2.822   1.851   5.952  0.7769  0.2130  3.3806
 2093SOL    HW217742   2.977   1.856   5.969  0.5019 -0.9150 -0.5679
 2094SOL     OW17743   2.524   3.861   9.998  0.2053  0.0755  0.1998
 2094SOL    HW117744   2.439   3.817  10.000  0.7470 -0.9494  0.6478
 2094SOL    HW217745   2.552   3.850  10.089 -0.1764 -0.8364  0.2120
 2095SOL     OW17746   2.510   2.004   1.947 -0.2806 -0.6994  0.7778
 2095SOL    HW117747   2.464   1.921   1.936  1.9224 -1.9019  0.7491
 2095SOL    HW217748   2.439   2.069   1.946  0.0241 -0.3012  3.9133
 2096SOL     OW17749   4.261   0.800  13.396 -0.0053 -0.2693  0.3518
 2096SOL    HW117750   4.312   0.728  13.360 -0.3469  0.7066 -2.0523
 2096SOL    HW217751   4.189   0.748  13.430 -0.2217  0.5357  1.1308
 2097SOL     OW17752   1.956   2.851  12.970  0.7518 -0.3614 -0.3383
 2097SOL    HW117753   2.018   2.867  13.041 -0.6841  3.2979  0.1013
 2097SOL    HW217754   1.883   2.829  13.028  0.9534 -0.1908 -0.0188
 2098SOL     OW17755   3.153   2.760  10.333  0.8104  0.2321  0.0017
 2098SOL    HW117756   3.233   2.744  10.382  1.9529  0.3529 -1.8124
 2098SOL    HW217757   3.192   2.787  10.250  0.1462  1.3495  0.0576
 2099SOL     OW17758   1.736   4.336   4.526  0.1622 -0.2710 -0.8378
 2099SOL    HW117759   1.816   4.368   4.486 -0.3809  3.0098  0.7546
 2099SOL    HW217760   1.681   4.392   4.471 -0.5863 -1.6500 -1.5046
 2100SOL     OW17761   1.167   2.674  10.508  0.1766 -0.1586  0.1037
 2100SOL    HW117762   1.092   2.678  10.567 -0.8232  2.7983 -1.3617
 2100SOL    HW217763   1.241   2.655  10.566  0.8818 -0.7809 -1.0050
 2101SOL     OW17764   3.862   4.331   7.420 -0.0259 -0.1469  0.3572
 2101SOL    HW117765   3.874   4.354   7.328  0.6072 -0.1401  0.4421
 2101SOL    HW217766   3.772   4.356   7.438  0.6717  2.0691  0.7344
 2102SOL     OW17767   1.543   3.675  14.261  0.8100  0.0349 -0.0673
 2102SOL    HW117768   1.515   3.754  14.307 -0.8936 -0.2142 -0.6924
 2102SOL    HW217769   1.546   3.701  14.169 -2.5112 -0.8049 -0.3951
 2103SOL     OW17770   0.951   0.800   1.645  0.2586  0.3232  0.3874
 2103SOL    HW117771   0.892   0.725   1.635 -1.7310  1.9506 -0.0313
 2103SOL    HW217772   0.915   0.844   1.568 -0.0901 -1.7925 -0.6644
 2104SOL     OW17773   2.396   1.771   4.725 -0.3486 -0.1179  0.1107
 2104SOL    HW117774   2.377   1.705   4.658 -1.9892 -0.1171  0.5856
 2104SOL    HW217775   2.360   1.718   4.796 -2.1802  0.2554 -0.5516
 2105SOL     OW17776   2.416   3.033  15.637 -0.0830 -0.0440 -0.6324
 2105SOL    HW117777   2.442   3.124  15.654 -1.8051  0.3416 -0.0874
 2105SOL    HW217778   2.372   3.044  15.553 -0.2364 -0.0157 -0.5480
 2106SOL     OW17779   3.049   2.359   3.316  0.0317 -1.0513  0.3591
 2106SOL    HW117780   3.106   2.346   3.240  0.9102  0.7238  0.7124
 2106SOL    HW217781   3.113   2.346   3.387 -1.1292 -0.3833  1.5210
 2107SOL     OW17782   0.417   2.716  14.906  0.0894 -0.1629 -0.3263
 2107SOL    HW117783   0.344   2.725  14.967 -0.3721 -1.6754 -0.6554
 2107SOL    HW217784   0.418   2.624  14.881 -0.5422  0.6709 -3.4303
 2108SOL     OW17785   1.492   1.229  17.213  0.1399  0.4804 -0.4895
 2108SOL    HW117786   1.404   1.264  17.196 -0.1603 -0.7897 -1.5650
 2108SOL    HW217787   1.544   1.273  17.146  1.1425  1.9442  1.2748
 2109SOL     OW17788   0.295   3.618   3.734  0.5726  0.0805 -0.5056
 2109SOL    HW117789   0.258   3.569   3.661  1.3148 -1.6353  0.2692
 2109SOL    HW217790   0.322   3.700   3.693  0.1214 -0.2947 -1.5707
 2110SOL     OW17791   0.139   1.029   4.959 -0.7839  0.3456 -0.1106
 2110SOL    HW117792   0.158   1.105   5.013  2.9677 -0.8332  0.2267
 2110SOL    HW217793   0.195   0.962   4.997 -0.0544  1.9820  1.7074
 2111SOL     OW17794   1.445   1.172   4.964 -0.2320 -0.1242  0.5148
 2111SOL    HW117795   1.418   1.097   5.017  1.1745 -0.7489  0.3392
 2111SOL    HW217796   1.497   1.223   5.028 -3.2247  0.3047  2.6103
 2112SOL     OW17797   3.684   0.403   8.855 -0.6226 -0.2389 -0.0719
 2112SOL    HW117798   3.673   0.482   8.801  0.2493 -0.0563  0.0136
 2112SOL    HW217799   3.596   0.399   8.892  0.2515 -0.9318  1.9690
 2113SOL     OW17800   2.529   2.419   1.490  0.1198  0.5513 -0.7083
 2113SOL    HW117801   2.579   2.376   1.421 -0.1324  0.0156 -0.5594
 2113SOL    HW217802   2.595   2.418   1.559  1.1045  0.6248 -1.6476
 2114SOL     OW17803   3.221   4.420   0.441  0.1107 -0.6731 -0.1671
 2114SOL    HW117804   3.229   4.365   0.363  2.6518 -2.9428  1.6715
 2114SOL    HW217805   3.141   4.468   0.420  0.9134  1.0148  0.6331
 2115SOL     OW17806   0.345   1.430   7.233  0.2096  0.1689  0.2159
 2115SOL    HW117807   0.438   1.440   7.253  0.3033 -1.1550  0.4607
 2115SOL    HW217808   0.306   1.515   7.252 -1.0789  0.2789 -2.9817
 2116SOL     OW17809   1.676   2.873  15.148  0.0547 -0.0318  0.0289
 2116SOL    HW117810   1.674   2.951  15.204 -5.6967 -1.5616  1.9497
 2116SOL    HW217811   1.611   2.902  15.083 -0.3928  0.7093  0.8083
 2117SOL     OW17812   4.145   0.870   1.728 -0.2308 -0.4790  0.3315
 2117SOL    HW117813   4.154   0.962   1.701  0.0848 -0.9390 -1.1267
 2117SOL    HW217814   4.133   0.834   1.641 -3.3718 -2.5637  1.6428
 2118SOL     OW17815   2.329   0.537  10.043  0.3639  0.2367 -0.3568
 2118SOL    HW117816   2.392   0.516  10.112  1.5885 -1.2962 -1.9697
 2118SOL    HW217817   2.240   0.518  10.071  0.6538 -3.4812 -2.0616
 2119SOL     OW17818   1.470   4.139  17.488 -0.5532 -0.2521  0.1109
 2119SOL    HW117819   1.446   4.222  17.531  0.6420  0.9409 -1.5187
 2119SOL    HW217820   1.543   4.122  17.548  0.6647  2.5755 -0.5497
 2120SOL     OW17821   1.810   2.739   7.967 -0.3158  0.2937 -0.1530
 2120SOL    HW117822   1.753   2.663   7.978  0.6915 -0.4527 -0.0951
 2120SOL    HW217823   1.893   2.700   7.939 -0.1480 -2.0780  3.6386
 2121SOL     OW17824   1.373   0.407   3.106  0.5358 -0.2854 -0.1662
 2121SOL    HW117825   1.424   0.434   3.182 -1.6200 -1.1497  1.5847
 2121SOL    HW217826   1.303   0.365   3.155 -0.9616  3.0383  0.5603
 2122SOL     OW17827   3.184   1.176   2.377 -0.1533  0.1239  0.0081
 2122SOL    HW117828   3.120   1.138   2.438 -1.2183 -2.4283 -2.6812
 2122SOL    HW217829   3.184   1.109   2.309 -2.8802  1.2391 -1.1140
 2123SOL     OW17830   0.606   0.922   8.117  0.0654  0.0586  0.2826
 2123SOL    HW117831   0.642   0.990   8.174 -1.5681  1.1388  0.0384
 2123SOL    HW217832   0.512   0.936   8.130  0.3733  0.7707  1.8093
 2124SOL     OW17833   1.976   0.671  12.860  0.4050 -0.0061 -0.2810
 2124SOL    HW117834   2.036   0.654  12.788  0.5398 -0.7019 -0.0021
 2124SOL    HW217835   1.913   0.730  12.819  0.7924  1.3776  1.0852
 2125SOL     OW17836   3.499   1.754   9.659 -0.3798  0.0638 -0.0190
 2125SOL    HW117837   3.539   1.795   9.736  0.6257  0.1476 -0.5809
 2125SOL    HW217838   3.555   1.676   9.657 -0.6622 -0.2115  3.4487
 2126SOL     OW17839   0.070   4.700   1.171  0.1696  0.1919 -0.0463
 2126SOL    HW117840   0.126   0.039   1.222  0.3792  0.2750 -0.3760
 2126SOL    HW217841   0.067   4.625   1.231 -2.1987 -0.1752 -0.6464
 2127SOL     OW17842   3.408   4.504   5.551  0.3560  0.0378  0.5287
 2127SOL    HW117843   3.317   4.476   5.552 -0.3488  2.2849 -0.4487
 2127SOL    HW217844   3.447   4.443   5.613  1.1498 -0.5846 -0.5762
 2128SOL     OW17845   4.029   2.582   9.271  0.6292 -0.2438 -0.1081
 2128SOL    HW117846   3.959   2.559   9.210  2.1491 -0.9109 -1.5896
 2128SOL    HW217847   4.007   2.674   9.285  1.1052 -0.1015 -0.2940
 2129SOL     OW17848   0.803   0.354   7.593  0.0351 -0.0131  0.4986
 2129SOL    HW117849   0.764   0.439   7.572 -1.5463 -0.8723 -0.0649
 2129SOL    HW217850   0.819   0.362   7.687  3.4490 -0.3203 -0.0709
 2130SOL     OW17851   1.908   1.218   0.854 -0.2056  0.1049  0.0198
 2130SOL    HW117852   1.943   1.129   0.851 -0.3835  0.0420 -0.2453
 2130SOL    HW217853   1.989   1.269   0.860  0.8999 -1.8471  1.6175
 2131SOL     OW17854   4.034   2.049  14.037 -0.4799  0.0018 -0.5062
 2131SOL    HW117855   3.994   2.117  14.091 -1.6735 -1.4901  0.5033
 2131SOL    HW217856   3.991   1.970  14.070  0.8003 -0.2972  0.4523
 2132SOL     OW17857   3.048   3.220   5.054 -0.3266 -0.1662  0.1309
 2132SOL    HW117858   3.135   3.180   5.047 -0.1250  0.3450 -0.2523
 2132SOL    HW217859   3.047   3.280   4.979  1.3410  1.6022  1.5076
 2133SOL     OW17860   0.881   0.473   1.371 -0.4362  0.2990  0.1010
 2133SOL    HW117861   0.843   0.541   1.316 -0.2802  1.0834  0.9723
 2133SOL    HW217862   0.958   0.455   1.318 -1.4683 -0.7716 -1.0204
 2134SOL     OW17863   4.709   1.860  17.198 -0.1078  0.6423 -0.5171
 2134SOL    HW117864   4.631   1.816  17.230  1.0546 -1.0764 -0.0497
 2134SOL    HW217865   0.017   1.917  17.270  0.9195 -0.0652 -0.3531
 2135SOL     OW17866   3.483   3.858   4.999 -0.7064  0.2703 -0.0643
 2135SOL    HW117867   3.443   3.776   4.969  1.7782 -0.3701 -1.6594
 2135SOL    HW217868   3.405   3.897   5.037  0.4042  2.6674 -0.2240
 2136SOL     OW17869   4.326   0.836   7.502 -0.2655  0.1088  0.7296
 2136SOL    HW117870   4.245   0.814   7.549  0.0994  0.0515  1.3390
 2136SOL    HW217871   4.333   0.924   7.537 -2.3297  0.0400  1.3356
 2137SOL     OW17872   2.760   2.569   8.774  0.0214  0.1450 -0.4396
 2137SOL    HW117873   2.786   2.605   8.858 -0.9282  0.8932 -0.4702
 2137SOL    HW217874   2.767   2.638   8.708 -0.2632  0.8207  0.2483
 2138SOL     OW17875   2.291   3.289   8.844 -0.4269 -0.3141  0.0968
 2138SOL    HW117876   2.322   3.317   8.758 -0.9055 -0.3482 -0.0883
 2138SOL    HW217877   2.244   3.364   8.881  0.5769  0.2419  0.2482
 2139SOL     OW17878   1.564   1.176   1.030  0.0099 -0.3284  0.1498
 2139SOL    HW117879   1.558   1.228   1.110 -0.2352  0.8550 -0.6334
 2139SOL    HW217880   1.660   1.174   1.026 -0.0515 -2.9960  0.3218
 2140SOL     OW17881   0.731   0.209   1.443 -0.1505  0.1281 -0.5348
 2140SOL    HW117882   0.784   0.271   1.494  1.5357 -4.1738  2.9580
 2140SOL    HW217883   0.689   0.255   1.371 -1.5873 -0.5672 -0.1283
 2141SOL     OW17884   1.594   2.940   5.830  0.1734  0.2194 -0.1334
 2141SOL    HW117885   1.522   2.940   5.767  0.0942  1.5406 -0.0390
 2141SOL    HW217886   1.661   2.995   5.791  0.2826 -1.2026 -1.9375
 2142SOL     OW17887   2.907   3.443  14.173  0.0727  0.5761 -0.1437
 2142SOL    HW117888   2.942   3.358  14.200 -0.4641  0.4496  0.1406
 2142SOL    HW217889   2.901   3.419  14.081 -0.5889  2.6891 -0.6509
 2143SOL     OW17890   2.986   3.140   6.423  0.0277 -0.2931  0.3475
 2143SOL    HW117891   2.945   3.226   6.428  3.8741  1.5256  0.4210
 2143SOL    HW217892   2.952   3.092   6.498  0.4079  0.8618  1.2537
 2144SOL     OW17893   2.442   1.673  15.178  0.5889 -0.1323 -0.7756
 2144SOL    HW117894   2.465   1.766  15.188  1.1800 -0.3061 -0.4959
 2144SOL    HW217895   2.508   1.639  15.239 -0.9803 -1.8324 -0.0535
 2145SOL     OW17896   2.615   0.058  11.838 -0.2790 -0.8938 -0.5182
 2145SOL    HW117897   2.573   4.709  11.786 -0.0286 -1.5157  0.0970
 2145SOL    HW217898   2.575   0.049  11.924 -0.7486  1.0435 -0.5213
 2146SOL     OW17899   0.239   4.572   8.790 -0.6277 -0.1718 -0.7596
 2146SOL    HW117900   0.298   4.610   8.725 -0.2148  1.8058  0.7751
 2146SOL    HW217901   0.157   4.587   8.741 -0.9803 -0.4925 -0.2588
 2147SOL     OW17902   2.567   0.808  16.450 -0.2130  0.6842  0.3157
 2147SOL    HW117903   2.500   0.871  16.476 -0.2499  1.2163 -1.0609
 2147SOL    HW217904   2.626   0.826  16.523  0.2476  0.8658 -0.0948
 2148SOL     OW17905   3.314   1.778   8.194  0.0879 -0.0725 -0.6341
 2148SOL    HW117906   3.295   1.867   8.165 -0.7015 -0.0298 -0.0015
 2148SOL    HW217907   3.299   1.731   8.111 -0.2735 -2.1387  0.5890
 2149SOL     OW17908   0.152   3.698   3.958 -0.3105 -0.0560 -0.2734
 2149SOL    HW117909   0.198   3.681   3.876 -0.3747  0.3280 -0.3860
 2149SOL    HW217910   0.123   3.787   3.939 -1.9816 -0.4116  0.6037
 2150SOL     OW17911   1.466   3.773   3.330  0.5269 -0.1648 -0.3239
 2150SOL    HW117912   1.420   3.693   3.357  1.5264 -0.5967  0.1306
 2150SOL    HW217913   1.556   3.740   3.336  0.9827  0.7033 -2.7537
 2151SOL     OW17914   2.329   0.106   8.184  0.2705 -0.1118  0.4759
 2151SOL    HW117915   2.298   0.099   8.274 -1.0310 -1.1911 -0.0575
 2151SOL    HW217916   2.423   0.088   8.192  0.3422 -0.2858 -0.8168
 2152SOL     OW17917   3.527   4.531   8.094 -0.0781 -0.3303  0.2134
 2152SOL    HW117918   3.608   4.479   8.095 -0.7544 -1.4575 -2.0828
 2152SOL    HW217919   3.474   4.490   8.162  0.5965 -0.8076  0.4512
 2153SOL     OW17920   1.072   3.999   1.373 -0.1458  0.2235 -0.2510
 2153SOL    HW117921   1.139   3.945   1.331  1.3586  0.3721  1.9235
 2153SOL    HW217922   0.996   3.943   1.390 -0.0279  0.2614  0.4042
 2154SOL     OW17923   2.866   3.051   6.647  0.1227  0.0007  0.3616
 2154SOL    HW117924   2.857   3.091   6.733 -2.2529  0.8617 -0.2735
 2154SOL    HW217925   2.853   2.962   6.679  0.4733 -0.5538 -1.0112
 2155SOL     OW17926   1.469   2.237   5.209  0.4576  0.7122  0.2679
 2155SOL    HW117927   1.445   2.322   5.171 -1.5845  0.8608  1.8525
 2155SOL    HW217928   1.487   2.273   5.296  1.4547 -0.7516  0.6733
 2156SOL     OW17929   3.064   1.884   7.948  0.2113  0.2489 -0.0367
 2156SOL    HW117930   3.131   1.815   7.941 -1.0277 -0.8724 -0.7646
 2156SOL    HW217931   2.987   1.837   7.981  0.1889  1.8748  2.2302
 2157SOL     OW17932   0.432   3.076  14.978 -0.5067  0.3319 -0.0863
 2157SOL    HW117933   0.384   3.101  14.899 -0.6559  0.6982  0.1197
 2157SOL    HW217934   0.480   3.003  14.939 -2.3505 -0.2014 -1.3188
 2158SOL     OW17935   1.243   1.183   4.561  0.1232 -0.1174 -0.3158
 2158SOL    HW117936   1.293   1.103   4.549 -0.2600 -0.3695 -0.2466
 2158SOL    HW217937   1.224   1.215   4.472 -2.1502 -0.9039 -0.1340
 2159SOL     OW17938   0.693   2.470  12.050  0.3458  0.4174 -0.3288
 2159SOL    HW117939   0.673   2.550  12.098 -0.0699  0.0352  0.1445
 2159SOL    HW217940   0.784   2.458  12.077 -0.0244 -0.5653  0.5038
 2160SOL     OW17941   1.392   1.141   2.964  0.1649 -1.2067  0.3866
 2160SOL    HW117942   1.328   1.170   2.900 -0.5605 -1.7566  0.8624
 2160SOL    HW217943   1.436   1.225   2.979 -0.9872 -0.1913 -1.9069
 2161SOL     OW17944   3.570   1.049   6.092 -0.0475 -0.2289 -0.5526
 2161SOL    HW117945   3.483   1.043   6.130  0.0108 -1.6555 -0.6500
 2161SOL    HW217946   3.618   1.008   6.164 -0.8667  0.1482  0.2000
 2162SOL     OW17947   0.080   2.317   2.293  0.7601  0.5955  0.2392
 2162SOL    HW117948   0.119   2.236   2.260 -0.5022 -0.1733  0.6955
 2162SOL    HW217949   0.158   2.371   2.309  0.7206  0.9162 -0.5887
 2163SOL     OW17950   3.442   1.421   3.984 -0.3417  0.7072 -0.3629
 2163SOL    HW117951   3.444   1.330   4.012  1.9371  0.5998 -0.8958
 2163SOL    HW217952   3.458   1.407   3.890  0.6879  1.1071 -0.2485
 2164SOL     OW17953   4.689   0.751   6.855 -0.0033  0.5797  0.1265
 2164SOL    HW117954   0.042   0.797   6.811 -1.7463  2.0935 -1.1808
 2164SOL    HW217955   4.638   0.816   6.902  0.2414 -0.5413  1.9241
 2165SOL     OW17956   2.119   4.325   2.746  0.3508 -0.2360 -0.4873
 2165SOL    HW117957   2.195   4.353   2.797 -0.7035  1.8979 -0.0740
 2165SOL    HW217958   2.137   4.386   2.674  0.4322  0.4159  0.0870
 2166SOL     OW17959   4.323   1.318  17.582  0.2023 -0.4319 -0.1223
 2166SOL    HW117960   4.396   1.356  17.631 -0.4813 -1.7601  1.8873
 2166SOL    HW217961   4.331   1.223  17.590 -2.2201 -0.3621  3.0045
 2167SOL     OW17962   3.313   3.598   6.601  0.7091  0.0193  0.6920
 2167SOL    HW117963   3.332   3.563   6.514  0.9100 -0.3948  0.9016
 2167SOL    HW217964   3.217   3.601   6.598  0.6460 -1.0317  1.5614
 2168SOL     OW17965   0.001   3.238  16.285 -0.0791 -0.1669 -0.0234
 2168SOL    HW117966   4.672   3.197  16.213 -1.0643 -0.7977  0.9921
 2168SOL    HW217967   0.052   3.169  16.329 -1.4000 -0.5917  0.8722
 2169SOL     OW17968   3.740   3.760  10.308 -0.3651  0.2793  0.1710
 2169SOL    HW117969   3.827   3.738  10.340 -0.0054  1.4145 -0.0310
 2169SOL    HW217970   3.748   3.743  10.214 -3.6468  0.7614 -0.2004
 2170SOL     OW17971   2.121   1.450   4.859 -0.5716 -0.7995  0.5052
 2170SOL    HW117972   2.173   1.370   4.852  1.0491  0.4855 -2.1814
 2170SOL    HW217973   2.033   1.423   4.885 -0.6498  0.8313  1.9575
 2171SOL     OW17974   0.141   3.263   0.293 -0.1538  0.2381 -0.1876
 2171SOL    HW117975   0.214   3.258   0.356 -0.1997 -1.0463 -0.2264
 2171SOL    HW217976   0.101   3.179   0.315 -2.6670  1.6435  0.5282
 2172SOL     OW17977   3.229   0.069   2.730  0.0079 -0.3539  0.2614
 2172SOL    HW117978   3.245   0.098   2.820  3.2055  0.7103 -0.6486
 2172SOL    HW217979   3.279   0.124   2.671 -0.5669 -0.9125 -0.7410
 2173SOL     OW17980   2.822   0.320   8.529 -0.3841  0.3546  0.1138
 2173SOL    HW117981   2.738   0.313   8.484 -0.0095  0.9129 -0.6775
 2173SOL    HW217982   2.841   0.413   8.518  0.8405 -0.0015 -0.8820
 2174SOL     OW17983   1.449   2.867  16.164 -0.3077 -0.3044  0.3528
 2174SOL    HW117984   1.510   2.888  16.234  0.3397 -1.6375  0.1837
 2174SOL    HW217985   1.368   2.849  16.211  0.0040 -2.8303 -0.1269
 2175SOL     OW17986   1.250   4.093   4.140 -0.5028  0.0060 -0.7024
 2175SOL    HW117987   1.308   4.133   4.204  0.3828  0.8251 -2.0091
 2175SOL    HW217988   1.239   4.163   4.075  3.0760  1.8204  0.6201
 2176SOL     OW17989   0.321   4.255  14.365  0.1008  0.0931 -0.6427
 2176SOL    HW117990   0.278   4.273  14.449  1.9664 -0.9351  0.5422
 2176SOL    HW217991   0.381   4.328  14.356  0.4047  0.1317  1.5753
 2177SOL     OW17992   0.927   1.822   6.959 -0.3343 -0.3871 -0.1454
 2177SOL    HW117993   0.859   1.835   6.893 -1.5676 -0.8890  1.0343
 2177SOL    HW217994   0.983   1.755   6.920 -0.4301 -1.1821  1.0902
 2178SOL     OW17995   2.764   2.360  10.095 -0.2350  0.2625  0.5086
 2178SOL    HW117996   2.713   2.426  10.049 -0.5177  0.3879  0.9956
 2178SOL    HW217997   2.693   2.321  10.147 -1.2918 -0.9074 -1.8353
 2179SOL     OW17998   0.625   1.838   3.590  0.3905  0.0797 -0.1294
 2179SOL    HW117999   0.686   1.775   3.627  0.0970  1.1671  2.1535
 2179SOL    HW218000   0.683   1.896   3.540 -1.3411  0.7725 -1.3599
 2180SOL     OW18001   2.836   2.577  15.391 -0.2612 -0.6628 -0.5262
 2180SOL    HW118002   2.827   2.514  15.463  0.4553 -0.6270 -0.4050
 2180SOL    HW218003   2.873   2.650  15.440  0.8238 -1.5024 -0.0755
 2181SOL     OW18004   0.271   0.884   7.064 -0.6125 -0.4681 -0.2792
 2181SOL    HW118005   0.303   0.929   7.143 -3.1623  2.2034 -0.7572
 2181SOL    HW218006   0.185   0.924   7.051 -0.0986  0.9077  0.5034
 2182SOL     OW18007   4.643   3.458  13.261  0.5211 -0.3104 -0.3162
 2182SOL    HW118008   4.636   3.550  13.287 -1.1334 -0.2486 -1.0019
 2182SOL    HW218009   0.009   3.458  13.218  0.1722 -2.6568 -0.9987
 2183SOL     OW18010   3.217   2.273  16.780 -0.0254 -0.1091  0.0871
 2183SOL    HW118011   3.212   2.227  16.863  1.7847  0.0384  0.2645
 2183SOL    HW218012   3.255   2.354  16.813 -0.1288 -0.7907  1.8350
 2184SOL     OW18013   0.200   2.776   2.872 -0.1582 -0.6165  0.0611
 2184SOL    HW118014   0.221   2.866   2.848 -1.0352 -0.7916 -1.3397
 2184SOL    HW218015   0.107   2.789   2.889 -0.4799 -3.9431  0.7992
 2185SOL     OW18016   2.375   1.639   4.954 -0.2241  0.0878 -0.6966
 2185SOL    HW118017   2.378   1.690   5.035  1.3768  0.2061 -0.8453
 2185SOL    HW218018   2.365   1.554   4.997  1.8412  0.5064  0.6251
 2186SOL     OW18019   1.038   3.372  13.307  0.0846  0.4596  0.3333
 2186SOL    HW118020   1.067   3.433  13.374  0.0349 -0.7244  1.4375
 2186SOL    HW218021   0.974   3.320  13.356  0.5183  0.5077  0.9451
 2187SOL     OW18022   3.859   1.470   5.895  0.0456 -0.5590  0.0559
 2187SOL    HW118023   3.821   1.486   5.982 -0.6344  0.9493 -0.5179
 2187SOL    HW218024   3.877   1.376   5.903 -0.9673 -0.9181 -2.0574
 2188SOL     OW18025   1.964   0.783   3.569  0.1232 -0.3123 -0.8974
 2188SOL    HW118026   1.896   0.735   3.616  0.8116  0.8902  1.3363
 2188SOL    HW218027   1.980   0.717   3.501  0.3323  0.4033 -1.5414
 2189SOL     OW18028   0.284   1.575   2.958  0.0147 -0.3031  0.2750
 2189SOL    HW118029   0.230   1.580   3.036 -1.1964  0.0537 -0.5816
 2189SOL    HW218030   0.362   1.531   2.993 -0.1121  0.5315  1.6065
 2190SOL     OW18031   0.190   3.751  13.803  0.5968  0.9043  0.2086
 2190SOL    HW118032   0.169   3.843  13.813  0.0790  1.1350 -3.0850
 2190SOL    HW218033   0.235   3.755  13.719  0.6482  1.3677  0.2607
 2191SOL     OW18034   1.512   2.320   5.785  0.1334  0.3553 -0.6778
 2191SOL    HW118035   1.526   2.395   5.727  0.1039 -0.6174 -1.9589
 2191SOL    HW218036   1.573   2.344   5.855  0.4373 -0.4020 -0.6873
 2192SOL     OW18037   0.278   3.991   3.043 -0.5132  0.0652 -0.2459
 2192SOL    HW118038   0.222   3.977   2.967 -0.8309 -0.2387  0.0375
 2192SOL    HW218039   0.345   4.040   2.996 -1.1927  0.5303 -0.7192
 2193SOL     OW18040   2.681   2.904   5.706 -0.4811 -0.5456  0.4186
 2193SOL    HW118041   2.707   2.887   5.797 -1.6006 -0.2018  0.8087
 2193SOL    HW218042   2.641   2.819   5.694 -0.8301 -0.2759 -0.2812
 2194SOL     OW18043   1.083   2.814   7.405  1.0123 -0.4814  0.1704
 2194SOL    HW118044   1.171   2.814   7.367  0.4915  1.4289 -1.0147
 2194SOL    HW218045   1.077   2.908   7.423 -1.8739 -0.3783 -1.2686
 2195SOL     OW18046   4.560   4.560   0.909 -0.4223  0.8798  0.1759
 2195SOL    HW118047   4.649   4.529   0.928  0.2699  1.3529 -2.2499
 2195SOL    HW218048   4.586   4.652   0.915 -1.8945  1.1961  1.6443
 2196SOL     OW18049   0.607   3.245   6.986  0.7701 -0.1153 -0.3693
 2196SOL    HW118050   0.690   3.238   6.939  0.0641  1.5139 -1.8050
 2196SOL    HW218051   0.592   3.155   7.016 -1.3625  0.2162 -0.4753
 2197SOL     OW18052   3.938   4.042  14.845 -1.0326 -0.4612  0.0219
 2197SOL    HW118053   3.862   4.054  14.902 -2.1085 -0.2780 -1.4317
 2197SOL    HW218054   3.931   4.133  14.813 -0.5396 -0.4725 -0.1138
 2198SOL     OW18055   4.697   4.377  13.872 -0.1912  0.1582 -0.2238
 2198SOL    HW118056   4.623   4.438  13.873 -0.3474 -0.0673  1.8273
 2198SOL    HW218057   0.036   4.418  13.936  0.8941 -2.2916  0.3241
 2199SOL     OW18058   1.460   4.287   2.098  0.6935  0.3638 -0.0543
 2199SOL    HW118059   1.512   4.245   2.167  0.8987 -0.7009 -0.8456
 2199SOL    HW218060   1.384   4.228   2.092  3.4170 -2.9665 -1.6015
 2200SOL     OW18061   3.557   4.304  14.808 -0.1126  0.5488 -0.1277
 2200SOL    HW118062   3.642   4.337  14.838 -0.4154  0.8107  0.4408
 2200SOL    HW218063   3.509   4.290  14.890 -0.8708 -0.9060 -0.8259
 2201SOL     OW18064   1.340   2.065   4.636  0.6103  0.3852  0.2944
 2201SOL    HW118065   1.283   2.051   4.561  0.8652  1.3659 -0.0767
 2201SOL    HW218066   1.270   2.070   4.700 -1.6762 -0.4565 -2.1420
 2202SOL     OW18067   2.600   0.714  10.908 -0.2065  0.1883  0.1937
 2202SOL    HW118068   2.510   0.684  10.917 -0.2272  0.3699  0.6184
 2202SOL    HW218069   2.628   0.676  10.825 -0.4425  3.2545 -1.2874
 2203SOL     OW18070   2.920   3.273   1.605  0.1577 -0.9212  0.4496
 2203SOL    HW118071   2.954   3.192   1.568 -1.0342 -1.4708  0.5682
 2203SOL    HW218072   2.907   3.325   1.525  0.2799  1.1866  1.8080
 2204SOL     OW18073   3.343   4.169  17.018 -0.0286 -0.1251  0.3179
 2204SOL    HW118074   3.331   4.163  17.113  2.0801  0.6993  0.6180
 2204SOL    HW218075   3.272   4.111  16.990  1.4706 -1.4108 -0.7826
 2205SOL     OW18076   3.112   4.671  13.707 -0.4995  0.2290 -0.5303
 2205SOL    HW118077   3.119   0.001  13.626  2.6864  0.5564 -0.0386
 2205SOL    HW218078   3.073   4.590  13.674 -1.9957  1.1018 -0.8983
 2206SOL     OW18079   1.007   1.215   3.720 -0.8074  0.3011  0.3649
 2206SOL    HW118080   1.083   1.263   3.754  0.4232 -1.9103  0.7155
 2206SOL    HW218081   1.045   1.130   3.700 -1.0944  0.2622  0.0007
 2207SOL     OW18082   4.270   3.704   8.263 -0.3061  0.4334 -0.5090
 2207SOL    HW118083   4.296   3.665   8.179  1.8544  0.3644  0.1909
 2207SOL    HW218084   4.261   3.633   8.326  0.9384  0.0785 -0.7372
 2208SOL     OW18085   0.307   4.407  14.710 -0.3980 -0.8665 -0.5091
 2208SOL    HW118086   0.270   4.444  14.630  0.8342  0.9702 -0.2307
 2208SOL    HW218087   0.236   4.440  14.765 -0.3756  0.3511 -1.2140
 2209SOL     OW18088   1.604   4.075   4.064  0.3267 -0.4214 -0.0904
 2209SOL    HW118089   1.606   4.058   3.970  0.7336  1.0173 -0.3379
 2209SOL    HW218090   1.549   4.153   4.060 -0.0191 -0.7355 -1.7081
 2210SOL     OW18091   4.272   4.664   0.911 -0.3067  0.7566  0.7843
 2210SOL    HW118092   4.227   4.591   0.952  1.1640 -0.3019  0.5327
 2210SOL    HW218093   4.349   4.667   0.969  0.7242 -0.4626 -0.5374
 2211SOL     OW18094   2.838   2.761  12.521  0.2001 -0.4905 -0.7796
 2211SOL    HW118095   2.748   2.748  12.550  0.5714  0.0477  0.6147
 2211SOL    HW218096   2.877   2.753  12.608 -1.7277 -3.2886 -0.2078
 2212SOL     OW18097   3.703   3.430  14.374 -0.3345 -0.3158  0.2911
 2212SOL    HW118098   3.614   3.428  14.339  0.1245 -0.1109 -0.9045
 2212SOL    HW218099   3.739   3.513  14.342  1.2868 -0.8458  0.7234
 2213SOL     OW18100   4.372   2.870   4.344 -0.2563 -0.3482  0.4502
 2213SOL    HW118101   4.466   2.853   4.357 -0.0537 -1.5604 -2.6548
 2213SOL    HW218102   4.338   2.848   4.431 -1.4990  0.3773  0.1308
 2214SOL     OW18103   4.623   3.187  13.306 -0.1019 -0.3912  0.3175
 2214SOL    HW118104   4.619   3.282  13.306 -0.9309 -0.4259 -0.8508
 2214SOL    HW218105   4.677   3.171  13.229  0.8069 -1.2354  1.1380
 2215SOL     OW18106   3.825   4.528   8.324  0.1171 -0.1207 -0.0048
 2215SOL    HW118107   3.829   4.505   8.417 -1.5464 -2.1276 -0.4243
 2215SOL    HW218108   3.740   4.490   8.302 -0.6256  1.4365  0.1145
 2216SOL     OW18109   2.704   2.894   8.238  0.3311  0.0211  0.2630
 2216SOL    HW118110   2.646   2.902   8.314 -0.6349  1.9654 -0.6516
 2216SOL    HW218111   2.751   2.978   8.246 -0.2291  0.1857  1.7596
 2217SOL     OW18112   2.815   2.408   8.086  0.0499  0.1292  0.3505
 2217SOL    HW118113   2.726   2.414   8.119 -0.1440  1.8359 -0.5072
 2217SOL    HW218114   2.861   2.418   8.170  1.8431  1.7187 -0.8085
 2218SOL     OW18115   2.165   2.228   4.826 -0.0899 -0.5573  0.0103
 2218SOL    HW118116   2.098   2.247   4.760  0.6167  0.2284 -0.4837
 2218SOL    HW218117   2.175   2.136   4.801  2.4894 -0.3376  0.1714
 2219SOL     OW18118   3.107   3.967   4.240  0.0475 -0.7134  0.1784
 2219SOL    HW118119   3.083   3.936   4.327  0.4656  0.3297  0.6651
 2219SOL    HW218120   3.047   3.914   4.187  0.4800 -1.5941  0.5776
 2220SOL     OW18121   3.437   0.255  15.216 -0.0569  0.2335  0.2099
 2220SOL    HW118122   3.477   0.228  15.299 -0.2756  0.9204  0.5368
 2220SOL    HW218123   3.515   0.282  15.168 -1.4959 -0.3062 -2.4386
 2221SOL     OW18124   2.015   4.032  10.354 -0.2324  0.4568  0.3607
 2221SOL    HW118125   1.943   4.089  10.326  0.2860  0.5513 -0.7930
 2221SOL    HW218126   2.091   4.064  10.305  1.0216 -1.6267  0.9669
 2222SOL     OW18127   1.648   0.657   0.798 -0.4070 -0.4786  0.4268
 2222SOL    HW118128   1.642   0.728   0.862 -1.2930 -1.1976  1.1335
 2222SOL    HW218129   1.557   0.626   0.796 -0.8170  0.7232  0.6686
 2223SOL     OW18130   4.152   1.967   2.218  0.1633  0.4773  0.1112
 2223SOL    HW118131   4.072   2.004   2.182 -0.0179  0.6786  0.7184
 2223SOL    HW218132   4.219   1.974   2.150  1.2405  1.5178  1.2834
 2224SOL     OW18133   4.302   2.692   3.657 -0.1694 -0.2474 -0.7285
 2224SOL    HW118134   4.398   2.686   3.649  0.0240 -0.5215  2.0747
 2224SOL    HW218135   4.291   2.766   3.716 -3.1906 -1.1507 -0.1891
 2225SOL     OW18136   3.517   1.732   8.397  0.2005  0.4290  0.1484
 2225SOL    HW118137   3.481   1.786   8.327 -0.9914 -0.4148  0.1067
 2225SOL    HW218138   3.601   1.725   8.351  0.6022  3.2884  0.4804
 2226SOL     OW18139   4.079   3.902   3.834 -0.1676 -0.1198 -0.7173
 2226SOL    HW118140   4.174   3.895   3.835 -0.2619 -1.2957  0.4906
 2226SOL    HW218141   4.063   3.864   3.921  0.0132  0.9051 -0.2465
 2227SOL     OW18142   3.151   3.130  11.146 -0.3668 -0.1679  0.3212
 2227SOL    HW118143   3.062   3.136  11.112 -0.3947  1.0177  0.5817
 2227SOL    HW218144   3.147   3.052  11.201 -3.3301  0.5047  1.0551
 2228SOL     OW18145   4.564   2.581   3.918 -0.6151  0.3351 -0.0736
 2228SOL    HW118146   4.623   2.656   3.916  0.3434 -0.4285 -0.4465
 2228SOL    HW218147   4.610   2.518   3.863  0.9845  0.5919  0.9712
 2229SOL     OW18148   1.997   0.178   8.616  0.3808  0.2142  0.3269
 2229SOL    HW118149   1.986   0.099   8.669 -1.4900  0.0442 -0.2913
 2229SOL    HW218150   2.064   0.144   8.558  0.9812 -0.0231  1.1631
 2230SOL     OW18151   0.416   0.384  10.571  0.0557 -0.3480  0.1879
 2230SOL    HW118152   0.488   0.431  10.529  0.7314  0.0207  1.7295
 2230SOL    HW218153   0.424   0.294  10.540 -2.3995  0.6945 -3.4312
 2231SOL     OW18154   4.411   2.544   4.176  0.1115 -0.6036  0.2352
 2231SOL    HW118155   4.474   2.526   4.107 -0.0419 -1.4428  0.3095
 2231SOL    HW218156   4.457   2.577   4.253  0.4557  0.0641 -0.2616
 2232SOL     OW18157   1.131   3.997   4.833 -0.3094  0.2894  0.2913
 2232SOL    HW118158   1.101   4.081   4.800  0.0331  0.3332  0.0922
 2232SOL    HW218159   1.170   3.970   4.750  1.8295 -2.8527  2.3350
 2233SOL     OW18160   2.066   0.505   9.476  0.1975 -0.4686 -0.0604
 2233SOL    HW118161   1.983   0.462   9.494  0.4821 -0.4843  1.2332
 2233SOL    HW218162   2.061   0.578   9.538  1.8552  1.0898 -1.7280
 2234SOL     OW18163   0.048   4.338   1.204  0.0218 -0.1743 -0.7149
 2234SOL    HW118164   4.683   4.359   1.245  0.7764 -0.4527  0.9722
 2234SOL    HW218165   0.030   4.271   1.138  1.6892 -0.2092 -1.1350
 2235SOL     OW18166   2.518   3.183   7.091  0.4965 -0.5088 -0.0561
 2235SOL    HW118167   2.555   3.145   7.170  1.4832 -0.6410 -0.5726
 2235SOL    HW218168   2.544   3.275   7.103  1.5878 -0.6234 -1.4653
 2236SOL     OW18169   1.927   3.210   0.772  0.3665  0.3289 -0.1603
 2236SOL    HW118170   2.002   3.251   0.726 -0.0372  0.6470 -0.5390
 2236SOL    HW218171   1.943   3.116   0.772 -1.3079  0.0476 -0.4366
 2237SOL     OW18172   3.924   4.670   6.058 -0.3767 -0.2512  0.4482
 2237SOL    HW118173   3.838   4.707   6.078 -0.4131  0.4128 -1.0152
 2237SOL    HW218174   3.898   4.621   5.980  1.3500 -1.7574  0.8139
 2238SOL     OW18175   3.189   0.971   7.976  0.3897 -0.1920  0.4410
 2238SOL    HW118176   3.206   0.886   8.017  1.4248  1.1448  2.7884
 2238SOL    HW218177   3.224   1.026   8.045 -1.3221  0.0644  1.1146
 2239SOL     OW18178   4.685   1.506   8.037 -0.0272 -0.0611  0.0768
 2239SOL    HW118179   4.594   1.519   8.009  0.6974  1.4198 -1.5786
 2239SOL    HW218180   4.704   1.593   8.072  2.0530  0.0574 -1.3827
 2240SOL     OW18181   1.029   2.149   8.347 -0.1794 -0.2698 -0.0035
 2240SOL    HW118182   1.013   2.074   8.290  1.1380 -0.2196 -0.4389
 2240SOL    HW218183   0.944   2.188   8.365  0.4165  0.4929  1.1058
 2241SOL     OW18184   2.531   2.316   1.804  0.1878  0.2371 -0.3598
 2241SOL    HW118185   2.598   2.372   1.766 -0.8496  1.0347 -0.9857
 2241SOL    HW218186   2.555   2.231   1.767 -0.2663 -1.0418  2.2763
 2242SOL     OW18187   3.616   0.897  16.185 -0.2638  0.4354  0.1169
 2242SOL    HW118188   3.580   0.903  16.273  0.9905  1.1049  0.5766
 2242SOL    HW218189   3.550   0.848  16.136  0.5239 -1.3986  0.8935
 2243SOL     OW18190   3.145   1.258   6.155  0.0008 -0.7310  0.1291
 2243SOL    HW118191   3.142   1.301   6.240 -1.4077  0.6675 -0.6324
 2243SOL    HW218192   3.148   1.328   6.090  1.0039 -0.8158  0.0779
 2244SOL     OW18193   4.247   1.559   6.439 -0.4698  0.0085  0.2675
 2244SOL    HW118194   4.199   1.481   6.413  0.0430  0.0690 -0.8546
 2244SOL    HW218195   4.210   1.623   6.378  0.4055 -1.1175 -1.4394
 2245SOL     OW18196   2.966   0.716   3.647  0.7028  0.3771 -0.6794
 2245SOL    HW118197   3.057   0.729   3.675  0.7065 -2.1465  0.5439
 2245SOL    HW218198   2.918   0.765   3.713  0.4724 -0.4333 -0.2403
 2246SOL     OW18199   2.630   1.487   7.331 -0.4901  0.1434  0.0926
 2246SOL    HW118200   2.718   1.492   7.369 -1.3612 -0.3480  2.1462
 2246SOL    HW218201   2.650   1.503   7.239 -2.2579  1.2278 -0.0926
 2247SOL     OW18202   1.891   2.990   2.319  0.0235  0.1555  0.8040
 2247SOL    HW118203   1.885   2.986   2.414  0.6592  2.4753  0.9491
 2247SOL    HW218204   1.844   3.072   2.303  1.1550  0.6572  0.0511
 2248SOL     OW18205   2.810   4.703   6.933  0.5793 -0.2536  0.4669
 2248SOL    HW118206   2.838   0.072   6.912 -2.6774  0.9262  1.0604
 2248SOL    HW218207   2.729   0.001   6.981  0.7620 -0.6012  0.9054
 2249SOL     OW18208   0.696   0.367   4.485  0.0028  0.0628 -0.1607
 2249SOL    HW118209   0.624   0.397   4.428 -1.6229 -0.8037  1.4367
 2249SOL    HW218210   0.732   0.448   4.520  0.2984  0.4701 -1.3980
 2250SOL     OW18211   2.535   3.467  13.611  0.1865 -0.2670 -0.5064
 2250SOL    HW118212   2.533   3.461  13.516 -0.1360 -1.4409 -0.4282
 2250SOL    HW218213   2.627   3.459  13.637 -0.5380 -0.0149  2.2250
 2251SOL     OW18214   3.577   3.453   7.458 -0.0459 -0.4049 -0.2180
 2251SOL    HW118215   3.644   3.482   7.395 -0.7845  0.1827 -0.7417
 2251SOL    HW218216   3.511   3.522   7.453  2.9863  2.4720 -1.3452
 2252SOL     OW18217   0.060   0.155  16.266 -0.3988  0.1177  0.1729
 2252SOL    HW118218   0.092   0.082  16.212  0.3488  0.5313  0.0558
 2252SOL    HW218219   0.089   0.120  16.351 -2.1499  0.6912  1.0170
 2253SOL     OW18220   1.456   2.927   2.773 -0.3577  0.4066  0.2142
 2253SOL    HW118221   1.500   2.907   2.691 -2.0762 -1.3380 -0.2756
 2253SOL    HW218222   1.365   2.928   2.743 -1.0162  0.9791  2.2178
 2254SOL     OW18223   1.591   3.322   5.655 -0.1664 -0.0668  0.6801
 2254SOL    HW118224   1.605   3.416   5.655  0.0702 -0.1207 -2.1275
 2254SOL    HW218225   1.517   3.317   5.717 -0.4682 -0.1699  0.3126
 2255SOL     OW18226   4.613   0.079  17.182  0.0620 -0.0795  0.4302
 2255SOL    HW118227   4.600   4.710  17.216 -0.0052 -0.0150  0.5729
 2255SOL    HW218228   4.680   0.055  17.118 -0.1839  1.2398 -0.3405
 2256SOL     OW18229   4.291   4.200   8.052  0.0637 -0.6567 -0.1668
 2256SOL    HW118230   4.304   4.249   8.133 -0.3252  0.9504 -1.0678
 2256SOL    HW218231   4.258   4.268   7.993  3.4887  0.4394 -0.7951
 2257SOL     OW18232   4.275   1.310   4.568  0.3666 -0.4344  0.1786
 2257SOL    HW118233   4.200   1.323   4.511  1.2570 -0.9863 -1.1143
 2257SOL    HW218234   4.345   1.373   4.553 -0.5430  0.9091  1.5013
 2258SOL     OW18235   2.419   3.459   3.354  0.1086  0.4720 -0.1762
 2258SOL    HW118236   2.427   3.371   3.317 -1.4226 -0.4560  1.6696
 2258SOL    HW218237   2.467   3.504   3.284  3.9367 -3.0690  0.1295
 2259SOL     OW18238   1.886   2.232   7.776 -0.4279  0.8216 -0.1265
 2259SOL    HW118239   1.856   2.149   7.812 -1.2811  0.9620 -0.5004
 2259SOL    HW218240   1.959   2.242   7.836 -0.8377  1.7338  0.2278
 2260SOL     OW18241   3.763   4.235   8.492 -0.0040  0.1316 -0.3105
 2260SOL    HW118242   3.767   4.152   8.540 -3.1310  0.3851  0.3915
 2260SOL    HW218243   3.729   4.297   8.556  0.0145  0.3365 -0.5009
 2261SOL     OW18244   0.547   1.993   2.804 -0.0414 -0.2951  0.3853
 2261SOL    HW118245   0.492   2.034   2.738 -0.5252 -2.3391 -0.4768
 2261SOL    HW218246   0.518   1.902   2.800 -1.0760  0.1754 -2.8603
 2262SOL     OW18247   1.540   0.714   3.600  0.1847  0.2366  0.0536
 2262SOL    HW118248   1.520   0.622   3.582 -0.1644 -0.0577  1.9345
 2262SOL    HW218249   1.492   0.750   3.526  1.1904  1.1911 -0.1377
 2263SOL     OW18250   0.179   4.018  16.195 -0.2657 -0.2814  0.2084
 2263SOL    HW118251   0.136   3.938  16.226  1.0308 -0.9073  0.4194
 2263SOL    HW218252   0.233   3.972  16.130 -1.1735 -1.5444  0.3451
 2264SOL     OW18253   1.612   4.416   6.181  0.1624  0.0588  0.0645
 2264SOL    HW118254   1.685   4.475   6.197 -0.2984  0.7440 -0.3218
 2264SOL    HW218255   1.546   4.486   6.184 -1.1224 -1.1349 -0.3045
 2265SOL     OW18256   1.330   0.578  16.082  0.1055  0.0958 -0.3721
 2265SOL    HW118257   1.264   0.522  16.040  1.0918 -0.7416 -0.8230
 2265SOL    HW218258   1.353   0.539  16.167  0.6871  2.4570  0.5467
 2266SOL     OW18259   3.468   4.352  13.924  0.2371 -0.9373  0.0801
 2266SOL    HW118260   3.419   4.429  13.894  2.7528 -0.5167 -2.9684
 2266SOL    HW218261   3.433   4.280  13.871 -1.6605  0.0303  0.0243
 2267SOL     OW18262   3.055   4.190   7.884 -0.4738 -0.1950 -0.0202
 2267SOL    HW118263   3.140   4.175   7.843 -1.1300  0.5109 -1.6397
 2267SOL    HW218264   3.064   4.129   7.957  1.1949  0.3537  0.2320
 2268SOL     OW18265   1.906   2.286  15.080  0.6795  0.2977 -0.2694
 2268SOL    HW118266   1.919   2.351  15.149  0.2764  0.4901 -0.3718
 2268SOL    HW218267   1.811   2.277  15.085  0.5052  0.2786 -3.6833
 2269SOL     OW18268   1.333   2.632  13.646  0.1703  0.1367  0.0475
 2269SOL    HW118269   1.262   2.691  13.673 -2.4361 -2.3682 -1.3451
 2269SOL    HW218270   1.372   2.683  13.575  1.3771 -0.2628  0.4130
 2270SOL     OW18271   1.459   2.862  10.363  0.6304  0.0643  0.3670
 2270SOL    HW118272   1.486   2.926  10.429 -1.3824  1.0594  0.2297
 2270SOL    HW218273   1.465   2.774  10.400 -2.6924 -0.4654 -0.4156
 2271SOL     OW18274   0.461   0.214   1.597  0.0128  0.1687 -0.4022
 2271SOL    HW118275   0.518   0.209   1.521  2.4104 -1.2733  1.4723
 2271SOL    HW218276   0.480   0.132   1.643  1.3390  1.3634  1.2111
 2272SOL     OW18277   1.502   0.983   8.299 -0.0954  0.3527 -0.2712
 2272SOL    HW118278   1.555   0.921   8.348 -0.9018  0.3064  0.5491
 2272SOL    HW218279   1.430   0.982   8.362 -1.5300 -1.0513 -1.9248
 2273SOL     OW18280   4.163   2.077   5.159  0.3348  0.9173  0.7289
 2273SOL    HW118281   4.190   2.103   5.071  0.0974 -1.3328 -0.0052
 2273SOL    HW218282   4.115   2.159   5.159  0.9625  1.2921 -0.1899
 2274SOL     OW18283   0.356   1.838   2.138  0.2318 -0.6128  0.2530
 2274SOL    HW118284   0.277   1.866   2.091  1.1911 -0.2071 -1.1072
 2274SOL    HW218285   0.424   1.870   2.079 -0.0271 -1.9025 -0.7295
 2275SOL     OW18286   3.283   3.769   0.301 -0.6144 -0.0807 -0.8834
 2275SOL    HW118287   3.261   3.762   0.393  1.1040  0.9363 -0.4007
 2275SOL    HW218288   3.200   3.762   0.254 -0.6307 -0.0046 -0.8657
 2276SOL     OW18289   3.077   0.085  10.749  0.4688  0.0180 -0.1445
 2276SOL    HW118290   3.058   0.048  10.836  2.2594 -1.4345 -0.3839
 2276SOL    HW218291   3.051   0.011  10.694 -0.1736 -0.5577  0.9365
 2277SOL     OW18292   1.185   1.811   8.305  0.5843  0.2660  0.6941
 2277SOL    HW118293   1.255   1.848   8.359  1.5861 -0.8596  0.1778
 2277SOL    HW218294   1.139   1.759   8.372  2.2705 -0.0159  1.6588
 2278SOL     OW18295   2.323   2.751   5.646 -0.8010 -0.0068 -0.0900
 2278SOL    HW118296   2.302   2.746   5.552 -0.2131  0.0762 -0.2282
 2278SOL    HW218297   2.409   2.710   5.644 -1.3166 -1.0972 -0.0501
 2279SOL     OW18298   2.415   0.274   4.592  0.1894  0.6731 -0.0875
 2279SOL    HW118299   2.376   0.220   4.661  2.8342  0.6713  1.4070
 2279SOL    HW218300   2.350   0.344   4.602 -0.9008 -0.2546 -0.6197
 2280SOL     OW18301   4.115   3.602   5.160  0.1397 -0.1796  0.1591
 2280SOL    HW118302   4.051   3.642   5.100 -0.1299 -0.6620  0.1192
 2280SOL    HW218303   4.054   3.587   5.231 -0.6672 -0.1051 -0.5115
 2281SOL     OW18304   4.581   0.990   8.257 -0.2922  0.0501  0.6810
 2281SOL    HW118305   4.621   0.906   8.235  1.3289  1.0677 -0.2388
 2281SOL    HW218306   4.559   0.976   8.349 -1.8731  0.4411  0.3679
 2282SOL     OW18307   2.413   2.105   1.607  0.4631  0.0423 -0.0318
 2282SOL    HW118308   2.389   2.170   1.541 -4.5983 -1.1108  0.6120
 2282SOL    HW218309   2.347   2.035   1.612  0.2167  0.2282 -0.6904
 2283SOL     OW18310   1.979   2.753   9.897  0.4024  0.0862 -0.3564
 2283SOL    HW118311   1.969   2.734   9.990  1.6593 -0.7028 -0.3777
 2283SOL    HW218312   1.901   2.802   9.872 -0.8295 -0.7116  1.8935
 2284SOL     OW18313   0.156   3.575   7.073  0.1927  0.3715 -0.0532
 2284SOL    HW118314   0.236   3.627   7.081  1.3986 -1.3814 -0.8132
 2284SOL    HW218315   0.194   3.502   7.025 -2.8336 -0.8610 -0.5531
 2285SOL     OW18316   2.310   0.490   7.077 -0.0476  0.4165  0.4013
 2285SOL    HW118317   2.258   0.567   7.055  0.4725  0.5413 -0.3641
 2285SOL    HW218318   2.373   0.485   7.006  0.4261 -2.1095  0.9841
 2286SOL     OW18319   3.054   2.566  16.058 -0.1172  0.4047 -0.0823
 2286SOL    HW118320   3.021   2.558  16.148 -0.0480 -1.3906 -0.2148
 2286SOL    HW218321   3.137   2.612  16.069 -0.2959  0.2678  1.8282
 2287SOL     OW18322   0.981   3.026  13.042 -0.4470  0.3191 -0.3697
 2287SOL    HW118323   1.031   3.060  12.968  1.1412  0.9832  0.9935
 2287SOL    HW218324   0.914   3.093  13.051 -0.1789  0.8440 -2.2366
 2288SOL     OW18325   1.606   1.421   7.349 -0.0045  0.1090 -0.3222
 2288SOL    HW118326   1.679   1.472   7.384 -0.3333  0.5506 -0.2764
 2288SOL    HW218327   1.577   1.469   7.271 -1.1902 -0.5999 -0.3204
 2289SOL     OW18328   0.167   0.335  10.413 -0.1813 -0.4345  0.6866
 2289SOL    HW118329   0.241   0.359  10.358 -0.2245 -0.5495  0.5799
 2289SOL    HW218330   0.193   0.257  10.461 -0.9453  0.7654  3.0797
 2290SOL     OW18331   0.165   3.949   9.591 -0.1787  0.1098 -0.1572
 2290SOL    HW118332   0.230   4.019   9.598  0.3228 -0.3485 -0.2070
 2290SOL    HW218333   0.092   3.984   9.641  0.5870  2.8991 -0.9898
 2291SOL     OW18334   3.819   3.665   1.814 -0.1711  0.1774  0.2847
 2291SOL    HW118335   3.774   3.631   1.737  0.0934  0.7621 -0.1265
 2291SOL    HW218336   3.905   3.648   1.775  0.8534 -1.2784  3.1533
 2292SOL     OW18337   0.207   1.742   1.687  0.1098  0.1703 -0.5687
 2292SOL    HW118338   0.114   1.750   1.665  0.6303  0.9768 -2.4526
 2292SOL    HW218339   0.224   1.836   1.683  0.1868  0.3353  3.2813
 2293SOL     OW18340   4.068   0.816   2.546 -0.0303  0.0291  0.1295
 2293SOL    HW118341   4.085   0.723   2.562  0.6421  0.2837  0.8608
 2293SOL    HW218342   3.972   0.816   2.551 -0.1411 -1.6663 -1.9603
 2294SOL     OW18343   1.848   1.344   2.983  0.4021 -0.3447 -0.1453
 2294SOL    HW118344   1.874   1.409   2.918 -1.9549 -0.3492 -1.0958
 2294SOL    HW218345   1.933   1.311   3.014  1.3666 -0.6348 -3.1508
 2295SOL     OW18346   3.477   2.139  13.628  0.5332 -0.4809 -0.2570
 2295SOL    HW118347   3.429   2.133  13.545 -2.3273  1.6415  1.2127
 2295SOL    HW218348   3.426   2.087  13.690 -0.9124 -0.3284 -1.3153
 2296SOL     OW18349   2.668   2.546   7.305 -0.4520 -0.0670  0.3198
 2296SOL    HW118350   2.591   2.530   7.251 -0.5603  3.0176 -0.4418
 2296SOL    HW218351   2.644   2.485   7.374  1.9166 -2.3078 -0.8074
 2297SOL     OW18352   1.647   4.064   7.225 -0.0472 -0.5263 -0.4380
 2297SOL    HW118353   1.565   4.016   7.236 -0.4496  0.3920  0.6005
 2297SOL    HW218354   1.714   4.007   7.262  0.3005 -0.3032 -0.7152
 2298SOL     OW18355   0.756   2.058   9.514  0.6021  0.2415  0.4693
 2298SOL    HW118356   0.779   1.973   9.477 -2.1799  0.5502 -1.9390
 2298SOL    HW218357   0.741   2.044   9.608 -1.1504 -2.6903 -0.2459
 2299SOL     OW18358   4.151   0.024   4.584  0.1753 -0.1405 -0.6309
 2299SOL    HW118359   4.087   4.676   4.560 -1.0235  0.8322 -0.1707
 2299SOL    HW218360   4.120   0.099   4.533 -3.4153 -0.1270  1.5749
 2300SOL     OW18361   2.652   1.678   2.043 -0.4816 -0.3630  0.4243
 2300SOL    HW118362   2.572   1.693   1.992 -0.1493  2.9871  0.9049
 2300SOL    HW218363   2.649   1.583   2.041  0.9856 -0.4118  0.3605
 2301SOL     OW18364   3.993   1.810  11.200 -0.2241 -0.0823  0.5641
 2301SOL    HW118365   3.925   1.752  11.234 -1.2280  1.7370  1.6608
 2301SOL    HW218366   4.070   1.758  11.175 -1.2730 -2.1482  1.6610
 2302SOL     OW18367   2.737   3.692   1.731 -0.1727  0.0125  0.0402
 2302SOL    HW118368   2.644   3.710   1.720 -0.3493 -0.7205  0.3823
 2302SOL    HW218369   2.726   3.637   1.808  1.5923 -0.0218  0.2648
 2303SOL     OW18370   3.476   2.751   7.879 -0.5804 -0.1860  0.2071
 2303SOL    HW118371   3.520   2.821   7.927 -0.7249  0.5922 -0.8053
 2303SOL    HW218372   3.544   2.683   7.870  0.0034  0.0487  2.6974
 2304SOL     OW18373   3.391   2.205   7.408 -0.2864  0.2798  0.7997
 2304SOL    HW118374   3.449   2.277   7.435 -1.7271  1.7962 -0.1176
 2304SOL    HW218375   3.434   2.128   7.443 -0.6013 -0.0637  0.4297
 2305SOL     OW18376   1.556   4.285   7.509  0.1200  0.2152  0.0163
 2305SOL    HW118377   1.462   4.305   7.507  0.3357  1.3369  1.0391
 2305SOL    HW218378   1.562   4.215   7.444  0.7554  0.1487  0.1461
 2306SOL     OW18379   0.204   0.531   1.260  0.8315  0.0406  0.7033
 2306SOL    HW118380   0.142   0.465   1.232  1.3832 -0.4817  0.7107
 2306SOL    HW218381   0.279   0.523   1.201 -1.1774 -0.9277 -1.6626
 2307SOL     OW18382   0.907   1.970  12.452  0.2392 -0.0960 -0.4483
 2307SOL    HW118383   0.837   1.913  12.484 -0.2590  0.9055  0.2457
 2307SOL    HW218384   0.938   1.932  12.370  0.6306 -2.3571  0.7548
 2308SOL     OW18385   1.904   0.632   3.923  0.0862 -0.2450  0.4252
 2308SOL    HW118386   1.873   0.626   3.833  2.7648 -0.5602 -0.4660
 2308SOL    HW218387   1.973   0.566   3.934 -0.0442 -0.6748 -1.4552
 2309SOL     OW18388   0.094   3.535   9.589 -0.6632 -0.1866  0.3425
 2309SOL    HW118389   0.021   3.518   9.649 -2.0664  0.4062 -1.2158
 2309SOL    HW218390   0.051   3.521   9.505  2.6001 -2.0563 -1.0382
 2310SOL     OW18391   1.008   0.285  12.754  0.3409 -0.4181  0.0787
 2310SOL    HW118392   1.089   0.237  12.771 -0.7548 -1.6989  1.7535
 2310SOL    HW218393   0.951   0.220  12.713 -1.9692  0.4711  1.8858
 2311SOL     OW18394   4.714   3.747   1.920 -0.0173 -0.2674 -0.0444
 2311SOL    HW118395   4.661   3.820   1.952 -0.9307 -1.5058  1.3023
 2311SOL    HW218396   0.068   3.774   1.866  0.3885 -2.0648 -0.3875
 2312SOL     OW18397   2.937   0.389   4.604  0.3594 -0.3810 -0.1189
 2312SOL    HW118398   2.852   0.361   4.638  0.2067  0.4023  0.1563
 2312SOL    HW218399   2.944   0.363   4.512 -1.4583 -0.3613 -0.2672
 2313SOL     OW18400   2.438   1.495   3.925 -0.7874 -0.3059  0.8106
 2313SOL    HW118401   2.505   1.512   3.859 -0.0856  1.4633  1.9786
 2313SOL    HW218402   2.408   1.409   3.898  0.9837  0.9871 -5.2164
 2314SOL     OW18403   0.409   0.661   7.091 -0.1395  0.2558  0.2758
 2314SOL    HW118404   0.362   0.742   7.072  1.7315  0.7776 -2.2144
 2314SOL    HW218405   0.429   0.626   7.004  1.8260 -1.1729  1.2818
 2315SOL     OW18406   2.497   2.535   8.083  0.0816  0.3192  0.0682
 2315SOL    HW118407   2.532   2.614   8.041 -0.9630  1.2618  0.9719
 2315SOL    HW218408   2.550   2.521   8.162  0.1548 -1.6225 -0.3255
 2316SOL     OW18409   3.529   4.068  10.636 -0.2200 -0.6784  0.1363
 2316SOL    HW118410   3.557   4.009  10.567 -1.7886 -0.4632 -0.6789
 2316SOL    HW218411   3.485   4.137  10.587 -0.4165 -2.1495 -1.7363
 2317SOL     OW18412   3.705   2.631   2.875 -0.1369  0.4776 -0.1604
 2317SOL    HW118413   3.634   2.611   2.936  1.2505 -1.3429  0.8417
 2317SOL    HW218414   3.707   2.562   2.810 -1.8598  2.3155 -2.1627
 2318SOL     OW18415   1.087   3.898   3.649  0.1265 -0.1271  0.6353
 2318SOL    HW118416   1.049   3.982   3.675 -1.0639 -0.8857  1.3257
 2318SOL    HW218417   1.008   3.855   3.616 -0.0911 -0.6936  1.9287
 2319SOL     OW18418   1.821   3.746   9.173  0.4332  0.1675  0.1424
 2319SOL    HW118419   1.731   3.715   9.166  0.5217 -0.2905  1.1692
 2319SOL    HW218420   1.835   3.811   9.103 -1.0719 -0.2508 -0.5589
 2320SOL     OW18421   1.737   3.252   2.333  0.0832  0.3740  0.6481
 2320SOL    HW118422   1.750   3.276   2.424 -1.6848 -1.4425  1.4000
 2320SOL    HW218423   1.655   3.299   2.323  0.7123  1.4001  0.3574
 2321SOL     OW18424   1.488   3.906  11.357 -0.3805 -0.4351 -0.2336
 2321SOL    HW118425   1.510   3.899  11.450 -0.1666  1.8284 -0.1109
 2321SOL    HW218426   1.481   3.814  11.335  0.9513 -0.5525 -0.1502
 2322SOL     OW18427   0.757   2.664   4.554 -0.2711  0.2193 -0.1133
 2322SOL    HW118428   0.671   2.689   4.588  0.0580  0.7773  0.3012
 2322SOL    HW218429   0.741   2.708   4.470 -1.4319  0.0527  0.0252
 2323SOL     OW18430   0.526   0.865   2.389  0.3666 -0.4354  0.2426
 2323SOL    HW118431   0.503   0.773   2.382 -2.1926  0.4457 -3.2520
 2323SOL    HW218432   0.441   0.909   2.395 -0.0945 -1.0161 -2.0626
 2324SOL     OW18433   3.761   1.973   2.513 -0.4315 -0.0439 -0.4502
 2324SOL    HW118434   3.846   1.994   2.473 -0.2887 -0.0523 -0.1459
 2324SOL    HW218435   3.766   2.018   2.597 -0.3928 -0.5111 -0.2045
 2325SOL     OW18436   0.067   3.701   8.911 -0.2925  0.4372 -0.1312
 2325SOL    HW118437   4.703   3.666   8.944 -0.4337 -1.0166 -2.0177
 2325SOL    HW218438   0.128   3.641   8.953 -0.2520 -0.4118 -1.4029
 2326SOL     OW18439   0.953   1.129   8.570  0.3661  0.3327  0.7456
 2326SOL    HW118440   1.048   1.137   8.565  0.4400 -0.8090  0.4137
 2326SOL    HW218441   0.930   1.205   8.624 -0.2981  0.8715 -0.3092
 2327SOL     OW18442   2.577   3.979   6.429  0.6136  0.1803 -0.0031
 2327SOL    HW118443   2.563   4.073   6.420  0.9162  0.1276 -0.9369
 2327SOL    HW218444   2.511   3.949   6.492  2.5868 -1.3452  1.3291
 2328SOL     OW18445   2.707   3.567   8.800 -0.2380  0.2489 -0.0258
 2328SOL    HW118446   2.672   3.564   8.711 -1.1075 -1.0013  0.3615
 2328SOL    HW218447   2.737   3.476   8.801 -0.2192  0.2445 -0.8671
 2329SOL     OW18448   3.719   0.195   6.559 -0.5211 -0.2300 -0.3691
 2329SOL    HW118449   3.722   0.151   6.644  0.3698 -0.8739 -0.7283
 2329SOL    HW218450   3.810   0.225   6.562 -0.8730  1.1149 -3.4312
 2330SOL     OW18451   2.249   1.543   9.360 -0.6347  0.4212  0.3737
 2330SOL    HW118452   2.161   1.545   9.398 -0.5994  0.4761  0.4529
 2330SOL    HW218453   2.271   1.631   9.390 -0.4841  0.3985  0.3307
 2331SOL     OW18454   2.584   3.728   2.061  0.1366 -0.2835 -0.0623
 2331SOL    HW118455   2.560   3.667   2.131 -0.2568  0.8698  0.8081
 2331SOL    HW218456   2.520   3.710   1.992  0.4997  0.6313 -0.6432
 2332SOL     OW18457   2.689   3.301  13.222 -0.3599  0.2265 -0.2266
 2332SOL    HW118458   2.698   3.209  13.198 -2.1973 -0.3543  1.3000
 2332SOL    HW218459   2.597   3.317  13.199 -0.5847 -2.4731 -1.1909
 2333SOL     OW18460   0.849   3.769   5.648  0.2086  0.0092 -0.1252
 2333SOL    HW118461   0.806   3.684   5.658 -0.4727  0.4912  1.0256
 2333SOL    HW218462   0.771   3.824   5.642  0.9540  1.0730 -0.0436
 2334SOL     OW18463   0.143   0.941   1.334 -0.0400 -0.4174  0.2481
 2334SOL    HW118464   0.114   0.957   1.245 -0.2028 -2.5047 -0.0679
 2334SOL    HW218465   0.088   0.868   1.360 -0.7623 -0.0625 -0.2869
 2335SOL     OW18466   0.396   2.717   6.343  0.1645 -0.3653  0.2706
 2335SOL    HW118467   0.456   2.694   6.413 -1.0651 -0.3631  1.3350
 2335SOL    HW218468   0.420   2.810   6.346  1.5273 -0.6128 -2.6455
 2336SOL     OW18469   1.345   4.557   8.151  0.7564  0.0619  0.0827
 2336SOL    HW118470   1.363   4.466   8.173  2.3264  0.7099  1.5643
 2336SOL    HW218471   1.358   4.593   8.239  0.6227 -0.9200  0.4995
 2337SOL     OW18472   2.838   3.169   6.894 -0.2894  0.2276 -0.6503
 2337SOL    HW118473   2.863   3.256   6.927  0.3131  0.2922 -1.2835
 2337SOL    HW218474   2.881   3.109   6.955 -1.3709  0.3794  0.2591
 2338SOL     OW18475   3.822   1.886   6.170 -0.0476 -0.9110  0.2243
 2338SOL    HW118476   3.765   1.835   6.112 -0.8051 -2.2776  2.1708
 2338SOL    HW218477   3.756   1.955   6.168  2.6809  1.6542 -0.5078
 2339SOL     OW18478   1.577   1.350   3.000  0.1099  0.5753 -0.1009
 2339SOL    HW118479   1.550   1.431   2.957 -0.5670  0.2138 -0.3445
 2339SOL    HW218480   1.670   1.341   2.977  0.5015 -1.6291  2.3363
 2340SOL     OW18481   1.552   4.100   3.423 -0.0954 -0.0363 -0.2616
 2340SOL    HW118482   1.526   4.176   3.474  0.9291  0.7885 -0.9735
 2340SOL    HW218483   1.474   4.046   3.440  0.8823 -1.1801  0.5297
 2341SOL     OW18484   2.487   2.471   8.843  0.5571  0.3262 -0.0482
 2341SOL    HW118485   2.570   2.501   8.807  0.0667  1.2151 -0.4580
 2341SOL    HW218486   2.453   2.558   8.864  3.0567  1.2979 -0.0795
 2342SOL     OW18487   3.947   0.139   5.524  0.0962  0.2693  0.2188
 2342SOL    HW118488   3.877   0.198   5.495  0.5520  0.0081 -1.4204
 2342SOL    HW218489   4.009   0.154   5.453  0.5664 -0.4856  0.4671
 2343SOL     OW18490   1.660   3.719  10.265  0.7349 -0.0545 -0.3292
 2343SOL    HW118491   1.568   3.745  10.254  0.9325  1.2944  1.1627
 2343SOL    HW218492   1.660   3.629  10.232 -1.3350 -0.3905  0.5793
 2344SOL     OW18493   0.870   4.030  10.631 -0.6562 -0.1371  0.0546
 2344SOL    HW118494   0.927   3.957  10.655 -0.8332 -0.8219 -1.5783
 2344SOL    HW218495   0.927   4.057  10.560  1.2643  0.9386  2.0090
 2345SOL     OW18496   3.720   0.386   5.537  0.2602  0.3368  0.0886
 2345SOL    HW118497   3.670   0.423   5.609 -1.9959  0.6803 -1.6702
 2345SOL    HW218498   3.754   0.465   5.495  0.4354 -0.9084 -2.1285
 2346SOL     OW18499   1.399   4.634   1.924 -0.2465  0.0983  0.3977
 2346SOL    HW118500   1.358   4.711   1.962 -0.9182 -0.4789  0.8289
 2346SOL    HW218501   1.328   4.597   1.871 -2.3056  3.3827  0.8509
 2347SOL     OW18502   3.132   4.053   7.451 -1.0511 -0.6538  0.1111
 2347SOL    HW118503   3.144   4.145   7.475 -1.8295 -0.5923  0.2758
 2347SOL    HW218504   3.184   4.056   7.371 -2.1838  0.7831 -0.5559
 2348SOL     OW18505   0.360   0.145  14.881 -0.5521  0.2820 -0.3643
 2348SOL    HW118506   0.393   0.120  14.795 -0.1295 -4.0950  1.0334
 2348SOL    HW218507   0.269   0.117  14.878 -0.7487  0.9202 -0.1898
 2349SOL     OW18508   4.636   3.055   5.295 -0.0253  0.1932  0.3695
 2349SOL    HW118509   4.579   2.981   5.272  0.1207 -0.2003  1.2501
 2349SOL    HW218510   4.647   3.092   5.208 -1.3782 -2.8891 -1.1294
 2350SOL     OW18511   3.321   4.719   3.198 -0.2233 -0.2395 -0.3301
 2350SOL    HW118512   3.309   4.708   3.292 -1.8752  3.0835 -0.1664
 2350SOL    HW218513   3.371   4.637   3.185  1.7160  0.6994  1.1203
 2351SOL     OW18514   0.639   0.450  14.084 -0.4898  0.4475  0.3191
 2351SOL    HW118515   0.685   0.439  14.001 -1.6056  0.3742 -0.2816
 2351SOL    HW218516   0.556   0.412  14.056 -0.7155  0.3224  1.1488
 2352SOL     OW18517   0.960   1.769  16.191  0.0472  0.4694  0.2083
 2352SOL    HW118518   0.937   1.822  16.115 -0.0275  1.0081  0.6071
 2352SOL    HW218519   1.032   1.819  16.230  0.6100  0.3622 -0.7025
 2353SOL     OW18520   4.253   2.050   3.348 -0.0345 -0.3157  0.0864
 2353SOL    HW118521   4.339   2.066   3.387 -0.4681  0.3983  0.7550
 2353SOL    HW218522   4.222   2.141   3.353 -0.4971 -0.5230  0.8392
 2354SOL     OW18523   2.405   2.715  12.108 -0.4208 -0.0812  0.5507
 2354SOL    HW118524   2.363   2.763  12.180  2.1703  4.6987 -1.1163
 2354SOL    HW218525   2.355   2.634  12.113  0.0164 -0.5942 -3.3847
 2355SOL     OW18526   3.089   3.489   3.592  0.2698 -0.2409 -0.2631
 2355SOL    HW118527   3.082   3.581   3.619  1.7733 -0.2327  0.0516
 2355SOL    HW218528   3.176   3.467   3.624  0.2344  0.1323  0.0999
 2356SOL     OW18529   4.666   1.178   2.601  0.0611  0.2135 -0.3965
 2356SOL    HW118530   4.647   1.265   2.567 -0.7503  0.4262  0.5957
 2356SOL    HW218531   4.709   1.197   2.684 -2.1558  0.0527  0.8064
 2357SOL     OW18532   0.168   1.813   4.819 -0.0130 -0.3979  0.0903
 2357SOL    HW118533   0.085   1.831   4.774  0.3466 -0.1636 -0.4813
 2357SOL    HW218534   0.153   1.723   4.847  0.0965 -0.1254  1.0262
 2358SOL     OW18535   2.819   1.190   5.401  0.4074  0.2652 -0.1536
 2358SOL    HW118536   2.880   1.134   5.353  0.0507  0.3479 -0.7044
 2358SOL    HW218537   2.808   1.132   5.476 -1.6772  0.4937 -0.2767
 2359SOL     OW18538   4.062   0.343   9.328 -0.0313 -0.1406 -0.8376
 2359SOL    HW118539   4.116   0.301   9.395 -0.1608  2.7739  1.1435
 2359SOL    HW218540   4.112   0.399   9.269  1.5740 -1.8591 -1.0786
 2360SOL     OW18541   3.557   4.122   0.251  0.5046  0.5949  0.0768
 2360SOL    HW118542   3.493   4.142   0.183 -1.2639  0.5295  1.7040
 2360SOL    HW218543   3.529   4.031   0.261 -2.5246  1.5514  0.4214
 2361SOL     OW18544   0.331   4.041  14.060 -0.2019 -0.1402  0.1152
 2361SOL    HW118545   0.256   4.088  14.025 -0.3824 -0.3405  0.2346
 2361SOL    HW218546   0.389   4.117  14.063 -0.1287 -0.1106 -1.5793
 2362SOL     OW18547   2.853   2.493   3.444  0.1388  0.6838 -0.4931
 2362SOL    HW118548   2.927   2.443   3.409 -1.2924 -0.3868 -2.0176
 2362SOL    HW218549   2.830   2.435   3.516  0.3258  1.3329  0.0794
 2363SOL     OW18550   0.752   1.075   4.366  0.1753 -0.2699  0.3773
 2363SOL    HW118551   0.846   1.069   4.385  0.4241 -0.2035 -0.8409
 2363SOL    HW218552   0.759   1.135   4.292 -0.0365 -1.9917 -1.0411
 2364SOL     OW18553   2.758   2.197   8.691 -0.0608 -0.2450 -0.4468
 2364SOL    HW118554   2.691   2.213   8.757 -0.3758  3.3741 -1.6068
 2364SOL    HW218555   2.730   2.118   8.646 -1.7045  1.3020 -2.1470
 2365SOL     OW18556   0.611   2.848  12.432  0.2211 -0.3258  0.3063
 2365SOL    HW118557   0.661   2.843  12.514 -0.0646 -0.2895  0.4800
 2365SOL    HW218558   0.535   2.895  12.464 -0.1324 -0.5308 -0.2281
 2366SOL     OW18559   2.512   2.554   6.004 -0.0499 -0.3440  0.0205
 2366SOL    HW118560   2.604   2.577   5.993 -0.4411  1.1441 -0.0327
 2366SOL    HW218561   2.494   2.498   5.929 -3.0709  0.5018  0.0848
 2367SOL     OW18562   1.265   0.728   0.442  0.7752  0.5557 -0.1974
 2367SOL    HW118563   1.316   0.808   0.454  1.6444 -0.0107 -0.1043
 2367SOL    HW218564   1.275   0.698   0.533  0.2046  1.0154  0.0126
 2368SOL     OW18565   4.013   0.912   6.100  0.3446  0.0212  0.0293
 2368SOL    HW118566   4.098   0.911   6.145 -0.2368  1.0089  1.1549
 2368SOL    HW218567   3.971   0.832   6.130  2.0878 -0.5897  0.8598
 2369SOL     OW18568   0.026   4.032  14.200 -0.5730 -0.6059  0.8513
 2369SOL    HW118569   0.107   3.988  14.172  0.8852  2.0100  0.9328
 2369SOL    HW218570   4.719   3.971  14.269 -1.1676 -2.4887 -1.0373
 2370SOL     OW18571   3.921   4.231   8.265 -0.2187  0.6605  0.1092
 2370SOL    HW118572   3.881   4.220   8.352 -0.4791 -0.9305 -0.2096
 2370SOL    HW218573   4.006   4.193   8.287 -0.0495  0.1521 -1.4831
 2371SOL     OW18574   1.743   4.635   0.893  0.4129  0.0633  0.4646
 2371SOL    HW118575   1.684   4.673   0.828  0.5419  0.6422  0.6885
 2371SOL    HW218576   1.675   4.597   0.949  1.9036 -1.5094  1.2089
 2372SOL     OW18577   4.183   3.715  17.357  0.1906 -0.4490 -0.6326
 2372SOL    HW118578   4.252   3.769  17.395 -0.1431  0.1717 -0.9080
 2372SOL    HW218579   4.154   3.768  17.283 -1.6340 -0.1508  0.2828
 2373SOL     OW18580   0.920   1.102   6.978  0.1216 -0.8007 -0.6709
 2373SOL    HW118581   0.846   1.152   7.013 -0.0178 -0.1619 -1.8685
 2373SOL    HW218582   0.944   1.050   7.054 -0.0795  1.3042  0.8518
 2374SOL     OW18583   0.170   3.691   7.958  0.1478  0.4644  0.0952
 2374SOL    HW118584   0.131   3.776   7.979 -0.1692  0.4617 -0.4945
 2374SOL    HW218585   0.236   3.718   7.892  0.2129 -0.8355 -0.3657
 2375SOL     OW18586   2.999   1.665   4.729 -0.2420  0.0959 -0.2035
 2375SOL    HW118587   2.937   1.722   4.683  1.7549 -0.1118 -3.1527
 2375SOL    HW218588   3.038   1.714   4.802 -0.2289 -0.2440  0.0156
 2376SOL     OW18589   2.259   0.659   6.116  0.2497  0.3748  0.1925
 2376SOL    HW118590   2.327   0.716   6.152  1.9900 -0.3621 -1.9472
 2376SOL    HW218591   2.297   0.573   6.136  1.7337  0.7416 -1.0293
 2377SOL     OW18592   4.015   1.367   3.926 -0.5761  0.0247 -0.2729
 2377SOL    HW118593   3.946   1.400   3.868  0.5520  0.3956 -1.3825
 2377SOL    HW218594   4.094   1.400   3.883  0.8378 -0.8479  1.6689
 2378SOL     OW18595   1.189   0.271   7.697  0.1228 -0.3788 -0.4517
 2378SOL    HW118596   1.174   0.336   7.766 -0.0915 -0.1565 -0.7082
 2378SOL    HW218597   1.210   0.193   7.750  0.0718 -0.3786 -0.4310
 2379SOL     OW18598   0.514   4.029   3.542 -0.5926  0.2524  0.6148
 2379SOL    HW118599   0.573   4.026   3.467 -2.9062 -3.1052 -1.0979
 2379SOL    HW218600   0.502   4.124   3.537  0.8532  0.3985 -0.0499
 2380SOL     OW18601   0.556   1.905  15.599  0.2245 -0.2903  0.0944
 2380SOL    HW118602   0.523   1.850  15.670  0.4540  0.1965  0.5805
 2380SOL    HW218603   0.601   1.977  15.643 -2.0832  0.4015  1.2708
 2381SOL     OW18604   1.739   1.263  10.907 -0.3966 -0.8765  0.3400
 2381SOL    HW118605   1.646   1.281  10.921 -0.1819 -0.4992  1.2484
 2381SOL    HW218606   1.751   1.182  10.857  0.9135 -0.0034 -0.7359
 2382SOL     OW18607   2.585   0.048   8.210  0.5057  0.4802  0.0467
 2382SOL    HW118608   2.598   4.678   8.180  2.3304  0.6140  0.4582
 2382SOL    HW218609   2.656   0.088   8.160  0.6953 -0.9466 -0.8329
 2383SOL     OW18610   3.558   4.201   4.749  0.1650 -0.0834  0.0386
 2383SOL    HW118611   3.644   4.173   4.783  0.8206 -0.1233 -1.6517
 2383SOL    HW218612   3.534   4.112   4.721 -0.5051  0.8381 -2.3114
 2384SOL     OW18613   2.365   1.257   2.411  0.2862  0.8113  0.3958
 2384SOL    HW118614   2.317   1.305   2.344  0.6890  1.8236  0.8351
 2384SOL    HW218615   2.393   1.179   2.364 -0.6915  2.3781 -2.7711
 2385SOL     OW18616   2.928   1.679   4.372  0.0616 -0.2819 -0.0991
 2385SOL    HW118617   2.858   1.741   4.354  0.4059  0.1874  0.1695
 2385SOL    HW218618   2.881   1.596   4.377  2.6772 -1.9133 -2.6891
 2386SOL     OW18619   3.468   1.395   8.399  0.1162 -0.2078 -0.7090
 2386SOL    HW118620   3.558   1.387   8.366  0.2418 -1.5543 -0.0507
 2386SOL    HW218621   3.467   1.483   8.437  2.5668  0.1878 -1.5520
 2387SOL     OW18622   4.618   2.842   2.065 -0.3495  0.7450  0.0316
 2387SOL    HW118623   4.654   2.821   2.151  0.8878 -1.5632 -1.0507
 2387SOL    HW218624   4.537   2.791   2.062 -1.4100  2.5459 -2.3818
 2388SOL     OW18625   3.598   0.883  16.830  0.1708  0.2259 -0.2419
 2388SOL    HW118626   3.694   0.893  16.828  0.0121  1.7376 -0.0189
 2388SOL    HW218627   3.602   0.814  16.896 -1.9782 -1.1010 -1.5358
 2389SOL     OW18628   3.717   3.590  16.200  0.3229 -0.4301 -0.6945
 2389SOL    HW118629   3.710   3.644  16.279  0.8323  0.4948 -1.2906
 2389SOL    HW218630   3.741   3.503  16.232 -3.0298 -1.0369  0.1864
 2390SOL     OW18631   3.539   4.315  14.197 -0.2092  0.5009 -0.2701
 2390SOL    HW118632   3.586   4.241  14.158  0.0393  1.1876 -1.2674
 2390SOL    HW218633   3.513   4.366  14.121 -0.5365  1.4182  0.4586
 2391SOL     OW18634   4.615   4.486   4.294  0.2827  0.2537 -0.3026
 2391SOL    HW118635   4.670   4.466   4.370  0.3653  0.9919 -0.1711
 2391SOL    HW218636   4.526   4.485   4.327 -0.1015 -0.8123 -1.3521
 2392SOL     OW18637   1.809   3.517   1.570  0.1893  0.1269  0.7198
 2392SOL    HW118638   1.822   3.427   1.540  1.2100  1.0700 -1.6663
 2392SOL    HW218639   1.824   3.498   1.663 -5.0758 -1.2604  1.2721
 2393SOL     OW18640   2.052   1.741   1.462  0.6993  0.1178 -0.2866
 2393SOL    HW118641   2.046   1.709   1.552  0.0203  0.2076 -0.3034
 2393SOL    HW218642   1.962   1.767   1.444  1.1885 -0.1349 -3.0832
 2394SOL     OW18643   1.703   1.037  10.748 -0.5540 -0.5084  0.2575
 2394SOL    HW118644   1.753   0.976  10.693 -1.1736 -1.6700  0.9761
 2394SOL    HW218645   1.718   0.994  10.833 -0.1027  0.6412  0.7536
 2395SOL     OW18646   2.349   1.356   7.172 -0.3441 -0.0591  0.3146
 2395SOL    HW118647   2.259   1.330   7.152 -0.1455 -1.5482  1.3403
 2395SOL    HW218648   2.363   1.323   7.261  3.4648  1.6109  0.3237
 2396SOL     OW18649   0.677   0.635   9.024 -0.1261 -0.5677  0.4831
 2396SOL    HW118650   0.678   0.566   8.958  0.7535  0.0821 -0.1772
 2396SOL    HW218651   0.770   0.658   9.015 -0.0596 -0.5257  1.2522
 2397SOL     OW18652   0.566   3.384  16.725  0.5293 -0.0827  0.5632
 2397SOL    HW118653   0.593   3.330  16.651 -0.9109  1.4572 -1.0991
 2397SOL    HW218654   0.599   3.472  16.706 -1.0231  0.7580  1.7333
 2398SOL     OW18655   4.576   3.390  13.962 -0.0027 -0.3471  0.0542
 2398SOL    HW118656   4.595   3.304  13.925 -1.9461 -0.6745 -0.1891
 2398SOL    HW218657   4.662   3.432  13.960 -0.1606  0.1002  2.9367
 2399SOL     OW18658   2.864   4.552  14.002 -0.6356  0.2907 -0.0364
 2399SOL    HW118659   2.783   4.581  14.045 -0.7265  0.3743 -0.2645
 2399SOL    HW218660   2.902   4.639  13.991 -0.4365  0.2000 -0.0607
 2400SOL     OW18661   2.234   2.682   7.482  0.0181 -0.7418 -0.4126
 2400SOL    HW118662   2.245   2.761   7.536  2.1494 -2.0274  1.0154
 2400SOL    HW218663   2.144   2.696   7.454 -0.7350 -1.0939  1.8486
 2401SOL     OW18664   3.424   3.287   2.654  0.1001  0.1798 -0.4452
 2401SOL    HW118665   3.381   3.217   2.605  1.1399  0.5088 -1.8308
 2401SOL    HW218666   3.448   3.345   2.582  0.6522 -0.0578 -0.4575
 2402SOL     OW18667   1.977   2.271   4.169  0.0412  0.0192  0.2397
 2402SOL    HW118668   1.995   2.177   4.174  1.0355  0.2751  1.4312
 2402SOL    HW218669   2.033   2.310   4.235 -0.1127 -0.1278  0.4583
 2403SOL     OW18670   1.015   0.490   4.311  1.0280 -0.6105 -0.2971
 2403SOL    HW118671   0.958   0.563   4.337 -0.9904 -2.7468  1.3073
 2403SOL    HW218672   1.022   0.423   4.378 -2.3328 -0.8267 -0.1364
 2404SOL     OW18673   3.435   4.098   8.916 -0.1811 -0.5069 -0.0918
 2404SOL    HW118674   3.480   4.141   8.989  0.4973 -2.1603  0.4431
 2404SOL    HW218675   3.343   4.113   8.938  0.3559  1.0875  1.1283
 2405SOL     OW18676   0.769   2.291  13.488  0.0324 -0.2400 -0.2548
 2405SOL    HW118677   0.757   2.300  13.394 -0.4605 -1.6287 -0.3196
 2405SOL    HW218678   0.863   2.269  13.490 -0.0278 -0.4546  0.4363
 2406SOL     OW18679   3.302   0.965   2.184  0.2635  0.3911 -0.2612
 2406SOL    HW118680   3.362   1.035   2.159  3.2355 -1.2704  2.2666
 2406SOL    HW218681   3.224   1.003   2.143 -1.2728 -1.0183  1.3822
 2407SOL     OW18682   2.070   3.568   3.212 -0.2143 -0.1192  0.6858
 2407SOL    HW118683   2.012   3.537   3.282 -2.3612 -1.9504 -1.9254
 2407SOL    HW218684   2.027   3.527   3.137  2.6018 -0.8001 -0.5473
 2408SOL     OW18685   0.209   4.632   6.242  0.5857  0.7564  0.0502
 2408SOL    HW118686   0.198   0.007   6.229  1.1950  1.1452  2.3816
 2408SOL    HW218687   0.172   4.604   6.158  0.8215  0.0369  0.1828
 2409SOL     OW18688   3.266   1.266   6.748  0.3867  0.1084  0.1546
 2409SOL    HW118689   3.212   1.342   6.728  1.1075  0.5120 -0.2541
 2409SOL    HW218690   3.221   1.229   6.824  0.5825  0.9440  0.6725
 2410SOL     OW18691   0.141   1.803   3.990  0.4173 -0.6624 -0.2435
 2410SOL    HW118692   0.132   1.726   4.046 -0.8599 -0.7096 -0.5045
 2410SOL    HW218693   0.082   1.863   4.036 -0.7757 -2.4513  0.5625
 2411SOL     OW18694   1.449   1.038   5.417 -1.0005 -0.1722  0.4716
 2411SOL    HW118695   1.364   0.994   5.416 -1.8139  1.3910  2.2790
 2411SOL    HW218696   1.494   1.000   5.492 -0.7574 -0.5815  0.1215
 2412SOL     OW18697   3.994   3.485   6.684  0.1843 -0.1379 -0.4138
 2412SOL    HW118698   3.999   3.500   6.779  3.6980  1.4245 -0.8456
 2412SOL    HW218699   4.015   3.392   6.678  2.2512  0.3453 -0.7111
 2413SOL     OW18700   1.985   2.553   2.952 -0.2092  0.4151 -0.0887
 2413SOL    HW118701   1.891   2.563   2.935  0.4076  1.6846 -2.7979
 2413SOL    HW218702   2.027   2.561   2.866  0.5409  1.0384  0.3324
 2414SOL     OW18703   2.497   1.135  16.321  0.0214 -0.0761 -0.3356
 2414SOL    HW118704   2.465   1.110  16.234  0.6129 -1.2159 -0.2168
 2414SOL    HW218705   2.457   1.067  16.376 -0.4975  0.0991 -0.4943
 2415SOL     OW18706   3.329   3.870   9.634 -0.0445  0.1774 -0.2936
 2415SOL    HW118707   3.269   3.938   9.603  1.6126  2.6612  1.9279
 2415SOL    HW218708   3.281   3.813   9.694 -0.6867  0.3135 -0.6789
 2416SOL     OW18709   2.667   2.030   3.935  0.6147  0.2388  0.5210
 2416SOL    HW118710   2.746   2.083   3.943  1.7317 -1.3552  0.2109
 2416SOL    HW218711   2.647   2.025   3.841  1.4631 -1.6636  0.4399
 2417SOL     OW18712   0.492   2.693   2.121  0.4352  0.1093  0.2566
 2417SOL    HW118713   0.481   2.705   2.215 -0.0231  0.8908  0.0969
 2417SOL    HW218714   0.405   2.653   2.109  0.3990  0.3937 -0.4275
 2418SOL     OW18715   3.707   2.603   2.328 -0.1634 -0.1512 -0.0317
 2418SOL    HW118716   3.669   2.688   2.306  0.2518 -0.4857 -1.9992
 2418SOL    HW218717   3.792   2.641   2.352 -0.4435  0.2942  0.2804
 2419SOL     OW18718   4.527   1.459   4.764 -0.3950  0.0948 -0.7278
 2419SOL    HW118719   4.487   1.396   4.824 -0.6418  1.2592  0.3327
 2419SOL    HW218720   4.457   1.481   4.703 -0.4482 -0.3024 -0.8070
 2420SOL     OW18721   3.754   1.808   5.799 -0.5990  0.0689 -0.4382
 2420SOL    HW118722   3.744   1.755   5.878  0.9038  1.4985  0.6914
 2420SOL    HW218723   3.815   1.751   5.752  0.9150  1.1616  0.2005
 2421SOL     OW18724   4.189   0.782   9.546  0.0084  0.1983 -0.1662
 2421SOL    HW118725   4.238   0.819   9.618 -2.5884 -0.5760  1.9890
 2421SOL    HW218726   4.154   0.863   9.509  1.3086  0.7000 -0.3144
 2422SOL     OW18727   3.913   4.224   2.078  0.2855 -0.0357  0.4188
 2422SOL    HW118728   3.821   4.228   2.052  0.8126  1.2306 -1.2300
 2422SOL    HW218729   3.949   4.302   2.037  2.4110 -1.2828 -0.0805
 2423SOL     OW18730   1.186   0.506   5.670  0.1600 -0.1793 -0.6619
 2423SOL    HW118731   1.154   0.472   5.754  0.0950 -0.4979 -0.8164
 2423SOL    HW218732   1.103   0.506   5.623  0.9058 -0.4069 -1.9579
 2424SOL     OW18733   4.432   0.371  15.852  0.0599  0.4536 -0.0408
 2424SOL    HW118734   4.470   0.449  15.893  1.0439  0.0100 -0.1101
 2424SOL    HW218735   4.341   0.399  15.862  0.2893  0.5585  1.6776
 2425SOL     OW18736   1.025   1.736   3.097  0.2383 -0.0710 -0.0868
 2425SOL    HW118737   1.083   1.670   3.060 -2.0367 -0.8985 -2.1319
 2425SOL    HW218738   0.969   1.752   3.021  0.6709  2.2441  0.0600
 2426SOL     OW18739   2.182   3.177   7.630  0.6348 -0.0158 -0.6045
 2426SOL    HW118740   2.218   3.258   7.665  0.5898  0.1672 -0.9803
 2426SOL    HW218741   2.117   3.156   7.697 -0.5683 -2.2076 -2.4378
 2427SOL     OW18742   2.120   1.789   4.928  0.3861 -0.0554 -0.3561
 2427SOL    HW118743   2.170   1.709   4.940 -0.3144 -0.2475  1.2923
 2427SOL    HW218744   2.087   1.808   5.016 -0.8514 -2.7331 -0.2331
 2428SOL     OW18745   3.154   1.431   5.396  0.2223  0.3734  0.2384
 2428SOL    HW118746   3.159   1.336   5.410 -0.0420  0.1634 -1.0677
 2428SOL    HW218747   3.081   1.464   5.448 -0.7160 -0.5746 -0.4853
 2429SOL     OW18748   0.505   2.283  12.069 -0.1072  0.3460 -0.1986
 2429SOL    HW118749   0.467   2.272  12.157 -0.6488  0.2593 -0.4472
 2429SOL    HW218750   0.586   2.333  12.075 -0.7495  1.2090  1.2769
 2430SOL     OW18751   1.667   4.327   8.177 -0.2302  0.1997  0.3447
 2430SOL    HW118752   1.663   4.416   8.210 -0.0209  0.1583  0.4792
 2430SOL    HW218753   1.588   4.299   8.224 -1.1446  1.6013 -0.3534
 2431SOL     OW18754   3.373   4.598   6.070  0.1381 -0.5505 -0.0117
 2431SOL    HW118755   3.339   4.538   6.003 -1.3210 -0.5824  0.7529
 2431SOL    HW218756   3.308   4.668   6.063  2.5300  1.6672 -0.0774
 2432SOL     OW18757   2.564   3.654   7.980  0.2101  0.6283  0.1406
 2432SOL    HW118758   2.554   3.690   8.068 -0.2326  2.1959 -0.5532
 2432SOL    HW218759   2.518   3.717   7.925  1.6916  2.2770  0.8072
 2433SOL     OW18760   3.840   1.183   6.285 -0.0894  0.6928 -0.6086
 2433SOL    HW118761   3.896   1.122   6.333 -1.1303 -0.6621 -1.1323
 2433SOL    HW218762   3.770   1.191   6.350  0.6313  0.3027  0.2173
 2434SOL     OW18763   1.515   4.428   3.258 -0.2708 -0.3883 -0.7214
 2434SOL    HW118764   1.609   4.431   3.237 -0.4400 -0.2302 -1.4640
 2434SOL    HW218765   1.524   4.396   3.347 -2.0723 -0.8036 -0.7024
 2435SOL     OW18766   3.666   1.587  13.142 -0.5414 -0.4921  0.4956
 2435SOL    HW118767   3.755   1.607  13.172 -1.4086  1.8565  1.4194
 2435SOL    HW218768   3.680   1.547  13.056 -0.7263 -1.3053  0.8356
 2436SOL     OW18769   0.112   2.143   1.919  0.1565 -0.3477  0.1017
 2436SOL    HW118770   0.093   2.068   1.976  0.1963 -0.4529 -0.0218
 2436SOL    HW218771   0.033   2.197   1.923  1.3376  1.1987  2.8156
 2437SOL     OW18772   1.244   0.892  11.514 -0.7395 -0.6128  0.2446
 2437SOL    HW118773   1.228   0.842  11.434 -3.1582 -2.6152  1.9652
 2437SOL    HW218774   1.330   0.930  11.494 -0.7124 -0.4850  0.6068
 2438SOL     OW18775   0.791   2.210  13.977 -0.1822  0.0017  0.4711
 2438SOL    HW118776   0.696   2.217  13.967 -0.0750  1.6739  0.6782
 2438SOL    HW218777   0.812   2.152  13.903 -0.6300 -0.2563  0.5478
 2439SOL     OW18778   4.259   3.083  13.406 -0.4382 -0.2048 -0.2410
 2439SOL    HW118779   4.274   3.124  13.321  0.5952  0.3986  0.2371
 2439SOL    HW218780   4.218   3.002  13.373 -0.2722  0.4512 -2.0550
 2440SOL     OW18781   4.125   1.829  15.158  0.0845  0.0491  0.1834
 2440SOL    HW118782   4.170   1.772  15.096 -1.3456  0.1705 -0.9714
 2440SOL    HW218783   4.038   1.818  15.121  0.4272 -2.1337 -0.0000
 2441SOL     OW18784   2.554   2.420   5.715  0.2124  0.2298 -0.5476
 2441SOL    HW118785   2.487   2.411   5.647  0.6898 -1.3140 -0.8088
 2441SOL    HW218786   2.628   2.378   5.672  0.4823  0.6521 -0.4870
 2442SOL     OW18787   1.747   2.236   3.990 -0.2651  0.7694 -0.0064
 2442SOL    HW118788   1.787   2.149   4.004 -1.6813  0.5625  2.6820
 2442SOL    HW218789   1.734   2.262   4.081 -1.1116 -0.0154  0.0915
 2443SOL     OW18790   0.947   1.618   8.351 -0.1047 -0.2160  0.0385
 2443SOL    HW118791   0.893   1.656   8.421 -0.3156 -1.9051  0.7851
 2443SOL    HW218792   0.894   1.647   8.277 -0.5512  0.4666  0.6144
 2444SOL     OW18793   0.015   0.458   6.031 -0.5785  0.3608 -0.9525
 2444SOL    HW118794   0.017   0.413   5.947  0.8750  0.9274 -1.2286
 2444SOL    HW218795   4.719   0.401   6.106  0.6919  0.7850 -0.3578
 2445SOL     OW18796   4.436   4.632   6.063  0.2725 -0.1972  0.1324
 2445SOL    HW118797   4.407   0.001   6.038  0.6685  0.3606  1.6545
 2445SOL    HW218798   4.394   4.569   6.004 -1.4639  0.5994  0.5144
 2446SOL     OW18799   2.721   3.239  11.254 -0.0336 -0.0607 -0.0018
 2446SOL    HW118800   2.709   3.172  11.187  0.3865  0.7758 -0.9265
 2446SOL    HW218801   2.688   3.197  11.333 -0.7519  0.1275 -0.2058
 2447SOL     OW18802   3.758   1.404   2.468  0.0764 -0.5908  0.5937
 2447SOL    HW118803   3.824   1.345   2.432 -0.2785 -0.5400 -0.1517
 2447SOL    HW218804   3.768   1.484   2.417  0.5184  0.4196  2.3006
 2448SOL     OW18805   0.961   0.920   3.790  0.2043  0.5894  0.4950
 2448SOL    HW118806   0.913   0.886   3.715 -1.2849  0.2595  1.6027
 2448SOL    HW218807   1.029   0.853   3.792 -0.5515 -0.1109  2.2612
 2449SOL     OW18808   2.043   1.969   3.563 -0.1327 -0.0332 -0.0933
 2449SOL    HW118809   2.013   2.012   3.643 -1.2164 -1.8830  0.4878
 2449SOL    HW218810   2.085   1.890   3.597 -2.3026 -1.7075 -1.2837
 2450SOL     OW18811   0.792   1.728   2.449 -0.1951 -0.4268 -0.2155
 2450SOL    HW118812   0.813   1.726   2.543  3.9232 -1.1150 -1.1717
 2450SOL    HW218813   0.863   1.789   2.429 -0.8759  0.3706 -0.2080
 2451SOL     OW18814   0.860   4.576   0.452 -0.5029  0.4741  0.0832
 2451SOL    HW118815   0.797   4.603   0.386  0.4858  1.0249 -0.6364
 2451SOL    HW218816   0.907   4.660   0.458  2.5873 -1.2440  0.1146
 2452SOL     OW18817   1.389   2.170   6.499 -0.0393 -0.3694  0.3780
 2452SOL    HW118818   1.432   2.094   6.462 -0.0847 -0.6125  0.8268
 2452SOL    HW218819   1.471   2.218   6.496 -0.5919  0.4459 -1.9475
 2453SOL     OW18820   4.430   0.983  16.547 -0.2566 -0.1283 -0.3186
 2453SOL    HW118821   4.394   1.059  16.593  0.4547  0.3611 -0.5613
 2453SOL    HW218822   4.484   0.948  16.618 -1.3027 -1.0093  0.0420
 2454SOL     OW18823   1.985   1.257  15.638  0.4625  0.5801 -0.0647
 2454SOL    HW118824   2.057   1.271  15.577 -0.2088  0.0698 -0.9693
 2454SOL    HW218825   2.031   1.229  15.717 -2.1311 -0.2231  1.1683
 2455SOL     OW18826   0.450   2.463   3.137  0.2823 -0.7679  0.2875
 2455SOL    HW118827   0.430   2.470   3.230 -1.3121 -2.7402  0.1007
 2455SOL    HW218828   0.421   2.376   3.111 -0.3385 -0.0343 -1.5021
 2456SOL     OW18829   4.393   0.424  13.558  0.7111  0.1600 -0.2243
 2456SOL    HW118830   4.345   0.405  13.478  1.2999  2.3583 -1.1001
 2456SOL    HW218831   4.410   0.515  13.533 -0.0709  0.8878  1.8779
 2457SOL     OW18832   2.589   2.295   2.833 -0.4263  0.3630 -0.0454
 2457SOL    HW118833   2.584   2.291   2.738 -1.2617  5.1527 -0.2026
 2457SOL    HW218834   2.498   2.276   2.858  0.0749  1.5187  2.6366
 2458SOL     OW18835   3.911   1.009   2.250  0.0646 -0.2029 -0.2891
 2458SOL    HW118836   3.942   0.978   2.165  0.5676 -0.0117 -0.1748
 2458SOL    HW218837   3.815   1.003   2.243 -0.1033  1.5303  0.6418
 2459SOL     OW18838   0.826   3.866   4.828  0.5993  0.1911  0.0508
 2459SOL    HW118839   0.891   3.805   4.795  2.2583  1.3642  1.1115
 2459SOL    HW218840   0.742   3.820   4.828  0.0189  1.2328 -1.2264
 2460SOL     OW18841   3.646   1.010   8.364 -0.1729 -0.4958 -0.3040
 2460SOL    HW118842   3.684   1.029   8.450 -0.4931  2.2166 -0.7583
 2460SOL    HW218843   3.694   1.077   8.315 -0.0693 -0.5629 -0.2938
 2461SOL     OW18844   4.712   1.437   3.067  0.2791  0.2523  0.0302
 2461SOL    HW118845   4.693   1.530   3.055 -0.2440  0.3131  1.3218
 2461SOL    HW218846   4.643   1.419   3.131  0.2925 -0.8629 -0.2622
 2462SOL     OW18847   1.964   0.828  17.554  0.6993  0.0230  0.6989
 2462SOL    HW118848   1.954   0.885  17.477  0.1472  1.5881  1.9462
 2462SOL    HW218849   1.948   0.890  17.624 -1.3021 -2.1432  2.1545
 2463SOL     OW18850   0.081   2.102   7.172 -0.0581 -0.4143 -0.3083
 2463SOL    HW118851   0.018   2.149   7.226 -1.4042  1.0317 -3.1470
 2463SOL    HW218852   0.133   2.173   7.134 -1.0123  0.5276  0.1452
 2464SOL     OW18853   3.867   1.765   4.440 -0.4608  0.5335  0.1828
 2464SOL    HW118854   3.805   1.695   4.418 -0.6467  0.7786 -0.0813
 2464SOL    HW218855   3.897   1.779   4.350 -2.1723  0.7646 -0.3647
 2465SOL     OW18856   1.585   3.990   7.597  0.1636 -0.3953 -0.6364
 2465SOL    HW118857   1.601   3.915   7.539  0.7522  0.3411 -1.4206
 2465SOL    HW218858   1.495   3.979   7.627  0.5552  0.1359  0.7522
 2466SOL     OW18859   3.137   3.631  13.891  0.3077  0.0118 -0.0617
 2466SOL    HW118860   3.157   3.580  13.812 -0.0129  1.0227 -0.7817
 2466SOL    HW218861   3.170   3.717  13.867 -1.2162  0.9564  1.2529
 2467SOL     OW18862   2.353   1.803   7.962 -0.3072 -0.1209  0.0430
 2467SOL    HW118863   2.338   1.722   7.914  1.2529 -0.5455  0.2623
 2467SOL    HW218864   2.424   1.775   8.019 -1.6615  0.5179  2.0463
 2468SOL     OW18865   0.382   1.756   6.609 -0.2118  0.3652 -0.5344
 2468SOL    HW118866   0.459   1.811   6.594 -0.9349  0.9127 -2.3004
 2468SOL    HW218867   0.323   1.817   6.653 -0.0758 -0.4736  0.8091
 2469SOL     OW18868   4.561   3.246  16.037  0.1723 -0.0967 -1.0594
 2469SOL    HW118869   4.603   3.229  15.952 -0.0352  1.4008 -1.4712
 2469SOL    HW218870   4.584   3.163  16.078 -1.3129 -0.4324 -0.8928
 2470SOL     OW18871   1.199   1.029   4.819 -0.1012  0.3896  0.2889
 2470SOL    HW118872   1.264   1.017   4.888  0.2887 -0.5721 -0.2435
 2470SOL    HW218873   1.250   1.012   4.739 -1.5006  0.4015 -0.6134
 2471SOL     OW18874   1.959   3.169   2.021  0.4996 -0.1294 -0.3539
 2471SOL    HW118875   2.037   3.202   1.976  0.7307  0.9773  0.8634
 2471SOL    HW218876   1.878   3.209   1.989  0.3262 -0.0114  0.2364
 2472SOL     OW18877   4.471   4.368  16.371 -0.2478  1.0175 -0.0927
 2472SOL    HW118878   4.450   4.446  16.319 -0.1911 -0.3820 -2.2120
 2472SOL    HW218879   4.547   4.339  16.320  0.2096  0.4643  0.9120
 2473SOL     OW18880   3.742   3.176   0.453 -0.2634 -0.4616 -0.1449
 2473SOL    HW118881   3.808   3.180   0.523 -0.0572 -0.7191 -0.3245
 2473SOL    HW218882   3.801   3.141   0.386  0.7963 -0.1979  0.6489
 2474SOL     OW18883   0.777   3.412   3.458 -0.0204 -0.1140  0.2057
 2474SOL    HW118884   0.823   3.447   3.382  0.3505 -1.9875 -0.4343
 2474SOL    HW218885   0.693   3.457   3.452  1.0014  1.7342 -0.1536
 2475SOL     OW18886   2.691   3.614  12.388  0.2826 -0.0529 -0.0573
 2475SOL    HW118887   2.620   3.675  12.367  0.2434 -0.7055 -1.8640
 2475SOL    HW218888   2.740   3.602  12.306 -0.2285 -0.1156 -0.3514
 2476SOL     OW18889   4.437   1.794   9.553  0.0425 -0.3509 -0.1563
 2476SOL    HW118890   4.376   1.721   9.540 -0.9018  0.4177 -0.0499
 2476SOL    HW218891   4.391   1.849   9.616 -0.3279 -0.4265 -0.3615
 2477SOL     OW18892   0.983   1.120   6.430 -0.1002  0.8820 -0.1052
 2477SOL    HW118893   1.022   1.052   6.375 -1.5300 -1.6215  1.9638
 2477SOL    HW218894   0.948   1.060   6.496  1.0795  2.5151  2.0219
 2478SOL     OW18895   2.261   1.176  12.801 -0.3103 -0.0866 -0.0720
 2478SOL    HW118896   2.233   1.173  12.710 -0.3867  1.5291 -0.1031
 2478SOL    HW218897   2.307   1.260  12.806  0.4066 -0.5678  1.4835
 2479SOL     OW18898   0.437   2.276   8.098  0.0050  1.1650 -0.1214
 2479SOL    HW118899   0.532   2.287   8.098  0.1152  0.2559  0.8569
 2479SOL    HW218900   0.427   2.276   8.003 -1.5024  1.0594  0.0481
 2480SOL     OW18901   2.325   2.071   3.786 -0.1262  0.1494  1.4401
 2480SOL    HW118902   2.240   2.031   3.769  0.1887  0.4143 -0.6710
 2480SOL    HW218903   2.388   1.999   3.791  0.2992  0.4090 -0.2075
 2481SOL     OW18904   2.452   0.835  16.969  0.3110  0.0142  0.3623
 2481SOL    HW118905   2.409   0.898  16.911  3.7906  1.4801 -0.6578
 2481SOL    HW218906   2.443   0.876  17.055  0.6188  0.3372  0.2422
 2482SOL     OW18907   0.455   0.767   5.634  0.8097  0.0868  0.0606
 2482SOL    HW118908   0.465   0.795   5.543 -0.8439 -0.2397 -0.2145
 2482SOL    HW218909   0.438   0.852   5.676  0.5766 -0.2953  0.7396
 2483SOL     OW18910   1.565   0.733   3.869  0.0356 -0.2080 -0.5362
 2483SOL    HW118911   1.575   0.722   3.774  0.7627 -2.4635 -0.1920
 2483SOL    HW218912   1.571   0.644   3.902 -0.0304  1.1399  3.1689
 2484SOL     OW18913   2.433   0.883   1.296 -0.2174 -0.3200 -0.1816
 2484SOL    HW118914   2.347   0.902   1.260  0.3735  1.4184 -0.6840
 2484SOL    HW218915   2.494   0.919   1.231 -2.3456 -1.0375 -2.5709
 2485SOL     OW18916   1.367   2.487  12.599  0.4104  0.6515 -0.1356
 2485SOL    HW118917   1.428   2.434  12.547  1.1175  0.1384  1.2208
 2485SOL    HW218918   1.426   2.515  12.669  1.9795  1.3950 -1.7584
 2486SOL     OW18919   2.380   2.215   7.297 -0.0350 -0.0673  0.0922
 2486SOL    HW118920   2.430   2.217   7.379  1.3771  0.2627 -0.7770
 2486SOL    HW218921   2.364   2.309   7.297  0.8238  0.0821  0.5012
 2487SOL     OW18922   4.406   0.356   6.237  0.1777  0.0016 -0.3699
 2487SOL    HW118923   4.316   0.334   6.262 -0.2955  1.4840 -0.7862
 2487SOL    HW218924   4.414   0.444   6.274 -0.1103 -0.5951  1.1148
 2488SOL     OW18925   1.185   1.286   7.136 -0.3403 -0.1689 -0.1626
 2488SOL    HW118926   1.132   1.365   7.150 -1.2619 -0.5263 -1.6089
 2488SOL    HW218927   1.130   1.238   7.074  0.8350 -1.2736 -0.3374
 2489SOL     OW18928   4.036   1.628   3.587  0.0312 -0.2438 -0.0663
 2489SOL    HW118929   4.093   1.570   3.537  1.8692  0.4257  1.2328
 2489SOL    HW218930   3.993   1.674   3.515 -3.7441 -0.9563  1.7470
 2490SOL     OW18931   1.954   1.897   7.736 -0.0481 -0.3950 -0.0240
 2490SOL    HW118932   1.966   1.821   7.679  2.3008 -0.7698  0.9832
 2490SOL    HW218933   1.997   1.877   7.819  1.8345 -1.1672 -1.2022
 2491SOL     OW18934   3.865   1.434   3.699  0.5524 -0.4467  0.4734
 2491SOL    HW118935   3.845   1.450   3.606  2.0769 -2.1873 -0.1653
 2491SOL    HW218936   3.886   1.524   3.724  2.5099 -0.3357 -1.4942
 2492SOL     OW18937   1.664   4.141   3.784 -0.3803  0.2807  0.0558
 2492SOL    HW118938   1.571   4.146   3.760 -0.3256  1.0933  0.0331
 2492SOL    HW218939   1.710   4.092   3.715  0.7650  1.0753  0.2694
 2493SOL     OW18940   4.613   2.278   7.931 -0.0220  0.2298  0.5717
 2493SOL    HW118941   4.684   2.264   7.993 -1.0479 -1.4018  1.3804
 2493SOL    HW218942   4.608   2.373   7.941  0.1374  0.1934  1.0019
 2494SOL     OW18943   0.940   2.074   9.208  0.6355  0.2540 -0.1714
 2494SOL    HW118944   0.892   2.063   9.291 -1.6705  2.0696 -1.2685
 2494SOL    HW218945   0.960   1.982   9.190  1.3730  1.1136 -3.6414
 2495SOL     OW18946   0.620   0.484   6.645  0.3250  0.1661  0.0001
 2495SOL    HW118947   0.576   0.498   6.562  1.3793 -1.2309 -0.7915
 2495SOL    HW218948   0.614   0.389   6.660  0.0930  0.1255 -0.3609
 2496SOL     OW18949   3.562   3.747   7.121  0.0590 -1.0775  0.4653
 2496SOL    HW118950   3.481   3.793   7.098  0.8315 -0.2135 -0.5564
 2496SOL    HW218951   3.543   3.663   7.079  0.9253 -1.4159  0.7699
 2497SOL     OW18952   3.806   0.627   5.431  0.0588 -0.5369 -0.1045
 2497SOL    HW118953   3.737   0.692   5.419  0.1112 -0.4710 -0.0496
 2497SOL    HW218954   3.846   0.631   5.344 -0.4351 -0.0213 -0.3064
 2498SOL     OW18955   3.229   2.857   2.824 -0.1180 -0.4041 -0.7863
 2498SOL    HW118956   3.190   2.770   2.832 -1.5424  0.2337 -0.8841
 2498SOL    HW218957   3.154   2.906   2.791 -0.5348  0.0718  0.8969
 2499SOL     OW18958   4.010   0.924   8.495  0.3384  0.4756 -0.0302
 2499SOL    HW118959   3.928   0.968   8.516 -1.1790 -2.4705  0.2694
 2499SOL    HW218960   4.009   0.855   8.561  2.0814  1.6084  1.1422
 2500SOL     OW18961   1.805   0.201   8.903  0.3169  0.3328 -0.0880
 2500SOL    HW118962   1.760   0.282   8.880 -0.2578  0.2143  0.6090
 2500SOL    HW218963   1.809   0.149   8.823  0.7480  0.0160  0.1359
 2501SOL     OW18964   1.669   1.060   4.720 -0.1986 -0.0881  0.2127
 2501SOL    HW118965   1.600   1.056   4.787  1.5553 -1.6490  1.9234
 2501SOL    HW218966   1.726   1.129   4.753  1.9578 -0.7361 -2.1793
 2502SOL     OW18967   4.526   2.180   2.994  0.0089 -0.2165  0.3766
 2502SOL    HW118968   4.578   2.204   2.917 -1.2740 -1.1068 -0.7732
 2502SOL    HW218969   4.496   2.093   2.966  0.7446 -0.5430  0.6117
 2503SOL     OW18970   4.064   3.937   8.644 -0.8056  0.2203  0.2744
 2503SOL    HW118971   4.092   3.945   8.736  2.3090 -2.0531 -0.4923
 2503SOL    HW218972   4.094   3.850   8.619 -1.1973 -0.1572  1.1082
 2504SOL     OW18973   3.538   2.388   4.838  0.1678 -0.4554 -0.3303
 2504SOL    HW118974   3.584   2.374   4.755  0.6532 -1.8729  0.1738
 2504SOL    HW218975   3.474   2.317   4.833  1.7687 -1.8208 -1.8043
 2505SOL     OW18976   2.140   2.095   6.192  0.2381 -0.1109  0.2107
 2505SOL    HW118977   2.170   2.045   6.116 -1.9297 -0.1658 -0.6060
 2505SOL    HW218978   2.046   2.092   6.174  0.2662  2.7805 -0.3224
 2506SOL     OW18979   4.205   2.830   9.115 -0.0728 -0.9402 -0.5863
 2506SOL    HW118980   4.141   2.890   9.078 -0.8175  0.2375  2.6816
 2506SOL    HW218981   4.148   2.807   9.187 -0.3989 -0.2411 -0.6226
 2507SOL     OW18982   4.269   2.009   8.752 -0.2987 -0.1518 -0.7200
 2507SOL    HW118983   4.215   1.973   8.822  0.3941  3.0730  1.4464
 2507SOL    HW218984   4.225   2.093   8.740 -0.7870 -0.4967 -1.3420
 2508SOL     OW18985   3.783   4.003   2.981  0.2605  0.1923 -0.6669
 2508SOL    HW118986   3.818   4.040   3.062 -1.7720 -2.2336  1.2888
 2508SOL    HW218987   3.775   3.910   3.002  1.6871 -0.1448 -1.6237
 2509SOL     OW18988   2.480   3.376   7.915  0.6166  0.0960  0.0185
 2509SOL    HW118989   2.423   3.381   7.838  2.3327  3.0606 -1.0394
 2509SOL    HW218990   2.528   3.458   7.905  0.8023  0.1282  1.1323
 2510SOL     OW18991   2.622   2.525   8.317  0.0826 -0.9532  0.1751
 2510SOL    HW118992   2.586   2.455   8.371 -1.4728 -0.6949 -0.5138
 2510SOL    HW218993   2.702   2.543   8.366  0.0382  1.9051 -0.7716
 2511SOL     OW18994   2.178   1.929   2.698  0.0944 -0.0104  0.5371
 2511SOL    HW118995   2.206   1.999   2.639 -0.7599  0.9663  1.2855
 2511SOL    HW218996   2.094   1.918   2.653  0.6234  2.2769 -0.9766
 2512SOL     OW18997   1.416   2.939   2.174  0.0691 -0.1021  0.0838
 2512SOL    HW118998   1.345   2.875   2.162 -0.1175  0.5639 -2.2892
 2512SOL    HW218999   1.467   2.910   2.099 -1.2016 -3.5276  0.5262
 2513SOL     OW19000   2.608   4.496  16.636  0.0814 -0.3233  0.6716
 2513SOL    HW119001   2.612   4.585  16.600  3.9739 -1.1868 -1.0663
 2513SOL    HW219002   2.554   4.450  16.571 -1.0276  1.2005  0.5270
 2514SOL     OW19003   0.314   3.477  12.004 -0.4076  1.1677 -0.2722
 2514SOL    HW119004   0.250   3.406  12.010  1.3000 -0.2980  0.5213
 2514SOL    HW219005   0.263   3.550  12.037 -1.3665 -0.4744  1.8930
 2515SOL     OW19006   0.074   4.238  12.535  0.1088 -1.1770  0.4832
 2515SOL    HW119007   4.715   4.228  12.589  0.2552  1.0341  1.1148
 2515SOL    HW219008   0.040   4.189  12.460 -1.0884  1.9827 -1.0354
 2516SOL     OW19009   4.581   4.058  16.401 -0.1841  0.0851 -0.4701
 2516SOL    HW119010   4.635   4.100  16.334  1.1214  0.8520  1.0450
 2516SOL    HW219011   4.503   4.114  16.407 -0.8098 -0.6841 -1.4574
 2517SOL     OW19012   1.509   3.571   9.360  0.3254  0.5387 -0.4552
 2517SOL    HW119013   1.551   3.578   9.275 -1.2464  2.9280 -1.0251
 2517SOL    HW219014   1.527   3.658   9.395  1.7788 -0.2380  0.7310
 2518SOL     OW19015   0.761   4.526   9.358  0.2754  0.3802 -0.0349
 2518SOL    HW119016   0.824   4.454   9.347  0.0545 -0.3113  3.1474
 2518SOL    HW219017   0.788   4.566   9.441 -2.3719  0.8938  0.5801
 2519SOL     OW19018   4.525   1.471  13.876 -0.2658 -0.5050  0.5096
 2519SOL    HW119019   4.469   1.448  13.951  0.8823 -1.1652  1.1594
 2519SOL    HW219020   4.473   1.431  13.807  1.0841 -1.4354  0.0426
 2520SOL     OW19021   2.449   4.633   6.146 -0.2920  0.2823 -0.1300
 2520SOL    HW119022   2.481   4.587   6.069 -1.2504  2.3639 -1.7765
 2520SOL    HW219023   2.358   4.606   6.141  0.5782 -2.1138 -2.7323
 2521SOL     OW19024   0.278   0.253   5.402 -0.0942 -0.0978 -0.0803
 2521SOL    HW119025   0.259   0.221   5.314 -2.4795 -0.7914  0.6747
 2521SOL    HW219026   0.329   0.181   5.438 -0.0789 -0.1624 -0.2329
 2522SOL     OW19027   4.179   2.842  11.667  0.0974 -0.3703  0.2106
 2522SOL    HW119028   4.254   2.784  11.683 -0.0158 -0.8957 -1.2087
 2522SOL    HW219029   4.105   2.786  11.643 -0.0292 -1.2132  2.5883
 2523SOL     OW19030   2.790   0.289   4.016  0.4011  0.9920  0.4684
 2523SOL    HW119031   2.848   0.361   3.990  0.9822 -0.0080 -0.9917
 2523SOL    HW219032   2.809   0.222   3.950 -2.0782  2.1192 -1.3611
 2524SOL     OW19033   1.693   1.397   3.679  0.4017 -0.0124 -0.2631
 2524SOL    HW119034   1.777   1.374   3.719  0.6770  2.2393  0.4728
 2524SOL    HW219035   1.717   1.398   3.586 -0.1278  0.8707 -0.3917
 2525SOL     OW19036   3.585   1.799  17.283 -0.1200 -0.3515  0.6434
 2525SOL    HW119037   3.671   1.786  17.243 -0.2426 -0.0046  0.2662
 2525SOL    HW219038   3.583   1.711  17.322  2.5484 -0.5532  0.3073
 2526SOL     OW19039   3.359   1.674   8.957  0.1610 -0.5675  0.2374
 2526SOL    HW119040   3.440   1.639   8.993  1.0545 -0.3591 -1.5972
 2526SOL    HW219041   3.355   1.746   9.020  1.0361 -2.6041  2.5913
 2527SOL     OW19042   2.616   4.158   9.969  0.2719 -0.7697  0.3448
 2527SOL    HW119043   2.598   4.157  10.063 -2.0168 -1.9120 -0.1175
 2527SOL    HW219044   2.599   4.066   9.948  1.0017 -0.1306 -3.0584
 2528SOL     OW19045   1.690   1.574   1.527 -0.2651  0.0352 -0.0024
 2528SOL    HW119046   1.618   1.520   1.496 -1.8283  2.1294  0.0107
 2528SOL    HW219047   1.672   1.658   1.486  1.4357  0.5520  0.2890
 2529SOL     OW19048   3.844   3.123   3.364 -0.7646 -0.2253  0.2236
 2529SOL    HW119049   3.801   3.039   3.344 -0.6248  0.3158 -2.3845
 2529SOL    HW219050   3.795   3.187   3.312  1.4040  1.8185  0.7278
 2530SOL     OW19051   3.390   0.826  17.011  0.2591  0.8474  0.5655
 2530SOL    HW119052   3.300   0.800  16.994  0.4120  1.6058 -1.4364
 2530SOL    HW219053   3.416   0.873  16.932 -1.7365 -0.7418 -1.0459
 2531SOL     OW19054   3.579   1.837  14.226  0.6652 -0.5300  0.3294
 2531SOL    HW119055   3.505   1.814  14.282  0.1638 -1.7081 -0.8275
 2531SOL    HW219056   3.556   1.801  14.140  0.4322 -2.2985  1.1226
 2532SOL     OW19057   3.490   2.484   5.275  0.4011  0.5657  0.3931
 2532SOL    HW119058   3.563   2.542   5.296  0.4060  0.4231  0.7716
 2532SOL    HW219059   3.481   2.486   5.180 -3.5324 -0.7117  0.7238
 2533SOL     OW19060   2.773   4.619  13.620  0.1035 -1.1081  0.6891
 2533SOL    HW119061   2.835   4.568  13.569  0.2224  1.2382 -1.5191
 2533SOL    HW219062   2.746   4.553  13.683 -0.1107 -2.0850 -0.4269
 2534SOL     OW19063   3.280   2.258   9.538  0.1295  0.0645  0.4679
 2534SOL    HW119064   3.325   2.333   9.577 -1.1064  1.5763 -1.0195
 2534SOL    HW219065   3.188   2.276   9.560  0.3560 -1.0913  2.4174
 2535SOL     OW19066   4.394   4.580  15.744 -0.1558 -0.1956  0.2501
 2535SOL    HW119067   4.442   4.503  15.712  0.5976  0.5013 -0.3039
 2535SOL    HW219068   4.423   4.645  15.680  1.0783  1.7609  2.8201
 2536SOL     OW19069   4.309   3.143   2.739 -0.4580  0.4084  0.1874
 2536SOL    HW119070   4.393   3.173   2.704  0.3640 -1.4777  0.5403
 2536SOL    HW219071   4.266   3.128   2.655 -0.2021  0.7007  0.0031
 2537SOL     OW19072   0.760   0.591   7.409  0.3994 -0.4112  0.1305
 2537SOL    HW119073   0.738   0.644   7.333 -0.8634  0.3239  1.0070
 2537SOL    HW219074   0.698   0.635   7.467  0.9414  0.6820 -0.1122
 2538SOL     OW19075   3.091   2.637   2.885  0.4114  0.5885  0.2230
 2538SOL    HW119076   3.112   2.544   2.897  0.1868  0.4185 -0.7552
 2538SOL    HW219077   3.004   2.634   2.926 -0.3447  0.3678 -1.3809
 2539SOL     OW19078   3.097   1.221  12.320  0.1771  0.1333 -0.1107
 2539SOL    HW119079   3.116   1.238  12.228  0.5812  1.3454  0.1925
 2539SOL    HW219080   3.133   1.307  12.342  0.1872  0.1432 -0.1677
 2540SOL     OW19081   2.936   4.106   1.852  0.4952 -0.0996  0.3151
 2540SOL    HW119082   2.959   4.138   1.940 -0.0352 -0.4198  0.5688
 2540SOL    HW219083   2.974   4.018   1.850 -0.5830 -0.5266 -1.5134
 2541SOL     OW19084   1.249   2.135   2.257  0.8918  0.3249 -0.0524
 2541SOL    HW119085   1.273   2.224   2.283 -0.9214  0.5976  0.6676
 2541SOL    HW219086   1.217   2.108   2.342  0.8073  0.6028  0.0029
 2542SOL     OW19087   3.061   1.630  12.046 -0.2815 -0.2948 -0.0555
 2542SOL    HW119088   2.966   1.635  12.060  0.3338 -0.5225  4.1105
 2542SOL    HW219089   3.064   1.546  12.000  2.5230 -0.5256  0.5843
 2543SOL     OW19090   2.728   1.356   7.629 -0.5722  0.1395 -0.2852
 2543SOL    HW119091   2.744   1.397   7.543 -0.2524  2.8430  1.0719
 2543SOL    HW219092   2.790   1.283   7.633 -0.9361 -0.1448  0.1288
 2544SOL     OW19093   0.617   2.147  15.755 -0.0771 -0.2679 -0.0642
 2544SOL    HW119094   0.629   2.155  15.850  0.4062 -0.3673 -0.1187
 2544SOL    HW219095   0.562   2.223  15.737 -0.1258 -1.2761 -4.1162
 2545SOL     OW19096   1.273   0.543  12.621 -0.0389  0.1620  0.4928
 2545SOL    HW119097   1.178   0.545  12.613 -0.0991  0.9451  1.4519
 2545SOL    HW219098   1.293   0.450  12.608 -0.2053 -0.1035  2.0447
 2546SOL     OW19099   0.128   1.267   8.496 -0.0713 -0.2685 -0.4476
 2546SOL    HW119100   0.053   1.225   8.538 -1.3507  2.4321 -0.0184
 2546SOL    HW219101   0.087   1.302   8.417  0.3340 -1.6414 -1.2537
 2547SOL     OW19102   1.912   1.512   5.646 -0.6599  0.0777 -1.0170
 2547SOL    HW119103   1.882   1.427   5.679 -0.1334 -0.3957 -1.7563
 2547SOL    HW219104   1.937   1.487   5.557  1.4946  0.4263 -0.5151
 2548SOL     OW19105   4.633   3.163  12.201  0.1620  0.3430  0.4457
 2548SOL    HW119106   4.544   3.132  12.219  0.7689  0.3318  3.3117
 2548SOL    HW219107   4.679   3.092  12.156  0.5007  1.1556 -0.5051
 2549SOL     OW19108   3.406   0.795   2.538 -0.0703 -0.2639  0.3918
 2549SOL    HW119109   3.333   0.794   2.477  0.8634 -0.7370 -0.7047
 2549SOL    HW219110   3.478   0.761   2.486 -0.0135  0.3680  0.0601
 2550SOL     OW19111   4.675   1.406   3.721 -0.0710 -0.9540  0.2551
 2550SOL    HW119112   4.694   1.500   3.715  1.4704 -1.2677  0.3738
 2550SOL    HW219113   4.682   1.395   3.815 -2.0681 -0.7027  0.4424
 2551SOL     OW19114   3.003   1.397   2.670  0.1700 -0.1259 -0.4617
 2551SOL    HW119115   3.085   1.444   2.685 -0.2276 -0.1164  1.7666
 2551SOL    HW219116   2.957   1.463   2.619  1.5717  1.6503  0.5706
 2552SOL     OW19117   3.888   3.565  13.757  0.3892  0.1284  0.3597
 2552SOL    HW119118   3.981   3.583  13.747  0.2648  0.6601  0.1583
 2552SOL    HW219119   3.891   3.475  13.791 -1.6588 -1.1471 -2.7203
 2553SOL     OW19120   3.864   1.676   5.563 -0.1567 -0.5443 -0.0849
 2553SOL    HW119121   3.917   1.596   5.566 -0.6482 -0.8774 -0.2365
 2553SOL    HW219122   3.774   1.646   5.551  0.9347 -3.5955 -0.6773
 2554SOL     OW19123   3.655   1.204   2.272  0.0953  0.7427  0.1667
 2554SOL    HW119124   3.635   1.136   2.336  0.3094  1.5224  1.0617
 2554SOL    HW219125   3.629   1.281   2.323 -0.9578 -1.3095  2.7006
 2555SOL     OW19126   2.311   4.358   1.589 -0.0710 -0.3998  0.1589
 2555SOL    HW119127   2.242   4.373   1.524  1.2537  3.0212 -0.4744
 2555SOL    HW219128   2.326   4.449   1.614  0.1146 -0.3085 -0.2889
 2556SOL     OW19129   2.068   4.196   1.143 -0.1664  0.3175  0.1062
 2556SOL    HW119130   2.012   4.118   1.143  0.8636 -0.4077  2.1596
 2556SOL    HW219131   2.144   4.159   1.099 -0.5429  0.4243 -0.6308
 2557SOL     OW19132   0.318   1.830   3.783  0.0852 -0.2762 -0.1362
 2557SOL    HW119133   0.256   1.822   3.855 -1.3828 -1.1020 -1.4731
 2557SOL    HW219134   0.343   1.920   3.766 -2.0926  0.5092  0.7944
 2558SOL     OW19135   2.676   0.291   4.697 -0.0693 -0.2430 -0.0309
 2558SOL    HW119136   2.604   0.256   4.645 -0.0914 -1.3690  0.7509
 2558SOL    HW219137   2.653   0.276   4.789  0.2391 -0.1147  0.0682
 2559SOL     OW19138   3.505   1.317   6.083 -0.0543 -0.3245  0.2771
 2559SOL    HW119139   3.534   1.227   6.098  1.6204  0.0142 -0.9115
 2559SOL    HW219140   3.464   1.302   5.998  0.2700  2.3055 -0.3457
 2560SOL     OW19141   1.538   4.595  13.742 -0.2330 -0.2281 -0.0039
 2560SOL    HW119142   1.607   4.618  13.679 -0.1608  0.2823  0.2626
 2560SOL    HW219143   1.584   4.534  13.798 -0.1099  0.4256  0.5964
 2561SOL     OW19144   0.368   1.006   7.269 -0.0075 -0.1078 -0.2217
 2561SOL    HW119145   0.462   1.015   7.254  0.2502 -0.6963  0.9623
 2561SOL    HW219146   0.361   1.087   7.320  0.5942 -1.2237  1.6732
 2562SOL     OW19147   0.911   1.312   8.193 -0.1120  0.0625 -0.5741
 2562SOL    HW119148   0.972   1.342   8.261 -1.4254  1.6153 -0.0685
 2562SOL    HW219149   0.827   1.349   8.219 -1.1003 -1.2228 -2.0100
 2563SOL     OW19150   2.671   1.694   2.694  0.7163  0.4666  0.1208
 2563SOL    HW119151   2.719   1.739   2.763  2.4501 -1.2339  0.0117
 2563SOL    HW219152   2.578   1.710   2.713  0.7856 -0.1873  0.9896
 2564SOL     OW19153   2.168   1.362   7.705 -0.6125  0.0618  0.8892
 2564SOL    HW119154   2.248   1.310   7.706  0.5160  1.8064  0.3232
 2564SOL    HW219155   2.123   1.338   7.786  1.5689  0.1631  2.1301
 2565SOL     OW19156   2.737   0.336   1.936 -0.1739 -0.3351 -0.1512
 2565SOL    HW119157   2.752   0.273   1.865  0.7677  1.8480 -1.8773
 2565SOL    HW219158   2.778   0.283   2.005 -1.2606 -0.2937  0.5220
 2566SOL     OW19159   1.712   1.771   7.547 -0.0074 -0.3670  0.3283
 2566SOL    HW119160   1.704   1.765   7.452  1.5192 -1.6192  0.2732
 2566SOL    HW219161   1.807   1.780   7.549 -0.2423  1.6820  2.2514
 2567SOL     OW19162   2.450   4.116   5.169  0.5051  0.1944 -0.1254
 2567SOL    HW119163   2.491   4.106   5.255  0.5648 -1.6551 -0.3842
 2567SOL    HW219164   2.380   4.051   5.174 -0.5625  1.5168  2.3138
 2568SOL     OW19165   3.012   3.721  16.147 -0.3143  0.5534  0.1132
 2568SOL    HW119166   3.084   3.666  16.114 -0.3298  0.8802 -0.4758
 2568SOL    HW219167   3.065   3.797  16.170 -1.0041  0.4076  2.1170
 2569SOL     OW19168   3.525   2.693  16.621  0.0486 -0.4637  0.3428
 2569SOL    HW119169   3.438   2.652  16.624  0.0400 -0.1934  3.3618
 2569SOL    HW219170   3.511   2.774  16.572 -0.3580 -0.8447 -0.1853
 2570SOL     OW19171   2.415   1.406   9.565  0.7320 -0.0189 -0.0550
 2570SOL    HW119172   2.407   1.396   9.470  1.1045  0.2181 -0.1135
 2570SOL    HW219173   2.407   1.501   9.572  0.7651  0.0077 -0.3590
 2571SOL     OW19174   3.903   1.773   2.790  0.5773 -1.0533  0.1988
 2571SOL    HW119175   3.986   1.788   2.836  0.6311 -0.9865  0.0816
 2571SOL    HW219176   3.839   1.796   2.857 -0.1564  0.3942 -0.9735
 2572SOL     OW19177   1.683   1.844   4.455  0.7729  0.0094 -0.2745
 2572SOL    HW119178   1.642   1.922   4.418  1.8584  1.0319  0.7044
 2572SOL    HW219179   1.663   1.860   4.547  2.5169  1.0185 -0.0701
 2573SOL     OW19180   0.012   0.042  14.052  0.1922 -0.4124  0.0491
 2573SOL    HW119181   0.093   0.092  14.041 -1.3310  2.0287  0.1767
 2573SOL    HW219182   0.043   4.673  14.072  2.4319  0.2612 -0.4167
 2574SOL     OW19183   3.980   1.040   6.454  0.1380 -0.5862 -0.9942
 2574SOL    HW119184   4.020   1.101   6.515 -2.6780 -2.0425  2.3405
 2574SOL    HW219185   4.024   0.961   6.487  1.5707  0.0704 -1.3512
 2575SOL     OW19186   1.695   0.693  12.812  0.1836  0.5477 -0.2442
 2575SOL    HW119187   1.667   0.612  12.855 -0.2583  1.9334  2.0801
 2575SOL    HW219188   1.726   0.743  12.887  2.2543  2.6562 -2.4864
 2576SOL     OW19189   0.560   1.918   1.826  0.9375  0.5118  0.1171
 2576SOL    HW119190   0.565   1.937   1.732 -1.7732  0.1037 -0.0884
 2576SOL    HW219191   0.591   1.828   1.817  4.3908  1.8362 -1.5585
 2577SOL     OW19192   3.652   0.059   3.090  0.3260 -0.1293 -0.1435
 2577SOL    HW119193   3.582   0.006   3.051  0.8566  0.1336 -1.4826
 2577SOL    HW219194   3.719   4.710   3.097  0.7581  0.4983  1.7756
 2578SOL     OW19195   3.032   3.828   4.716  0.0438 -0.0032  0.3561
 2578SOL    HW119196   2.951   3.872   4.689  0.2081 -1.8215 -3.1952
 2578SOL    HW219197   3.003   3.737   4.717  0.1338 -0.0421 -0.2793
 2579SOL     OW19198   0.673   0.676   7.177  0.6750 -0.3551 -0.2686
 2579SOL    HW119199   0.588   0.705   7.143 -0.3671 -1.2901  1.5590
 2579SOL    HW219200   0.724   0.736   7.122  0.2095  1.1205  0.9270
 2580SOL     OW19201   4.577   2.055   6.498  0.2172 -0.0812 -0.5250
 2580SOL    HW119202   4.512   2.122   6.478  0.6835  0.8892  1.2661
 2580SOL    HW219203   4.634   2.050   6.420  0.3983  2.9670 -0.5689
 2581SOL     OW19204   2.397   2.780  13.717 -0.0161  0.3487 -0.3178
 2581SOL    HW119205   2.321   2.830  13.687 -0.9415 -0.7994  0.1116
 2581SOL    HW219206   2.455   2.854  13.737  0.6993 -0.6390  1.2349
 2582SOL     OW19207   2.568   4.264   6.407 -0.7082 -0.2502  0.3737
 2582SOL    HW119208   2.596   4.354   6.391  0.8944 -0.6118  1.1008
 2582SOL    HW219209   2.544   4.273   6.500 -0.2860 -1.6570  0.6228
 2583SOL     OW19210   2.880   1.961   9.417 -0.1621 -0.2721 -0.0858
 2583SOL    HW119211   2.860   1.970   9.511  2.2101  0.1362  0.3794
 2583SOL    HW219212   2.966   1.921   9.425 -0.8087 -1.7480 -0.6039
 2584SOL     OW19213   2.588   2.925   5.373 -0.3640  0.5744  0.1046
 2584SOL    HW119214   2.637   2.898   5.295 -1.8463 -0.2389 -0.5410
 2584SOL    HW219215   2.578   3.020   5.370 -1.4583  0.3920 -2.3795
 2585SOL     OW19216   1.458   1.367  10.947  0.0051 -0.1710  0.2729
 2585SOL    HW119217   1.401   1.405  10.880 -0.5660 -1.2668  0.1451
 2585SOL    HW219218   1.398   1.320  11.005  0.2192  0.4487  1.0048
 2586SOL     OW19219   0.934   2.432  11.448 -1.0516  0.3825 -0.1616
 2586SOL    HW119220   0.946   2.445  11.542  2.0143 -0.6454 -0.4051
 2586SOL    HW219221   0.925   2.338  11.438  1.4380  0.1465 -0.1448
 2587SOL     OW19222   1.529   2.853  13.543  0.3426  0.2476  0.0891
 2587SOL    HW119223   1.454   2.912  13.533 -0.4468 -0.4405  1.9196
 2587SOL    HW219224   1.602   2.908  13.571  1.1622 -0.8295  0.0733
 2588SOL     OW19225   1.195   2.465  16.253 -0.7059 -0.2681 -0.2615
 2588SOL    HW119226   1.194   2.555  16.221  2.8043 -1.5283 -4.0041
 2588SOL    HW219227   1.212   2.471  16.347 -1.8089 -0.8575 -0.0265
 2589SOL     OW19228   3.543   0.124   6.923 -0.1091  0.0145  0.3542
 2589SOL    HW119229   3.616   0.095   6.869 -0.0644  0.2336  0.2971
 2589SOL    HW219230   3.542   0.211   6.883 -0.6657  0.2993  0.9789
 2590SOL     OW19231   3.032   0.612   4.459  0.3939  0.3366 -0.2641
 2590SOL    HW119232   2.991   0.557   4.527  1.8304  0.5978  0.8182
 2590SOL    HW219233   2.961   0.613   4.394  1.8228 -2.2760 -1.8782
 2591SOL     OW19234   0.404   1.982   3.170 -0.3197 -0.2526  0.0189
 2591SOL    HW119235   0.497   2.000   3.162 -0.4126  0.3657  0.2673
 2591SOL    HW219236   0.402   1.947   3.259  1.5531 -2.6722 -0.9262
 2592SOL     OW19237   4.475   1.567  11.662  0.0207 -0.9013 -0.2127
 2592SOL    HW119238   4.514   1.486  11.695 -1.5723 -1.0983  1.2058
 2592SOL    HW219239   4.547   1.630  11.669 -1.0399  0.1759  1.0972
 2593SOL     OW19240   1.158   2.879   0.241  0.0605  0.3297 -0.1672
 2593SOL    HW119241   1.177   2.864   0.333 -0.5818 -2.8984 -0.5810
 2593SOL    HW219242   1.122   2.798   0.206  1.6167 -0.2579 -0.3919
 2594SOL     OW19243   2.741   3.212   2.527 -0.9423  0.1791  0.3659
 2594SOL    HW119244   2.647   3.212   2.546 -0.9384  2.1184  0.3722
 2594SOL    HW219245   2.760   3.302   2.552 -0.6888 -0.3621  2.1384
 2595SOL     OW19246   0.327   3.828   3.567  0.2460 -0.6467  0.5451
 2595SOL    HW119247   0.317   3.846   3.473  0.3717  0.1166  0.6787
 2595SOL    HW219248   0.378   3.904   3.595  0.9291 -1.7099  2.1893
 2596SOL     OW19249   1.113   0.014   4.674  0.2310 -0.5397  0.1254
 2596SOL    HW119250   1.073   0.095   4.707  1.6778 -0.6016  2.0180
 2596SOL    HW219251   1.172   4.719   4.748  0.7334 -0.7706 -0.3248
 2597SOL     OW19252   3.287   0.657  12.213  0.4771  0.2828  1.1757
 2597SOL    HW119253   3.372   0.656  12.170 -0.6810  0.8336 -1.1071
 2597SOL    HW219254   3.243   0.741  12.197 -0.4699 -0.2900  0.7807
 2598SOL     OW19255   0.147   2.630   0.942  0.5308 -0.0274  0.3777
 2598SOL    HW119256   0.126   2.723   0.944  0.1552 -0.0932 -0.2817
 2598SOL    HW219257   0.125   2.614   0.850  0.3616 -0.8892  0.5655
 2599SOL     OW19258   3.510   0.363   4.856 -0.2208  0.2465  0.2626
 2599SOL    HW119259   3.580   0.313   4.898  1.7800  0.6410 -2.6005
 2599SOL    HW219260   3.451   0.383   4.929  0.4068  3.4806 -0.1022
 2600SOL     OW19261   3.870   4.360  10.881 -0.5626  0.4844 -0.0474
 2600SOL    HW119262   3.899   4.323  10.798 -0.8737  0.4452 -0.1377
 2600SOL    HW219263   3.843   4.450  10.864 -1.1418  0.1696 -0.7834
 2601SOL     OW19264   0.198   4.451   2.884 -0.4666  0.0551 -0.3628
 2601SOL    HW119265   0.217   4.469   2.976 -3.2958  0.6539  0.0961
 2601SOL    HW219266   0.168   4.532   2.842 -2.0418 -0.1387  0.3774
 2602SOL     OW19267   2.237   3.152   2.553 -0.0294  0.2051  0.3038
 2602SOL    HW119268   2.183   3.078   2.580 -0.5447  0.8015  0.9006
 2602SOL    HW219269   2.178   3.184   2.484 -1.4309  0.1602  1.5012
 2603SOL     OW19270   3.141   0.236  15.715  0.1329 -0.0725  0.4786
 2603SOL    HW119271   3.084   0.248  15.639  0.6480  1.2295  0.3122
 2603SOL    HW219272   3.134   0.142  15.736  0.0090  0.0697  1.0640
 2604SOL     OW19273   3.943   4.240   6.417  0.0858  0.8371  0.1721
 2604SOL    HW119274   3.877   4.186   6.460  1.0975  0.3276  1.0959
 2604SOL    HW219275   3.907   4.254   6.330 -1.5270 -2.8389  0.2601
 2605SOL     OW19276   2.045   4.279   7.211 -0.1357  0.3304 -0.3940
 2605SOL    HW119277   2.104   4.352   7.193  2.5417 -1.8476 -0.4145
 2605SOL    HW219278   2.100   4.206   7.184 -0.5087 -0.5432  1.2254
 2606SOL     OW19279   4.624   3.865   2.783  0.2424  0.0030 -0.0019
 2606SOL    HW119280   4.576   3.831   2.859 -0.1866 -1.4230 -0.9179
 2606SOL    HW219281   4.561   3.849   2.713  1.5249 -0.4980 -1.0327
 2607SOL     OW19282   3.648   0.141   8.778 -0.4230 -0.6916  0.0234
 2607SOL    HW119283   3.726   0.087   8.792  0.8128  0.8510 -0.9589
 2607SOL    HW219284   3.676   0.232   8.788  2.8814 -1.6663 -0.3797
 2608SOL     OW19285   2.402   1.882  10.228  0.0116 -0.3357 -0.2360
 2608SOL    HW119286   2.405   1.954  10.291  0.4160 -0.6370  0.0854
 2608SOL    HW219287   2.465   1.818  10.261 -1.9522 -2.8725 -1.3971
 2609SOL     OW19288   0.819   1.316   4.095  0.2300  0.2033 -0.5521
 2609SOL    HW119289   0.736   1.276   4.071  0.5981 -1.2582  0.6719
 2609SOL    HW219290   0.881   1.248   4.068  1.0177  0.1718  1.3349
 2610SOL     OW19291   0.415   1.863   3.414 -0.2783 -0.6074  0.1163
 2610SOL    HW119292   0.488   1.836   3.470 -0.2106  0.9700  0.7871
 2610SOL    HW219293   0.365   1.781   3.410 -0.4500 -0.4044 -1.8157
 2611SOL     OW19294   2.970   4.442   8.613  0.1803 -0.0505 -0.2586
 2611SOL    HW119295   3.012   4.490   8.684 -0.5752  0.2352  0.0000
 2611SOL    HW219296   2.939   4.505   8.548  2.9127  2.9471  1.3459
 2612SOL     OW19297   3.611   3.817  15.927  0.0309  0.8195  0.0266
 2612SOL    HW119298   3.574   3.790  15.843 -1.6965 -1.1091  1.4265
 2612SOL    HW219299   3.554   3.893  15.943  0.9365  1.8732 -1.7301
 2613SOL     OW19300   0.857   2.976   1.763  0.0283  0.4227 -0.2468
 2613SOL    HW119301   0.911   3.016   1.831 -1.8570  1.0641  0.8502
 2613SOL    HW219302   0.852   2.885   1.791  2.0867  0.2782 -0.3286
 2614SOL     OW19303   3.019   1.020   5.293 -0.0739 -0.2456  0.8309
 2614SOL    HW119304   3.092   1.052   5.240 -0.2659 -1.1647 -0.0029
 2614SOL    HW219305   3.057   0.952   5.349  0.9638 -1.6120 -1.5156
 2615SOL     OW19306   3.611   4.713  17.207 -0.2613 -0.1355 -0.4203
 2615SOL    HW119307   3.675   4.653  17.169 -0.6422 -1.4073  0.9632
 2615SOL    HW219308   3.587   4.670  17.288 -1.6196 -0.9538 -1.2699
 2616SOL     OW19309   3.659   4.461   9.738  0.3568  0.6158  0.4515
 2616SOL    HW119310   3.727   4.431   9.799 -1.1912 -1.8604  0.9773
 2616SOL    HW219311   3.677   4.555   9.733  0.8572  0.5441  0.8333
 2617SOL     OW19312   3.051   1.278   4.254 -0.0732 -0.0911 -0.2241
 2617SOL    HW119313   3.060   1.195   4.301  3.2119 -1.5217 -3.3243
 2617SOL    HW219314   3.135   1.324   4.264  0.2514 -0.7591  0.1183
 2618SOL     OW19315   4.362   0.103   3.452 -0.1319  0.2896  0.2730
 2618SOL    HW119316   4.402   0.140   3.374 -0.3426  0.0781  0.0659
 2618SOL    HW219317   4.436   0.067   3.501 -1.0165  0.2105  1.5728
 2619SOL     OW19318   1.811   1.823  11.439  0.0412 -0.0515 -0.5196
 2619SOL    HW119319   1.728   1.844  11.483  0.7420  0.3329  0.6101
 2619SOL    HW219320   1.813   1.902  11.385 -1.8884 -1.2241 -2.3370
 2620SOL     OW19321   4.667   1.491   3.414  0.5108 -0.3959 -0.0897
 2620SOL    HW119322   0.029   1.517   3.371 -0.2729 -0.5161 -1.6601
 2620SOL    HW219323   4.620   1.574   3.411  0.0423 -0.7107 -1.4038
 2621SOL     OW19324   3.597   3.621   3.030  0.4152  0.2696  0.6071
 2621SOL    HW119325   3.649   3.623   3.110 -0.5394  1.7822  1.2002
 2621SOL    HW219326   3.652   3.566   2.976  0.4346 -0.5041  1.4185
 2622SOL     OW19327   0.015   1.397   5.907  0.1125  0.1188 -0.5509
 2622SOL    HW119328   0.013   1.348   5.989  0.1971 -0.3924 -0.8514
 2622SOL    HW219329   0.040   1.483   5.939  0.9798 -0.8563  1.4077
 2623SOL     OW19330   0.684   2.573   4.221 -0.5803 -0.0675  0.4576
 2623SOL    HW119331   0.594   2.605   4.223  0.5373  2.9150  2.3062
 2623SOL    HW219332   0.672   2.481   4.194  0.6828  0.1084 -0.7273
 2624SOL     OW19333   1.708   4.075   1.913 -0.4905 -1.0009 -0.2386
 2624SOL    HW119334   1.708   3.990   1.958 -1.3691 -1.2392 -0.6891
 2624SOL    HW219335   1.619   4.098   1.890  0.6491  2.0491 -1.5809
 2625SOL     OW19336   3.380   0.516   5.316  0.1771  0.3443  0.6179
 2625SOL    HW119337   3.462   0.466   5.309 -0.2096 -0.3945  1.2022
 2625SOL    HW219338   3.382   0.531   5.411  2.7322 -0.0217  0.6275
 2626SOL     OW19339   4.125   1.514   0.744  0.0908 -0.4700 -0.0537
 2626SOL    HW119340   4.081   1.471   0.817 -2.7316 -0.6618 -1.8879
 2626SOL    HW219341   4.053   1.541   0.687 -0.7573 -1.7969  0.4140
 2627SOL     OW19342   1.898   1.399  17.076  0.4880  0.4380 -0.0786
 2627SOL    HW119343   1.978   1.418  17.124  0.8328 -0.4847 -0.2726
 2627SOL    HW219344   1.932   1.390  16.987  1.2309  0.1736  0.2331
 2628SOL     OW19345   1.643   0.558   2.372  0.0296 -0.3776  0.4871
 2628SOL    HW119346   1.645   0.592   2.283 -0.6464  0.5413  0.8268
 2628SOL    HW219347   1.725   0.508   2.370  0.0051 -0.5316  2.6026
 2629SOL     OW19348   2.930   3.157   5.943 -0.4625  0.8976 -0.0085
 2629SOL    HW119349   2.949   3.136   6.034  1.3363  1.6651 -0.1973
 2629SOL    HW219350   2.878   3.085   5.908 -3.2596  2.0620  1.7524
 2630SOL     OW19351   1.187   0.914   7.840 -0.8192 -0.1877 -0.3762
 2630SOL    HW119352   1.233   0.882   7.917 -0.6115 -1.2732 -0.9549
 2630SOL    HW219353   1.105   0.865   7.843  0.5014 -2.3191  1.0229
 2631SOL     OW19354   1.334   0.933   2.639 -0.7306  0.1506 -0.7711
 2631SOL    HW119355   1.377   0.848   2.651  0.6091  0.8547 -0.5395
 2631SOL    HW219356   1.245   0.902   2.651 -0.2243 -1.4090 -0.9564
 2632SOL     OW19357   3.266   0.475  16.359 -0.3644 -0.2188 -0.0062
 2632SOL    HW119358   3.237   0.511  16.443  0.7241 -0.0047  0.2737
 2632SOL    HW219359   3.247   0.383  16.380  1.2206 -0.6006 -0.2992
 2633SOL     OW19360   2.979   2.353   7.223  0.1164  0.0030 -0.1477
 2633SOL    HW119361   2.889   2.333   7.197  1.1831 -3.7488 -0.9336
 2633SOL    HW219362   2.992   2.446   7.205  0.4360 -0.7693 -3.9006
 2634SOL     OW19363   3.012   2.139   7.867  0.0128  0.2882  0.2116
 2634SOL    HW119364   3.037   2.049   7.891 -1.6445  0.1542  1.4112
 2634SOL    HW219365   3.057   2.143   7.782 -0.6339  0.4113 -0.1227
 2635SOL     OW19366   3.705   0.199   3.922  0.3001 -0.6430  0.3343
 2635SOL    HW119367   3.629   0.205   3.863  2.1789 -0.9168 -2.1332
 2635SOL    HW219368   3.672   0.222   4.009 -0.4659  1.2920 -0.4490
 2636SOL     OW19369   4.629   2.998  16.137  0.4042  0.0945 -0.0440
 2636SOL    HW119370   4.719   2.968  16.147 -0.2665 -1.9797 -0.3916
 2636SOL    HW219371   4.588   2.915  16.113  0.0517  0.1156  0.4937
 2637SOL     OW19372   2.629   3.327   7.450 -0.0953  0.2296 -0.4327
 2637SOL    HW119373   2.547   3.374   7.466  0.4335  0.6018  1.1685
 2637SOL    HW219374   2.655   3.315   7.541  1.6048  1.0994 -0.8073
 2638SOL     OW19375   0.656   4.496   7.247 -0.1622  0.3645  0.0130
 2638SOL    HW119376   0.668   4.441   7.324 -2.7126  1.4719  1.1926
 2638SOL    HW219377   0.572   4.535   7.271 -0.6651  0.0748 -1.2766
 2639SOL     OW19378   2.498   2.627  16.345 -0.6490 -0.1316 -0.3350
 2639SOL    HW119379   2.474   2.717  16.364 -0.8534 -0.2475 -0.0360
 2639SOL    HW219380   2.495   2.595  16.435  0.6515 -0.1885 -0.3178
 2640SOL     OW19381   0.354   2.532  11.519  0.0563 -0.0256  0.0051
 2640SOL    HW119382   0.414   2.458  11.510 -0.0436 -0.3357  1.9286
 2640SOL    HW219383   0.276   2.481  11.542  0.5641 -0.3104  1.0483
 2641SOL     OW19384   4.631   1.261   5.088  0.4427  0.4466 -0.0135
 2641SOL    HW119385   4.551   1.226   5.128  2.6596 -4.6506 -0.0871
 2641SOL    HW219386   4.631   1.219   5.002  0.0345  1.2257 -0.3948
 2642SOL     OW19387   3.614   3.185   5.168 -0.1455  0.1350 -0.3235
 2642SOL    HW119388   3.575   3.270   5.148  2.3498  1.5159  0.6479
 2642SOL    HW219389   3.706   3.206   5.182 -0.0921  0.9600 -1.8006
 2643SOL     OW19390   0.834   1.468   7.020  0.6201 -0.2462 -0.5505
 2643SOL    HW119391   0.790   1.480   6.936 -0.6282  0.2303  0.1747
 2643SOL    HW219392   0.793   1.391   7.059  1.7164 -0.6764 -0.2393
 2644SOL     OW19393   0.339   1.229   0.085 -0.4047 -0.9599  0.0467
 2644SOL    HW119394   0.364   1.144   0.049  2.5023  0.4803 -1.3445
 2644SOL    HW219395   0.427   1.257   0.109 -0.4227  0.4197 -1.5125
 2645SOL     OW19396   3.115   0.820   7.163 -0.0653  0.5890  0.7616
 2645SOL    HW119397   3.156   0.791   7.244 -0.0556  1.5584  1.1118
 2645SOL    HW219398   3.140   0.911   7.147 -0.8076  0.7611  0.5686
 2646SOL     OW19399   4.689   4.675   3.396 -0.5019  0.4793 -0.2364
 2646SOL    HW119400   4.673   4.589   3.356  0.3338  0.5279 -0.6706
 2646SOL    HW219401   4.612   4.690   3.450 -0.3423 -0.3119  0.1982
 2647SOL     OW19402   1.377   0.010   2.211 -0.9503 -0.3470  0.2851
 2647SOL    HW119403   1.392   0.097   2.174  0.8000 -0.7440  0.0796
 2647SOL    HW219404   1.459   4.714   2.258 -1.0167  1.4350  0.9818
 2648SOL     OW19405   0.008   0.098   0.909 -0.1177  0.2785  0.1788
 2648SOL    HW119406   0.086   0.152   0.904 -1.3574  1.9737 -0.9269
 2648SOL    HW219407   0.014   0.067   0.999 -0.2078  2.9486  1.1154
 2649SOL     OW19408   0.413   2.528   6.721 -0.2680  0.1661 -0.3955
 2649SOL    HW119409   0.332   2.476   6.724  0.6698 -1.4010 -2.3879
 2649SOL    HW219410   0.447   2.503   6.807 -1.7003 -0.6998 -0.0793
 2650SOL     OW19411   1.612   0.505  11.635 -0.2912 -0.1677 -0.4883
 2650SOL    HW119412   1.571   0.456  11.565  1.5956  2.8941 -3.7720
 2650SOL    HW219413   1.683   0.450  11.669 -0.5720  0.2013  0.7082
 2651SOL     OW19414   4.055   3.536   8.025  0.5481  0.7609 -0.4901
 2651SOL    HW119415   4.065   3.605   7.960  1.8716  0.0853 -1.0124
 2651SOL    HW219416   4.148   3.522   8.043  0.3461 -0.7827 -0.6464
 2652SOL     OW19417   2.831   1.935   3.695 -0.6586 -0.3262 -0.0117
 2652SOL    HW119418   2.806   1.855   3.650 -0.4119  0.1230 -0.9528
 2652SOL    HW219419   2.919   1.915   3.728  0.2010  1.1914 -1.4040
 2653SOL     OW19420   1.363   0.033   0.908  0.5198  0.4865 -0.3208
 2653SOL    HW119421   1.429   0.028   0.838  0.3306  0.1079 -0.4683
 2653SOL    HW219422   1.415   4.717   0.981 -1.7437 -1.1050  0.5026
 2654SOL     OW19423   1.152   4.706   8.551  0.2864 -0.2452  0.0486
 2654SOL    HW119424   1.150   4.690   8.456  0.2316  0.8522 -0.1370
 2654SOL    HW219425   1.122   4.623   8.589 -0.3485  0.9007  2.0357
 2655SOL     OW19426   3.181   1.980   3.503  0.2704 -0.2417 -0.0044
 2655SOL    HW119427   3.152   1.889   3.495  0.1334 -0.2811  0.9235
 2655SOL    HW219428   3.272   1.965   3.531  0.7266  0.3041 -1.1734
 2656SOL     OW19429   4.516   0.643   7.467 -0.1343  0.0862 -0.7471
 2656SOL    HW119430   4.564   0.636   7.549 -2.7178 -0.6816  0.7166
 2656SOL    HW219431   4.443   0.702   7.486  1.2503  0.5526  3.1885
 2657SOL     OW19432   0.626   2.845  14.786 -0.0396 -0.5485  0.6586
 2657SOL    HW119433   0.650   2.798  14.706 -2.2332 -1.6523  0.6369
 2657SOL    HW219434   0.562   2.787  14.827 -1.5769  2.1151  2.0642
 2658SOL     OW19435   0.669   4.555   2.769  0.1935  0.0686 -0.0089
 2658SOL    HW119436   0.711   4.579   2.851 -0.7099  0.6785  0.2782
 2658SOL    HW219437   0.584   4.598   2.774  0.8537  1.2701  0.6855
 2659SOL     OW19438   0.061   4.446   7.198 -0.6857 -0.3662 -0.0980
 2659SOL    HW119439   0.081   4.358   7.165 -1.5291 -0.9791  1.0351
 2659SOL    HW219440   0.068   4.487   7.111 -0.2210  1.5495  0.8539
 2660SOL     OW19441   2.308   0.385   4.058 -0.0169  0.0108 -0.6850
 2660SOL    HW119442   2.324   0.331   4.135 -0.8689  0.7816  0.0351
 2660SOL    HW219443   2.392   0.390   4.013  0.5233  0.3010  0.3551
 2661SOL     OW19444   1.968   3.238   4.196 -0.1528 -1.1510  0.3463
 2661SOL    HW119445   1.941   3.236   4.104  2.5985 -1.8720 -0.4285
 2661SOL    HW219446   1.954   3.147   4.221 -1.5477 -1.0530 -0.0479
 2662SOL     OW19447   3.885   3.140  10.057 -0.1210 -0.2920  0.1522
 2662SOL    HW119448   3.963   3.140  10.002 -0.1978 -2.4394  0.0511
 2662SOL    HW219449   3.918   3.122  10.145  0.3882  0.8865  0.2034
 2663SOL     OW19450   1.517   1.870   4.680  0.2532  0.2313  0.5279
 2663SOL    HW119451   1.456   1.940   4.659  0.1868  0.1092  0.3081
 2663SOL    HW219452   1.531   1.889   4.772 -0.5677 -0.6821  0.8343
 2664SOL     OW19453   1.401   3.934   7.314  0.2619  0.9331  0.2740
 2664SOL    HW119454   1.343   3.920   7.389  2.3724 -1.0653  1.5220
 2664SOL    HW219455   1.343   3.984   7.256  1.0555  1.8471  0.2729
 2665SOL     OW19456   2.267   0.845   1.613  0.1022 -0.0080 -0.4396
 2665SOL    HW119457   2.240   0.929   1.577 -0.0449  0.7495  1.4241
 2665SOL    HW219458   2.197   0.833   1.677  0.3240 -0.3816 -0.2666
 2666SOL     OW19459   4.289   0.628  15.889 -0.2374  0.1049  0.3168
 2666SOL    HW119460   4.378   0.644  15.920  0.6316  0.1952 -2.1970
 2666SOL    HW219461   4.294   0.651  15.796 -0.6037 -1.9026 -0.2088
 2667SOL     OW19462   2.547   3.085   5.967  0.0434  0.2313  0.1358
 2667SOL    HW119463   2.627   3.079   5.915 -0.1789 -1.2171 -0.0257
 2667SOL    HW219464   2.583   3.127   6.045 -0.5080 -1.1223  1.1119
 2668SOL     OW19465   2.193   1.901   6.010  0.2705 -0.7616  0.1423
 2668SOL    HW119466   2.127   1.858   5.957 -1.0117  0.2021  0.9581
 2668SOL    HW219467   2.233   1.827   6.055  0.4419 -0.9665 -0.3405
 2669SOL     OW19468   3.915   2.340  15.841  0.1990 -0.7056 -0.1556
 2669SOL    HW119469   3.860   2.276  15.887 -0.6658  0.2524  0.1364
 2669SOL    HW219470   3.900   2.329  15.747  0.4182 -1.7756 -0.0737
 2670SOL     OW19471   3.010   4.698   2.485 -0.0363 -0.1846  0.4255
 2670SOL    HW119472   3.003   4.633   2.556 -1.4169  0.5445  0.9677
 2670SOL    HW219473   3.007   0.062   2.531 -1.1055  0.0740 -0.1251
 2671SOL     OW19474   1.077   3.309  14.953  0.5221 -0.3257 -0.3343
 2671SOL    HW119475   1.075   3.224  14.997 -0.3467 -0.1346 -0.0136
 2671SOL    HW219476   1.115   3.294  14.866  1.3557 -1.0166  0.1463
 2672SOL     OW19477   0.531   0.576   1.358 -0.2729 -0.1302  0.7247
 2672SOL    HW119478   0.523   0.502   1.418  1.2365 -0.1360  0.9204
 2672SOL    HW219479   0.471   0.641   1.395  1.1405  2.6105 -1.7265
 2673SOL     OW19480   2.626   0.990   1.128 -0.0548 -0.5059 -0.1181
 2673SOL    HW119481   2.676   0.914   1.099 -0.6847 -1.4179  1.1708
 2673SOL    HW219482   2.636   1.062   1.065  4.1516  0.0210  1.1212
 2674SOL     OW19483   1.501   0.198   5.743  0.2823 -0.6150 -0.1429
 2674SOL    HW119484   1.530   0.285   5.715 -1.3906 -0.1797 -0.5441
 2674SOL    HW219485   1.438   0.197   5.670  2.3162  0.0146 -1.8993
 2675SOL     OW19486   4.432   0.311   4.631  0.1617  0.4323 -0.3162
 2675SOL    HW119487   4.349   0.341   4.669  0.6770  0.5694  0.7026
 2675SOL    HW219488   4.445   0.368   4.555 -1.4479  0.1004 -0.8481
 2676SOL     OW19489   0.601   4.591   4.063  0.3842  0.0760  0.1804
 2676SOL    HW119490   0.566   4.657   4.122 -0.7962  0.3943 -0.8632
 2676SOL    HW219491   0.609   4.512   4.117  1.1415 -0.2647 -0.4271
 2677SOL     OW19492   4.524   3.827   6.750  0.4782  0.1854 -0.0925
 2677SOL    HW119493   4.593   3.779   6.797 -1.5842 -2.6823  0.0317
 2677SOL    HW219494   4.522   3.784   6.665 -2.2674 -0.5597  0.3447
 2678SOL     OW19495   1.041   1.058   4.363  0.1307  0.6879 -0.5705
 2678SOL    HW119496   1.107   1.119   4.330 -0.2544  1.8221  0.7418
 2678SOL    HW219497   1.087   0.979   4.335  2.3557  1.8333 -0.1932
 2679SOL     OW19498   4.401   4.458   6.529 -0.3975  0.5431  0.1496
 2679SOL    HW119499   4.312   4.488   6.543 -0.4644  0.1306  0.5928
 2679SOL    HW219500   4.425   4.495   6.444  0.7197 -2.0722 -0.6935
 2680SOL     OW19501   1.622   2.801   9.191 -0.2252 -0.1179  0.2992
 2680SOL    HW119502   1.690   2.808   9.259  0.4831 -2.0916 -0.2004
 2680SOL    HW219503   1.601   2.709   9.208 -4.3739  0.6147 -0.9162
 2681SOL     OW19504   1.813   4.186   2.947 -0.2129 -0.4251 -0.1321
 2681SOL    HW119505   1.728   4.229   2.957 -0.0077 -0.4030  1.5974
 2681SOL    HW219506   1.799   4.113   2.887  0.3030 -0.7123  0.1008
 2682SOL     OW19507   1.337   3.237   7.014 -0.0741 -0.1707  0.2186
 2682SOL    HW119508   1.308   3.227   6.923 -0.1895  1.5866  0.0472
 2682SOL    HW219509   1.409   3.299   7.010 -0.4647  0.1734 -1.8098
 2683SOL     OW19510   4.606   3.528   8.324  0.1327  0.0605  0.5531
 2683SOL    HW119511   4.637   3.441   8.347  1.2511  0.1991 -0.4707
 2683SOL    HW219512   4.550   3.501   8.252  0.2835  1.3632 -0.0509
 2684SOL     OW19513   2.969   2.858   1.682 -0.1398  0.1677  0.3829
 2684SOL    HW119514   3.001   2.903   1.760 -1.5567 -0.0326  1.0951
 2684SOL    HW219515   2.912   2.792   1.722 -0.8583  0.7255  0.2751
 2685SOL     OW19516   3.575   2.107   8.679  0.0890  0.0399 -0.3223
 2685SOL    HW119517   3.519   2.180   8.651  0.4744  1.4917  2.7027
 2685SOL    HW219518   3.528   2.028   8.653  0.8539 -0.1604 -1.1023
 2686SOL     OW19519   2.388   0.947  12.288 -0.1564  0.4606  0.5728
 2686SOL    HW119520   2.478   0.971  12.309  0.5506  1.0593 -3.2064
 2686SOL    HW219521   2.351   1.032  12.266  0.0348  0.6882  1.1259
 2687SOL     OW19522   1.114   1.362   3.008 -0.2550 -0.1480  0.4323
 2687SOL    HW119523   1.169   1.376   3.085  2.7915  1.0757 -1.9749
 2687SOL    HW219524   1.096   1.268   3.012  0.5300 -0.3418 -0.6327
 2688SOL     OW19525   2.725   0.687   8.087  0.0242 -0.2381 -0.1741
 2688SOL    HW119526   2.631   0.673   8.092 -0.3483  2.4042 -0.2036
 2688SOL    HW219527   2.748   0.603   8.048 -0.8030 -0.7043  0.3344
 2689SOL     OW19528   3.052   2.200   3.742 -0.1049  0.2652  0.6230
 2689SOL    HW119529   3.084   2.228   3.657 -2.7312 -0.0690 -0.4988
 2689SOL    HW219530   3.096   2.119   3.768 -1.2125 -0.1033  1.3511
 2690SOL     OW19531   0.787   2.066  11.759  0.4645 -0.0066 -0.1756
 2690SOL    HW119532   0.810   2.014  11.837  1.3053  2.5793  1.2918
 2690SOL    HW219533   0.700   2.100  11.779  0.7733  0.8936 -0.3681
 2691SOL     OW19534   2.171   2.728   2.378  0.2580 -0.2529 -0.1496
 2691SOL    HW119535   2.183   2.811   2.332 -2.7386  0.1307 -0.2033
 2691SOL    HW219536   2.122   2.679   2.311  0.2646  0.7070 -0.8476
 2692SOL     OW19537   3.801   3.463   2.831  0.8600 -0.2549 -0.5803
 2692SOL    HW119538   3.863   3.462   2.758  0.8349  0.1713 -0.6063
 2692SOL    HW219539   3.755   3.383   2.804 -1.1567  0.9681 -0.7516
 2693SOL     OW19540   1.371   1.229  15.556 -0.3280  0.2015 -0.2007
 2693SOL    HW119541   1.386   1.198  15.645  0.9036 -0.3776 -0.6098
 2693SOL    HW219542   1.301   1.293  15.570  0.0979  0.4482  0.8248
 2694SOL     OW19543   3.129   0.178   0.602  0.2396  0.0577  0.5183
 2694SOL    HW119544   3.177   0.095   0.606  0.8264  0.2916 -2.0139
 2694SOL    HW219545   3.143   0.213   0.690  1.6377 -0.1173  0.3770
 2695SOL     OW19546   2.773   0.822   7.774 -0.4729  0.1259 -0.4067
 2695SOL    HW119547   2.839   0.762   7.809  1.0369  1.8129 -0.3985
 2695SOL    HW219548   2.694   0.769   7.783  0.3137 -0.9243  0.2396
 2696SOL     OW19549   1.188   0.810   8.916  0.2805 -0.5462  0.2765
 2696SOL    HW119550   1.117   0.819   8.852  0.7149  0.5346 -0.0600
 2696SOL    HW219551   1.264   0.842   8.868  0.3335 -0.2977  0.5263
 2697SOL     OW19552   4.020   4.125   7.754  0.0036  0.3775 -0.1234
 2697SOL    HW119553   4.038   4.218   7.769 -1.8891  0.4980  1.3727
 2697SOL    HW219554   4.103   4.079   7.762 -0.8848 -1.0772  0.5692
 2698SOL     OW19555   3.157   0.753  17.314 -0.2760 -0.5098 -0.2613
 2698SOL    HW119556   3.249   0.741  17.339  0.0193  2.1014 -0.0396
 2698SOL    HW219557   3.164   0.748  17.219  0.3004 -0.5408 -0.2230
 2699SOL     OW19558   1.010   3.674   4.743 -0.1255 -0.1981  0.3192
 2699SOL    HW119559   1.100   3.696   4.719 -0.7463 -0.5705 -2.4365
 2699SOL    HW219560   0.973   3.637   4.662 -0.0917  0.2048  0.1199
 2700SOL     OW19561   0.661   2.894   6.225  0.1985 -0.3619 -0.6444
 2700SOL    HW119562   0.699   2.807   6.220 -0.8876 -0.9303  0.9354
 2700SOL    HW219563   0.654   2.911   6.131  1.8172 -1.9524 -1.0412
 2701SOL     OW19564   3.854   2.900   4.600 -0.1870  0.3262 -0.3521
 2701SOL    HW119565   3.841   2.970   4.536  1.8907 -0.0986 -1.2246
 2701SOL    HW219566   3.886   2.834   4.539  0.4896  0.0657  0.2915
 2702SOL     OW19567   1.478   0.455   3.612  0.1726  0.4758  0.3145
 2702SOL    HW119568   1.518   0.407   3.684  1.6511  0.3507 -0.5904
 2702SOL    HW219569   1.392   0.414   3.610  0.7242 -0.5091 -2.8914
 2703SOL     OW19570   2.695   3.393   3.856 -0.4439  0.0457  0.5714
 2703SOL    HW119571   2.748   3.387   3.936  0.2712 -2.6105 -0.1171
 2703SOL    HW219572   2.608   3.372   3.889 -0.8419 -1.9343 -1.7262
 2704SOL     OW19573   2.585   4.029   7.410  0.0469 -0.0950 -0.2851
 2704SOL    HW119574   2.601   4.091   7.340 -4.2326 -0.5099 -1.6606
 2704SOL    HW219575   2.670   4.038   7.453  0.6603  2.1391 -1.9890
 2705SOL     OW19576   0.119   0.115   6.059 -0.3471 -0.5637  0.0675
 2705SOL    HW119577   0.041   0.158   6.094  1.8258  3.9476 -0.5836
 2705SOL    HW219578   0.078   0.110   5.972  1.1096  3.6431 -0.8934
 2706SOL     OW19579   3.215   1.175   8.930 -0.3031 -0.4425 -0.6790
 2706SOL    HW119580   3.278   1.234   8.891  1.8771 -0.4186  2.8706
 2706SOL    HW219581   3.227   1.215   9.016 -1.4470 -1.2295 -0.1444
 2707SOL     OW19582   1.383   0.518  17.643 -0.4074 -0.0326 -0.1335
 2707SOL    HW119583   1.472   0.549  17.629 -1.0045  2.0351  0.6469
 2707SOL    HW219584   1.381   0.501   0.056 -0.7677  1.2097  0.0922
 2708SOL     OW19585   0.571   2.008   5.151  0.6253 -0.0182  0.1054
 2708SOL    HW119586   0.630   2.014   5.075  1.3297  2.3500  0.8290
 2708SOL    HW219587   0.498   1.951   5.128  2.9858 -3.0469  0.2292
 2709SOL     OW19588   1.431   0.381   5.936 -0.0211 -0.2273  0.4275
 2709SOL    HW119589   1.482   0.300   5.931  2.0160  1.1038 -0.4053
 2709SOL    HW219590   1.370   0.357   6.006 -0.9943  2.7159  0.5858
 2710SOL     OW19591   3.405   1.818   5.160  0.0623  0.4432 -0.0409
 2710SOL    HW119592   3.400   1.723   5.160 -0.8876  0.4961 -0.7640
 2710SOL    HW219593   3.496   1.827   5.189  0.1525 -1.9045  0.3926
 2711SOL     OW19594   2.095   2.769   4.092 -0.3414  0.1113  0.0297
 2711SOL    HW119595   2.124   2.726   4.172  0.9681  1.4891  0.2810
 2711SOL    HW219596   2.022   2.713   4.064  0.1015 -0.0225 -0.8707
 2712SOL     OW19597   3.978   4.405   3.512  0.1205  0.3377  0.4109
 2712SOL    HW119598   4.009   4.329   3.462 -1.4168  0.7461 -1.2009
 2712SOL    HW219599   4.046   4.472   3.507  0.3327  0.3840  4.1162
 2713SOL     OW19600   2.849   4.353   4.641  0.5956  0.0329 -0.1090
 2713SOL    HW119601   2.871   4.288   4.574 -2.5506  0.6236 -1.7139
 2713SOL    HW219602   2.859   4.431   4.587 -0.0452 -0.0109 -0.2921
 2714SOL     OW19603   4.326   2.644   7.897 -0.2401  0.4597  0.0095
 2714SOL    HW119604   4.300   2.663   7.987  0.3681 -0.2619  0.3372
 2714SOL    HW219605   4.270   2.572   7.871 -0.2641  0.8091 -0.9320
 2715SOL     OW19606   1.852   1.699   8.011  0.5367 -0.3328 -0.3963
 2715SOL    HW119607   1.797   1.772   8.037  1.3630  0.0874  0.1681
 2715SOL    HW219608   1.929   1.737   7.968  2.2732 -2.5719  0.7241
 2716SOL     OW19609   2.804   0.132   8.032  0.3003 -0.1200  0.3530
 2716SOL    HW119610   2.850   0.143   8.116 -0.7286  1.3934  0.7186
 2716SOL    HW219611   2.852   0.055   8.000 -1.0524 -0.6380 -0.4359
 2717SOL     OW19612   3.505   2.944   4.340 -0.1502  0.4078 -0.2195
 2717SOL    HW119613   3.544   2.857   4.334  0.4217  0.8234 -2.9139
 2717SOL    HW219614   3.446   2.939   4.265 -2.9174  0.7669  1.9790
 2718SOL     OW19615   4.641   3.712   1.597 -0.6293  0.1407 -0.4981
 2718SOL    HW119616   4.605   3.667   1.674  0.0312  0.1616 -0.1821
 2718SOL    HW219617   4.571   3.776   1.584  0.8223  1.5727 -1.1445
 2719SOL     OW19618   0.719   1.716   2.078 -0.1263 -0.1797 -0.1309
 2719SOL    HW119619   0.792   1.663   2.045 -0.2266 -0.7048  0.4973
 2719SOL    HW219620   0.670   1.657   2.136  2.8002 -0.4926  2.0286
 2720SOL     OW19621   3.398   4.171   7.393 -0.2616 -0.1814  0.4571
 2720SOL    HW119622   3.437   4.154   7.308 -0.8482 -2.7263  0.6734
 2720SOL    HW219623   3.422   4.261   7.413  1.1218 -0.1027 -1.5953
 2721SOL     OW19624   0.204   1.804   9.205 -0.0394  0.0582 -0.2472
 2721SOL    HW119625   0.189   1.738   9.272  0.4045  1.3325  1.0990
 2721SOL    HW219626   0.125   1.789   9.153 -0.3816 -0.0790  0.3226
 2722SOL     OW19627   3.422   0.198  11.690 -0.3692  0.0841 -0.1984
 2722SOL    HW119628   3.436   0.244  11.773 -0.3263  0.5576 -0.4692
 2722SOL    HW219629   3.512   0.179  11.663 -0.0258  2.4344 -0.7390
 2723SOL     OW19630   0.569   3.387   5.394  0.2686  0.4563  0.6958
 2723SOL    HW119631   0.535   3.365   5.307  1.8468 -2.3031  0.7823
 2723SOL    HW219632   0.661   3.360   5.387  0.6544  1.6371  1.3326
 2724SOL     OW19633   2.722   2.158  10.536 -0.1108  0.6876  0.0859
 2724SOL    HW119634   2.662   2.093  10.571  0.1994  0.3138 -0.0715
 2724SOL    HW219635   2.728   2.125  10.446 -0.5901 -0.3178  0.4259
 2725SOL     OW19636   0.500   4.256   7.170  0.4150 -0.4750 -0.6350
 2725SOL    HW119637   0.548   4.337   7.182  0.9713 -0.6140 -1.9130
 2725SOL    HW219638   0.417   4.296   7.196  0.4502 -1.8814  1.7115
 2726SOL     OW19639   2.623   2.876  16.056 -0.3120 -1.0383 -0.0392
 2726SOL    HW119640   2.605   2.874  15.962 -0.6088  0.0215 -0.0013
 2726SOL    HW219641   2.559   2.939  16.087  0.3958 -0.4155  0.1565
 2727SOL     OW19642   0.903   3.593   4.510  0.3030  0.3928  0.8714
 2727SOL    HW119643   0.884   3.649   4.434  0.7120  1.2166  1.3846
 2727SOL    HW219644   0.940   3.515   4.468  0.5175  1.4950 -1.0029
 2728SOL     OW19645   3.268   3.736  10.205 -1.1150  0.3104 -0.7721
 2728SOL    HW119646   3.302   3.665  10.151 -0.2698  0.7178 -0.7740
 2728SOL    HW219647   3.311   3.810  10.161  1.2965  0.1906  1.4150
 2729SOL     OW19648   0.171   4.714   2.797 -0.2133 -0.6171  0.1843
 2729SOL    HW119649   0.107   0.060   2.826 -1.5104 -2.2028  0.8977
 2729SOL    HW219650   0.167   0.002   2.702  2.5119 -0.1130  0.1006
 2730SOL     OW19651   3.205   4.085   8.596 -0.2561  0.2030 -0.0782
 2730SOL    HW119652   3.209   4.040   8.511  1.7029 -0.1858  0.2289
 2730SOL    HW219653   3.238   4.009   8.644  0.3171  0.4401 -0.1034
 2731SOL     OW19654   4.459   2.949   9.722  0.2678 -0.1087  0.0031
 2731SOL    HW119655   4.543   2.963   9.678  0.6406  1.1244  1.1168
 2731SOL    HW219656   4.469   2.998   9.804 -1.2612  0.5261 -0.1789
 2732SOL     OW19657   0.533   0.138  12.287  0.4193  0.1976 -0.4139
 2732SOL    HW119658   0.453   0.110  12.332 -0.9555  2.5781 -1.3530
 2732SOL    HW219659   0.602   0.093  12.335 -0.0046 -1.0266 -0.9596
 2733SOL     OW19660   3.776   1.009  14.735 -0.3337 -0.4415 -0.4641
 2733SOL    HW119661   3.725   1.054  14.668  2.0198  2.0574 -0.5807
 2733SOL    HW219662   3.787   0.919  14.703  0.8592 -0.2416 -0.6188
 2734SOL     OW19663   3.437   2.682   9.154  0.0079 -0.2041  0.4432
 2734SOL    HW119664   3.405   2.600   9.191 -0.0879 -1.0344 -1.4969
 2734SOL    HW219665   3.383   2.743   9.205 -0.6343  0.0100 -0.5020
 2735SOL     OW19666   1.948   3.188   7.247 -0.5385  0.3246  0.3689
 2735SOL    HW119667   2.000   3.235   7.182 -1.1685 -2.0157 -1.8539
 2735SOL    HW219668   2.010   3.135   7.298  1.2979  2.5116  0.3843
 2736SOL     OW19669   3.700   3.234   2.743 -0.0038 -0.6776  0.3612
 2736SOL    HW119670   3.606   3.252   2.740 -0.1409 -1.2921  1.0704
 2736SOL    HW219671   3.727   3.240   2.651 -1.5433  0.9420  0.0275
 2737SOL     OW19672   2.825   4.544   6.042  1.1130  0.3310 -0.1429
 2737SOL    HW119673   2.837   4.593   5.960  0.9644 -2.0825 -1.6070
 2737SOL    HW219674   2.729   4.538   6.048  1.3160 -3.9829 -1.0303
 2738SOL     OW19675   2.771   2.320   3.664 -0.3313 -0.1475  0.3406
 2738SOL    HW119676   2.680   2.318   3.694  0.7484  0.0161  3.5748
 2738SOL    HW219677   2.831   2.326   3.738  0.1785 -0.9176 -0.0088
 2739SOL     OW19678   1.546   2.087  15.852  0.2487  0.0431  1.0674
 2739SOL    HW119679   1.512   2.090  15.762  3.2648  1.8357  0.0212
 2739SOL    HW219680   1.533   1.995  15.878 -1.1123 -1.0843 -3.4942
 2740SOL     OW19681   3.886   1.993   6.596 -0.4733 -0.6392  0.3035
 2740SOL    HW119682   3.940   1.932   6.545 -1.0997  0.1708 -1.3372
 2740SOL    HW219683   3.794   1.967   6.589  0.0797 -2.0510 -1.8541
 2741SOL     OW19684   2.297   2.854   1.173 -0.3305 -0.3745 -0.0299
 2741SOL    HW119685   2.300   2.916   1.245  1.2331 -0.5807  0.0876
 2741SOL    HW219686   2.375   2.803   1.196  0.3095 -0.2756 -1.9590
 2742SOL     OW19687   1.884   1.368   9.365  0.2070  0.1338  0.1672
 2742SOL    HW119688   1.883   1.280   9.403 -1.8290 -0.5662 -1.5201
 2742SOL    HW219689   1.975   1.382   9.339  0.4810  0.2809  1.2393
 2743SOL     OW19690   0.423   1.161   2.452 -0.1511  0.3146 -0.4492
 2743SOL    HW119691   0.328   1.154   2.446 -0.3937  1.8529  1.4667
 2743SOL    HW219692   0.437   1.148   2.359  0.3361 -3.0332  0.1032
 2744SOL     OW19693   0.365   2.008  14.823  0.3656  0.4806  0.4661
 2744SOL    HW119694   0.449   1.977  14.856  0.3572  0.2096  0.2293
 2744SOL    HW219695   0.303   1.949  14.866  1.8665 -1.4927 -0.0977
 2745SOL     OW19696   4.368   3.327  13.512  0.2486  0.1303 -0.0134
 2745SOL    HW119697   4.410   3.327  13.597  2.3743  1.4469 -1.0721
 2745SOL    HW219698   4.333   3.238  13.504  0.3453  0.0847  0.0807
 2746SOL     OW19699   4.551   1.693   5.256  0.3662 -0.3354  0.9033
 2746SOL    HW119700   4.521   1.636   5.327 -2.1697 -1.6672 -1.2565
 2746SOL    HW219701   4.488   1.763   5.271  0.0284 -0.2815 -0.7165
 2747SOL     OW19702   4.054   3.065   7.567 -0.1545 -0.3335  0.0199
 2747SOL    HW119703   4.144   3.067   7.600  0.1536  1.0974 -0.9207
 2747SOL    HW219704   4.020   2.986   7.609 -1.0969  0.6580  1.1176
 2748SOL     OW19705   3.297   0.843  13.877 -0.2853 -0.2564  0.1324
 2748SOL    HW119706   3.287   0.893  13.796  0.8507 -0.9370 -0.4291
 2748SOL    HW219707   3.366   0.780  13.858  0.5679  1.2588 -1.8395
 2749SOL     OW19708   4.050   1.201  13.452  0.6922  0.4280 -0.3733
 2749SOL    HW119709   4.123   1.230  13.397  0.6868 -1.8466 -1.6079
 2749SOL    HW219710   4.100   1.143  13.509 -1.0798 -0.7007  0.0276
 2750SOL     OW19711   2.882   0.858  14.793 -0.3229 -0.0646  0.2223
 2750SOL    HW119712   2.894   0.790  14.860  2.4203 -2.2985 -2.5510
 2750SOL    HW219713   2.855   0.927  14.854 -1.0117  0.8367 -1.1128
 2751SOL     OW19714   4.581   3.904   3.844  0.0107  0.7548  0.1389
 2751SOL    HW119715   4.665   3.913   3.890 -0.5843  1.3489  1.1107
 2751SOL    HW219716   4.579   3.814   3.811  1.5762 -0.1178  2.4264
 2752SOL     OW19717   2.424   3.039   3.456  0.8626  0.2750  0.0748
 2752SOL    HW119718   2.393   3.066   3.369  0.2649  0.1463  0.2438
 2752SOL    HW219719   2.375   2.961   3.484  1.6100  0.3967  1.7216
 2753SOL     OW19720   3.835   1.099   1.672 -0.7337  0.3173  0.2078
 2753SOL    HW119721   3.847   1.008   1.647  0.2613 -0.6885  4.3325
 2753SOL    HW219722   3.910   1.127   1.725 -0.5753 -0.7492  0.5385
 2754SOL     OW19723   2.687   3.771   4.898 -0.3478 -0.4564  0.0872
 2754SOL    HW119724   2.597   3.772   4.866 -0.3649 -1.7580  0.1117
 2754SOL    HW219725   2.702   3.677   4.906 -1.1135 -0.6600 -0.9085
 2755SOL     OW19726   4.119   2.678   7.420 -0.8543 -0.1376 -0.3875
 2755SOL    HW119727   4.060   2.604   7.428  0.7807 -1.4274 -0.1338
 2755SOL    HW219728   4.174   2.656   7.345 -1.5187  1.2430 -1.2780
 2756SOL     OW19729   3.305   4.491   7.005 -0.0776  0.6880  0.0508
 2756SOL    HW119730   3.338   4.530   6.924 -0.7810 -2.0795 -1.5821
 2756SOL    HW219731   3.217   4.529   7.008 -0.2833  0.1683  0.8152
 2757SOL     OW19732   2.816   3.445  13.641  0.4132  0.1036 -0.2283
 2757SOL    HW119733   2.901   3.407  13.664  0.6332  0.4012 -0.5542
 2757SOL    HW219734   2.841   3.467  13.552  3.6202  3.0395  1.3766
 2758SOL     OW19735   3.974   3.253  11.738 -0.3799 -0.3634  0.3252
 2758SOL    HW119736   3.900   3.309  11.760  0.4724  0.3605  1.3311
 2758SOL    HW219737   4.003   3.297  11.659  1.7072  0.1082  1.3602
 2759SOL     OW19738   0.904   2.497  14.927 -0.2099  0.2938  0.1834
 2759SOL    HW119739   0.906   2.442  14.849 -2.7814 -2.5787  2.1041
 2759SOL    HW219740   0.823   2.457  14.959  0.5982 -1.1748  0.4106
 2760SOL     OW19741   4.640   3.837  14.598  0.2183 -0.2652 -0.1246
 2760SOL    HW119742   0.007   3.874  14.577 -0.4671  2.1901  1.3724
 2760SOL    HW219743   4.612   3.830  14.507  3.4690  0.1296 -1.1552
 2761SOL     OW19744   1.384   2.788   9.488 -1.1028  0.1575  0.6398
 2761SOL    HW119745   1.425   2.875   9.492 -1.2061  0.1576  1.7414
 2761SOL    HW219746   1.357   2.782   9.580  0.5388  1.2657  1.2076
 2762SOL     OW19747   3.438   2.161  14.288  0.2196 -0.0766  0.1340
 2762SOL    HW119748   3.354   2.198  14.317 -0.1861 -1.5062  0.7396
 2762SOL    HW219749   3.430   2.077  14.332 -1.2194  1.6688  3.2055
 2763SOL     OW19750   1.673   2.798   2.219  0.4289 -0.5280  0.3040
 2763SOL    HW119751   1.603   2.851   2.257  0.2659 -0.2060 -0.4567
 2763SOL    HW219752   1.646   2.711   2.248 -2.5488  0.3152  0.1245
 2764SOL     OW19753   1.625   0.993   7.325 -0.6249 -0.1550  0.3054
 2764SOL    HW119754   1.678   0.988   7.405 -1.1128  1.9185  0.7606
 2764SOL    HW219755   1.554   1.056   7.334 -1.4066 -1.1253  0.9076
 2765SOL     OW19756   0.619   1.918  14.849 -0.2926  0.6072  0.3601
 2765SOL    HW119757   0.667   1.960  14.777 -0.9578  0.3752 -0.2179
 2765SOL    HW219758   0.688   1.909  14.914 -0.6417 -0.9347  0.5066
 2766SOL     OW19759   0.884   2.546   9.434  0.0231  0.1175 -0.6171
 2766SOL    HW119760   0.918   2.498   9.510 -0.6058 -0.4959 -0.7285
 2766SOL    HW219761   0.910   2.493   9.359  1.9514  0.0631  0.0677
 2767SOL     OW19762   1.720   3.144  15.234 -0.2090 -0.6352  0.5324
 2767SOL    HW119763   1.754   3.205  15.300  2.0936  0.9890 -2.1909
 2767SOL    HW219764   1.792   3.145  15.172  0.5484  0.3869  1.4312
 2768SOL     OW19765   2.322   1.210   0.852 -0.3029 -0.1743  0.1363
 2768SOL    HW119766   2.254   1.274   0.875  1.0987  0.9114  1.2455
 2768SOL    HW219767   2.274   1.130   0.832  0.2642 -0.6259  0.5843
 2769SOL     OW19768   2.149   3.679   5.642 -0.0155  0.0265 -0.1176
 2769SOL    HW119769   2.182   3.729   5.567  2.4907  1.4956  1.9337
 2769SOL    HW219770   2.194   3.722   5.715 -2.3910  1.2448  0.6199
 2770SOL     OW19771   4.644   0.814   3.643 -0.1605  0.2733  0.0166
 2770SOL    HW119772   4.674   0.831   3.732 -0.0208  2.1181 -0.3824
 2770SOL    HW219773   4.571   0.876   3.640  0.2039  0.6858 -0.1981
 2771SOL     OW19774   3.625   4.713   4.603 -0.2977  0.4507 -0.0839
 2771SOL    HW119775   3.623   4.626   4.563 -3.3021  0.1187  0.7521
 2771SOL    HW219776   3.553   0.042   4.563  1.6772  2.1231 -1.6050
 2772SOL     OW19777   0.889   1.062   8.301  0.1313 -0.2373 -0.0111
 2772SOL    HW119778   0.912   1.146   8.262  0.3437  0.3433  1.3653
 2772SOL    HW219779   0.883   1.081   8.394  1.8059 -0.9552  0.2460
 2773SOL     OW19780   2.044   1.643   6.654  0.2953 -0.6474  0.3079
 2773SOL    HW119781   2.083   1.603   6.733  0.1078 -2.5441 -0.5553
 2773SOL    HW219782   1.987   1.571   6.629 -0.5938 -0.4080  1.6184
 2774SOL     OW19783   1.160   2.660   2.270 -0.5718 -0.0901  0.2718
 2774SOL    HW119784   1.204   2.710   2.201  2.8036  1.9079  3.9271
 2774SOL    HW219785   1.198   2.573   2.256 -1.6643 -0.4221 -0.5732
 2775SOL     OW19786   3.682   0.560  16.530 -0.1166  0.4479 -0.1986
 2775SOL    HW119787   3.750   0.617  16.493 -1.4930 -0.3416 -3.9696
 2775SOL    HW219788   3.689   0.493  16.461 -1.6924 -0.4548  0.5262
 2776SOL     OW19789   2.188   4.405   4.166  0.2147 -0.1931 -0.4591
 2776SOL    HW119790   2.269   4.355   4.157 -0.0229 -0.7884  0.7304
 2776SOL    HW219791   2.213   4.495   4.189  1.4477 -1.0042  1.3507
 2777SOL     OW19792   1.699   2.862   7.697 -0.3013 -0.0006  0.1884
 2777SOL    HW119793   1.607   2.853   7.671 -1.0145  1.5029  2.1360
 2777SOL    HW219794   1.707   2.814   7.780  0.0787  1.5667  1.0502
 2778SOL     OW19795   3.809   3.718   6.969 -0.4593  0.3986 -0.0135
 2778SOL    HW119796   3.887   3.775   6.965 -1.6205  2.0476  0.9198
 2778SOL    HW219797   3.741   3.762   7.019 -2.3775  0.6557 -2.8171
 2779SOL     OW19798   0.547   2.763   3.257 -0.5227 -0.3257  0.5789
 2779SOL    HW119799   0.451   2.769   3.256 -0.5560 -0.9332 -2.6214
 2779SOL    HW219800   0.569   2.718   3.338 -1.2600  1.7009  1.8916
 2780SOL     OW19801   4.089   3.311   2.406  0.0074  0.2979 -0.1933
 2780SOL    HW119802   4.099   3.221   2.436  0.4102  0.3878 -0.0581
 2780SOL    HW219803   4.184   3.327   2.398  0.4306 -0.3522  3.8059
 2781SOL     OW19804   3.949   0.891   2.974  0.2440 -0.2547 -0.2587
 2781SOL    HW119805   3.985   0.979   2.964  0.4139 -0.0190  2.2997
 2781SOL    HW219806   3.943   0.888   3.070  0.7681  0.4101 -0.1976
 2782SOL     OW19807   3.873   4.609   5.236  0.2471 -0.5700  0.0090
 2782SOL    HW119808   3.884   4.592   5.329 -0.8793 -0.7326  0.1126
 2782SOL    HW219809   3.828   4.526   5.219 -1.1417  0.0267  0.7474
 2783SOL     OW19810   1.993   1.002   6.914 -0.1626 -0.6331  0.2915
 2783SOL    HW119811   1.976   0.958   6.831  0.5528  0.6120 -0.5254
 2783SOL    HW219812   2.084   1.026   6.894 -0.2117  0.0522  0.8794
 2784SOL     OW19813   3.347   0.235  10.774 -0.0526 -0.3899 -0.1386
 2784SOL    HW119814   3.330   0.313  10.721  1.8392  0.0619 -0.0988
 2784SOL    HW219815   3.262   0.195  10.761 -0.5193 -0.1720  2.2846
 2785SOL     OW19816   1.636   0.151   3.316  0.1228 -0.1462  0.3843
 2785SOL    HW119817   1.577   0.145   3.241 -0.1347 -2.1208  0.7473
 2785SOL    HW219818   1.715   0.163   3.265 -0.0102 -1.4237 -0.1341
 2786SOL     OW19819   3.124   1.963   7.197  0.1280 -0.2115 -0.3338
 2786SOL    HW119820   3.081   2.011   7.127 -0.2587  1.2914  0.9491
 2786SOL    HW219821   3.085   2.031   7.252  1.6660 -0.0969  0.6255
 2787SOL     OW19822   1.438   0.458   0.802 -0.5471  0.2122  0.0505
 2787SOL    HW119823   1.415   0.380   0.753  0.5278 -1.4827  2.2502
 2787SOL    HW219824   1.436   0.427   0.892  1.2045 -3.1538 -1.0809
 2788SOL     OW19825   0.052   4.158   3.166 -0.1675 -0.4508  0.4495
 2788SOL    HW119826   0.093   4.187   3.247  0.4522 -4.1549  1.4559
 2788SOL    HW219827   0.128   4.120   3.123  0.1219  1.6574 -0.9370
 2789SOL     OW19828   2.147   1.009   9.273 -0.2739  0.4004 -0.5341
 2789SOL    HW119829   2.084   0.968   9.214  0.8364 -1.6968 -0.2471
 2789SOL    HW219830   2.225   0.954   9.274  0.5979  1.6399 -0.3704
 2790SOL     OW19831   0.039   1.015   7.484 -0.0473  0.0796  0.0716
 2790SOL    HW119832   4.706   0.973   7.553  0.0373 -0.0417  0.0616
 2790SOL    HW219833   0.091   1.072   7.541 -3.1503  3.0595 -0.0973
 2791SOL     OW19834   2.106   0.152   6.254 -0.4504  0.7716 -0.0889
 2791SOL    HW119835   2.197   0.141   6.283 -0.2321  0.6810 -0.8167
 2791SOL    HW219836   2.071   0.063   6.244  1.4453  0.0237 -0.1791
 2792SOL     OW19837   0.982   1.862   3.322 -0.2531 -0.0650  0.3788
 2792SOL    HW119838   0.998   1.817   3.239  1.1012 -0.5671  0.8988
 2792SOL    HW219839   0.967   1.792   3.386 -0.5320 -0.4773 -0.1411
 2793SOL     OW19840   2.645   2.540  13.679 -0.4499  0.6040 -0.2169
 2793SOL    HW119841   2.637   2.589  13.597  0.1826 -0.5169 -0.9547
 2793SOL    HW219842   2.583   2.586  13.736 -0.8576 -0.2861  0.0637
 2794SOL     OW19843   3.527   3.765   9.793 -0.5372 -0.4388  0.3220
 2794SOL    HW119844   3.457   3.785   9.730  0.6148 -4.1258 -2.1222
 2794SOL    HW219845   3.544   3.851   9.832 -0.2877 -0.2108 -0.2831
 2795SOL     OW19846   2.399   0.706  15.331  0.1141  0.0877 -0.4063
 2795SOL    HW119847   2.412   0.611  15.341  0.0546  0.4192  2.8166
 2795SOL    HW219848   2.311   0.722  15.363 -0.5903 -0.2909 -2.1908
 2796SOL     OW19849   2.938   1.384  16.007 -0.1316  0.6344 -0.2822
 2796SOL    HW119850   2.860   1.433  16.034 -0.7882 -0.1796 -0.7076
 2796SOL    HW219851   2.915   1.303  16.052 -0.4238  1.5430  1.1992
 2797SOL     OW19852   3.130   4.587   7.760 -0.3372 -0.0021 -0.2611
 2797SOL    HW119853   3.043   4.613   7.790 -0.7104 -0.6919 -0.7462
 2797SOL    HW219854   3.177   4.577   7.843  0.3129  0.0885 -0.6153
 2798SOL     OW19855   2.912   0.589  11.542 -0.3108  0.3803 -0.3800
 2798SOL    HW119856   2.869   0.553  11.464 -1.3756  0.9384 -0.0631
 2798SOL    HW219857   2.931   0.516  11.600 -0.1705  1.2372  0.6506
 2799SOL     OW19858   2.823   4.177   4.280  0.0904  0.5415 -0.1671
 2799SOL    HW119859   2.882   4.146   4.349  0.3996  1.4113 -0.0378
 2799SOL    HW219860   2.873   4.257   4.261  1.0099 -0.0148 -0.1153
 2800SOL     OW19861   0.880   2.582   5.632 -0.7909 -0.1142  0.2078
 2800SOL    HW119862   0.934   2.651   5.592  0.3289 -0.3127  1.3610
 2800SOL    HW219863   0.832   2.546   5.558  1.3236  1.7442 -2.0838
 2801SOL     OW19864   3.676   2.531   7.912 -0.4543 -0.7731  0.3603
 2801SOL    HW119865   3.729   2.572   7.980 -0.7937  0.3869 -0.0725
 2801SOL    HW219866   3.745   2.501   7.852 -1.4231 -0.7229 -0.7671
 2802SOL     OW19867   0.531   2.053   6.331  0.1924  0.2864 -0.9338
 2802SOL    HW119868   0.591   2.086   6.264 -0.3574 -0.6218 -1.8623
 2802SOL    HW219869   0.467   2.122   6.347  0.0152 -0.4370  1.5284
 2803SOL     OW19870   3.305   1.339   2.073 -0.5492 -0.7436 -0.0504
 2803SOL    HW119871   3.244   1.267   2.090  1.5291 -2.2878  1.0314
 2803SOL    HW219872   3.246   1.414   2.077 -0.3974 -0.4398 -3.5032
 2804SOL     OW19873   3.920   3.688  16.012  0.2924 -0.2980  0.1430
 2804SOL    HW119874   3.877   3.742  15.945 -2.8650 -1.3426  1.3328
 2804SOL    HW219875   3.848   3.679  16.075 -0.2606  0.0338 -0.4369
 2805SOL     OW19876   3.272   2.554  16.895  0.7083  0.8739 -0.0215
 2805SOL    HW119877   3.211   2.611  16.941 -2.3848 -0.7443 -2.1121
 2805SOL    HW219878   3.252   2.581  16.806 -3.2511 -2.4533 -0.1320
 2806SOL     OW19879   0.294   0.975   3.862 -0.1923  0.0592 -0.1154
 2806SOL    HW119880   0.242   1.040   3.814 -2.3539 -0.4560  1.5278
 2806SOL    HW219881   0.243   0.951   3.939 -0.0301  0.7272  0.2047
 2807SOL     OW19882   0.801   0.556   6.368 -0.4774  0.0553  0.0143
 2807SOL    HW119883   0.712   0.550   6.402 -0.3258  1.6286  0.6999
 2807SOL    HW219884   0.796   0.531   6.276  1.8319 -2.6027  0.6001
 2808SOL     OW19885   3.737   4.033   6.498 -0.0417  0.0401  0.5428
 2808SOL    HW119886   3.655   4.053   6.452  1.1237 -1.7043 -2.2326
 2808SOL    HW219887   3.734   3.938   6.505  0.1780  0.1950  2.9008
 2809SOL     OW19888   4.131   1.522   5.569 -0.1434 -0.0426 -0.0872
 2809SOL    HW119889   4.050   1.480   5.540 -0.3241  0.1538  0.1347
 2809SOL    HW219890   4.164   1.449   5.623 -2.3680 -0.3000  0.9412
 2810SOL     OW19891   1.762   0.986  15.666 -0.3131  0.1855 -0.1942
 2810SOL    HW119892   1.784   0.958  15.755 -0.7678  0.4746  0.0119
 2810SOL    HW219893   1.710   0.916  15.627 -2.0264  0.1536  2.1640
 2811SOL     OW19894   0.445   2.324  15.676 -0.0088 -0.5160 -0.3641
 2811SOL    HW119895   0.382   2.315  15.748  1.4681  0.1737  1.0271
 2811SOL    HW219896   0.381   2.326  15.605 -0.2239 -2.2579 -0.2146
 2812SOL     OW19897   4.554   4.337   8.352 -0.3356 -0.6285  0.0543
 2812SOL    HW119898   4.606   4.418   8.346 -0.8291 -0.2114  1.3225
 2812SOL    HW219899   4.570   4.322   8.445 -1.4172 -3.7827 -0.2758
 2813SOL     OW19900   1.716   1.027   6.581 -0.1055 -0.2770  0.1762
 2813SOL    HW119901   1.718   0.931   6.579 -1.3257 -0.3458  2.7359
 2813SOL    HW219902   1.630   1.050   6.547  0.6035  0.7991 -0.9231
 2814SOL     OW19903   2.375   0.330   3.087  0.0419  0.6688 -0.4841
 2814SOL    HW119904   2.414   0.262   3.141 -1.9057  1.7318  2.2510
 2814SOL    HW219905   2.457   0.377   3.071  0.1136 -0.3705 -3.1846
 2815SOL     OW19906   1.174   0.284   3.244 -0.3902  0.7504 -0.5153
 2815SOL    HW119907   1.079   0.284   3.256 -0.2665 -0.0497  0.4792
 2815SOL    HW219908   1.184   0.215   3.179  0.9969 -0.8861  1.4245
 2816SOL     OW19909   0.841   2.569   9.145 -0.1520  0.1799  0.3094
 2816SOL    HW119910   0.834   2.641   9.082  0.0905  1.3105  1.5817
 2816SOL    HW219911   0.762   2.580   9.198  0.4993  3.2820  0.6358
 2817SOL     OW19912   0.238   4.249  13.372  0.3360  0.6986 -0.7944
 2817SOL    HW119913   0.183   4.252  13.294  2.5671 -0.8665 -2.4177
 2817SOL    HW219914   0.172   4.275  13.436  1.4797  0.7440  0.3574
 2818SOL     OW19915   1.437   1.377   7.563  0.0965  0.4139 -0.3148
 2818SOL    HW119916   1.384   1.450   7.531  1.6844  0.3282 -3.0946
 2818SOL    HW219917   1.503   1.376   7.494 -1.4064  1.0596 -1.7506
 2819SOL     OW19918   0.102   1.524  12.247 -0.3845 -0.9487  0.6469
 2819SOL    HW119919   0.145   1.445  12.280  1.3931 -1.1675 -2.1799
 2819SOL    HW219920   0.128   1.583  12.318  1.4488 -0.2621 -0.5918
 2820SOL     OW19921   2.427   4.016   2.486 -0.1396 -0.0868  0.4005
 2820SOL    HW119922   2.477   4.020   2.405 -0.4942 -1.4830  0.1216
 2820SOL    HW219923   2.368   4.089   2.465 -1.3816 -1.3024 -0.3247
 2821SOL     OW19924   1.034   2.723   8.609  0.0948  0.4101 -0.2872
 2821SOL    HW119925   1.013   2.639   8.569 -0.3340  0.7889 -0.8618
 2821SOL    HW219926   0.959   2.774   8.578 -0.4846 -1.4176 -1.9017
 2822SOL     OW19927   2.820   2.316   7.827  0.4840 -0.1604 -0.5393
 2822SOL    HW119928   2.817   2.366   7.908 -0.4756 -1.5457  0.2714
 2822SOL    HW219929   2.876   2.244   7.855  0.7318 -0.1254 -0.9453
 2823SOL     OW19930   0.481   3.739   7.355  0.3687 -0.4983 -0.2744
 2823SOL    HW119931   0.512   3.772   7.439  1.0347  1.7492 -1.4040
 2823SOL    HW219932   0.502   3.646   7.364 -0.4336 -0.8262 -1.7290
 2824SOL     OW19933   4.217   0.460   5.866 -0.0303 -0.0577 -0.1494
 2824SOL    HW119934   4.311   0.455   5.851 -0.0472 -0.3265 -0.1718
 2824SOL    HW219935   4.186   0.378   5.828 -0.5222  0.9028 -1.7986
 2825SOL     OW19936   1.260   1.811  11.103 -0.0867  0.0035  0.0005
 2825SOL    HW119937   1.320   1.761  11.158  0.3813  1.9027  1.2467
 2825SOL    HW219938   1.318   1.867  11.051 -0.5159  0.3406 -0.1184
 2826SOL     OW19939   1.647   3.556  14.481  0.2753  0.4224 -0.1591
 2826SOL    HW119940   1.613   3.597  14.402 -0.9734 -2.5390 -1.1233
 2826SOL    HW219941   1.575   3.498  14.504 -0.1394  0.2368 -1.9395
 2827SOL     OW19942   0.230   3.677   2.529 -0.1275  0.0306 -0.4622
 2827SOL    HW119943   0.163   3.619   2.566 -0.0370  0.5563  0.5247
 2827SOL    HW219944   0.192   3.701   2.445  0.3797 -2.1130 -1.3077
 2828SOL     OW19945   2.501   1.876   3.775 -0.0456  0.2275  0.8573
 2828SOL    HW119946   2.542   1.792   3.756  1.7289  1.6574 -1.5640
 2828SOL    HW219947   2.445   1.875   3.698  1.0362  0.9839  0.0637
 2829SOL     OW19948   1.059   2.535  13.868 -0.1992  0.2937  0.2365
 2829SOL    HW119949   1.060   2.583  13.951 -0.8571  0.7703 -0.0368
 2829SOL    HW219950   1.076   2.446  13.901  0.4645  0.3962  0.1725
 2830SOL     OW19951   4.416   4.716   4.679  0.5359 -0.3970  0.4261
 2830SOL    HW119952   4.413   0.092   4.675  0.9749 -0.3619  0.8510
 2830SOL    HW219953   4.325   4.693   4.700 -0.0985  0.2092 -1.6628
 2831SOL     OW19954   0.765   1.228   4.760  0.0403 -0.1071 -0.4866
 2831SOL    HW119955   0.823   1.171   4.710  3.1268  1.5774  1.0981
 2831SOL    HW219956   0.810   1.224   4.844  1.1374  0.1356 -1.0531
 2832SOL     OW19957   1.549   3.181   7.624  0.0851 -0.4322  0.0002
 2832SOL    HW119958   1.500   3.192   7.543  1.2588  0.2054 -0.6140
 2832SOL    HW219959   1.634   3.151   7.594  0.4120  2.7557 -2.2520
 2833SOL     OW19960   3.339   1.281  13.382  0.1698  1.3495 -0.5059
 2833SOL    HW119961   3.428   1.291  13.347  0.1144 -0.2527 -1.0787
 2833SOL    HW219962   3.312   1.193  13.358  1.8649  0.1371  2.1274
 2834SOL     OW19963   4.074   1.878   4.809  0.7178 -0.2830 -0.2477
 2834SOL    HW119964   4.106   1.964   4.837  2.4829 -1.1058  0.2842
 2834SOL    HW219965   3.987   1.905   4.781  1.4314  1.2864 -0.9728
 2835SOL     OW19966   2.043   3.084   5.893  0.1881 -0.0015 -0.1331
 2835SOL    HW119967   2.130   3.105   5.926  0.2385  0.7759 -0.7452
 2835SOL    HW219968   2.040   2.991   5.919 -2.4925  0.0547 -0.2308
 2836SOL     OW19969   1.333   3.563   8.226  0.3796 -0.1593 -0.3100
 2836SOL    HW119970   1.308   3.541   8.136  2.5729 -0.1534 -0.9295
 2836SOL    HW219971   1.300   3.653   8.226 -0.9189 -0.6402 -0.2264
 2837SOL     OW19972   2.492   0.384   8.818  0.1017 -0.4405 -0.3105
 2837SOL    HW119973   2.529   0.296   8.810 -1.1045 -0.7970 -1.9910
 2837SOL    HW219974   2.562   0.445   8.844 -0.2530 -0.3422  0.4049
 2838SOL     OW19975   4.417   0.708   4.698 -0.2723  0.4610  0.3440
 2838SOL    HW119976   4.459   0.789   4.670 -2.3283  1.1691 -0.6796
 2838SOL    HW219977   4.417   0.648   4.623  0.6543  0.9979 -0.0871
 2839SOL     OW19978   2.355   2.225   7.735 -0.4971 -0.3549  0.1983
 2839SOL    HW119979   2.371   2.252   7.825 -3.7123  0.4124  0.5340
 2839SOL    HW219980   2.272   2.270   7.717 -0.2404  0.1290  0.2309
 2840SOL     OW19981   3.576   2.997  16.259  0.2870  0.0262  0.0762
 2840SOL    HW119982   3.664   3.003  16.297  0.1302  4.1931 -0.2572
 2840SOL    HW219983   3.584   3.027  16.169  1.5159  1.8702  0.8095
 2841SOL     OW19984   3.444   3.630   8.417 -0.3489  0.0939  0.0757
 2841SOL    HW119985   3.431   3.722   8.395  0.9673 -0.1559 -1.7735
 2841SOL    HW219986   3.453   3.641   8.512  1.1636  0.4981 -0.1171
 2842SOL     OW19987   2.442   4.400   9.665  0.1498  0.0834  0.3330
 2842SOL    HW119988   2.473   4.429   9.750 -0.4966 -0.1254  0.6345
 2842SOL    HW219989   2.470   4.481   9.620  2.2996 -1.0994 -0.4495
 2843SOL     OW19990   3.851   0.161   0.114 -0.0630  0.1254 -0.2505
 2843SOL    HW119991   3.797   0.240   0.110  1.3731  1.1400  0.3990
 2843SOL    HW219992   3.925   0.188   0.059 -0.7709 -0.0713 -1.2930
 2844SOL     OW19993   2.051   1.680  14.816 -0.0443  0.1886  0.1126
 2844SOL    HW119994   2.138   1.719  14.815  0.0481  0.0063  0.7669
 2844SOL    HW219995   2.009   1.754  14.772  2.9198  1.4858 -0.5798
 2845SOL     OW19996   3.134   3.765   7.429 -0.5633  0.4611 -1.1334
 2845SOL    HW119997   3.123   3.857   7.452 -2.1727  0.4724 -1.9482
 2845SOL    HW219998   3.122   3.711   7.508 -0.2109  1.6088 -0.3022
 2846SOL     OW19999   2.858   3.012   5.523  0.1368  0.1449  0.2027
 2846SOL    HW120000   2.807   2.992   5.445 -1.0693  0.3873  0.9255
 2846SOL    HW220001   2.792   2.980   5.585  3.4025 -2.5571  2.2711
 2847SOL     OW20002   1.014   2.496  13.386 -0.6543 -0.5345  0.7090
 2847SOL    HW120003   1.013   2.407  13.422  0.2578 -0.6913  0.3425
 2847SOL    HW220004   0.979   2.542  13.462  1.7452  1.8866  0.3518
 2848SOL     OW20005   3.398   4.199   4.967  0.3094  0.3336  0.3230
 2848SOL    HW120006   3.458   4.138   5.009  1.0036  1.4138  0.9225
 2848SOL    HW220007   3.445   4.211   4.885 -0.0876 -2.4657 -0.2792
 2849SOL     OW20008   4.436   4.052   8.612 -0.2860 -0.0553 -0.1547
 2849SOL    HW120009   4.521   4.008   8.613  0.6676  1.9690  2.9172
 2849SOL    HW220010   4.408   4.022   8.525  1.4499 -3.1171  0.3150
 2850SOL     OW20011   0.474   1.609  11.004  0.5758 -0.0652  0.1758
 2850SOL    HW120012   0.392   1.629  11.050 -1.1132 -2.8883 -1.6395
 2850SOL    HW220013   0.525   1.577  11.079  0.1700 -1.4097 -0.1161
 2851SOL     OW20014   0.727   0.403   5.118  0.0074 -0.4885  0.0408
 2851SOL    HW120015   0.708   0.364   5.203 -0.6446  2.2116  1.1201
 2851SOL    HW220016   0.815   0.381   5.085  0.9292  2.4560  0.5759
 2852SOL     OW20017   0.117   4.701   7.293  0.2714 -0.0560 -0.2803
 2852SOL    HW120018   0.103   4.613   7.257  1.1592 -0.1915 -0.2775
 2852SOL    HW220019   0.127   0.038   7.216 -1.1640  0.2487 -0.2513
 2853SOL     OW20020   4.611   1.438  10.524 -0.0040 -0.0653  0.4527
 2853SOL    HW120021   4.548   1.448  10.452  2.9239  2.2963 -1.8183
 2853SOL    HW220022   4.671   1.513  10.515 -0.4523  0.3045  0.5167
 2854SOL     OW20023   2.786   3.315   3.635  0.3982  0.3776  0.0872
 2854SOL    HW120024   2.703   3.304   3.589 -0.2112  2.1193  0.7937
 2854SOL    HW220025   2.758   3.352   3.718  0.3055  4.2306 -1.6730
 2855SOL     OW20026   2.906   0.131  17.101 -0.6657  0.0790  0.4694
 2855SOL    HW120027   2.910   0.088  17.187 -1.4903  0.6578  0.7932
 2855SOL    HW220028   2.998   0.130  17.074 -1.2021 -1.3236 -1.2565
 2856SOL     OW20029   1.648   3.492   4.356 -0.2538 -0.1468 -0.1392
 2856SOL    HW120030   1.740   3.514   4.365 -0.2752 -0.9149  1.7380
 2856SOL    HW220031   1.614   3.569   4.308  0.2563  0.4684  0.4999
 2857SOL     OW20032   0.539   3.516   8.901 -0.1369 -0.4608 -0.5648
 2857SOL    HW120033   0.522   3.581   8.970  3.2562 -0.2144  0.0357
 2857SOL    HW220034   0.465   3.457   8.912 -0.6825  0.5361  1.2588
 2858SOL     OW20035   2.345   2.978   9.251 -0.5151  0.6831  0.2739
 2858SOL    HW120036   2.315   2.887   9.254  1.3519  0.0379 -0.9204
 2858SOL    HW220037   2.308   3.015   9.171 -0.9867  1.3206  0.7857
 2859SOL     OW20038   2.600   1.332  11.209  0.1390  0.2691  0.2862
 2859SOL    HW120039   2.562   1.298  11.128 -1.1006 -2.8028  2.1676
 2859SOL    HW220040   2.553   1.281  11.275  1.9793  2.5489  3.3676
 2860SOL     OW20041   2.601   4.140   2.072  0.1551  0.3550  0.2003
 2860SOL    HW120042   2.554   4.107   1.996 -0.3720  1.0200  0.2286
 2860SOL    HW220043   2.660   4.068   2.092  1.0895  0.3974 -2.4952
 2861SOL     OW20044   2.377   0.852   4.630 -0.2967  0.4813  0.4970
 2861SOL    HW120045   2.423   0.784   4.678  0.8486  0.6728 -0.3260
 2861SOL    HW220046   2.291   0.811   4.620  0.5503 -1.0018 -0.7335
 2862SOL     OW20047   0.074   2.677   4.783  0.1176  0.1544 -0.2697
 2862SOL    HW120048   4.714   2.624   4.791 -0.1912  0.6833  0.1366
 2862SOL    HW220049   0.136   2.636   4.843  2.2252  2.0355 -1.1459
 2863SOL     OW20050   1.893   0.894   8.248 -0.3388 -0.2339 -0.7962
 2863SOL    HW120051   1.933   0.981   8.247 -1.0194  0.0864  0.4352
 2863SOL    HW220052   1.873   0.893   8.154 -1.6187 -0.4328 -0.5155
 2864SOL     OW20053   0.599   3.906   8.980  0.2761  0.5306 -0.0658
 2864SOL    HW120054   0.666   3.972   8.998  1.0888 -0.4672  0.5736
 2864SOL    HW220055   0.521   3.961   8.971  0.6853  1.1738  0.3320
 2865SOL     OW20056   0.557   3.817   4.883 -0.3738 -0.5215  0.0048
 2865SOL    HW120057   0.508   3.760   4.942 -0.3166  0.6755  1.1987
 2865SOL    HW220058   0.491   3.886   4.879 -1.3400 -1.3497  1.4765
 2866SOL     OW20059   0.582   0.199   6.669 -0.1166  0.0565  0.4812
 2866SOL    HW120060   0.621   0.141   6.735 -1.4120  2.5804  3.4328
 2866SOL    HW220061   0.495   0.158   6.665 -0.2860  0.4770 -0.1554
 2867SOL     OW20062   3.634   1.889  10.240  0.0714 -0.5753 -0.2243
 2867SOL    HW120063   3.621   1.979  10.211  1.1459 -0.7676 -1.3086
 2867SOL    HW220064   3.567   1.838  10.196  0.5532 -1.1916 -0.2454
 2868SOL     OW20065   2.111   1.606   8.927 -0.6185  0.0401  0.1911
 2868SOL    HW120066   2.095   1.532   8.985 -0.3438  0.2214  0.4937
 2868SOL    HW220067   2.126   1.680   8.985 -0.4881  0.3350 -0.2177
 2869SOL     OW20068   4.202   0.332   7.898  0.6880 -0.3412  0.1098
 2869SOL    HW120069   4.249   0.415   7.890 -0.7522  0.6545  2.0827
 2869SOL    HW220070   4.273   0.273   7.926  0.7817 -0.0565  0.4789
 2870SOL     OW20071   0.572   3.153  15.432  0.1716 -0.0037  0.3862
 2870SOL    HW120072   0.668   3.157  15.430  0.2685 -1.6420  1.0661
 2870SOL    HW220073   0.555   3.173  15.340 -2.8071 -1.0925  0.6964
 2871SOL     OW20074   3.099   1.134   5.719 -0.1372 -0.6688  0.0681
 2871SOL    HW120075   3.023   1.189   5.737 -0.7416 -1.0282 -1.3577
 2871SOL    HW220076   3.056   1.052   5.696  1.5407 -2.5481  3.6211
 2872SOL     OW20077   1.225   3.955   4.565 -0.3209 -0.2962  0.1550
 2872SOL    HW120078   1.139   3.976   4.527  0.5067  0.2559 -1.4435
 2872SOL    HW220079   1.279   4.034   4.558  0.7212 -0.9133  1.4268
 2873SOL     OW20080   1.834   4.415   5.255 -0.4389 -0.0944 -0.1002
 2873SOL    HW120081   1.820   4.499   5.211 -2.2166  0.3494  1.3448
 2873SOL    HW220082   1.878   4.443   5.335  1.2631 -0.1190 -1.0192
 2874SOL     OW20083   3.294   0.037   6.821  0.3726  0.7443  0.4433
 2874SOL    HW120084   3.236   0.032   6.897  0.6933  2.1101  0.7777
 2874SOL    HW220085   3.379   0.047   6.863 -0.0086  0.8892  1.1731
 2875SOL     OW20086   4.421   2.793  10.236 -0.0882 -0.1893 -0.1838
 2875SOL    HW120087   4.472   2.760  10.310 -1.6415 -1.6110  0.2302
 2875SOL    HW220088   4.479   2.785  10.160  0.1879  0.4732 -0.0413
 2876SOL     OW20089   0.718   4.681   0.242  0.1124  0.2345  0.1905
 2876SOL    HW120090   0.661   4.695   0.166 -3.3452  1.6578  3.0662
 2876SOL    HW220091   0.661   4.695   0.316  0.6562 -3.5429  1.3243
 2877SOL     OW20092   2.087   2.135  14.583  0.0615  0.2053  0.4835
 2877SOL    HW120093   2.099   2.175  14.669  0.8368  0.3674  0.3034
 2877SOL    HW220094   2.083   2.211  14.526 -0.6533  1.0796  1.6943
 2878SOL     OW20095   3.578   0.143  12.138  0.6428  0.1818 -0.1607
 2878SOL    HW120096   3.564   0.163  12.230 -2.2003 -1.7840 -0.1557
 2878SOL    HW220097   3.671   0.123  12.135  0.7937  1.0741 -1.4265
 2879SOL     OW20098   2.011   0.028   0.970  0.8421  0.2726 -0.2422
 2879SOL    HW120099   2.066   0.052   1.044 -0.3406 -2.6471  1.5685
 2879SOL    HW220100   1.971   4.669   1.006  1.2516 -0.2793 -0.9831
 2880SOL     OW20101   2.787   0.066   4.360 -0.6399  0.6010  0.1197
 2880SOL    HW120102   2.795   0.150   4.404  2.3519  0.8514 -0.8446
 2880SOL    HW220103   2.745   0.004   4.420 -3.5503  1.9387 -0.5998
 2881SOL     OW20104   1.315   4.323   2.940 -0.3647 -0.1127 -0.0210
 2881SOL    HW120105   1.329   4.251   3.001  1.6580  0.7786  0.5547
 2881SOL    HW220106   1.258   4.280   2.877  1.8317 -0.1493 -1.9601
 2882SOL     OW20107   2.971   2.464   2.583  0.1301  0.2021 -0.4004
 2882SOL    HW120108   2.911   2.534   2.612 -1.2310 -1.0152 -0.2545
 2882SOL    HW220109   2.948   2.400   2.650  0.3798  2.3094  1.7188
 2883SOL     OW20110   3.482   0.012   2.858 -0.3981 -0.2657 -0.5186
 2883SOL    HW120111   3.554   0.067   2.827 -1.7598  1.5974 -0.4017
 2883SOL    HW220112   3.497   4.665   2.790 -0.5631 -0.5949 -0.2329
 2884SOL     OW20113   2.745   4.236   6.754 -0.1700  0.4129  0.1430
 2884SOL    HW120114   2.745   4.319   6.706 -1.4621 -0.9620 -2.2635
 2884SOL    HW220115   2.781   4.262   6.839  1.7830 -0.5746 -0.3604
 2885SOL     OW20116   2.143   2.773  14.081 -0.4980 -0.3705  0.1231
 2885SOL    HW120117   2.132   2.704  14.016 -0.8952  0.0278 -0.2239
 2885SOL    HW220118   2.160   2.851  14.028 -0.8259 -0.8713 -0.7088
 2886SOL     OW20119   0.361   1.267   4.139 -0.1336 -0.0146  0.1035
 2886SOL    HW120120   0.303   1.191   4.138 -1.6730  1.1546  0.5596
 2886SOL    HW220121   0.329   1.295   4.225 -1.2464 -0.3113 -0.2149
 2887SOL     OW20122   1.307   1.113   7.340  0.3094  0.0355  0.0789
 2887SOL    HW120123   1.269   1.195   7.307  2.2748  0.2668 -1.6030
 2887SOL    HW220124   1.230   1.056   7.332  0.0080  0.8014 -2.5376
 2888SOL     OW20125   2.995   2.373  17.128 -0.3511  0.3033  0.1814
 2888SOL    HW120126   2.906   2.357  17.097  0.2143 -1.9084 -0.2872
 2888SOL    HW220127   2.986   2.451  17.183  2.4601 -0.3715  1.5967
 2889SOL     OW20128   4.608   3.296   4.717 -0.2240 -0.0078  0.2551
 2889SOL    HW120129   4.585   3.329   4.630  1.6525  0.0437 -0.2248
 2889SOL    HW220130   4.601   3.202   4.701 -0.5906  0.2011 -0.7914
 2890SOL     OW20131   0.768   2.743   2.431  0.0934  0.1056  0.1576
 2890SOL    HW120132   0.804   2.674   2.376 -0.9123  1.1818 -1.8592
 2890SOL    HW220133   0.844   2.801   2.432 -1.4017  2.0776 -0.9130
 2891SOL     OW20134   0.385   3.510   5.889  0.0183  0.2778 -0.1442
 2891SOL    HW120135   0.385   3.469   5.802  3.7036 -1.3792  0.6547
 2891SOL    HW220136   0.295   3.494   5.917 -0.9560 -1.2230 -4.0422
 2892SOL     OW20137   3.324   3.152  16.048  0.6053  0.5297 -0.5391
 2892SOL    HW120138   3.418   3.147  16.029 -0.0836 -0.7750 -3.6007
 2892SOL    HW220139   3.291   3.107  15.970 -0.3710 -1.8342  1.2130
 2893SOL     OW20140   4.538   2.078   9.498  0.4251  0.5339  0.3114
 2893SOL    HW120141   4.463   2.134   9.480 -0.5109 -0.6420  0.5588
 2893SOL    HW220142   4.502   1.995   9.532  1.8254 -0.1652  0.1035
 2894SOL     OW20143   4.221   3.932   3.203  0.1156 -0.1758  0.1448
 2894SOL    HW120144   4.206   3.844   3.239 -0.0771  0.0424  0.6002
 2894SOL    HW220145   4.287   3.962   3.265  1.1833 -0.2322 -0.9662
 2895SOL     OW20146   2.190   1.813   8.626  0.5993  0.2960  0.0647
 2895SOL    HW120147   2.258   1.838   8.689  1.0995 -3.0493  0.8323
 2895SOL    HW220148   2.168   1.727   8.662  2.4999 -1.5382 -3.2430
 2896SOL     OW20149   3.426   2.029   6.370 -0.1983  0.0684 -0.3062
 2896SOL    HW120150   3.346   2.046   6.321  0.4384  2.8503 -0.3910
 2896SOL    HW220151   3.408   1.949   6.420 -1.2379  1.2598  1.2308
 2897SOL     OW20152   2.358   2.289   8.004  0.4877 -0.1794  0.0364
 2897SOL    HW120153   2.414   2.366   8.012  1.0490 -0.9474  3.3035
 2897SOL    HW220154   2.383   2.230   8.075 -1.5705  1.0805  1.8004
 2898SOL     OW20155   2.069   4.456   7.960  0.0572 -0.0245 -0.1238
 2898SOL    HW120156   1.982   4.445   7.999 -0.0537 -0.0830 -0.3873
 2898SOL    HW220157   2.071   4.547   7.930  0.2168 -0.2130 -0.6774
 2899SOL     OW20158   1.797   2.881   9.590  0.3069 -0.1648  0.0529
 2899SOL    HW120159   1.871   2.820   9.588  0.1425 -0.3799  0.5612
 2899SOL    HW220160   1.777   2.873   9.683 -0.4976  1.1033 -0.0230
 2900SOL     OW20161   3.313   1.201  14.528  0.2313  0.5397 -0.3055
 2900SOL    HW120162   3.292   1.177  14.437 -0.0313  1.0321 -0.3757
 2900SOL    HW220163   3.264   1.134  14.575  0.3665  0.4184 -0.3385
 2901SOL     OW20164   3.863   1.733  17.265 -0.8083 -0.0643 -0.0622
 2901SOL    HW120165   3.860   1.747  17.359  0.7061 -1.0591  0.1381
 2901SOL    HW220166   3.876   1.638  17.263  0.6702  0.1406 -0.7880
 2902SOL     OW20167   0.040   1.932  17.574  0.4363  0.0876 -0.1132
 2902SOL    HW120168   4.704   1.992  17.525 -0.0377  0.0215  0.3361
 2902SOL    HW220169   0.126   1.960  17.545 -0.8459  2.3299 -1.7325
 2903SOL     OW20170   2.733   3.914  12.112 -0.5293  0.2913 -0.0425
 2903SOL    HW120171   2.701   3.833  12.151  0.4590 -0.1238 -0.0887
 2903SOL    HW220172   2.755   3.972  12.185 -2.5015 -0.3737  1.0920
 2904SOL     OW20173   4.637   3.492   9.778  0.2219 -0.4018  0.8755
 2904SOL    HW120174   4.639   3.578   9.821 -3.1400 -1.9440  4.1054
 2904SOL    HW220175   4.571   3.445   9.829  0.0530  0.8298  1.8045
 2905SOL     OW20176   2.055   2.893  13.408 -0.3031  0.0176 -0.5733
 2905SOL    HW120177   1.982   2.954  13.415  1.7964  2.5638 -0.9806
 2905SOL    HW220178   2.069   2.905  13.314  1.9980  0.5234 -0.1642
 2906SOL     OW20179   2.858   0.004   3.808  0.3095 -0.3958  0.2561
 2906SOL    HW120180   2.861   4.630   3.788 -1.7742 -0.3209 -0.4036
 2906SOL    HW220181   2.893   0.037   3.726  1.5154 -3.4549 -0.4524
 2907SOL     OW20182   4.547   1.950  13.238 -0.5452 -0.3471 -0.1664
 2907SOL    HW120183   4.553   1.857  13.216 -0.7474 -0.7030  1.2415
 2907SOL    HW220184   4.599   1.999  13.174 -2.0018  0.9903 -0.3081
 2908SOL     OW20185   3.845   4.423   8.887 -0.3156 -0.4768  0.7926
 2908SOL    HW120186   3.804   4.409   8.973  1.9122 -1.1330  1.7602
 2908SOL    HW220187   3.930   4.393   8.919 -0.3361 -0.3380  0.9785
 2909SOL     OW20188   0.234   1.368   9.260 -0.6980  0.2957  0.3227
 2909SOL    HW120189   0.307   1.387   9.201 -1.3663  0.9224 -0.3014
 2909SOL    HW220190   0.183   1.307   9.207 -0.6746  0.5449  0.0135
 2910SOL     OW20191   1.093   1.913   7.809  0.2121  0.2575  0.0156
 2910SOL    HW120192   1.121   1.840   7.753 -1.5139 -1.4469  1.3484
 2910SOL    HW220193   1.111   1.987   7.751 -1.7975 -0.8888 -2.0994
 2911SOL     OW20194   4.694   2.607   5.480  0.5561 -0.1465  0.0209
 2911SOL    HW120195   0.051   2.655   5.512  1.5440 -1.1298 -0.9049
 2911SOL    HW220196   4.717   2.592   5.389  0.1089  2.6870 -0.5602
 2912SOL     OW20197   1.316   1.649  12.924  0.0155  0.0259 -0.6252
 2912SOL    HW120198   1.386   1.590  12.952  0.1587  0.2917 -0.4191
 2912SOL    HW220199   1.272   1.599  12.856  0.0595  0.6187 -1.0974
 2913SOL     OW20200   3.663   0.090   5.197  0.1466 -0.2971 -0.0718
 2913SOL    HW120201   3.589   0.030   5.190 -1.2409  1.4216 -0.1976
 2913SOL    HW220202   3.737   0.031   5.216 -1.7114 -3.2995 -2.1146
 2914SOL     OW20203   2.399   3.582   6.256 -0.0253 -0.2675 -0.0612
 2914SOL    HW120204   2.451   3.614   6.330 -2.2397  5.0579 -0.7671
 2914SOL    HW220205   2.318   3.568   6.305 -2.4616 -1.3244 -4.4981
 2915SOL     OW20206   3.342   2.068   1.974  0.8452  0.4404  0.2164
 2915SOL    HW120207   3.374   2.155   1.949  0.3715  0.4660 -0.3222
 2915SOL    HW220208   3.393   2.010   1.917 -2.8407 -1.2746 -1.3344
 2916SOL     OW20209   0.645   4.239   8.059 -0.2755 -0.4615 -0.1354
 2916SOL    HW120210   0.613   4.329   8.058 -0.8253 -0.5977  3.1026
 2916SOL    HW220211   0.561   4.197   8.041 -0.5528  0.7906 -1.6878
 2917SOL     OW20212   2.685   0.420   2.379  0.1384  0.3502 -0.2995
 2917SOL    HW120213   2.680   0.358   2.452  1.2484 -0.3196 -0.7873
 2917SOL    HW220214   2.692   0.356   2.308  0.2246 -1.2459  1.1255
 2918SOL     OW20215   1.902   0.237   4.039 -0.0262  0.2267 -0.2544
 2918SOL    HW120216   1.968   0.289   3.993  0.0820  0.6299  0.3490
 2918SOL    HW220217   1.844   0.308   4.063 -0.3466  0.8271 -2.8947
 2919SOL     OW20218   4.427   3.019   8.582 -0.2121 -0.3049  0.1926
 2919SOL    HW120219   4.354   2.958   8.583 -0.2891 -0.2029  0.6610
 2919SOL    HW220220   4.500   2.957   8.575 -0.1304 -0.0081 -1.6453
 2920SOL     OW20221   3.135   1.661   2.703  0.1881  0.5329  0.5082
 2920SOL    HW120222   3.054   1.673   2.753  0.1449 -1.2860  0.8645
 2920SOL    HW220223   3.193   1.702   2.766 -1.4385  3.2008  0.2653
 2921SOL     OW20224   3.590   1.140  15.471  0.9502 -0.7090 -0.4221
 2921SOL    HW120225   3.647   1.213  15.496  0.5901 -1.1089  1.6331
 2921SOL    HW220226   3.595   1.147  15.376 -0.9786 -0.6042 -0.5059
 2922SOL     OW20227   4.327   2.383   6.821 -0.4128  0.3128 -0.2849
 2922SOL    HW120228   4.335   2.344   6.734  0.0716  0.5832 -0.3618
 2922SOL    HW220229   4.267   2.322   6.864  0.0599 -0.0249 -0.1027
 2923SOL     OW20230   1.114   0.022  13.809 -0.7691  0.0189 -0.6574
 2923SOL    HW120231   1.050   0.034  13.739 -0.2628  0.5618 -1.0181
 2923SOL    HW220232   1.083   0.068  13.887  0.9537  2.3713 -1.3500
 2924SOL     OW20233   1.624   1.892  11.628  0.1856 -0.0915  0.2476
 2924SOL    HW120234   1.613   1.971  11.681 -0.0084  1.0456 -1.4878
 2924SOL    HW220235   1.634   1.824  11.695  1.0872  0.5559  0.7642
 2925SOL     OW20236   3.847   0.365  13.796 -0.6612 -0.0648 -0.1638
 2925SOL    HW120237   3.917   0.430  13.790 -1.0310  0.3751  0.2803
 2925SOL    HW220238   3.897   0.285  13.784  1.0978  0.5287  3.2026
 2926SOL     OW20239   2.721   4.594   3.003 -0.1744  0.2143 -0.5006
 2926SOL    HW120240   2.759   4.508   2.984  0.4111  0.1789  0.8329
 2926SOL    HW220241   2.653   4.560   3.062  0.2210 -0.4390 -0.4260
 2927SOL     OW20242   2.287   0.850  10.938 -1.1541 -0.1519 -0.4585
 2927SOL    HW120243   2.303   0.787  10.868  2.2792 -0.2147  0.3866
 2927SOL    HW220244   2.199   0.873  10.907 -1.0612 -1.0222 -1.3645
 2928SOL     OW20245   2.167   2.754  14.345 -0.3806  0.4764  0.3899
 2928SOL    HW120246   2.161   2.779  14.253  0.2609  0.0066  0.2156
 2928SOL    HW220247   2.259   2.729  14.342 -0.8854 -1.5225  1.2298
 2929SOL     OW20248   4.234   0.314   1.643 -0.0422 -0.3031 -0.5776
 2929SOL    HW120249   4.189   0.396   1.619  0.0804  0.3564  1.3668
 2929SOL    HW220250   4.159   0.255   1.642  1.0853 -1.7038 -1.0075
 2930SOL     OW20251   0.755   0.063   5.533 -0.0381 -0.9804 -0.4904
 2930SOL    HW120252   0.700   0.085   5.458 -0.5119  2.2588  0.8220
 2930SOL    HW220253   0.730   4.692   5.555  0.3278 -0.6844  1.1120
 2931SOL     OW20254   3.123   4.694   4.623  0.5480  0.3117  0.0804
 2931SOL    HW120255   3.173   4.619   4.658  2.0173  0.9527 -0.6381
 2931SOL    HW220256   3.162   0.049   4.670  0.2154 -0.1790  1.1377
 2932SOL     OW20257   3.036   3.832   8.542  0.4402 -0.7873 -0.9736
 2932SOL    HW120258   3.116   3.846   8.491  0.2054 -0.3331 -1.2195
 2932SOL    HW220259   3.076   3.830   8.629  0.6980  0.0402 -1.0671
 2933SOL     OW20260   2.639   2.827   3.410  0.0422 -0.0017 -0.2602
 2933SOL    HW120261   2.596   2.912   3.422  1.3414  0.8787 -1.8632
 2933SOL    HW220262   2.701   2.847   3.340 -0.3029  1.1260 -0.2474
 2934SOL     OW20263   1.969   0.795   6.202  0.1094  0.0538 -0.7792
 2934SOL    HW120264   1.992   0.779   6.111  0.8689 -2.8818 -0.0535
 2934SOL    HW220265   1.926   0.880   6.192  1.3916  0.6474 -1.3346
 2935SOL     OW20266   2.791   2.095   9.210 -0.1167  0.1218 -0.4545
 2935SOL    HW120267   2.865   2.150   9.181  1.2887 -1.6840 -0.3035
 2935SOL    HW220268   2.833   2.049   9.282  1.2227  1.1053 -0.5896
 2936SOL     OW20269   4.196   2.597   2.552 -0.1159  0.2221  0.0085
 2936SOL    HW120270   4.242   2.620   2.633  1.9874  2.2176 -1.7714
 2936SOL    HW220271   4.264   2.587   2.486 -0.5708  1.1770 -0.5958
 2937SOL     OW20272   0.155   1.379   7.527  0.3596 -0.1511  0.1876
 2937SOL    HW120273   0.096   1.426   7.468 -1.5805 -2.5527  0.2422
 2937SOL    HW220274   0.104   1.354   7.604 -1.4752 -0.2722 -1.0694
 2938SOL     OW20275   3.747   1.727   8.622  0.2179  0.0922  0.6506
 2938SOL    HW120276   3.700   1.809   8.639  3.2095  2.2426 -1.5455
 2938SOL    HW220277   3.836   1.756   8.604  0.6931 -0.2284  2.5014
 2939SOL     OW20278   0.658   2.701   9.508 -0.4099  0.2422 -0.0278
 2939SOL    HW120279   0.664   2.789   9.470 -0.1639 -0.2231 -1.0761
 2939SOL    HW220280   0.747   2.665   9.502 -0.2119  0.2541  3.0546
 2940SOL     OW20281   1.482   1.773   4.127  0.2109 -0.6936  0.1109
 2940SOL    HW120282   1.541   1.841   4.094  2.0766 -2.3426  0.1170
 2940SOL    HW220283   1.516   1.739   4.210 -1.1014 -0.5757  0.7031
 2941SOL     OW20284   4.308   1.440   8.606 -0.5935  0.0043  0.3065
 2941SOL    HW120285   4.290   1.510   8.543  1.2158 -0.0156 -0.2434
 2941SOL    HW220286   4.234   1.435   8.666 -0.1840 -0.9792  0.7224
 2942SOL     OW20287   2.607   1.387   1.938 -0.1107 -0.0252  0.7097
 2942SOL    HW120288   2.601   1.301   1.978 -1.6134 -0.7102 -1.0175
 2942SOL    HW220289   2.702   1.396   1.930 -0.1723 -0.8490 -1.0148
 2943SOL     OW20290   0.294   3.067  12.651 -0.3460  0.2382 -0.1443
 2943SOL    HW120291   0.324   2.979  12.630 -1.7131 -0.2431 -0.0488
 2943SOL    HW220292   0.297   3.111  12.566 -0.8488  2.6871  1.0997
 2944SOL     OW20293   1.611   2.614   4.262 -0.1320 -0.6875  0.1707
 2944SOL    HW120294   1.526   2.609   4.306 -0.6942  0.4359 -0.7634
 2944SOL    HW220295   1.663   2.672   4.318 -1.5228  2.3855 -1.7111
 2945SOL     OW20296   1.473   0.328  10.618 -0.0974 -0.5319  0.6810
 2945SOL    HW120297   1.392   0.288  10.649  0.1020  0.1145  1.9935
 2945SOL    HW220298   1.532   0.292  10.684  2.1011  1.0652 -0.4164
 2946SOL     OW20299   1.167   4.183   5.269  0.3703  0.8043  0.0883
 2946SOL    HW120300   1.085   4.201   5.224  0.2595 -1.0409 -0.4765
 2946SOL    HW220301   1.208   4.121   5.209 -1.8820 -1.7985  1.2287
 2947SOL     OW20302   0.068   3.580   6.566  0.3195  0.0504 -0.0198
 2947SOL    HW120303   0.154   3.572   6.606  0.4601 -2.5629 -0.8453
 2947SOL    HW220304   0.100   3.535   6.488 -0.9828  0.3457 -0.7394
 2948SOL     OW20305   2.110   2.994   9.816 -0.0387 -0.1418  0.5021
 2948SOL    HW120306   2.069   2.915   9.851 -2.4937  1.2797  0.7971
 2948SOL    HW220307   2.199   2.960   9.824 -0.0611 -0.0354  1.1950
 2949SOL     OW20308   4.518   4.461   5.775 -0.1373  0.2212 -0.2078
 2949SOL    HW120309   4.552   4.396   5.714  3.4120  2.2679 -0.4256
 2949SOL    HW220310   4.540   4.423   5.860  1.6963 -0.5699 -1.0350
 2950SOL     OW20311   2.990   0.794  16.605 -0.3108 -0.6095 -0.4208
 2950SOL    HW120312   3.076   0.753  16.604  0.5780  1.2517 -0.7413
 2950SOL    HW220313   2.942   0.737  16.545 -1.9488  0.1251  0.1765
 2951SOL     OW20314   1.892   3.075  12.313  0.4215  0.0526 -0.3599
 2951SOL    HW120315   1.891   3.111  12.224  1.0292 -0.8909 -0.7484
 2951SOL    HW220316   1.802   3.043  12.323  0.3238  0.5501  0.3467
 2952SOL     OW20317   4.529   2.368   8.335 -0.6827  0.0174  0.5375
 2952SOL    HW120318   4.443   2.365   8.378 -1.1616  1.0760 -0.3204
 2952SOL    HW220319   4.590   2.322   8.393  1.9385  1.1297 -1.3361
 2953SOL     OW20320   1.229   1.273   5.356 -0.2360 -0.1927 -0.9262
 2953SOL    HW120321   1.252   1.347   5.300 -2.7736 -0.3343 -2.1841
 2953SOL    HW220322   1.146   1.252   5.312 -0.6035 -0.6078 -0.0267
 2954SOL     OW20323   4.433   0.969  13.230 -0.1934  0.5016 -0.1315
 2954SOL    HW120324   4.350   0.940  13.269 -0.3429  1.1150  0.0032
 2954SOL    HW220325   4.487   0.988  13.306  0.7507 -1.8526 -0.2206
 2955SOL     OW20326   2.598   1.342   2.546  0.5069  0.2255 -0.2272
 2955SOL    HW120327   2.526   1.290   2.510 -0.3003 -0.0105  1.7142
 2955SOL    HW220328   2.670   1.311   2.491 -0.5961 -1.3810 -0.7642
 2956SOL     OW20329   3.235   2.014   3.791  0.8622  0.4645 -0.6653
 2956SOL    HW120330   3.225   1.961   3.870  1.0230  0.5979 -0.5546
 2956SOL    HW220331   3.286   1.959   3.731  0.0183 -2.0444  0.9203
 2957SOL     OW20332   3.835   1.662   7.949  0.0424 -0.1380  0.1166
 2957SOL    HW120333   3.753   1.712   7.950 -0.2111 -0.5529  0.1876
 2957SOL    HW220334   3.891   1.697   7.880  1.8993 -1.8839  0.7454
 2958SOL     OW20335   2.337   1.016   6.418 -0.4440  0.1966 -0.3039
 2958SOL    HW120336   2.256   1.061   6.393 -0.1773  0.8230 -0.0318
 2958SOL    HW220337   2.296   0.953   6.476 -0.0865 -0.3188 -0.6120
 2959SOL     OW20338   2.184   0.957   2.496  0.0886  0.2771 -0.4960
 2959SOL    HW120339   2.212   0.913   2.576 -2.8602  0.7406  0.7756
 2959SOL    HW220340   2.092   0.965   2.522  0.8201  0.5457  1.9859
 2960SOL     OW20341   2.962   0.662   7.599 -0.7228  0.9070 -0.4044
 2960SOL    HW120342   2.891   0.603   7.623 -0.3830  0.3794 -0.7080
 2960SOL    HW220343   2.994   0.682   7.687 -2.5603  2.6142 -0.1089
 2961SOL     OW20344   2.277   0.001   6.566 -0.2979 -0.7386  0.2864
 2961SOL    HW120345   2.274   0.036   6.477  1.3658 -0.8696  0.1771
 2961SOL    HW220346   2.284   0.081   6.618 -1.7475 -0.7203  0.4564
 2962SOL     OW20347   1.394   0.428   8.659 -0.5508  0.0036 -0.4915
 2962SOL    HW120348   1.341   0.350   8.675  0.3121 -1.1903 -3.5254
 2962SOL    HW220349   1.482   0.390   8.652 -0.0477  1.0986  0.0008
 2963SOL     OW20350   1.958   3.898  16.481 -0.2987  0.1382 -0.5754
 2963SOL    HW120351   2.024   3.880  16.548  0.0123 -0.4102 -1.0308
 2963SOL    HW220352   1.934   3.987  16.507 -1.4943 -1.0263  2.3914
 2964SOL     OW20353   3.320   4.527   2.935  0.3059 -0.0248 -0.1621
 2964SOL    HW120354   3.374   4.603   2.912  1.1425 -1.0166 -1.4644
 2964SOL    HW220355   3.278   4.509   2.852 -1.4103 -1.0429  0.9256
 2965SOL     OW20356   3.129   1.695   6.917 -0.5382 -1.3350  0.6605
 2965SOL    HW120357   3.067   1.762   6.945  0.2608  0.0117 -0.7941
 2965SOL    HW220358   3.088   1.615   6.951 -0.8147 -0.7523  1.6817
 2966SOL     OW20359   4.503   2.949  13.134 -0.3359  0.1151  0.0600
 2966SOL    HW120360   4.525   3.017  13.197  0.6320 -3.0901  3.2433
 2966SOL    HW220361   4.463   2.994  13.060  1.7677  1.1687 -0.4286
 2967SOL     OW20362   0.446   4.292  13.072 -0.4138  0.4359  0.0000
 2967SOL    HW120363   0.504   4.264  13.142 -1.1395  0.7746  0.7411
 2967SOL    HW220364   0.515   4.327  13.016 -3.2441  3.2826 -1.7348
 2968SOL     OW20365   0.515   4.438   6.451  0.3226  0.1785 -0.1344
 2968SOL    HW120366   0.515   4.406   6.360 -0.0450 -2.5737  0.8395
 2968SOL    HW220367   0.421   4.431   6.467  0.5557 -0.4541  0.9531
 2969SOL     OW20368   2.993   3.310  17.460 -0.2882  0.7602  0.3448
 2969SOL    HW120369   3.081   3.331  17.427  0.5206 -2.7079  0.2779
 2969SOL    HW220370   2.990   3.365  17.538  1.1876  0.8740  0.3360
 2970SOL     OW20371   4.395   4.711   1.602  0.2982 -0.0914  0.3918
 2970SOL    HW120372   4.368   0.066   1.656 -1.7458 -0.6696  0.1563
 2970SOL    HW220373   4.324   4.655   1.633 -0.7691  1.8795  1.5180
 2971SOL     OW20374   3.208   4.250  11.033 -0.2331 -0.2844 -0.7868
 2971SOL    HW120375   3.252   4.334  11.041  2.0101 -1.6005  0.6657
 2971SOL    HW220376   3.266   4.210  10.968 -0.3143 -2.6346  0.5636
 2972SOL     OW20377   3.232   1.901   1.063  0.2637 -0.3431 -0.0029
 2972SOL    HW120378   3.188   1.949   1.133  1.3945  0.2513  0.2993
 2972SOL    HW220379   3.276   1.970   1.013 -0.8349 -1.8210 -3.0083
 2973SOL     OW20380   2.371   1.227   1.710 -0.3155  0.0137  0.1759
 2973SOL    HW120381   2.464   1.208   1.703 -0.1561 -0.2178  2.9962
 2973SOL    HW220382   2.362   1.257   1.620 -0.7379  0.1147  0.2526
 2974SOL     OW20383   4.616   0.225   4.152  0.2347  0.1007  0.4379
 2974SOL    HW120384   4.614   0.137   4.116  0.4149  0.4332 -0.3717
 2974SOL    HW220385   4.606   0.193   4.242  2.6633  0.1579  0.7418
 2975SOL     OW20386   1.260   2.577   2.840  0.4895 -0.1272 -0.1087
 2975SOL    HW120387   1.329   2.634   2.873 -1.4979  2.5117 -0.5012
 2975SOL    HW220388   1.173   2.617   2.833 -0.9284 -3.3152 -0.9091
 2976SOL     OW20389   0.412   3.468   2.791  0.3628 -0.3857  0.2296
 2976SOL    HW120390   0.367   3.547   2.818  0.7106 -0.5285  1.2159
 2976SOL    HW220391   0.461   3.504   2.717  0.9187  1.4741  1.5037
 2977SOL     OW20392   2.374   1.317   8.263 -0.0509  0.0609  0.4262
 2977SOL    HW120393   2.423   1.256   8.318 -0.2047  0.3176  0.8467
 2977SOL    HW220394   2.423   1.398   8.275 -1.0978  0.8783 -0.8741
 2978SOL     OW20395   1.390   1.893   8.466 -0.5275  0.2579  0.3531
 2978SOL    HW120396   1.443   1.958   8.421  0.5429 -1.2052 -0.4869
 2978SOL    HW220397   1.436   1.909   8.548  2.0710  0.0999 -1.0906
 2979SOL     OW20398   2.901   1.866   1.994 -0.5057  0.4637 -0.7319
 2979SOL    HW120399   2.807   1.859   2.012 -0.6483 -1.4567 -2.1524
 2979SOL    HW220400   2.935   1.783   2.028  1.1985  0.4390 -2.4575
 2980SOL     OW20401   4.266   0.776   4.905 -0.4818 -0.4273 -0.3329
 2980SOL    HW120402   4.334   0.764   4.838 -0.9561  1.3279 -1.1201
 2980SOL    HW220403   4.203   0.718   4.862 -2.7148  2.3142 -0.7164
 2981SOL     OW20404   2.273   3.431  17.378  0.1710 -0.0251 -0.2757
 2981SOL    HW120405   2.322   3.451  17.458  1.1660  1.8302 -1.3312
 2981SOL    HW220406   2.187   3.464  17.406 -0.6114  0.6548 -3.4755
 2982SOL     OW20407   1.989   1.282   3.698 -0.4593  0.5657 -0.0161
 2982SOL    HW120408   2.078   1.253   3.677 -0.6699 -0.0942  0.0075
 2982SOL    HW220409   1.956   1.222   3.764  0.3380 -0.3006 -0.4112
 2983SOL     OW20410   3.145   0.907   9.213  0.3203 -0.7760 -0.7518
 2983SOL    HW120411   3.075   0.956   9.257  1.5206 -0.6329  1.0020
 2983SOL    HW220412   3.207   0.909   9.286  0.3830  2.9227 -0.8766
 2984SOL     OW20413   0.694   3.558   3.844 -0.1355  0.0240  0.0272
 2984SOL    HW120414   0.772   3.605   3.872  1.3772 -0.9870 -2.4648
 2984SOL    HW220415   0.735   3.521   3.766  1.6509 -0.1458  1.0527
 2985SOL     OW20416   2.461   1.397   5.549 -0.3253  0.7619  0.1434
 2985SOL    HW120417   2.535   1.456   5.533 -0.8406  1.0818 -1.0043
 2985SOL    HW220418   2.512   1.338   5.605  0.4210  0.7297 -0.5599
 2986SOL     OW20419   3.909   1.415  16.268  0.1956  0.2163 -0.5002
 2986SOL    HW120420   3.851   1.430  16.343 -0.7102  0.6015 -1.2872
 2986SOL    HW220421   3.924   1.321  16.283 -0.3058  0.2379  0.1187
 2987SOL     OW20422   2.843   0.007   6.374 -0.5399 -0.2494  0.3589
 2987SOL    HW120423   2.843   0.100   6.397  3.1544 -0.2781  0.4400
 2987SOL    HW220424   2.894   0.006   6.293 -1.0247  0.7315  0.0455
 2988SOL     OW20425   2.432   1.293   9.824 -0.1535 -0.3173 -0.2395
 2988SOL    HW120426   2.528   1.296   9.825 -0.1616  0.2632 -2.3655
 2988SOL    HW220427   2.415   1.324   9.736  0.9246  0.0675 -0.3195
 2989SOL     OW20428   0.388   3.949  11.040  0.8051  0.3339  0.0919
 2989SOL    HW120429   0.454   3.910  11.097 -0.7276 -1.2043  0.8391
 2989SOL    HW220430   0.379   3.879  10.975  0.7392  1.6074 -1.2627
 2990SOL     OW20431   2.463   3.405   0.204 -0.0907  0.1290  0.1335
 2990SOL    HW120432   2.497   3.481   0.252 -0.6631  0.4155  0.0930
 2990SOL    HW220433   2.505   3.330   0.246  1.0871  1.9523  2.2224
 2991SOL     OW20434   0.785   3.390  12.185  0.3202  0.0371  0.0659
 2991SOL    HW120435   0.730   3.427  12.117  0.8352  0.8936  0.1255
 2991SOL    HW220436   0.771   3.450  12.258 -1.1999  0.0149 -0.1944
 2992SOL     OW20437   2.454   4.332   4.095  0.4080  0.1121  0.4441
 2992SOL    HW120438   2.459   4.358   4.003  1.8833  0.5083  0.6523
 2992SOL    HW220439   2.515   4.395   4.134  1.5094 -0.2871 -0.6468
 2993SOL     OW20440   2.064   2.284   5.064 -0.2392 -1.0067 -0.1590
 2993SOL    HW120441   1.977   2.248   5.046  0.8867 -2.5950 -2.4318
 2993SOL    HW220442   2.114   2.275   4.983 -1.2131  1.4761 -1.0301
 2994SOL     OW20443   0.128   4.520  11.718  0.1495  0.0319  0.7958
 2994SOL    HW120444   0.079   4.496  11.796 -0.5698  0.6726  0.5447
 2994SOL    HW220445   0.201   4.461  11.736 -0.0300 -0.1628  0.8923
 2995SOL     OW20446   2.430   1.944  11.691 -0.6732 -0.4568  0.0196
 2995SOL    HW120447   2.484   1.890  11.748  0.2310  0.0487 -0.3415
 2995SOL    HW220448   2.465   2.033  11.706  1.9019 -1.5961  0.8725
 2996SOL     OW20449   4.004   3.029  16.198 -0.3940  0.3094  0.3788
 2996SOL    HW120450   4.016   2.935  16.208  0.5222  0.6091  2.0693
 2996SOL    HW220451   3.941   3.049  16.267 -0.5998 -0.1789  0.3315
 2997SOL     OW20452   3.584   3.484   3.297 -0.2315 -0.2778  0.2889
 2997SOL    HW120453   3.626   3.409   3.255 -2.6609 -1.6192  0.2806
 2997SOL    HW220454   3.501   3.475   3.249  1.2658 -0.4839 -2.3014
 2998SOL     OW20455   4.696   2.836  16.505  0.4603 -0.0619 -0.0825
 2998SOL    HW120456   4.611   2.825  16.464 -0.5204 -2.6892  2.6580
 2998SOL    HW220457   4.708   2.929  16.483 -2.0266  1.0778  3.2779
 2999SOL     OW20458   2.758   3.158   2.101 -0.2457  0.3497 -0.0780
 2999SOL    HW120459   2.764   3.254   2.101  0.8010  0.2839 -0.2244
 2999SOL    HW220460   2.675   3.141   2.145 -2.2027  1.8910 -3.1522
 3000SOL     OW20461   3.531   1.717   1.160  0.5566 -0.0403 -0.4964
 3000SOL    HW120462   3.446   1.681   1.183  1.2836 -1.7724 -0.5628
 3000SOL    HW220463   3.514   1.806   1.128 -0.5917  0.2239  0.8742
 3001SOL     OW20464   3.750   2.955   6.815  0.5307 -0.1341 -0.0189
 3001SOL    HW120465   3.814   3.026   6.820  0.6744 -0.2890  0.3301
 3001SOL    HW220466   3.691   2.986   6.884 -0.8750 -0.6088 -1.0098
 3002SOL     OW20467   3.043   2.953   8.702  0.1579  0.1105  0.0274
 3002SOL    HW120468   2.977   3.022   8.696  1.1010  1.1496  1.5524
 3002SOL    HW220469   3.093   2.979   8.625 -0.9831  0.4751 -0.5885
 3003SOL     OW20470   2.911   3.073   2.360 -0.4584 -0.4766 -0.0750
 3003SOL    HW120471   2.850   3.110   2.424 -2.3323  1.9278 -3.1993
 3003SOL    HW220472   2.866   3.106   2.282 -0.8206  1.3004  0.8826
 3004SOL     OW20473   4.015   3.880   0.576  0.4149 -0.4826  0.3012
 3004SOL    HW120474   3.942   3.873   0.638  0.6924 -0.9965  0.5690
 3004SOL    HW220475   4.024   3.973   0.558  1.7831 -1.1700 -2.6202
 3005SOL     OW20476   4.609   2.175   7.337 -0.8154 -0.2839 -0.1741
 3005SOL    HW120477   4.546   2.241   7.307 -1.4586  0.0978  2.0107
 3005SOL    HW220478   4.545   2.106   7.354 -1.8221  0.4755 -0.8256
 3006SOL     OW20479   1.542   0.834   8.085  0.2210 -0.5427 -0.1415
 3006SOL    HW120480   1.506   0.897   8.147  0.8413  1.1131 -1.4859
 3006SOL    HW220481   1.636   0.848   8.093  0.1499  0.2343 -0.6995
 3007SOL     OW20482   0.166   0.651   4.527 -0.2851 -0.1132  0.3670
 3007SOL    HW120483   0.183   0.557   4.539  1.2125 -0.2626 -3.0606
 3007SOL    HW220484   0.255   0.685   4.536  0.7104 -3.2836  2.7461
 3008SOL     OW20485   4.214   2.106  11.238 -0.2476  0.1168  0.0728
 3008SOL    HW120486   4.177   2.121  11.151 -0.0398  0.1869 -0.0041
 3008SOL    HW220487   4.174   2.174  11.292  0.8356  1.0967 -0.3432
 3009SOL     OW20488   4.549   3.954   5.361  0.0179  0.0199  0.9731
 3009SOL    HW120489   4.532   3.860   5.355 -2.1520  0.4145  0.8554
 3009SOL    HW220490   4.511   3.982   5.278  0.6579  0.9444  0.9941
 3010SOL     OW20491   3.514   4.553  11.973 -0.7304 -0.2155  0.1602
 3010SOL    HW120492   3.598   4.529  11.934 -0.8727 -0.4656  0.0130
 3010SOL    HW220493   3.456   4.482  11.946  0.6043 -0.7542 -1.2797
 3011SOL     OW20494   1.544   0.880  15.309  0.2811  0.2377  0.4310
 3011SOL    HW120495   1.505   0.949  15.256 -0.5500 -1.0210 -0.6259
 3011SOL    HW220496   1.477   0.810  15.306 -0.6188  0.9939  2.5112
 3012SOL     OW20497   0.218   4.676   8.368 -0.2227  0.2298  0.3162
 3012SOL    HW120498   0.290   0.017   8.349  2.2652 -2.7466  0.1540
 3012SOL    HW220499   0.225   4.689   8.462  4.2871 -0.0508  0.0314
 3013SOL     OW20500   4.066   1.813   6.423 -0.0268  0.2769 -0.5772
 3013SOL    HW120501   4.112   1.888   6.385 -2.9881  2.6444  0.5477
 3013SOL    HW220502   4.050   1.760   6.345 -2.7468  1.5714 -0.9029
 3014SOL     OW20503   4.650   0.633   0.792 -0.1818 -0.1702  0.1700
 3014SOL    HW120504   0.011   0.684   0.802  1.0785 -2.3402  1.3980
 3014SOL    HW220505   4.600   0.693   0.737 -1.5133  1.9793  3.7363
 3015SOL     OW20506   4.386   0.710   8.014 -0.8214 -0.4954 -0.1634
 3015SOL    HW120507   4.371   0.723   8.107 -0.1546 -1.2563  0.0600
 3015SOL    HW220508   4.318   0.647   7.989 -2.6359  1.1340  0.6797
 3016SOL     OW20509   0.779   3.317  10.609  0.0112 -0.8544  0.0368
 3016SOL    HW120510   0.731   3.399  10.625  0.9117 -0.1432 -0.8990
 3016SOL    HW220511   0.714   3.263  10.564 -1.1457  0.8695 -0.3771
 3017SOL     OW20512   1.009   1.820  11.759  0.4890 -0.3863  0.2222
 3017SOL    HW120513   0.944   1.876  11.801  1.1452  2.1093 -2.0679
 3017SOL    HW220514   0.958   1.739  11.764 -0.4440  0.1264 -0.7732
 3018SOL     OW20515   4.124   1.951   5.918 -0.0656 -0.2001  0.1415
 3018SOL    HW120516   4.129   1.859   5.891 -2.7110 -0.1518 -0.4977
 3018SOL    HW220517   4.176   1.999   5.854  0.1116 -0.4600  0.0925
 3019SOL     OW20518   0.515   3.868  16.303  0.2419  0.3191 -0.2684
 3019SOL    HW120519   0.454   3.906  16.240  1.4634  1.4171 -0.7697
 3019SOL    HW220520   0.585   3.931  16.316 -0.8663  1.0541  2.2312
 3020SOL     OW20521   1.988   2.159   3.748 -0.4187  0.3345 -0.3954
 3020SOL    HW120522   1.977   2.254   3.741  1.5220  0.6727  1.2155
 3020SOL    HW220523   1.896   2.132   3.740  0.3050 -1.6929 -1.7000
 3021SOL     OW20524   0.402   1.809  16.661  0.2451 -0.7413 -0.2588
 3021SOL    HW120525   0.492   1.776  16.654  0.3883 -0.0143 -1.9627
 3021SOL    HW220526   0.391   1.817  16.756  0.2101 -0.4643 -0.2859
 3022SOL     OW20527   4.637   0.095   5.374 -0.3632  0.5489  0.8077
 3022SOL    HW120528   0.013   0.101   5.372 -0.4032 -0.0473 -2.3575
 3022SOL    HW220529   4.638   0.025   5.440  0.3592  0.2224  0.4502
 3023SOL     OW20530   1.826   2.252  14.760  0.0634 -0.1084 -0.5213
 3023SOL    HW120531   1.911   2.227  14.794  0.5628  2.5669  0.1685
 3023SOL    HW220532   1.793   2.174  14.716  0.2914 -0.6870  0.3439
 3024SOL     OW20533   0.114   3.527  10.774 -0.0046  0.1938  0.7056
 3024SOL    HW120534   0.161   3.503  10.694 -0.7039 -2.5632  1.1013
 3024SOL    HW220535   0.188   3.540  10.832  0.0143 -2.3939  1.2864
 3025SOL     OW20536   4.411   2.560   5.759  0.3931  0.2925  0.1020
 3025SOL    HW120537   4.459   2.642   5.769  1.3804  0.0214 -2.4018
 3025SOL    HW220538   4.420   2.520   5.845  0.1299  0.2301  0.1021
 3026SOL     OW20539   4.287   0.922   2.659  0.1032  0.1688  0.3140
 3026SOL    HW120540   4.213   0.886   2.611  0.6456  1.3732 -1.4088
 3026SOL    HW220541   4.258   0.901   2.748  0.7817 -1.3630  0.1754
 3027SOL     OW20542   3.085   2.361   1.571  0.5139  0.0109 -0.3116
 3027SOL    HW120543   3.165   2.403   1.539  0.4855  0.1254 -0.2321
 3027SOL    HW220544   3.024   2.376   1.499  0.0658  1.1526  0.3063
 3028SOL     OW20545   2.216   2.795  16.196 -0.1568 -0.8322 -0.3971
 3028SOL    HW120546   2.308   2.784  16.173  0.8108  2.8539  1.7090
 3028SOL    HW220547   2.217   2.785  16.291 -1.3360 -0.2296 -0.3161
 3029SOL     OW20548   3.563   0.038   9.814 -0.0027  0.2477  0.1558
 3029SOL    HW120549   3.642   0.090   9.800  1.8613 -2.5093  0.4917
 3029SOL    HW220550   3.559   0.023   9.909 -1.4587  1.7059  0.3159
 3030SOL     OW20551   2.955   1.001   4.442 -0.1615  0.4302  0.0784
 3030SOL    HW120552   2.866   0.982   4.412  0.3053 -0.9996 -0.3616
 3030SOL    HW220553   2.944   0.965   4.530  3.0762  0.2830  0.4012
 3031SOL     OW20554   2.999   3.945   6.624  0.2509  0.6214 -0.4026
 3031SOL    HW120555   3.088   3.922   6.652  0.4372  1.1829 -0.5353
 3031SOL    HW220556   2.974   3.877   6.561 -0.7804  0.5936  0.0367
 3032SOL     OW20557   2.549   2.670  16.625  0.5103  0.2254 -1.1127
 3032SOL    HW120558   2.540   2.758  16.662  0.1349 -0.5093  0.5272
 3032SOL    HW220559   2.512   2.619  16.697  0.5881 -0.0123 -1.2403
 3033SOL     OW20560   0.942   2.752   8.940 -0.3092 -0.3238  0.6096
 3033SOL    HW120561   1.026   2.707   8.938  0.0857  0.3567  1.7219
 3033SOL    HW220562   0.951   2.834   8.990 -0.7652 -0.2697  0.5977
 3034SOL     OW20563   2.675   3.953   0.680  0.2179 -0.0407 -0.5010
 3034SOL    HW120564   2.632   4.013   0.741  1.6909  0.9020 -0.3902
 3034SOL    HW220565   2.759   3.999   0.673 -0.5760  1.7524  2.0187
 3035SOL     OW20566   1.433   1.327   7.991  0.2677 -0.1542 -0.1867
 3035SOL    HW120567   1.503   1.279   8.034  0.4703 -1.4331 -1.9407
 3035SOL    HW220568   1.366   1.335   8.059 -1.1792 -2.7378 -1.3045
 3036SOL     OW20569   1.880   0.066   6.845  0.5301 -0.0839 -0.1181
 3036SOL    HW120570   1.966   0.028   6.863 -0.3263 -0.8424  2.3491
 3036SOL    HW220571   1.871   0.130   6.916  1.7146 -0.2108  0.1455
 3037SOL     OW20572   0.963   2.061   4.758  0.0412  0.2119  0.0411
 3037SOL    HW120573   0.876   2.043   4.791 -0.7497  0.7642 -1.7088
 3037SOL    HW220574   1.012   1.987   4.793  0.0366  1.6332  3.0591
 3038SOL     OW20575   2.478   3.801   1.727  0.2865 -0.5504 -0.2156
 3038SOL    HW120576   2.397   3.850   1.710  0.2634 -0.2955  0.6210
 3038SOL    HW220577   2.452   3.731   1.667 -0.4959 -3.1860  3.1572
 3039SOL     OW20578   4.524   0.570  16.048 -0.0316 -0.1774  0.0873
 3039SOL    HW120579   4.488   0.613  16.125 -2.1982  0.2915 -1.2036
 3039SOL    HW220580   4.562   0.493  16.091  1.1943 -0.3076 -1.1777
 3040SOL     OW20581   3.604   0.745   5.301 -0.0313 -0.4113  0.6180
 3040SOL    HW120582   3.531   0.690   5.331 -1.2760 -0.1370 -1.9497
 3040SOL    HW220583   3.627   0.695   5.223 -0.8723 -0.8139  0.6362
 3041SOL     OW20584   1.636   2.185   4.741  0.0828 -0.1991 -0.3408
 3041SOL    HW120585   1.611   2.262   4.792 -0.5297 -2.7145  3.1489
 3041SOL    HW220586   1.546   2.159   4.723 -0.9146  1.9451  1.5844
 3042SOL     OW20587   2.390   0.297   7.809 -0.2509 -0.0467  0.1071
 3042SOL    HW120588   2.463   0.306   7.747  0.1646 -1.4196  0.3977
 3042SOL    HW220589   2.326   0.357   7.770  0.0789  1.0060  1.2075
 3043SOL     OW20590   1.625   0.514  11.297 -0.1768  0.1166  0.0262
 3043SOL    HW120591   1.686   0.535  11.226  1.6239  0.0572  1.5468
 3043SOL    HW220592   1.597   0.429  11.264 -0.0735  0.9645 -2.2706
 3044SOL     OW20593   3.026   0.629   4.090 -0.0935 -0.5314 -0.2901
 3044SOL    HW120594   3.083   0.614   4.165 -0.6307  2.9506  0.7806
 3044SOL    HW220595   3.078   0.611   4.011  0.0779  0.7764 -0.4789
 3045SOL     OW20596   4.555   1.447   2.788 -0.2295  0.0927  0.4974
 3045SOL    HW120597   4.472   1.447   2.836 -0.0789 -0.5604  0.7599
 3045SOL    HW220598   4.615   1.470   2.859  0.4687  2.5085 -0.8730
 3046SOL     OW20599   3.497   2.616   9.641 -0.2796  0.1124 -0.1613
 3046SOL    HW120600   3.564   2.548   9.649 -1.3480 -1.1546 -2.1122
 3046SOL    HW220601   3.542   2.692   9.677 -0.0443  0.1116 -0.4551
 3047SOL     OW20602   1.395   3.624   1.690  0.4314  0.2327 -0.2733
 3047SOL    HW120603   1.307   3.612   1.725  0.8946 -0.7286  0.5649
 3047SOL    HW220604   1.377   3.696   1.629 -1.4048  1.2865  1.5389
 3048SOL     OW20605   3.290   2.907   3.671  0.2890  0.2495  0.0205
 3048SOL    HW120606   3.278   2.954   3.588 -2.2788  1.0211  0.8418
 3048SOL    HW220607   3.221   2.842   3.662 -1.2802  1.7708  1.0874
 3049SOL     OW20608   3.122   0.093  15.476 -0.0407  0.8373  0.4568
 3049SOL    HW120609   3.143   0.021  15.417  1.5769  2.0018 -0.4035
 3049SOL    HW220610   3.037   0.063  15.509  1.0373 -0.4674  2.0425
 3050SOL     OW20611   3.709   1.986  13.535  0.2789  0.1417  0.6045
 3050SOL    HW120612   3.699   1.903  13.488  1.9254  0.3670 -0.1717
 3050SOL    HW220613   3.655   2.052  13.491  1.1235  1.6185  1.7917
 3051SOL     OW20614   2.524   0.992   1.537  0.2010  0.5212 -0.0776
 3051SOL    HW120615   2.461   1.056   1.504 -2.5834 -0.5909  3.2110
 3051SOL    HW220616   2.560   1.042   1.610  3.1997 -0.7415 -0.6855
 3052SOL     OW20617   2.268   3.571  13.070 -0.4188  0.1366  0.4430
 3052SOL    HW120618   2.285   3.477  13.072 -1.1832 -0.0079 -0.1830
 3052SOL    HW220619   2.289   3.575  12.977 -0.6753 -1.5231  0.3230
 3053SOL     OW20620   2.326   1.049  14.478 -0.4152  0.3936  0.4073
 3053SOL    HW120621   2.299   1.036  14.387  4.0695  0.1503 -0.8600
 3053SOL    HW220622   2.273   0.990  14.531 -0.5201 -0.1849 -0.3338
 3054SOL     OW20623   1.557   1.422   4.551 -0.3995 -0.3318 -0.5524
 3054SOL    HW120624   1.618   1.462   4.613 -3.1240  2.2745  0.4747
 3054SOL    HW220625   1.493   1.391   4.616  1.1120 -0.2657  0.9482
 3055SOL     OW20626   4.005   2.204   1.605 -0.0850 -0.2543  0.0107
 3055SOL    HW120627   4.076   2.225   1.543 -0.5503  0.3368 -0.3196
 3055SOL    HW220628   3.964   2.136   1.552  1.8764 -0.6642 -0.9717
 3056SOL     OW20629   3.777   2.933  10.699 -0.1795 -0.2940  0.3221
 3056SOL    HW120630   3.782   3.008  10.758 -0.3648  2.0891 -2.7147
 3056SOL    HW220631   3.798   2.870  10.768 -0.9657 -0.0014  0.8309
 3057SOL     OW20632   2.692   1.879   7.877 -0.5476 -0.2845 -0.1682
 3057SOL    HW120633   2.689   1.859   7.970  1.4706  1.4660  0.2697
 3057SOL    HW220634   2.601   1.873   7.845 -0.9676 -1.3653  1.2730
 3058SOL     OW20635   3.966   1.833   1.935 -0.0720  0.0079  0.0927
 3058SOL    HW120636   3.941   1.837   1.843 -0.9931 -2.4466  0.2106
 3058SOL    HW220637   4.061   1.826   1.929 -0.0833  0.3379 -0.4767
 3059SOL     OW20638   0.716   1.269  13.115  0.7817  0.1017 -0.4417
 3059SOL    HW120639   0.748   1.326  13.185  2.8621 -0.4819 -0.8935
 3059SOL    HW220640   0.724   1.329  13.041  0.1811  0.3240 -0.3250
 3060SOL     OW20641   3.897   1.911   3.944  0.2955  0.1691 -0.1652
 3060SOL    HW120642   3.848   1.943   3.869  1.1337 -0.3053 -0.9161
 3060SOL    HW220643   3.890   1.982   4.008  0.3165  0.6721 -0.7248
 3061SOL     OW20644   3.165   1.995   8.770  0.0791 -0.0098  0.4274
 3061SOL    HW120645   3.101   2.059   8.800  0.3525  0.9351 -1.0242
 3061SOL    HW220646   3.103   1.926   8.752 -0.1163  0.6261 -1.2706
 3062SOL     OW20647   3.850   2.574  15.486  0.3987  0.7007 -0.6238
 3062SOL    HW120648   3.764   2.603  15.457 -0.2342  0.7432  1.3236
 3062SOL    HW220649   3.912   2.624  15.433  0.8807  1.1448  0.3629
 3063SOL     OW20650   2.427   2.362  16.250  0.5946  0.1372 -0.4833
 3063SOL    HW120651   2.361   2.394  16.189 -1.6259  1.5795  2.6524
 3063SOL    HW220652   2.467   2.442  16.284  0.3516  0.3939 -0.8081
 3064SOL     OW20653   4.254   3.545   9.735 -0.3306 -0.1117  0.8114
 3064SOL    HW120654   4.166   3.544   9.773 -0.5739  0.3433  0.2506
 3064SOL    HW220655   4.310   3.492   9.792  2.7937  1.4577 -0.8578
 3065SOL     OW20656   4.668   0.768   1.580 -0.1382  0.3654 -0.3904
 3065SOL    HW120657   0.008   0.705   1.620 -1.4687 -0.6576 -0.0150
 3065SOL    HW220658   4.664   0.749   1.487 -0.2104  1.2159 -0.5661
 3066SOL     OW20659   0.454   3.227   4.380  0.0327  0.1027 -0.1661
 3066SOL    HW120660   0.412   3.143   4.366  0.3802 -0.3774  1.6184
 3066SOL    HW220661   0.430   3.282   4.306  0.3327  2.8327  1.7611
 3067SOL     OW20662   0.749   0.435   7.975 -0.4451  0.4192  0.1215
 3067SOL    HW120663   0.727   0.497   8.045 -0.5386  1.0908 -0.5056
 3067SOL    HW220664   0.834   0.398   7.997 -1.2138 -1.7068 -0.5156
 3068SOL     OW20665   1.834   4.375   3.801 -0.0742 -0.2741 -0.2561
 3068SOL    HW120666   1.776   4.441   3.765  1.0938  0.5194 -0.6750
 3068SOL    HW220667   1.767   4.307   3.806 -1.1433  0.7253 -1.0010
 3069SOL     OW20668   1.935   2.851   8.416  0.1318 -0.0584  0.0367
 3069SOL    HW120669   1.975   2.863   8.330 -1.7474  0.5248 -0.7557
 3069SOL    HW220670   1.847   2.821   8.394  0.0307  0.4071 -0.1892
 3070SOL     OW20671   1.242   2.716   8.792 -0.3671 -0.2527 -0.5440
 3070SOL    HW120672   1.237   2.809   8.815 -1.9963 -0.6608  0.7281
 3070SOL    HW220673   1.191   2.724   8.711  3.4143 -1.5978 -3.0306
 3071SOL     OW20674   3.511   4.518  10.033 -0.5119 -0.5274 -0.3588
 3071SOL    HW120675   3.445   4.559   9.977 -1.0849  0.1008  0.7752
 3071SOL    HW220676   3.481   4.528  10.124 -1.7896 -2.3479 -0.5706
 3072SOL     OW20677   2.565   1.847   6.200 -0.3281  0.1717  0.3466
 3072SOL    HW120678   2.575   1.924   6.256  0.2825 -0.1298  0.6464
 3072SOL    HW220679   2.598   1.877   6.116 -3.1060  0.3634 -0.7005
 3073SOL     OW20680   4.273   1.950   5.626 -0.0768  0.4183  0.1614
 3073SOL    HW120681   4.221   1.922   5.551 -0.3024  1.7112 -0.1723
 3073SOL    HW220682   4.364   1.932   5.600 -0.2100  2.1930 -1.5356
 3074SOL     OW20683   3.338   2.081   8.261 -0.5570 -0.1334  0.3535
 3074SOL    HW120684   3.329   2.167   8.221  1.0529 -0.7119 -1.2554
 3074SOL    HW220685   3.301   2.098   8.348  1.3404 -0.4621  1.2389
 3075SOL     OW20686   0.067   1.800   3.378  0.0983  0.5371 -0.7428
 3075SOL    HW120687   0.094   1.754   3.458  0.4393  0.6479 -0.7947
 3075SOL    HW220688   0.082   1.893   3.398  2.7862 -0.2679  0.9791
 3076SOL     OW20689   2.545   3.793   8.983 -0.0313  0.4489  0.0421
 3076SOL    HW120690   2.580   3.822   8.898  0.5086  1.8183  0.7343
 3076SOL    HW220691   2.488   3.720   8.959 -1.7586  1.3298  1.5151
 3077SOL     OW20692   2.958   0.288  12.064  0.6848 -0.0455  0.0042
 3077SOL    HW120693   2.996   0.375  12.053 -0.0147  0.3625  0.7751
 3077SOL    HW220694   2.985   0.268  12.154 -2.2774 -2.3336  0.3742
 3078SOL     OW20695   0.639   4.346   2.591 -0.2338 -0.5258  0.0267
 3078SOL    HW120696   0.629   4.436   2.624 -0.4154 -0.5948  0.1571
 3078SOL    HW220697   0.726   4.343   2.551  0.2065 -1.2510  1.0400
 3079SOL     OW20698   3.544   1.911   6.904 -0.5919 -0.0731 -0.0405
 3079SOL    HW120699   3.514   1.908   6.995 -0.1649 -3.7167 -0.0279
 3079SOL    HW220700   3.460   1.910   6.857 -0.9245 -0.7531  0.5704
 3080SOL     OW20701   3.512   3.701   8.668 -0.2038 -0.4769  0.4645
 3080SOL    HW120702   3.509   3.752   8.749  1.6953  1.6266 -0.7886
 3080SOL    HW220703   3.604   3.711   8.645  0.5613 -0.6804  3.4486
 3081SOL     OW20704   4.706   2.261   4.209  0.3799  0.3947 -0.6745
 3081SOL    HW120705   4.642   2.289   4.275 -0.2443 -2.4905 -0.0473
 3081SOL    HW220706   0.061   2.263   4.268  1.2150 -0.0712 -1.7201
 3082SOL     OW20707   2.618   0.819   5.880  0.0285  0.5014  0.0707
 3082SOL    HW120708   2.534   0.863   5.878  0.0361  0.6190  1.8151
 3082SOL    HW220709   2.592   0.736   5.841 -0.2988 -0.5736  2.5893
 3083SOL     OW20710   3.317   2.439   9.076 -0.2268  0.5383 -0.0709
 3083SOL    HW120711   3.224   2.460   9.083 -0.5715 -1.4650  1.5683
 3083SOL    HW220712   3.325   2.370   9.142  0.1312  1.2639  0.6432
 3084SOL     OW20713   3.192   2.831   9.833  0.6096  0.9898  0.1746
 3084SOL    HW120714   3.125   2.819   9.901  1.6698 -0.7326  0.8968
 3084SOL    HW220715   3.238   2.909   9.864  3.5806 -0.5029 -0.4854
 3085SOL     OW20716   0.731   4.144  17.262 -0.3074  0.4770 -0.1989
 3085SOL    HW120717   0.761   4.087  17.191 -2.3249 -0.9806  0.1247
 3085SOL    HW220718   0.675   4.206  17.215 -1.2525 -0.0654  0.2104
 3086SOL     OW20719   4.541   3.588  10.777 -0.4537  0.0482  0.6730
 3086SOL    HW120720   4.633   3.565  10.790 -0.2006  0.0485 -1.1911
 3086SOL    HW220721   4.500   3.501  10.774  0.5038 -0.2722 -3.4337
 3087SOL     OW20722   1.193   2.410   3.954  0.6011 -0.0135  0.2390
 3087SOL    HW120723   1.258   2.420   4.024  0.3996  0.7109  0.3227
 3087SOL    HW220724   1.218   2.325   3.917  0.3199  0.5830 -1.2860
 3088SOL     OW20725   2.373   1.867   8.804  0.5218 -0.2158  0.0030
 3088SOL    HW120726   2.373   1.875   8.899  1.8344 -2.3480  0.1974
 3088SOL    HW220727   2.453   1.816   8.786  0.3091 -0.1375 -1.1212
 3089SOL     OW20728   1.635   3.306   6.392  0.6319  0.4571  0.2459
 3089SOL    HW120729   1.704   3.328   6.455  0.7178 -1.4452  0.8204
 3089SOL    HW220730   1.627   3.379   6.330 -0.9932 -3.2432 -3.8431
 3090SOL     OW20731   0.711   1.840  15.370 -0.1253 -0.0239 -0.0929
 3090SOL    HW120732   0.790   1.893  15.379 -0.2252  0.3258 -1.3619
 3090SOL    HW220733   0.666   1.868  15.450 -0.7384 -0.4800 -0.2773
 3091SOL     OW20734   0.746   4.307  15.598  0.6621 -0.0783 -0.8728
 3091SOL    HW120735   0.816   4.275  15.540  0.6824  3.6275 -2.8557
 3091SOL    HW220736   0.676   4.288  15.535 -2.1824  2.2191  1.6375
 3092SOL     OW20737   2.749   0.569  14.722 -0.3468 -0.3059 -0.4175
 3092SOL    HW120738   2.833   0.591  14.681 -1.9452  2.4269 -2.2539
 3092SOL    HW220739   2.772   0.544  14.812 -2.1837 -2.4119 -0.5587
 3093SOL     OW20740   2.517   1.010   2.305  0.3018 -0.0096 -0.0467
 3093SOL    HW120741   2.609   1.035   2.309 -0.3456  2.6904 -1.8027
 3093SOL    HW220742   2.510   0.940   2.370  3.0231 -0.1911  0.0289
 3094SOL     OW20743   4.385   3.217   5.112 -0.8277  0.2881 -0.4548
 3094SOL    HW120744   4.320   3.270   5.067 -0.0032  0.2613 -1.6990
 3094SOL    HW220745   4.344   3.130   5.112 -0.4195  0.0968  1.2323
 3095SOL     OW20746   0.788   2.708   2.102 -0.1325  0.5750 -0.1440
 3095SOL    HW120747   0.782   2.804   2.095  0.6250  0.4971 -1.8808
 3095SOL    HW220748   0.695   2.686   2.093 -0.0254  0.0339  0.0653
 3096SOL     OW20749   4.053   3.400  15.691 -0.2759 -0.8126  0.4419
 3096SOL    HW120750   4.097   3.442  15.765  2.3746  1.2270 -2.2818
 3096SOL    HW220751   4.099   3.318  15.677  0.6731  0.4335 -4.0081
 3097SOL     OW20752   2.869   2.497   5.757 -0.0614  0.2667 -0.6344
 3097SOL    HW120753   2.900   2.494   5.847 -1.8775 -1.8520 -0.0711
 3097SOL    HW220754   2.939   2.544   5.713 -1.1896  2.4599 -0.0849
 3098SOL     OW20755   2.908   3.432   5.348  0.4732  0.1183 -0.0891
 3098SOL    HW120756   2.902   3.336   5.353  0.7081  0.1719  1.3835
 3098SOL    HW220757   3.003   3.447   5.344  0.0508  2.1413 -1.7917
 3099SOL     OW20758   2.331   3.698   7.106 -0.0726 -0.6721  0.5204
 3099SOL    HW120759   2.241   3.731   7.099  0.0285  0.6232  5.3773
 3099SOL    HW220760   2.361   3.673   7.018 -2.0478  1.1049 -0.6579
 3100SOL     OW20761   1.827   2.452   4.606 -0.0719  0.0587 -0.9004
 3100SOL    HW120762   1.850   2.524   4.665  4.8555 -1.7897 -0.6230
 3100SOL    HW220763   1.739   2.475   4.575  0.1398  0.6028 -1.0956
 3101SOL     OW20764   3.027   3.734   2.836  0.4710 -0.3430  0.1738
 3101SOL    HW120765   3.015   3.829   2.844  2.6051 -0.0602 -0.1109
 3101SOL    HW220766   2.972   3.706   2.909 -0.9606 -1.7861 -1.4603
 3102SOL     OW20767   4.197   2.442   4.927 -0.0714 -0.5767  0.4809
 3102SOL    HW120768   4.263   2.472   4.989  0.3317  0.2688 -0.3540
 3102SOL    HW220769   4.252   2.414   4.853 -0.5364 -0.1247 -0.0336
 3103SOL     OW20770   2.277   3.216   0.498 -0.6709  0.1243  0.1569
 3103SOL    HW120771   2.372   3.208   0.488 -0.7602 -0.3344 -0.2969
 3103SOL    HW220772   2.252   3.140   0.551  1.4695  0.7120  2.0085
 3104SOL     OW20773   1.983   0.042  10.673 -0.3455  0.6434  0.5195
 3104SOL    HW120774   1.978   0.117  10.614 -1.4636 -0.1112 -0.3467
 3104SOL    HW220775   1.897   4.718  10.671  0.9225 -1.7751 -1.1111
 3105SOL     OW20776   2.836   3.367   6.459  0.3137  0.4087  0.2769
 3105SOL    HW120777   2.754   3.368   6.509 -0.3541  0.0965 -0.8090
 3105SOL    HW220778   2.826   3.440   6.398  0.8093  0.4992  0.3081
 3106SOL     OW20779   1.100   0.188   2.218  0.1664  0.1123 -0.3854
 3106SOL    HW120780   1.145   0.234   2.289  0.0591  0.9189 -0.8424
 3106SOL    HW220781   1.035   0.133   2.262  0.7785  1.2812  2.0231
 3107SOL     OW20782   4.142   0.106   2.094  0.4406 -0.4702 -0.3390
 3107SOL    HW120783   4.099   0.189   2.070  0.1493 -0.4531  0.2592
 3107SOL    HW220784   4.203   0.129   2.164 -1.6606  1.3264  0.9074
 3108SOL     OW20785   1.601   3.290   9.071  0.1024  0.6013  0.2163
 3108SOL    HW120786   1.619   3.225   9.003  0.4980  1.7242 -0.7320
 3108SOL    HW220787   1.532   3.337   9.026  0.1215 -2.0875 -2.5886
 3109SOL     OW20788   0.537   0.262  15.068  0.0720  0.1237 -0.5309
 3109SOL    HW120789   0.485   0.219  15.000  0.1431 -1.6724  0.5599
 3109SOL    HW220790   0.578   0.193  15.120 -1.6456 -0.7898 -0.3751
 3110SOL     OW20791   3.676   0.765   0.014  0.1615 -0.2786 -0.0747
 3110SOL    HW120792   3.635   0.696   0.066 -3.4022 -0.0575 -2.5440
 3110SOL    HW220793   3.601   0.784  17.638  1.9252  1.0816 -1.9503
 3111SOL     OW20794   4.587   3.998  15.426  0.4835 -0.2537  0.1204
 3111SOL    HW120795   4.577   3.904  15.437 -3.3301  0.3173  1.5772
 3111SOL    HW220796   4.532   4.004  15.348  1.5460  2.2440 -0.4377
 3112SOL     OW20797   1.705   0.181   2.950  0.7705  0.4899  0.1931
 3112SOL    HW120798   1.669   0.168   2.862 -1.9500  2.0834  1.0919
 3112SOL    HW220799   1.622   0.187   2.996 -1.7562  0.0804 -4.3890
 3113SOL     OW20800   2.007   2.845   7.688 -0.4515  0.3921  0.2676
 3113SOL    HW120801   1.985   2.925   7.735  1.0239  0.0290  1.5586
 3113SOL    HW220802   2.100   2.862   7.674 -0.3797 -1.5404 -1.6005
 3114SOL     OW20803   3.300   3.344   7.184  0.0137 -0.2677  0.1535
 3114SOL    HW120804   3.282   3.416   7.123  0.0714  0.9148  1.5346
 3114SOL    HW220805   3.388   3.369   7.212 -0.2506  0.8598 -0.0060
 3115SOL     OW20806   2.083   1.850   7.989 -0.1168  0.4420  0.1747
 3115SOL    HW120807   2.166   1.809   8.013  1.0640  1.9629 -1.3554
 3115SOL    HW220808   2.095   1.933   8.036 -2.9889  1.3664 -0.7400
 3116SOL     OW20809   4.442   1.206   8.985  0.1873  0.7062  0.1451
 3116SOL    HW120810   4.365   1.217   8.930 -0.1826  1.1811  0.7603
 3116SOL    HW220811   4.404   1.144   9.048  0.8813  0.6348  0.5011
 3117SOL     OW20812   3.682   0.155   2.736 -0.3016 -0.3836 -0.1449
 3117SOL    HW120813   3.652   0.147   2.646 -1.0482  0.0246  0.0700
 3117SOL    HW220814   3.734   0.235   2.741 -0.7074 -0.1348  0.0401
 3118SOL     OW20815   1.306   4.056  12.537 -0.7766  0.0262 -0.7380
 3118SOL    HW120816   1.397   4.036  12.518  0.4347  1.1669  3.7933
 3118SOL    HW220817   1.273   4.096  12.456  2.4471  0.3046 -1.9012
 3119SOL     OW20818   3.967   0.635   5.722 -0.1043 -0.1767  0.5240
 3119SOL    HW120819   4.027   0.561   5.714  0.7963  0.6325 -0.2151
 3119SOL    HW220820   3.908   0.637   5.647 -1.6986 -1.0663  1.7411
 3120SOL     OW20821   1.263   0.593   4.722 -0.1877 -0.6868  0.0924
 3120SOL    HW120822   1.192   0.657   4.711 -0.1041 -0.8978 -1.6995
 3120SOL    HW220823   1.225   0.514   4.684 -0.4067 -0.5796  0.0872
 3121SOL     OW20824   2.840   2.812  11.104 -0.0861  0.3327  0.3712
 3121SOL    HW120825   2.803   2.725  11.117 -0.4183  0.0711 -2.4618
 3121SOL    HW220826   2.861   2.811  11.011 -2.4606 -2.7497 -0.1125
 3122SOL     OW20827   2.376   4.467   1.902 -0.3424 -0.1696 -0.1172
 3122SOL    HW120828   2.463   4.431   1.922 -0.3877 -0.8832 -1.2210
 3122SOL    HW220829   2.393   4.525   1.829 -1.1328  0.2982  0.0734
 3123SOL     OW20830   4.719   0.480   3.697 -0.0906  0.0082  0.1041
 3123SOL    HW120831   4.710   0.480   3.602 -1.5698 -1.7277  0.2652
 3123SOL    HW220832   4.640   0.439   3.732  0.7344 -0.3741  1.5451
 3124SOL     OW20833   3.047   1.841   3.993  0.5561  0.1510  0.2099
 3124SOL    HW120834   3.045   1.936   4.004 -0.5808  0.5580 -3.4926
 3124SOL    HW220835   2.953   1.828   4.005  0.2557  2.8246  0.9529
 3125SOL     OW20836   2.600   3.138   1.270 -0.1690  0.4622  0.1480
 3125SOL    HW120837   2.675   3.164   1.216 -0.4665 -0.3147 -0.6502
 3125SOL    HW220838   2.633   3.122   1.358  0.0398 -0.3236 -0.0735
 3126SOL     OW20839   0.295   2.898   2.539 -0.1100 -0.0394  0.6368
 3126SOL    HW120840   0.342   2.954   2.601  0.4637  0.0675  0.1029
 3126SOL    HW220841   0.365   2.840   2.511 -0.8738 -0.2201 -0.8859
 3127SOL     OW20842   4.323   4.247  15.784  0.1125 -0.3960 -0.4861
 3127SOL    HW120843   4.297   4.298  15.708 -0.3666  0.8321  0.5066
 3127SOL    HW220844   4.362   4.170  15.743 -0.6638 -1.5211  0.9012
 3128SOL     OW20845   2.444   4.501  10.212 -0.0151 -0.8612  0.2118
 3128SOL    HW120846   2.391   4.425  10.187  1.0693 -1.3169 -0.6620
 3128SOL    HW220847   2.527   4.456  10.195 -0.3569 -0.4613 -2.4200
 3129SOL     OW20848   4.605   4.405  10.748 -0.2589  0.0832 -0.0458
 3129SOL    HW120849   4.552   4.325  10.754 -0.2206  0.1498  1.0613
 3129SOL    HW220850   4.661   4.377  10.675 -0.1953  1.0493 -0.3742
 3130SOL     OW20851   0.246   0.017  15.696  0.7139  0.2064  0.0684
 3130SOL    HW120852   0.304   0.090  15.718  1.3374  0.2428 -1.6834
 3130SOL    HW220853   0.290   4.665  15.742 -0.6678 -0.8564 -0.2642
 3131SOL     OW20854   2.781   2.295  16.961  0.3339  0.0295  0.0983
 3131SOL    HW120855   2.689   2.293  16.989  0.9044  0.8294  2.0913
 3131SOL    HW220856   2.797   2.208  16.924  0.5800  0.0872  0.0697
 3132SOL     OW20857   4.570   3.201   2.640  0.3149 -0.0990 -0.2721
 3132SOL    HW120858   4.665   3.211   2.632  0.3135 -1.5151 -2.1015
 3132SOL    HW220859   4.554   3.271   2.704  1.1543 -1.0135  0.9341
 3133SOL     OW20860   2.456   2.915  16.660  0.4663 -0.0119  0.0850
 3133SOL    HW120861   2.401   2.949  16.730 -0.0497  0.0634 -0.3600
 3133SOL    HW220862   2.484   2.996  16.617 -0.9565  0.2847 -0.2624
 3134SOL     OW20863   2.488   4.701   8.496 -0.2333 -0.6789 -0.8715
 3134SOL    HW120864   2.541   0.008   8.421 -2.1080  1.5898 -1.3764
 3134SOL    HW220865   2.552   4.681   8.565  0.6452 -0.5330 -1.6498
 3135SOL     OW20866   2.669   1.525   6.532 -0.1470 -0.2020 -0.3636
 3135SOL    HW120867   2.628   1.528   6.618 -1.5773 -1.5483 -0.9980
 3135SOL    HW220868   2.601   1.556   6.472  0.3213  1.2315 -0.1511
 3136SOL     OW20869   1.574   0.879   6.246 -0.1455  0.0251  0.3798
 3136SOL    HW120870   1.615   0.889   6.332  0.6948 -0.9239  0.0965
 3136SOL    HW220871   1.605   0.790   6.229 -1.3291  0.2330 -2.8533
 3137SOL     OW20872   4.214   4.200  11.682 -0.1213 -0.1596  0.3511
 3137SOL    HW120873   4.250   4.187  11.594  0.8185  1.2675  0.5299
 3137SOL    HW220874   4.145   4.264  11.666  0.0923 -0.2033 -0.7963
 3138SOL     OW20875   3.881   3.832   3.459  0.2581 -0.5976 -0.1062
 3138SOL    HW120876   3.799   3.786   3.442  0.2110 -1.3393  2.1167
 3138SOL    HW220877   3.931   3.754   3.484  0.2336 -0.2631  0.9675
 3139SOL     OW20878   1.128   2.360   1.131 -0.5188 -0.1665 -0.0016
 3139SOL    HW120879   1.192   2.294   1.158  3.1216  3.3565  0.1415
 3139SOL    HW220880   1.159   2.440   1.173 -0.3522  0.3029 -1.0173
 3140SOL     OW20881   3.592   2.728  16.890 -0.2125  0.6291 -0.2719
 3140SOL    HW120882   3.512   2.778  16.905 -1.0285 -0.4558 -1.0179
 3140SOL    HW220883   3.585   2.719  16.795 -1.9942  3.2301 -0.3731
 3141SOL     OW20884   3.395   0.273   6.155 -0.0268 -0.1814 -0.2236
 3141SOL    HW120885   3.445   0.268   6.237  1.6577 -0.3626 -1.2775
 3141SOL    HW220886   3.344   0.354   6.149 -0.6104 -0.3809  1.7548
 3142SOL     OW20887   3.580   0.495   7.087 -0.4890 -0.4109  0.0981
 3142SOL    HW120888   3.676   0.501   7.080 -0.4214 -1.2927  0.2524
 3142SOL    HW220889   3.571   0.579   7.132 -2.0990 -1.0461  0.9364
 3143SOL     OW20890   4.244   1.693   5.130 -0.0459  0.1067  0.6826
 3143SOL    HW120891   4.305   1.621   5.113 -0.2223  0.0997  0.0793
 3143SOL    HW220892   4.237   1.699   5.225  1.3823 -2.5505  0.9657
 3144SOL     OW20893   0.808   2.560  13.250 -0.4499 -0.2652  0.4676
 3144SOL    HW120894   0.857   2.622  13.197  0.2156 -0.2395  1.1075
 3144SOL    HW220895   0.886   2.538  13.301 -1.0519 -1.9052  0.6799
 3145SOL     OW20896   0.013   4.180   5.196 -0.1546  0.3841  0.0214
 3145SOL    HW120897   4.645   4.185   5.158 -1.3776  2.0448  3.0353
 3145SOL    HW220898   0.003   4.209   5.287 -0.8019 -2.9160  0.9842
 3146SOL     OW20899   0.387   4.079   8.008 -0.6237 -0.0162 -0.8369
 3146SOL    HW120900   0.416   3.988   8.008 -2.6506 -0.6453  2.2118
 3146SOL    HW220901   0.326   4.086   8.081  0.0234 -1.2555 -0.1747
 3147SOL     OW20902   1.797   0.575   3.666 -0.2223  0.2202 -0.1515
 3147SOL    HW120903   1.718   0.617   3.633 -0.9333 -0.7961  0.2498
 3147SOL    HW220904   1.807   0.503   3.604 -1.2166  1.9294 -2.2768
 3148SOL     OW20905   4.235   1.897   4.228  0.1837 -0.2930  0.1685
 3148SOL    HW120906   4.228   1.963   4.297  2.6261  0.6374 -0.4860
 3148SOL    HW220907   4.215   1.944   4.147 -3.4342 -1.7815  0.1992
 3149SOL     OW20908   1.891   3.696  13.013 -0.3907  1.0298 -0.2664
 3149SOL    HW120909   1.882   3.611  12.971  0.8562 -0.5686  2.7128
 3149SOL    HW220910   1.896   3.673  13.105 -0.9334  1.1363 -0.2122
 3150SOL     OW20911   0.141   1.389   6.656  0.2312 -0.4434  0.1238
 3150SOL    HW120912   0.087   1.459   6.691 -0.3494  0.3894 -2.4883
 3150SOL    HW220913   0.105   1.382   6.567  2.0992 -1.6597 -0.5307
 3151SOL     OW20914   3.414   3.058  10.364  0.4465  0.0511  0.1136
 3151SOL    HW120915   3.439   3.134  10.311 -0.8991 -1.2679 -2.4005
 3151SOL    HW220916   3.443   3.085  10.451 -1.1697  2.0195  0.0366
 3152SOL     OW20917   1.501   4.530  10.957 -0.5108 -0.1265  0.0989
 3152SOL    HW120918   1.442   4.498  11.026  1.8473 -0.5552  1.9464
 3152SOL    HW220919   1.471   4.621  10.959  0.8846  0.2872  2.0631
 3153SOL     OW20920   4.643   0.434   8.989  0.4452  0.2494  0.7892
 3153SOL    HW120921   4.642   0.341   9.013  0.6654  0.2612  0.8461
 3153SOL    HW220922   4.641   0.471   9.078  1.9787  1.9930  0.0781
 3154SOL     OW20923   3.732   3.581   1.582 -0.5109  0.2570 -0.3381
 3154SOL    HW120924   3.729   3.487   1.564  1.0546 -0.2673  2.0691
 3154SOL    HW220925   3.661   3.613   1.527 -0.6338 -0.0638 -0.3655
 3155SOL     OW20926   1.702   2.694   2.657 -0.3188 -0.3706 -0.4658
 3155SOL    HW120927   1.779   2.664   2.609 -1.3719 -1.4436 -1.5170
 3155SOL    HW220928   1.633   2.639   2.620 -2.2041  0.9948  1.0276
 3156SOL     OW20929   4.392   2.567   2.351  0.0745 -0.0796 -0.2480
 3156SOL    HW120930   4.381   2.568   2.256  2.2952  0.5364 -0.5031
 3156SOL    HW220931   4.484   2.544   2.357  0.4306  1.5210  0.5627
 3157SOL     OW20932   3.809   0.546  16.914  0.3316  0.1106  0.4415
 3157SOL    HW120933   3.723   0.564  16.953  0.8745 -0.6693  2.0058
 3157SOL    HW220934   3.802   0.462  16.869  1.0130 -0.0089  0.5579
 3158SOL     OW20935   1.922   2.204   1.943  0.1807  0.1291 -0.3337
 3158SOL    HW120936   1.840   2.238   1.980  0.7387  1.7300 -0.5718
 3158SOL    HW220937   1.979   2.280   1.956  1.6757 -1.1937  0.8579
 3159SOL     OW20938   2.142   1.002   8.862  0.2042 -0.2495 -0.1867
 3159SOL    HW120939   2.151   0.981   8.769 -0.1193 -0.1372 -0.2437
 3159SOL    HW220940   2.147   1.097   8.860 -1.8085 -0.1176  0.4561
 3160SOL     OW20941   2.100   1.688  11.878  0.6798  0.4167 -0.7663
 3160SOL    HW120942   2.012   1.693  11.839  0.8071 -1.5228 -1.2891
 3160SOL    HW220943   2.148   1.724  11.803 -0.6298 -0.4156 -2.0257
 3161SOL     OW20944   0.730   3.864   2.658 -0.3200  0.0569 -0.4120
 3161SOL    HW120945   0.638   3.855   2.684 -0.7681  0.3127 -1.9018
 3161SOL    HW220946   0.721   3.899   2.569  2.1389  1.7868  0.0171
 3162SOL     OW20947   0.781   0.286   2.413 -0.1720  0.1765  0.1850
 3162SOL    HW120948   0.693   0.312   2.440  0.1010 -0.3084  1.5222
 3162SOL    HW220949   0.840   0.349   2.453 -0.6164  0.4509  0.4116
 3163SOL     OW20950   2.763   3.594   0.434 -0.4680  0.5868 -0.1112
 3163SOL    HW120951   2.702   3.641   0.491 -0.7363  0.1604 -0.0404
 3163SOL    HW220952   2.769   3.652   0.358 -1.4260 -1.6922 -1.9500
 3164SOL     OW20953   4.402   0.881   0.427  0.5931 -0.2300  0.3524
 3164SOL    HW120954   4.376   0.859   0.337  1.4999 -1.2323  0.3325
 3164SOL    HW220955   4.399   0.977   0.427  0.8432 -0.2262 -2.7636
 3165SOL     OW20956   3.496   2.532   2.100 -1.1971  0.1170  0.3106
 3165SOL    HW120957   3.425   2.596   2.098 -1.3429  0.0089  2.0981
 3165SOL    HW220958   3.574   2.578   2.130 -1.0340  1.0967 -1.6008
 3166SOL     OW20959   1.547   4.269   7.822 -0.5028  0.6651 -0.3278
 3166SOL    HW120960   1.461   4.226   7.819 -0.0759 -0.2774  0.9829
 3166SOL    HW220961   1.550   4.312   7.908 -1.5895  0.5252 -0.2209
 3167SOL     OW20962   1.233   3.691  15.291 -0.2456  0.3065  0.0404
 3167SOL    HW120963   1.265   3.779  15.268  3.2206 -0.3405  2.5050
 3167SOL    HW220964   1.200   3.667  15.205 -0.3834  0.8340 -0.0545
 3168SOL     OW20965   3.025   4.338   0.791 -0.4973  0.4037  0.1052
 3168SOL    HW120966   2.998   4.387   0.869 -0.8460  1.6671 -0.8061
 3168SOL    HW220967   3.007   4.410   0.731  2.4225 -1.7990 -3.3454
 3169SOL     OW20968   0.602   0.842   4.393 -0.6744  0.3453  0.0911
 3169SOL    HW120969   0.515   0.831   4.431 -1.2089  1.1997 -0.8841
 3169SOL    HW220970   0.632   0.932   4.408 -0.1227 -0.1623  2.1545
 3170SOL     OW20971   3.994   1.152   2.929 -0.3191 -0.4734 -0.2554
 3170SOL    HW120972   3.907   1.189   2.917  0.0796  0.7331  0.4892
 3170SOL    HW220973   4.048   1.192   2.860  1.6242 -1.8133  0.4693
 3171SOL     OW20974   4.523   3.628   7.796  0.2472 -0.1342  0.5681
 3171SOL    HW120975   4.471   3.572   7.738 -0.6746  0.0627  1.2107
 3171SOL    HW220976   4.599   3.629   7.737 -0.5909 -3.4391 -0.5712
 3172SOL     OW20977   0.380   0.222   6.083  0.3888  0.2612  0.0831
 3172SOL    HW120978   0.381   0.233   6.179 -2.5868  2.3270 -0.1065
 3172SOL    HW220979   0.288   0.195   6.086  1.1739 -2.6263 -1.2635
 3173SOL     OW20980   1.791   1.825   3.378  0.1469 -0.2961 -0.2971
 3173SOL    HW120981   1.841   1.902   3.405 -2.7975  1.7406 -0.6206
 3173SOL    HW220982   1.846   1.789   3.308  1.1971  0.8532 -0.0667
 3174SOL     OW20983   2.205   0.783   7.186 -0.0465 -0.2102  0.4643
 3174SOL    HW120984   2.200   0.725   7.262 -2.2150 -1.1389 -0.3949
 3174SOL    HW220985   2.129   0.838   7.203 -2.1880 -3.2520  0.6808
 3175SOL     OW20986   3.115   1.010   7.726 -0.0342 -0.1369  0.3633
 3175SOL    HW120987   3.116   0.992   7.820  0.3486 -0.9112  0.2142
 3175SOL    HW220988   3.202   0.980   7.699 -0.3842 -1.5119  0.7416
 3176SOL     OW20989   2.237   0.737   6.887 -0.0502  0.8538  0.2493
 3176SOL    HW120990   2.203   0.771   6.970  1.5604  1.5133  0.6237
 3176SOL    HW220991   2.250   0.808   6.824  0.8921  0.8798  0.4839
 3177SOL     OW20992   4.326   3.863   3.962 -0.1561 -0.2725 -0.5225
 3177SOL    HW120993   4.416   3.895   3.957  0.2381 -1.2030  0.7412
 3177SOL    HW220994   4.329   3.776   4.001 -0.8434 -0.5192 -1.0123
 3178SOL     OW20995   0.390   2.477   3.687 -0.3203  0.0469 -0.5316
 3178SOL    HW120996   0.391   2.545   3.755  0.4535 -1.0757  0.5833
 3178SOL    HW220997   0.473   2.499   3.645  0.7025 -0.6911  1.0705
 3179SOL     OW20998   4.477   3.384   5.504 -0.3417  0.0763 -0.4912
 3179SOL    HW120999   4.465   3.426   5.419 -0.2295 -1.6789 -1.3728
 3179SOL    HW221000   4.507   3.460   5.555 -0.3454  0.7038 -1.4210
 3180SOL     OW21001   4.627   0.985   1.961  0.0489 -0.2359 -0.4157
 3180SOL    HW121002   4.579   0.904   1.942 -2.6463  1.1185  0.6487
 3180SOL    HW221003   4.644   1.024   1.875  1.2061  3.5057  1.5441
 3181SOL     OW21004   1.078   1.960  10.429  0.3068 -0.5500  0.4644
 3181SOL    HW121005   1.126   1.959  10.347  0.6365 -0.1152  0.6522
 3181SOL    HW221006   1.136   1.903  10.480  1.8484  1.3839  0.8510
 3182SOL     OW21007   0.162   1.199   5.750  0.1242  0.3476  0.0415
 3182SOL    HW121008   0.090   1.246   5.793 -0.9479 -0.0981 -1.2602
 3182SOL    HW221009   0.241   1.251   5.763 -0.2829  0.4980  1.9822
 3183SOL     OW21010   2.991   0.203   2.612  0.1109  0.6833  0.1090
 3183SOL    HW121011   3.056   0.187   2.680 -0.0383 -0.4662 -0.0103
 3183SOL    HW221012   2.993   0.298   2.621  0.4349  0.3915  3.1310
 3184SOL     OW21013   3.718   3.621   7.300  0.2168 -0.0234  0.6089
 3184SOL    HW121014   3.794   3.679   7.287  1.0643 -1.0957  0.8414
 3184SOL    HW221015   3.656   3.666   7.243  0.0537 -1.0428 -0.0099
 3185SOL     OW21016   1.758   4.548   2.300 -0.3143 -0.1223 -0.1444
 3185SOL    HW121017   1.828   4.570   2.240 -1.9698 -1.3695 -2.5258
 3185SOL    HW221018   1.695   4.521   2.233  0.9372 -0.9303 -0.9919
 3186SOL     OW21019   2.817   2.182   2.415 -0.1119  0.3992 -0.4717
 3186SOL    HW121020   2.897   2.194   2.466 -0.4814  0.4158  0.0973
 3186SOL    HW221021   2.748   2.188   2.480  0.6582  0.3740  0.3479
 3187SOL     OW21022   4.354   3.823   2.950  0.0591  0.0231  0.1551
 3187SOL    HW121023   4.359   3.918   2.956 -0.3283  0.0512  0.0369
 3187SOL    HW221024   4.330   3.804   3.041 -1.2752 -0.4678 -0.3029
 3188SOL     OW21025   0.729   2.875   7.876 -0.3943 -0.4379  0.0351
 3188SOL    HW121026   0.642   2.839   7.893  0.5719 -1.9359  1.8589
 3188SOL    HW221027   0.762   2.809   7.815  2.8140  1.3350 -0.1586
 3189SOL     OW21028   4.202   1.973   1.728 -0.3468  0.1732  0.4395
 3189SOL    HW121029   4.248   2.018   1.799  0.9462  1.5401 -1.2632
 3189SOL    HW221030   4.117   2.017   1.732 -0.4316  0.0589 -0.0872
 3190SOL     OW21031   0.689   3.320   2.714  0.2558 -0.0475  0.7408
 3190SOL    HW121032   0.642   3.289   2.636  2.2290 -0.1901 -0.4011
 3190SOL    HW221033   0.632   3.314   2.791 -1.9920  0.2270 -0.8899
 3191SOL     OW21034   2.549   1.121   3.536  0.5738  1.1267  0.0313
 3191SOL    HW121035   2.582   1.042   3.493 -0.5537  2.1569 -2.7603
 3191SOL    HW221036   2.498   1.152   3.461 -0.5805  1.9549  1.1653
 3192SOL     OW21037   0.462   0.768   3.847  0.0868  0.2481  0.0595
 3192SOL    HW121038   0.414   0.851   3.848 -0.4748 -0.0943  1.1548
 3192SOL    HW221039   0.457   0.740   3.755 -0.9908 -0.0169  0.2009
 3193SOL     OW21040   2.885   3.130  11.052  0.4908  0.1086  0.3425
 3193SOL    HW121041   2.882   3.187  10.975 -1.7838 -2.2071 -1.2974
 3193SOL    HW221042   2.874   3.041  11.021 -0.1385 -0.3482  1.8502
 3194SOL     OW21043   3.558   1.429   5.825 -0.0176  0.0561 -0.1976
 3194SOL    HW121044   3.483   1.478   5.791 -0.0158 -0.4241 -0.8946
 3194SOL    HW221045   3.628   1.468   5.772  0.6522  1.2209  1.5612
 3195SOL     OW21046   0.432   4.636   6.780  0.8121  0.2488  0.1655
 3195SOL    HW121047   0.502   4.626   6.845 -0.7662  1.0697  2.0025
 3195SOL    HW221048   0.388   4.552   6.796  0.4691  0.6983  1.5830
 3196SOL     OW21049   4.635   3.165  14.710 -0.0098 -0.4317  0.1549
 3196SOL    HW121050   4.542   3.151  14.729  0.2820 -3.0110 -0.3561
 3196SOL    HW221051   4.638   3.245  14.659 -0.0185  0.4375  1.5026
 3197SOL     OW21052   2.014   3.186  10.122  0.6510  0.1665  0.6910
 3197SOL    HW121053   2.061   3.103  10.113 -0.9732 -0.5415 -1.1280
 3197SOL    HW221054   1.984   3.174  10.212  0.1386  4.9013  1.1406
 3198SOL     OW21055   3.284   1.881   6.791 -0.2179  0.2777 -0.1261
 3198SOL    HW121056   3.236   1.962   6.778  0.1640  0.4547 -0.4276
 3198SOL    HW221057   3.217   1.822   6.826 -0.5235 -0.0035 -1.1864
 3199SOL     OW21058   0.607   1.899   6.535  0.2923 -0.4282 -0.0790
 3199SOL    HW121059   0.658   1.838   6.483  2.2656  0.1135  1.2074
 3199SOL    HW221060   0.572   1.952   6.463 -0.1443  0.5126  0.8124
 3200SOL     OW21061   2.116   1.856  15.875  0.4954  0.1550  0.6831
 3200SOL    HW121062   2.202   1.844  15.916  1.1545 -1.0356 -1.0551
 3200SOL    HW221063   2.134   1.798  15.801 -0.4539 -0.7129  1.1126
 3201SOL     OW21064   2.304   4.650   2.949 -0.1529 -0.4237 -0.0518
 3201SOL    HW121065   2.241   4.715   2.980 -0.0106 -0.1732 -0.2976
 3201SOL    HW221066   2.375   4.700   2.911  0.2029 -2.1201 -1.6034
 3202SOL     OW21067   3.537   3.500  16.418  0.3292 -0.0688  0.1637
 3202SOL    HW121068   3.526   3.472  16.509 -0.8049  1.9530  0.6480
 3202SOL    HW221069   3.472   3.443  16.378 -1.4670  1.6962  0.5676
 3203SOL     OW21070   0.069   3.400  17.258  0.2932  0.1731 -0.0745
 3203SOL    HW121071   0.003   3.467  17.240 -0.7941 -0.5917  1.0527
 3203SOL    HW221072   0.090   3.407  17.351  0.4876 -0.9764 -0.0347
 3204SOL     OW21073   0.703   3.991   0.839  0.3317 -0.7777  0.2809
 3204SOL    HW121074   0.707   4.031   0.752 -1.9017 -1.3564 -0.0867
 3204SOL    HW221075   0.653   3.912   0.817 -1.4542  0.1049  1.1662
 3205SOL     OW21076   4.574   3.200   6.809  1.0448  0.2677  0.2545
 3205SOL    HW121077   4.618   3.253   6.743 -0.1534  2.5258  1.2469
 3205SOL    HW221078   4.507   3.262   6.838 -0.2612 -0.5588 -0.9739
 3206SOL     OW21079   1.490   2.154   2.774 -0.6129 -0.4509 -0.3208
 3206SOL    HW121080   1.579   2.123   2.791 -1.0752 -1.0585  1.0129
 3206SOL    HW221081   1.473   2.108   2.691  0.2274 -2.3660  0.5794
 3207SOL     OW21082   0.417   0.556   8.953  0.2764 -1.0120  0.4127
 3207SOL    HW121083   0.447   0.646   8.936 -2.6667  0.1178  1.1380
 3207SOL    HW221084   0.440   0.550   9.046  0.8876  0.4810  0.3593
 3208SOL     OW21085   1.817   3.427   6.204 -0.0824  0.1470 -0.5822
 3208SOL    HW121086   1.898   3.460   6.244 -0.1230 -0.5318  0.0524
 3208SOL    HW221087   1.845   3.340   6.175  1.9970  0.5141  0.3002
 3209SOL     OW21088   1.677   1.188   6.274 -0.1227 -0.3506 -0.2924
 3209SOL    HW121089   1.652   1.225   6.359 -1.0390  1.3205 -1.2715
 3209SOL    HW221090   1.602   1.132   6.253  0.0713 -1.0567  0.8921
 3210SOL     OW21091   1.426   3.213   2.242  0.0404  0.4897  0.0865
 3210SOL    HW121092   1.423   3.186   2.334  1.3922  1.2931  0.3687
 3210SOL    HW221093   1.425   3.127   2.201  0.7648  1.5733 -2.1950
 3211SOL     OW21094   1.250   2.916   1.547  0.1404  0.6155 -0.0666
 3211SOL    HW121095   1.171   2.891   1.499  0.2185 -0.0987  0.1741
 3211SOL    HW221096   1.224   3.004   1.575 -0.2545  0.0079  1.4489
 3212SOL     OW21097   0.691   2.985  10.999 -0.4629  0.3044  0.0550
 3212SOL    HW121098   0.672   2.969  10.907  0.3842  1.7480 -0.3768
 3212SOL    HW221099   0.705   2.894  11.024  0.5836  0.1527 -1.0675
 3213SOL     OW21100   3.197   2.978   2.317  0.0183 -0.7499  0.4129
 3213SOL    HW121101   3.191   2.972   2.221  0.3469  1.8809  0.2146
 3213SOL    HW221102   3.108   3.003   2.343 -0.0839 -2.9228  2.1375
 3214SOL     OW21103   2.184   3.907  11.741 -0.7927  0.1940  0.0622
 3214SOL    HW121104   2.272   3.941  11.724 -0.7458 -0.4771 -1.0690
 3214SOL    HW221105   2.138   3.990  11.753 -1.5615 -0.4127  1.2737
 3215SOL     OW21106   0.020   4.070  15.862  0.2699  0.0340  0.4307
 3215SOL    HW121107   4.671   4.086  15.798 -0.3481  0.8225  1.2884
 3215SOL    HW221108   4.715   4.131  15.932 -2.3743 -0.2082 -0.3046
 3216SOL     OW21109   3.399   4.033   4.420 -0.3027 -0.2495  0.1149
 3216SOL    HW121110   3.425   3.989   4.500 -1.4212  1.7450  1.5763
 3216SOL    HW221111   3.318   3.987   4.400  0.7272 -1.6729 -0.7374
 3217SOL     OW21112   3.731   0.246   4.980 -0.2011 -0.0452 -0.1966
 3217SOL    HW121113   3.754   0.181   4.913 -0.5315 -1.3541  0.9456
 3217SOL    HW221114   3.701   0.195   5.056  1.2246  0.3693  0.6453
 3218SOL     OW21115   2.942   1.941  13.717 -0.2614  0.3026 -0.7319
 3218SOL    HW121116   2.889   1.948  13.796 -0.6355  2.1240 -1.1517
 3218SOL    HW221117   3.005   1.872  13.741  1.0312  1.3849 -0.9888
 3219SOL     OW21118   1.524   0.676   8.739 -0.1134 -0.2918 -0.0009
 3219SOL    HW121119   1.500   0.649   8.827  1.2962  0.4720  0.6216
 3219SOL    HW221120   1.478   0.614   8.682  0.3523  0.1540 -0.8762
 3220SOL     OW21121   3.884   0.484   7.678 -0.1066 -0.2466 -0.4889
 3220SOL    HW121122   3.888   0.518   7.589 -0.6380  2.7116  0.6318
 3220SOL    HW221123   3.944   0.410   7.690  1.2713  0.6376 -1.9303
 3221SOL     OW21124   1.915   2.817  12.091  0.2921  0.0485  0.4992
 3221SOL    HW121125   1.967   2.796  12.014  0.0593 -2.5347  1.0457
 3221SOL    HW221126   1.871   2.894  12.054 -0.6663 -1.2447 -1.0227
 3222SOL     OW21127   3.500   1.894   3.008  0.4891 -0.6553  0.3719
 3222SOL    HW121128   3.586   1.898   3.051 -0.2591  0.2210  1.7700
 3222SOL    HW221129   3.521   1.857   2.922 -0.0115  1.9144 -0.8320
 3223SOL     OW21130   3.430   2.443   3.278 -0.1609 -0.2557  0.8654
 3223SOL    HW121131   3.359   2.402   3.229 -0.1980 -0.0782  0.7705
 3223SOL    HW221132   3.468   2.507   3.218  1.5398 -0.2761  1.9164
 3224SOL     OW21133   1.348   1.807   3.465 -0.8777 -0.0888  0.5207
 3224SOL    HW121134   1.369   1.805   3.372  0.9526  0.1823  0.9209
 3224SOL    HW221135   1.317   1.717   3.474  1.6156 -0.9754  0.4126
 3225SOL     OW21136   2.241   3.406   1.916  0.1976 -0.5573 -0.3926
 3225SOL    HW121137   2.331   3.435   1.900  0.5091 -0.3812  1.7419
 3225SOL    HW221138   2.246   3.427   2.009  0.9879 -1.0183 -0.3238
 3226SOL     OW21139   0.641   4.061   7.299  0.5526 -0.0315 -0.0914
 3226SOL    HW121140   0.590   4.034   7.375 -1.9083  1.0227 -1.3951
 3226SOL    HW221141   0.584   4.128   7.262  0.5129  1.0437  1.9414
 3227SOL     OW21142   2.075   3.475   7.858  0.0218  0.0742 -0.1309
 3227SOL    HW121143   2.131   3.523   7.920  0.2202  0.3025 -0.4826
 3227SOL    HW221144   1.995   3.525   7.871  0.0174 -0.4968  2.1453
 3228SOL     OW21145   0.689   1.552   9.007 -0.0010  0.3164  0.1198
 3228SOL    HW121146   0.712   1.504   9.086  1.2766  1.1527  0.2653
 3228SOL    HW221147   0.617   1.502   8.967  0.0046 -0.5570  1.2129
 3229SOL     OW21148   2.274   0.154   9.027 -0.5949  0.3965 -0.5120
 3229SOL    HW121149   2.344   0.215   9.051 -0.3145  0.4381 -1.4408
 3229SOL    HW221150   2.201   0.216   9.024 -1.6186 -0.7791  0.4053
 3230SOL     OW21151   2.255   4.013   4.210 -0.2667 -0.4185 -0.0339
 3230SOL    HW121152   2.289   4.002   4.121  1.2768 -3.6964  0.9890
 3230SOL    HW221153   2.336   4.049   4.247 -0.0964 -3.2103  2.2530
 3231SOL     OW21154   3.727   3.337   1.823  0.3809  0.5244  0.2270
 3231SOL    HW121155   3.646   3.343   1.772  1.3806 -1.1956 -1.5887
 3231SOL    HW221156   3.729   3.419   1.871 -0.7979 -0.0707  1.2797
 3232SOL     OW21157   2.203   2.896   9.519 -0.5674  0.0228 -0.3039
 3232SOL    HW121158   2.124   2.892   9.572  0.7259 -0.3205  1.6030
 3232SOL    HW221159   2.271   2.916   9.583 -0.6544  0.0353 -0.2156
 3233SOL     OW21160   0.188   1.517   5.669 -0.2959 -0.6811  0.2668
 3233SOL    HW121161   0.239   1.536   5.748  2.8127 -0.9301 -1.7162
 3233SOL    HW221162   0.102   1.525   5.710 -0.5709 -0.1056 -0.4288
 3234SOL     OW21163   1.521   2.478  13.785 -0.3213  0.6429  0.3988
 3234SOL    HW121164   1.469   2.553  13.755 -1.0439 -0.6959 -1.7276
 3234SOL    HW221165   1.496   2.469  13.877 -0.0485  1.6982  0.5793
 3235SOL     OW21166   3.143   2.778   4.735  0.2169  0.1810 -0.0465
 3235SOL    HW121167   3.166   2.798   4.826  2.2195 -0.9872 -0.2850
 3235SOL    HW221168   3.201   2.711   4.700 -0.9089 -0.5725 -0.4478
 3236SOL     OW21169   0.592   0.518   0.071  0.2910  0.0478 -0.4804
 3236SOL    HW121170   0.549   0.604   0.071  0.8207  0.3133 -0.8625
 3236SOL    HW221171   0.659   0.525   0.138 -1.1379 -0.4491  1.0073
 3237SOL     OW21172   3.290   3.907  13.583  0.0276 -0.5617 -0.0490
 3237SOL    HW121173   3.380   3.893  13.613 -0.3360 -0.9178  0.8645
 3237SOL    HW221174   3.235   3.882  13.657 -1.3862 -0.3222 -1.0324
 3238SOL     OW21175   2.334   3.723   4.287  0.4025  0.3344  0.0593
 3238SOL    HW121176   2.377   3.648   4.245 -1.6561 -0.8634  0.1051
 3238SOL    HW221177   2.408   3.750   4.341  0.0506  1.3256  0.0458
 3239SOL     OW21178   0.705   0.525  10.666  0.3894  0.3857 -0.0164
 3239SOL    HW121179   0.685   0.503  10.575  0.8854 -2.5754  0.5776
 3239SOL    HW221180   0.778   0.464  10.679 -0.3883 -0.9630 -1.8116
 3240SOL     OW21181   2.841   4.557   5.025 -0.4633  0.5581 -0.8815
 3240SOL    HW121182   2.833   4.640   4.979  1.3565 -0.0735 -2.3212
 3240SOL    HW221183   2.936   4.554   5.013 -0.4534 -3.6509  0.1784
 3241SOL     OW21184   0.396   2.079   3.588 -0.1381  0.3927 -0.2092
 3241SOL    HW121185   0.483   2.056   3.555  0.6151  2.0262  0.6372
 3241SOL    HW221186   0.430   2.118   3.668 -1.9832  1.5174  0.0321
 3242SOL     OW21187   2.792   1.726   2.276  0.3247  0.1772  0.1797
 3242SOL    HW121188   2.885   1.743   2.264  0.4436 -0.9545 -0.4880
 3242SOL    HW221189   2.759   1.711   2.188 -1.3146  2.0288  0.4739
 3243SOL     OW21190   3.529   1.569   3.672  0.8264  0.0136 -0.0489
 3243SOL    HW121191   3.582   1.579   3.592 -0.1513  2.3063 -0.4289
 3243SOL    HW221192   3.571   1.627   3.736 -0.0167  0.2681  0.2724
 3244SOL     OW21193   0.681   0.003   1.913 -0.3714 -0.5742  0.1165
 3244SOL    HW121194   0.707   4.683   1.996  0.1173 -1.6509 -0.5528
 3244SOL    HW221195   0.760   0.009   1.859 -1.7894  1.1007 -1.7841
 3245SOL     OW21196   2.722   2.804   5.954 -0.8963 -0.2721  0.2125
 3245SOL    HW121197   2.795   2.752   5.988 -1.4198 -1.0159  0.1946
 3245SOL    HW221198   2.701   2.849   6.036 -3.5286  1.7205 -1.5614
 3246SOL     OW21199   4.370   2.718   9.864  0.0224  0.1744  0.3185
 3246SOL    HW121200   4.301   2.752   9.921 -0.0575 -0.2060  0.4533
 3246SOL    HW221201   4.384   2.794   9.808 -0.7276  1.1222  1.4169
 3247SOL     OW21202   4.709   3.646  11.944 -0.0349  0.3699 -0.4701
 3247SOL    HW121203   0.052   3.682  12.007 -1.0387 -0.5018  1.0041
 3247SOL    HW221204   4.622   3.645  11.984 -0.5917 -0.9014 -1.6991
 3248SOL     OW21205   2.875   3.811   7.670 -0.3580 -0.4040 -0.1996
 3248SOL    HW121206   2.959   3.835   7.709 -0.0535 -0.8273 -0.6007
 3248SOL    HW221207   2.857   3.897   7.632  2.0567  1.6170  3.2457
 3249SOL     OW21208   2.063   0.509   5.355 -1.0576  0.1816 -0.0689
 3249SOL    HW121209   1.976   0.546   5.337 -0.4863  1.9834  0.8613
 3249SOL    HW221210   2.068   0.450   5.280 -1.1981  0.0999 -0.0150
 3250SOL     OW21211   0.632   4.002  16.659 -0.6065  0.6365 -0.2422
 3250SOL    HW121212   0.549   3.997  16.707  1.0181 -0.9718  2.3796
 3250SOL    HW221213   0.595   4.043  16.580 -1.0601 -1.8169 -1.3055
 3251SOL     OW21214   2.028   0.297  13.622  0.1552 -0.2967  0.0772
 3251SOL    HW121215   2.018   0.288  13.528  0.6974 -1.5395  0.1338
 3251SOL    HW221216   1.959   0.357  13.649 -0.4687 -0.3456 -1.4731
 3252SOL     OW21217   2.056   4.087  13.148  0.2727  0.1360 -0.4234
 3252SOL    HW121218   2.000   4.073  13.225  0.6511  0.7008 -0.0509
 3252SOL    HW221219   2.103   4.167  13.170  0.8533 -0.1799 -0.5335
 3253SOL     OW21220   3.644   0.636   1.300 -0.0224 -0.2989  0.5515
 3253SOL    HW121221   3.702   0.680   1.238 -1.6341  2.2008  0.7901
 3253SOL    HW221222   3.676   0.546   1.290 -0.6692 -0.5316  0.5542
 3254SOL     OW21223   2.596   1.948   9.918  0.3043  0.0421  0.4047
 3254SOL    HW121224   2.543   2.002   9.859  2.4848  1.2651 -0.4329
 3254SOL    HW221225   2.525   1.925   9.977 -0.8866  0.0968 -0.9911
 3255SOL     OW21226   3.308   4.195  12.167  0.1085  0.3102  0.2311
 3255SOL    HW121227   3.333   4.140  12.241  0.9542  2.0850  1.2746
 3255SOL    HW221228   3.212   4.189  12.172  0.1069 -1.2686 -1.6657
 3256SOL     OW21229   2.988   3.638   9.986  0.3721  0.7172 -0.4323
 3256SOL    HW121230   3.028   3.576  10.047 -1.3873  0.0004 -0.0060
 3256SOL    HW221231   2.899   3.602   9.987  0.6627 -0.0339 -1.0607
 3257SOL     OW21232   0.488   2.123  17.603 -0.1134 -0.4729  0.1298
 3257SOL    HW121233   0.525   2.063  17.668 -0.9250  0.8814  1.8389
 3257SOL    HW221234   0.416   2.071  17.568  1.2981 -0.5845 -2.6211
 3258SOL     OW21235   3.818   1.386   7.286  0.5103  0.6220 -0.0737
 3258SOL    HW121236   3.905   1.352   7.307  0.7887  1.7877  0.6921
 3258SOL    HW221237   3.772   1.342   7.356  0.4953 -2.8144 -2.2635
 3259SOL     OW21238   2.929   2.323   4.871 -0.4636 -1.2404  0.2178
 3259SOL    HW121239   2.857   2.298   4.812  0.0941 -1.4659 -0.3664
 3259SOL    HW221240   2.987   2.251   4.844 -0.4407 -0.4824 -1.8075
 3260SOL     OW21241   2.536   0.832   5.444  0.1135  0.3128 -0.1236
 3260SOL    HW121242   2.604   0.884   5.489  0.6863  2.1002 -3.0384
 3260SOL    HW221243   2.460   0.889   5.456 -1.1430 -1.6165  0.9867
 3261SOL     OW21244   0.662   0.113   4.448 -0.1018  0.1528 -0.1665
 3261SOL    HW121245   0.690   0.203   4.463 -0.1183  0.2176 -0.5302
 3261SOL    HW221246   0.745   0.067   4.452 -0.2382 -0.1221 -0.4755
 3262SOL     OW21247   1.145   3.581   6.232  0.3128 -0.0741 -0.5958
 3262SOL    HW121248   1.130   3.675   6.247  1.6740  0.1794 -0.8810
 3262SOL    HW221249   1.238   3.586   6.211  1.1203 -4.1448  2.0494
 3263SOL     OW21250   4.252   3.688   4.747  0.2308 -0.0311  0.5432
 3263SOL    HW121251   4.297   3.614   4.789  1.3437  1.5043  2.0672
 3263SOL    HW221252   4.186   3.707   4.813 -0.1280  0.1940  0.1216
 3264SOL     OW21253   1.299   1.070   9.743  0.3790  0.3670 -0.6573
 3264SOL    HW121254   1.266   0.986   9.712 -2.8600  1.3230  0.2972
 3264SOL    HW221255   1.252   1.080   9.826  1.6668 -1.6524  0.3122
 3265SOL     OW21256   1.650   3.806   3.781  0.1135 -0.0752 -0.0738
 3265SOL    HW121257   1.609   3.869   3.722  2.8388  2.5581  0.9035
 3265SOL    HW221258   1.593   3.824   3.856  2.0009  0.4066  1.2304
 3266SOL     OW21259   0.823   0.317   5.462  0.3409 -0.2049 -0.1646
 3266SOL    HW121260   0.823   0.237   5.516  0.1646 -0.2222 -0.1902
 3266SOL    HW221261   0.841   0.275   5.378 -1.2709  0.4312 -0.8248
 3267SOL     OW21262   2.244   2.485   8.205  0.0930 -0.2785  0.2269
 3267SOL    HW121263   2.190   2.495   8.127 -1.7609 -2.4376  1.2071
 3267SOL    HW221264   2.332   2.492   8.169  0.4568  0.7134  1.3104
 3268SOL     OW21265   2.661   0.294   5.664 -0.0567 -0.1239  0.1221
 3268SOL    HW121266   2.640   0.309   5.572  1.2322  0.4197 -0.0810
 3268SOL    HW221267   2.594   0.234   5.696  0.4197 -1.0737 -0.6361
 3269SOL     OW21268   2.121   3.927   5.913  0.2381 -0.7683 -0.2125
 3269SOL    HW121269   2.182   3.854   5.908  0.5825 -0.4753 -0.3090
 3269SOL    HW221270   2.054   3.887   5.969 -1.6025  1.4721 -0.7791
 3270SOL     OW21271   1.941   1.564   8.271 -0.1800 -0.2588 -0.2125
 3270SOL    HW121272   2.026   1.521   8.258 -1.0257 -0.9511 -3.4861
 3270SOL    HW221273   1.915   1.583   8.180 -1.0414  0.0880  0.1063
 3271SOL     OW21274   2.773   2.327  13.580 -0.8392 -0.5908 -0.3909
 3271SOL    HW121275   2.832   2.383  13.530 -2.1766  0.6460 -0.5800
 3271SOL    HW221276   2.727   2.395  13.628  0.9675  1.4865 -1.6033
 3272SOL     OW21277   4.151   0.107   6.882 -0.3708  0.0596  0.0153
 3272SOL    HW121278   4.079   0.160   6.915 -0.8973 -0.6622  0.0344
 3272SOL    HW221279   4.196   0.155   6.812 -0.7226  0.9869  0.4282
 3273SOL     OW21280   4.505   3.738  11.503  0.0951 -0.0075 -0.5170
 3273SOL    HW121281   4.490   3.743  11.597  0.9988  0.8529 -0.4268
 3273SOL    HW221282   4.601   3.735  11.502  0.1311  1.2493 -0.4075
 3274SOL     OW21283   3.979   0.349   7.451 -0.2029 -0.0590 -0.3108
 3274SOL    HW121284   3.969   0.253   7.453 -1.0873  0.0517  0.9542
 3274SOL    HW221285   4.065   0.348   7.491 -1.9031  0.3770  3.3826
 3275SOL     OW21286   1.906   0.994   1.454  0.1437 -0.5692  0.7459
 3275SOL    HW121287   1.903   0.935   1.529  1.2077 -0.8504  0.5564
 3275SOL    HW221288   1.998   1.014   1.469 -0.4000  1.6753  1.0863
 3276SOL     OW21289   4.240   1.583   8.391  0.1504 -0.1035 -0.0345
 3276SOL    HW121290   4.274   1.669   8.368  0.4772 -0.0279  0.7181
 3276SOL    HW221291   4.293   1.532   8.329  1.5094  0.8392  0.3446
 3277SOL     OW21292   2.237   1.632  12.882 -0.0196  0.0119  0.1713
 3277SOL    HW121293   2.314   1.585  12.848 -0.9098 -1.1000 -0.2877
 3277SOL    HW221294   2.257   1.725  12.887  2.8090 -0.5999  0.4897
 3278SOL     OW21295   4.476   4.403   3.372  0.3173  0.4995  0.1031
 3278SOL    HW121296   4.438   4.325   3.413  3.0628 -0.3209  1.1108
 3278SOL    HW221297   4.447   4.393   3.281  0.3095 -1.1977  0.2808
 3279SOL     OW21298   1.823   4.280   7.043 -0.1397 -0.2895 -0.1959
 3279SOL    HW121299   1.803   4.354   6.986 -0.4340  0.2536  0.6223
 3279SOL    HW221300   1.883   4.319   7.105 -1.5999 -1.3463  1.8827
 3280SOL     OW21301   1.672   4.582   7.926 -0.3785 -0.3598 -0.4208
 3280SOL    HW121302   1.645   4.606   8.014 -2.0161 -1.4036 -0.6386
 3280SOL    HW221303   1.709   4.666   7.899 -1.4228  0.4871  0.8126
 3281SOL     OW21304   2.556   0.378   5.427 -0.1489  0.1311 -0.8708
 3281SOL    HW121305   2.543   0.472   5.416 -0.7621  0.3454  1.6234
 3281SOL    HW221306   2.634   0.369   5.372 -0.9755 -0.6740 -1.8998
 3282SOL     OW21307   0.932   0.869   4.163  0.2770 -0.2756 -0.3848
 3282SOL    HW121308   0.922   0.951   4.115 -0.8605  0.8056  1.7129
 3282SOL    HW221309   0.861   0.862   4.226 -1.2117  0.0997 -2.0300
 3283SOL     OW21310   1.492   2.561  10.102  0.3405 -0.7803  0.4589
 3283SOL    HW121311   1.402   2.534  10.087  0.2371 -1.0231  1.5005
 3283SOL    HW221312   1.480   2.654  10.082  3.2057 -1.0528 -2.5927
 3284SOL     OW21313   1.721   3.437   5.205  0.0917 -0.0483  0.2566
 3284SOL    HW121314   1.712   3.349   5.169  0.8381  0.7375 -1.8458
 3284SOL    HW221315   1.658   3.490   5.157 -0.8559 -2.1971 -0.8511
 3285SOL     OW21316   4.224   0.096   4.233  0.1717 -0.5561 -0.3155
 3285SOL    HW121317   4.232   0.058   4.146  0.9747 -0.0787 -0.4488
 3285SOL    HW221318   4.294   0.056   4.284 -1.6067 -0.7691  1.9595
 3286SOL     OW21319   2.622   4.209   8.580 -0.0968  0.1769 -0.0144
 3286SOL    HW121320   2.669   4.255   8.649 -1.0543  0.6877  0.3010
 3286SOL    HW221321   2.690   4.177   8.520 -0.2168 -0.0078 -0.0521
 3287SOL     OW21322   0.793   2.934   8.334 -0.3804 -0.1849 -0.2416
 3287SOL    HW121323   0.808   2.985   8.255 -0.2286 -0.5843 -0.4663
 3287SOL    HW221324   0.746   3.002   8.383 -0.0616  0.2789 -0.5793
 3288SOL     OW21325   3.069   1.936   6.333 -0.1022  0.1130  0.1761
 3288SOL    HW121326   2.988   1.890   6.310  0.4026 -1.7198  2.0024
 3288SOL    HW221327   3.136   1.895   6.279  1.0581  0.3589  1.4409
 3289SOL     OW21328   3.386   1.411   8.055  0.0191  0.2404  0.9711
 3289SOL    HW121329   3.329   1.345   8.017  0.1451  0.4172  0.4804
 3289SOL    HW221330   3.414   1.364   8.134  1.7398  1.0692  0.8681
 3290SOL     OW21331   1.812   0.639   5.307 -0.6095  0.4382 -0.0984
 3290SOL    HW121332   1.730   0.664   5.351  0.7050  2.2147  1.3773
 3290SOL    HW221333   1.800   0.545   5.320 -0.3519  0.4579  0.2796
 3291SOL     OW21334   2.200   0.398   6.153  0.2814 -0.6075  0.5239
 3291SOL    HW121335   2.196   0.303   6.162 -3.0820 -0.6424 -1.1992
 3291SOL    HW221336   2.145   0.414   6.076  1.9503 -3.0415 -1.2098
 3292SOL     OW21337   3.215   3.154   5.805 -0.1280  0.1716  0.4560
 3292SOL    HW121338   3.297   3.148   5.756 -0.4067 -0.2213  0.0384
 3292SOL    HW221339   3.258   3.137   5.889  0.0308 -2.6264 -0.1718
 3293SOL     OW21340   3.249   4.121  14.468  0.8656 -0.2878  0.0994
 3293SOL    HW121341   3.227   4.175  14.392 -1.4340  0.9192  1.6210
 3293SOL    HW221342   3.296   4.192  14.511  0.2585 -0.6115  1.3049
 3294SOL     OW21343   3.942   2.496   8.513  0.0667  0.1277  0.4995
 3294SOL    HW121344   3.980   2.554   8.579  0.9717  1.5228 -1.2701
 3294SOL    HW221345   3.852   2.494   8.547  0.2902 -0.3977  1.0737
 3295SOL     OW21346   1.236   1.439   3.769 -0.1576  0.1329 -0.3544
 3295SOL    HW121347   1.289   1.497   3.822  0.3536 -0.4935 -0.1757
 3295SOL    HW221348   1.299   1.374   3.739  0.5323  0.4609  0.4052
 3296SOL     OW21349   1.970   3.699  17.269 -0.0642  0.2705 -0.3779
 3296SOL    HW121350   2.026   3.720  17.194  0.8280 -1.7718 -0.2900
 3296SOL    HW221351   1.939   3.784  17.300 -0.6532 -0.4788  1.0700
 3297SOL     OW21352   4.494   3.765   8.021 -0.3410 -0.1749  0.1837
 3297SOL    HW121353   4.490   3.730   7.932  0.7493 -0.7704  0.3694
 3297SOL    HW221354   4.447   3.689   8.056  0.5037  0.2941  2.3418
 3298SOL     OW21355   1.952   2.200   8.834 -0.2197  0.3874  0.4156
 3298SOL    HW121356   1.868   2.206   8.879 -0.4382 -0.7794  0.1817
 3298SOL    HW221357   1.947   2.122   8.778 -4.1064  1.2080 -0.3440
 3299SOL     OW21358   2.113   4.009  10.810  0.4419 -0.0831  0.2294
 3299SOL    HW121359   2.041   4.065  10.783  2.3135  0.9788 -2.5348
 3299SOL    HW221360   2.123   3.975  10.722 -0.0891 -0.3428  0.2691
 3300SOL     OW21361   3.886   3.381  13.081  0.0493 -0.2507 -0.0476
 3300SOL    HW121362   3.853   3.408  13.167 -0.6280 -0.6900 -0.1710
 3300SOL    HW221363   3.979   3.405  13.083  0.0497 -0.3842  1.4194
 3301SOL     OW21364   1.897   0.113   4.291  0.0030  0.2379 -0.2570
 3301SOL    HW121365   1.810   0.141   4.322 -1.1596 -0.3701 -2.9595
 3301SOL    HW221366   1.891   0.131   4.197 -0.0669 -0.4187 -0.3772
 3302SOL     OW21367   2.866   0.534  12.861  0.3696  0.0938  0.0684
 3302SOL    HW121368   2.871   0.629  12.870 -1.1608  0.1265  0.7201
 3302SOL    HW221369   2.866   0.514  12.768 -1.8374  0.3324  0.0081
 3303SOL     OW21370   1.446   2.828  10.091  0.2964 -0.0613 -0.0053
 3303SOL    HW121371   1.430   2.862  10.180  1.4087 -1.8519  0.8804
 3303SOL    HW221372   1.541   2.823  10.081  0.0622  1.6609 -2.9830
 3304SOL     OW21373   1.932   2.898   2.904  0.1863 -0.1298  0.4653
 3304SOL    HW121374   1.999   2.857   2.957  0.7717 -0.9312 -0.9010
 3304SOL    HW221375   1.860   2.836   2.916  0.6853 -0.6595  0.7031
 3305SOL     OW21376   2.080   0.625  14.103  0.2982 -0.2484 -0.4203
 3305SOL    HW121377   2.087   0.532  14.084 -3.5666 -0.4886 -0.6396
 3305SOL    HW221378   2.124   0.654  14.022  0.5034  1.7224  0.4016
 3306SOL     OW21379   2.149   0.704   5.031  0.0961 -0.3120  0.1761
 3306SOL    HW121380   2.196   0.732   5.109 -0.2517 -1.9979  0.9819
 3306SOL    HW221381   2.058   0.714   5.057 -0.5194  0.2206 -2.1275
 3307SOL     OW21382   0.038   3.962   7.750  0.0004  0.1866  0.2790
 3307SOL    HW121383   4.697   4.034   7.733  0.7792  1.2371  1.9758
 3307SOL    HW221384   0.024   3.956   7.844 -1.0934 -1.2408  0.0234
 3308SOL     OW21385   2.063   4.325   6.086  0.7437  0.8558  0.4329
 3308SOL    HW121386   2.141   4.287   6.046  0.1503 -0.4707  0.5224
 3308SOL    HW221387   1.994   4.271   6.048  1.6745 -0.6622  0.9003
 3309SOL     OW21388   2.293   0.680   3.801 -1.0120  0.1141  0.1078
 3309SOL    HW121389   2.253   0.730   3.730  0.5344  0.8771 -0.2409
 3309SOL    HW221390   2.386   0.703   3.792 -1.9724  3.5867 -0.9932
 3310SOL     OW21391   3.242   2.658   5.243  0.2254  0.8467  0.4804
 3310SOL    HW121392   3.215   2.661   5.334  1.5032 -0.8235  0.9285
 3310SOL    HW221393   3.284   2.572   5.235 -1.8390 -0.1491  0.2271
 3311SOL     OW21394   2.882   2.037   1.608 -0.2228  0.1962 -0.0996
 3311SOL    HW121395   2.804   2.067   1.654 -0.8792  0.8314 -1.5949
 3311SOL    HW221396   2.844   2.030   1.520 -0.6066  1.4175 -0.0269
 3312SOL     OW21397   1.398   0.702   2.981 -0.4728 -0.2812 -0.2980
 3312SOL    HW121398   1.387   0.639   3.053  0.4943  0.2216  0.2905
 3312SOL    HW221399   1.327   0.765   2.997 -0.7476 -1.0390  1.4612
 3313SOL     OW21400   3.943   2.249   6.495 -0.2066  0.1015 -0.2781
 3313SOL    HW121401   3.936   2.157   6.518  0.2767  0.0056 -0.5206
 3313SOL    HW221402   4.011   2.246   6.428  0.0636  1.7635 -0.0851
 3314SOL     OW21403   2.114   2.964  11.342 -0.4678 -0.4667 -0.4535
 3314SOL    HW121404   2.147   2.942  11.255 -2.6705  0.5399 -1.5230
 3314SOL    HW221405   2.153   3.051  11.351 -1.0475 -0.1246 -1.2559
 3315SOL     OW21406   2.519   2.423  11.966 -0.5633 -0.4031 -0.1226
 3315SOL    HW121407   2.541   2.487  11.898 -1.1660  0.1601  0.2171
 3315SOL    HW221408   2.427   2.443  11.978  0.8300  4.7252  1.9726
 3316SOL     OW21409   1.877   4.228   8.988 -0.3380 -0.2915 -0.1813
 3316SOL    HW121410   1.916   4.315   8.998 -1.2022 -0.3516  3.8468
 3316SOL    HW221411   1.938   4.180   9.044  0.1200  0.3477 -0.1168
 3317SOL     OW21412   1.514   0.350   0.181 -0.1928 -0.4488 -0.1396
 3317SOL    HW121413   1.441   0.330   0.239  1.1432 -3.4909  0.4591
 3317SOL    HW221414   1.562   0.423   0.220 -0.0272 -1.3322  1.2776
 3318SOL     OW21415   2.284   0.193   3.510  0.3177 -0.6587 -0.0689
 3318SOL    HW121416   2.192   0.176   3.526 -0.2332  1.7805 -0.5353
 3318SOL    HW221417   2.302   0.246   3.588  1.3939 -1.1018 -0.0197
 3319SOL     OW21418   2.102   4.713  11.142 -0.2344 -0.6008 -0.4192
 3319SOL    HW121419   2.030   0.032  11.093  0.4313  1.0721 -0.1028
 3319SOL    HW221420   2.155   4.680  11.069 -2.1191 -1.3604 -1.4177
 3320SOL     OW21421   4.480   2.359   6.261  0.0556  0.3159  0.1470
 3320SOL    HW121422   4.484   2.267   6.236 -0.9877  0.8859 -2.1538
 3320SOL    HW221423   4.446   2.348   6.349 -0.8818  0.8477 -0.1489
 3321SOL     OW21424   0.303   0.294   8.565 -0.2417 -0.1632  0.3966
 3321SOL    HW121425   0.339   0.366   8.617  0.7660  0.3314 -0.9804
 3321SOL    HW221426   0.340   0.319   8.480  2.5227  1.9387  2.2079
 3322SOL     OW21427   2.992   4.314   8.331 -0.0390  0.4231 -0.5708
 3322SOL    HW121428   2.962   4.361   8.253 -1.9235  0.0333 -0.0744
 3322SOL    HW221429   2.991   4.379   8.401  0.1562  0.9900 -1.0944
 3323SOL     OW21430   4.673   0.866   3.025 -0.1133  0.1829  0.4261
 3323SOL    HW121431   4.596   0.826   3.065  0.4716 -2.2153 -0.8568
 3323SOL    HW221432   0.015   0.860   3.098  1.8206 -0.6100 -1.2903
 3324SOL     OW21433   2.789   0.775   6.726 -0.2952 -0.0797 -0.2565
 3324SOL    HW121434   2.847   0.698   6.727  0.1749  0.2777  1.0668
 3324SOL    HW221435   2.834   0.822   6.797 -1.0130 -0.6373  0.5726
 3325SOL     OW21436   4.282   2.664   2.820  0.6343  0.1436 -0.6610
 3325SOL    HW121437   4.362   2.708   2.793 -1.2688  2.7329 -2.0175
 3325SOL    HW221438   4.254   2.721   2.891 -2.1710 -0.3092 -1.4027
 3326SOL     OW21439   1.971   3.396   3.009  0.1450 -0.0752 -0.1032
 3326SOL    HW121440   2.021   3.359   2.937  0.2251 -2.2801  1.0773
 3326SOL    HW221441   1.916   3.318   3.025  1.1573 -0.2238  2.6870
 3327SOL     OW21442   2.534   0.604   5.720 -0.3020 -0.0597  0.0784
 3327SOL    HW121443   2.500   0.532   5.773  1.4490 -0.1453  1.1064
 3327SOL    HW221444   2.581   0.552   5.655 -0.9648 -0.0884 -0.3811
 3328SOL     OW21445   1.406   0.634   5.612 -0.3042  0.0875 -0.1894
 3328SOL    HW121446   1.469   0.563   5.622 -0.5913 -0.3555 -1.4615
 3328SOL    HW221447   1.328   0.586   5.638  0.7490 -1.6065 -0.1601
 3329SOL     OW21448   1.127   1.955   7.376  0.1484  0.0239  0.5735
 3329SOL    HW121449   1.174   1.962   7.293  1.0617 -1.1187  0.9980
 3329SOL    HW221450   1.070   1.880   7.361 -1.3623  1.2826 -0.0161
 3330SOL     OW21451   0.106   0.179  14.634  0.4291  0.3475 -0.4081
 3330SOL    HW121452   0.063   0.264  14.645  0.5177  0.5109 -1.3143
 3330SOL    HW221453   0.107   0.132  14.717 -0.6930  0.7439 -0.1745
 3331SOL     OW21454   3.400   3.430   6.367  0.2849  0.5732  0.1739
 3331SOL    HW121455   3.337   3.365   6.400  0.0637  1.1918  0.9748
 3331SOL    HW221456   3.364   3.452   6.281 -0.3930 -0.6106  0.1425
 3332SOL     OW21457   0.008   3.961   8.320 -0.3740 -0.4557 -0.3769
 3332SOL    HW121458   0.016   3.880   8.270  0.6852 -0.7102  0.2116
 3332SOL    HW221459   4.670   4.010   8.262 -1.5093 -0.9395  0.3549
 3333SOL     OW21460   3.406   1.364  13.627 -0.3125  0.4866 -0.4650
 3333SOL    HW121461   3.368   1.334  13.544  0.1404 -0.4212 -0.3526
 3333SOL    HW221462   3.437   1.278  13.657  1.9954  0.9648 -1.5580
 3334SOL     OW21463   3.493   1.329  14.939  0.1068 -0.5717 -0.3951
 3334SOL    HW121464   3.532   1.300  14.856  0.5701 -0.7263 -0.1206
 3334SOL    HW221465   3.433   1.256  14.959 -0.1173  0.2910  2.0264
 3335SOL     OW21466   3.007   0.073   7.247  0.1786  0.2020  0.2847
 3335SOL    HW121467   3.068   0.057   7.319 -1.2646 -2.0752  0.9943
 3335SOL    HW221468   2.922   0.068   7.289  1.0917 -2.7189  1.7581
 3336SOL     OW21469   3.865   4.133  13.763 -0.1483  0.4347 -0.3659
 3336SOL    HW121470   3.898   4.085  13.840 -0.5708 -0.4471 -0.7336
 3336SOL    HW221471   3.822   4.206  13.807 -0.6055  0.2869 -0.5706
 3337SOL     OW21472   4.071   0.900   7.264  0.2561  0.4203 -0.0247
 3337SOL    HW121473   4.125   0.931   7.337 -0.3886  2.0882 -0.2567
 3337SOL    HW221474   3.983   0.918   7.299  1.4199  0.3608  2.9401
 3338SOL     OW21475   3.677   2.445   7.428  0.4244  0.4168  0.0476
 3338SOL    HW121476   3.770   2.451   7.404  0.1272  1.1866 -0.9256
 3338SOL    HW221477   3.624   2.472   7.353  0.6866 -2.3377 -1.1321
 3339SOL     OW21478   2.515   0.342   2.785  0.4424 -0.3096 -0.0462
 3339SOL    HW121479   2.521   0.408   2.716 -0.6400  0.4818  0.6109
 3339SOL    HW221480   2.549   0.386   2.863  1.1176 -0.6800 -0.1290
 3340SOL     OW21481   0.486   4.536   7.916 -0.5690  0.5965  0.1489
 3340SOL    HW121482   0.404   4.505   7.954  0.1087 -0.0698  1.0719
 3340SOL    HW221483   0.461   4.623   7.887  0.8189  1.5737  1.8910
 3341SOL     OW21484   2.477   2.000   7.132 -0.5834 -0.0300  0.6475
 3341SOL    HW121485   2.544   1.995   7.201 -0.1467 -3.2458 -0.0023
 3341SOL    HW221486   2.431   2.081   7.154  0.0384  1.7670 -4.8141
 3342SOL     OW21487   1.306   0.165   5.561  0.2092  0.1773 -0.5231
 3342SOL    HW121488   1.264   0.092   5.516 -0.1083 -0.0520  0.1324
 3342SOL    HW221489   1.232   0.214   5.597 -0.8572 -0.7518 -1.4773
 3343SOL     OW21490   2.071   3.414  10.348 -0.0470 -0.2959  0.5710
 3343SOL    HW121491   2.061   3.465  10.267 -2.4794 -0.1190  1.0087
 3343SOL    HW221492   2.130   3.472  10.397 -0.0653  0.6368 -0.4989
 3344SOL     OW21493   3.627   1.520   3.105 -0.2522 -0.0302  0.1542
 3344SOL    HW121494   3.692   1.452   3.127  0.2622  0.6035  0.6141
 3344SOL    HW221495   3.558   1.485   3.049  0.1377  1.6857 -1.3774
 3345SOL     OW21496   0.420   3.469   7.710 -0.5066  0.0078 -1.0050
 3345SOL    HW121497   0.513   3.481   7.730 -0.3305 -0.0938 -1.7422
 3345SOL    HW221498   0.387   3.559   7.711  1.3075  0.6725 -1.0443
 3346SOL     OW21499   0.077   4.713   5.817  0.6322 -0.4139 -0.0711
 3346SOL    HW121500   4.709   4.682   5.791  0.8151 -0.4857 -0.5958
 3346SOL    HW221501   0.123   4.629   5.826  1.7352  0.0264 -1.6844
 3347SOL     OW21502   4.598   0.653  17.551 -0.0302  0.6417  0.2174
 3347SOL    HW121503   4.556   0.585  17.497 -0.7295 -0.0678  1.6574
 3347SOL    HW221504   4.598   0.617  17.639 -0.0726  0.7244  0.2512
 3348SOL     OW21505   1.355   2.991  14.581 -0.1031  0.3955  0.0238
 3348SOL    HW121506   1.415   2.930  14.625  0.6396 -0.2702 -1.8950
 3348SOL    HW221507   1.392   3.079  14.590  0.5412  0.2847 -1.6271
 3349SOL     OW21508   1.768   3.947   5.184  0.1803  0.2274 -0.5464
 3349SOL    HW121509   1.758   3.923   5.276 -1.5292 -1.0087 -1.0647
 3349SOL    HW221510   1.858   3.914   5.193  0.9164  3.1216  2.8483
 3350SOL     OW21511   3.368   0.346  15.610  0.3844  0.2206  0.0829
 3350SOL    HW121512   3.313   0.333  15.533  0.1730 -0.5687  0.3695
 3350SOL    HW221513   3.307   0.301  15.668 -1.2392 -1.0938 -2.6594
 3351SOL     OW21514   1.220   0.872  13.729  0.4936  0.6676 -0.2468
 3351SOL    HW121515   1.263   0.826  13.801  0.7295 -0.0687 -0.8559
 3351SOL    HW221516   1.271   0.845  13.652  1.6008  2.8555 -0.3001
 3352SOL     OW21517   2.634   1.972   6.498  0.2707 -0.5208  0.4919
 3352SOL    HW121518   2.676   1.931   6.574 -0.0458 -1.3203  0.2387
 3352SOL    HW221519   2.547   1.933   6.500 -0.9232  2.1614  0.6105
 3353SOL     OW21520   2.884   1.374   1.935 -0.8445  0.1387  0.1848
 3353SOL    HW121521   2.925   1.334   1.859  0.4393 -3.0789  2.5838
 3353SOL    HW221522   2.881   1.300   1.997 -0.2130  0.4519  0.5896
 3354SOL     OW21523   1.609   0.886  17.620 -0.3299  0.1398 -0.1422
 3354SOL    HW121524   1.684   0.919  17.669 -2.2864  2.3284  1.4440
 3354SOL    HW221525   1.591   0.959  17.560 -1.3415  0.5924  0.7074
 3355SOL     OW21526   0.165   2.867   9.317  0.1976  0.3363  0.1877
 3355SOL    HW121527   0.113   2.826   9.385  0.8345 -2.2450 -0.8554
 3355SOL    HW221528   0.103   2.918   9.266 -1.7070 -2.4942 -0.3247
 3356SOL     OW21529   2.755   1.058   3.296 -0.2766 -0.3636 -0.2092
 3356SOL    HW121530   2.843   1.061   3.257 -0.5995  0.8849 -0.8537
 3356SOL    HW221531   2.744   0.972   3.337 -0.4843 -1.3268 -2.2837
 3357SOL     OW21532   1.983   0.129   2.721  0.2827 -0.9880  1.4970
 3357SOL    HW121533   2.065   0.134   2.769  0.8477  1.5173  0.2790
 3357SOL    HW221534   2.019   0.115   2.633 -2.3742 -0.4993  0.3241
 3358SOL     OW21535   2.433   0.547  16.095 -0.5367  0.1174 -0.5412
 3358SOL    HW121536   2.517   0.586  16.071 -0.3348 -0.1267 -0.2221
 3358SOL    HW221537   2.455   0.486  16.164 -1.5174 -0.5678 -0.8399
 3359SOL     OW21538   1.489   1.756   3.706  0.3652  0.3610 -0.0025
 3359SOL    HW121539   1.584   1.756   3.695  0.3388 -0.5784 -0.2223
 3359SOL    HW221540   1.454   1.775   3.618  1.8577  1.0358 -0.4436
 3360SOL     OW21541   1.403   2.050   3.643 -0.3334  0.5752 -0.1156
 3360SOL    HW121542   1.374   1.989   3.575 -0.3155  0.4164  0.0197
 3360SOL    HW221543   1.402   1.991   3.718  1.4135  1.9068  0.9438
 3361SOL     OW21544   4.712   4.328   5.623 -0.0709  0.1375  0.2344
 3361SOL    HW121545   4.659   4.298   5.549 -0.2113 -0.2245  0.4836
 3361SOL    HW221546   0.078   4.298   5.591  0.4906  1.6568  0.2901
 3362SOL     OW21547   4.617   3.536   0.921 -0.6689 -0.7030  0.4329
 3362SOL    HW121548   4.540   3.481   0.908 -0.9553 -0.8149  2.4849
 3362SOL    HW221549   4.616   3.598   0.848 -2.1004 -1.8309 -0.5125
 3363SOL     OW21550   2.948   4.048   9.143  0.3706 -1.0076 -0.1070
 3363SOL    HW121551   3.035   4.039   9.106  0.1331 -0.4114 -0.8097
 3363SOL    HW221552   2.890   4.051   9.067 -0.7876 -2.0125  0.7142
 3364SOL     OW21553   2.012   1.690   4.395 -0.0280 -0.4065  0.3347
 3364SOL    HW121554   1.983   1.713   4.307  2.3457  0.6472 -0.1667
 3364SOL    HW221555   1.990   1.763   4.452 -4.1583 -1.0356 -0.4390
 3365SOL     OW21556   1.620   3.601   5.600  0.5304  0.0285 -0.0852
 3365SOL    HW121557   1.708   3.638   5.591  1.0456 -0.8309  1.4351
 3365SOL    HW221558   1.571   3.642   5.528  1.0738  0.3118 -0.2911
 3366SOL     OW21559   2.782   2.503   9.281  0.0719  0.3252 -0.0907
 3366SOL    HW121560   2.831   2.553   9.216 -0.5276  0.7979 -0.1751
 3366SOL    HW221561   2.698   2.504   9.237 -0.4440 -1.5559  0.8446
 3367SOL     OW21562   3.039   1.229   3.521  0.1999 -0.2454  0.0697
 3367SOL    HW121563   3.130   1.259   3.524 -1.6965  5.6115 -1.0547
 3367SOL    HW221564   3.031   1.180   3.603  0.1041  1.1000  0.8669
 3368SOL     OW21565   0.497   4.286   1.069  0.4386  0.4069  0.3179
 3368SOL    HW121566   0.569   4.349   1.067  0.1275  0.7408 -0.4663
 3368SOL    HW221567   0.436   4.339   1.121  1.7428  0.3764  1.8779
 3369SOL     OW21568   4.166   2.418   8.111  0.0037 -0.1094  0.2186
 3369SOL    HW121569   4.226   2.351   8.080 -1.9586 -1.8709  0.2250
 3369SOL    HW221570   4.125   2.367   8.181 -0.7866  0.5705  0.2548
 3370SOL     OW21571   2.571   3.963   4.514  0.1192  0.2834  0.3571
 3370SOL    HW121572   2.554   4.048   4.472  0.8453  0.2884  0.0749
 3370SOL    HW221573   2.576   3.906   4.437 -0.1565 -0.7602  1.1219
 3371SOL     OW21574   2.881   4.166   7.215  0.0640  0.7566 -0.4351
 3371SOL    HW121575   2.968   4.147   7.249  0.0085 -0.0046 -0.7069
 3371SOL    HW221576   2.841   4.080   7.202  0.3360  0.9508 -2.5491
 3372SOL     OW21577   4.355   2.397   4.691  0.0590  0.1860  0.0068
 3372SOL    HW121578   4.369   2.303   4.703 -2.2410 -0.1719  0.0664
 3372SOL    HW221579   4.447   2.423   4.697  0.0094  0.4777 -0.4312
 3373SOL     OW21580   3.825   3.401  15.855  0.1200  0.0153  0.0129
 3373SOL    HW121581   3.870   3.359  15.929  0.8258 -0.7264 -0.8423
 3373SOL    HW221582   3.890   3.392  15.785  0.4647 -0.5347  0.4011
 3374SOL     OW21583   1.290   2.150   9.949  0.0282 -0.0489  0.5089
 3374SOL    HW121584   1.277   2.127   9.857  0.3002  2.8373 -0.2488
 3374SOL    HW221585   1.377   2.190   9.937  1.0246 -2.8878 -1.7195
 3375SOL     OW21586   3.496   0.240  17.415  0.8261 -0.0847 -0.5711
 3375SOL    HW121587   3.533   0.152  17.406  1.3092  0.3172 -2.4674
 3375SOL    HW221588   3.405   0.212  17.424  1.2661 -1.0404  0.8372
 3376SOL     OW21589   2.858   1.587   2.523 -0.2000  0.4207 -0.1840
 3376SOL    HW121590   2.801   1.607   2.597 -0.5486 -0.5948 -0.1785
 3376SOL    HW221591   2.817   1.629   2.447  1.4804  1.6339 -0.4234
 3377SOL     OW21592   3.708   1.630   0.438 -0.1565  0.4456 -0.1742
 3377SOL    HW121593   3.653   1.696   0.395 -0.5480 -2.6680 -4.3789
 3377SOL    HW221594   3.646   1.557   0.432  0.2210  0.1646 -0.5905
 3378SOL     OW21595   1.154   0.123  16.808 -0.4940 -0.3499  0.2831
 3378SOL    HW121596   1.095   0.145  16.737 -2.0748 -0.6720  1.4813
 3378SOL    HW221597   1.138   0.198  16.866 -0.7730 -1.0233  1.0875
 3379SOL     OW21598   2.579   1.928   9.425 -0.7990 -0.2491 -0.7779
 3379SOL    HW121599   2.673   1.946   9.420 -0.6761 -1.3437 -2.2613
 3379SOL    HW221600   2.576   1.835   9.403 -1.9141 -0.1429 -1.0972
 3380SOL     OW21601   0.618   2.537   8.079 -0.9260 -0.6598 -0.3276
 3380SOL    HW121602   0.689   2.477   8.058 -0.9997 -1.3310  1.3080
 3380SOL    HW221603   0.596   2.573   7.993 -0.3678 -1.5711 -0.8380
 3381SOL     OW21604   4.205   3.471   5.718  0.3273 -0.1082 -0.9313
 3381SOL    HW121605   4.226   3.564   5.709 -1.6461  0.5572  1.3703
 3381SOL    HW221606   4.134   3.461   5.782  0.4686  1.6794 -0.5086
 3382SOL     OW21607   4.068   2.018   6.174  0.1415  0.4619  0.7965
 3382SOL    HW121608   4.005   1.948   6.190 -0.0920  0.8114  1.4419
 3382SOL    HW221609   4.094   1.998   6.084 -1.7156  1.4583  0.0267
 3383SOL     OW21610   0.756   4.223  15.112  0.0358  0.1929 -0.6550
 3383SOL    HW121611   0.682   4.273  15.078 -0.5638 -0.3244 -0.1225
 3383SOL    HW221612   0.782   4.179  15.031 -1.5147  0.9428 -1.5537
 3384SOL     OW21613   2.554   1.986  10.651  0.0699 -0.1148 -0.2085
 3384SOL    HW121614   2.552   2.035  10.733 -0.4592 -0.2971 -0.1124
 3384SOL    HW221615   2.460   1.967  10.648  0.2882 -1.1392 -0.6649
 3385SOL     OW21616   1.129   0.101   4.375 -0.5681  0.1164  0.1480
 3385SOL    HW121617   1.121   0.093   4.470 -0.4853 -1.7447 -0.0097
 3385SOL    HW221618   1.038   0.099   4.347 -0.3935  0.0144 -0.4078
 3386SOL     OW21619   0.136   2.986  15.542 -0.5024  0.1536 -0.1381
 3386SOL    HW121620   0.108   2.986  15.450  1.7092 -2.2785 -0.8119
 3386SOL    HW221621   0.231   2.972  15.534 -0.4073  0.5543  0.3360
 3387SOL     OW21622   1.370   1.284   5.903 -0.2453 -0.0430  0.3665
 3387SOL    HW121623   1.331   1.197   5.892 -0.7700  0.0516  1.4929
 3387SOL    HW221624   1.298   1.341   5.874  0.4205 -0.6879 -2.5555
 3388SOL     OW21625   3.580   4.128   7.170 -0.0313 -0.0777 -0.6635
 3388SOL    HW121626   3.614   4.043   7.142  1.7827  0.8517 -1.2776
 3388SOL    HW221627   3.659   4.172   7.201  0.7802 -0.9771 -1.4769
 3389SOL     OW21628   2.753   2.943   6.200  0.0022  0.7467 -0.4049
 3389SOL    HW121629   2.789   3.026   6.230  0.4680  0.4274 -0.0944
 3389SOL    HW221630   2.820   2.877   6.217  0.6710  1.3446 -0.7053
 3390SOL     OW21631   2.110   1.490  17.202  0.0602  0.6952 -0.0772
 3390SOL    HW121632   2.138   1.576  17.171  0.4157  0.4863 -0.3236
 3390SOL    HW221633   2.195   1.450  17.217 -1.1811 -1.3610  1.5524
 3391SOL     OW21634   1.124   0.151   1.477  0.1674 -0.0022  0.5139
 3391SOL    HW121635   1.196   0.089   1.487 -0.3077 -0.3788  1.6146
 3391SOL    HW221636   1.155   0.240   1.493  0.9484  0.0402 -1.2699
 3392SOL     OW21637   1.512   2.950   3.411  0.1342 -0.1489  0.0554
 3392SOL    HW121638   1.553   2.994   3.486 -0.7274  1.3799 -0.3722
 3392SOL    HW221639   1.493   3.023   3.352  0.0801 -0.2102 -0.0034
 3393SOL     OW21640   3.385   2.417  10.490 -0.3426 -0.5090 -0.3582
 3393SOL    HW121641   3.299   2.415  10.531  0.3885  0.2526  1.2268
 3393SOL    HW221642   3.394   2.511  10.472 -0.8508 -0.2452  0.7308
 3394SOL     OW21643   0.782   1.531  10.307 -0.1627 -0.6587 -0.1786
 3394SOL    HW121644   0.722   1.547  10.380 -1.3347 -2.4562 -0.7631
 3394SOL    HW221645   0.845   1.474  10.352 -1.1912 -0.3034  1.7116
 3395SOL     OW21646   3.483   1.489   1.853 -0.4270  0.2860  0.8360
 3395SOL    HW121647   3.451   1.448   1.934 -1.6100  1.2038  0.8320
 3395SOL    HW221648   3.574   1.461   1.844 -0.3439  0.6816  0.4637
 3396SOL     OW21649   2.943   2.281  10.337  0.5125  0.4395 -0.4352
 3396SOL    HW121650   2.927   2.325  10.421 -0.8321  0.0637 -0.4840
 3396SOL    HW221651   2.870   2.219  10.339  1.0901 -0.2458 -0.5651
 3397SOL     OW21652   2.288   1.691   6.142  0.2211 -0.2114  0.3916
 3397SOL    HW121653   2.222   1.691   6.212 -1.1146 -0.5349 -0.8593
 3397SOL    HW221654   2.363   1.713   6.197  2.8357 -0.5492 -3.1056
 3398SOL     OW21655   3.032   2.716  12.984 -0.3053 -0.4893 -0.5711
 3398SOL    HW121656   3.025   2.649  13.051  0.8788 -0.7115 -0.6727
 3398SOL    HW221657   3.056   2.795  13.034  3.9095 -1.2181 -1.4922
 3399SOL     OW21658   0.074   0.359   7.350  0.4074 -0.2396  0.3933
 3399SOL    HW121659   0.133   0.433   7.336  2.3329 -1.6916  0.8549
 3399SOL    HW221660   0.117   0.306   7.417 -0.5283 -1.0452  0.3575
 3400SOL     OW21661   4.490   2.877   5.169 -0.7443  0.8030  0.2708
 3400SOL    HW121662   4.449   2.872   5.082  2.3884  0.2286 -1.1714
 3400SOL    HW221663   4.470   2.790   5.204  2.1940 -0.0242 -0.0855
 3401SOL     OW21664   3.466   3.033  13.285  0.5395 -0.0537 -0.3618
 3401SOL    HW121665   3.433   3.121  13.266 -0.7518 -0.7784 -1.5189
 3401SOL    HW221666   3.459   3.028  13.380  0.8715  2.4194 -0.1873
 3402SOL     OW21667   3.101   0.864   4.264  0.1681 -0.1395 -0.3287
 3402SOL    HW121668   3.172   0.846   4.325 -0.7136  0.1830  0.7946
 3402SOL    HW221669   3.043   0.915   4.320  1.7717 -1.2642  2.3355
 3403SOL     OW21670   0.088   3.275   8.159  0.3346  0.3575 -0.3793
 3403SOL    HW121671   0.052   3.322   8.084 -1.2038 -1.6513 -0.8991
 3403SOL    HW221672   0.170   3.239   8.123 -0.1108  2.5124 -3.5148
 3404SOL     OW21673   0.550   2.270   8.934  0.1343  0.3812  0.5867
 3404SOL    HW121674   0.551   2.175   8.932 -1.5658  0.4184 -1.3510
 3404SOL    HW221675   0.609   2.289   9.007  0.2518 -1.8662  1.0693
 3405SOL     OW21676   2.962   1.606   2.064 -0.2236 -0.1847 -0.2923
 3405SOL    HW121677   2.935   1.522   2.027 -0.1055 -0.6387  0.6426
 3405SOL    HW221678   2.976   1.583   2.156 -1.0297 -0.8115 -0.3343
 3406SOL     OW21679   0.530   1.812   4.137  0.0076  0.0937  0.2477
 3406SOL    HW121680   0.577   1.785   4.058  1.7685  1.4226  0.8718
 3406SOL    HW221681   0.597   1.870   4.171  0.5406  1.6419 -3.4736
 3407SOL     OW21682   3.263   4.148  17.548  0.0454  0.5570 -0.2083
 3407SOL    HW121683   3.180   4.180  17.514 -0.2331 -0.9232 -0.9523
 3407SOL    HW221684   3.233   4.068  17.592  1.1216  0.6711  0.7449
 3408SOL     OW21685   2.408   3.555   5.988 -0.3230  0.0535 -0.1962
 3408SOL    HW121686   2.351   3.480   6.002  1.7701 -1.7026 -0.9679
 3408SOL    HW221687   2.409   3.582   6.079  0.8082 -0.1714 -0.1348
 3409SOL     OW21688   1.635   4.262   5.842  0.0882  0.2558  0.0835
 3409SOL    HW121689   1.565   4.217   5.796  0.4794  0.0628 -0.3199
 3409SOL    HW221690   1.577   4.326   5.884  0.4254  0.1434  0.7329
 3410SOL     OW21691   2.362   0.880   8.159 -0.5046  0.0083  0.0396
 3410SOL    HW121692   2.390   0.822   8.088  1.2308 -1.3079  1.7705
 3410SOL    HW221693   2.271   0.861   8.179 -0.2407 -2.0200 -0.6876
 3411SOL     OW21694   0.038   4.216  11.867 -0.1776 -0.0131  0.2451
 3411SOL    HW121695   4.678   4.194  11.915  0.3010  0.6549  1.3684
 3411SOL    HW221696   0.008   4.248  11.782 -0.8987  0.7129  0.7787
 3412SOL     OW21697   4.040   0.993   7.590 -0.2760  0.9092 -0.0944
 3412SOL    HW121698   4.061   0.911   7.634  0.1756  0.0648 -1.8855
 3412SOL    HW221699   4.078   1.061   7.645 -0.8799  2.1133 -1.1713
 3413SOL     OW21700   0.849   0.261   8.886 -0.5958 -0.0559 -0.4388
 3413SOL    HW121701   0.904   0.320   8.937 -0.4877  1.4777 -2.2962
 3413SOL    HW221702   0.909   0.191   8.861 -1.8069 -2.1756  2.5842
 3414SOL     OW21703   2.195   3.111   1.015  0.1696  0.4177  0.3395
 3414SOL    HW121704   2.255   3.180   0.987  0.4897 -0.7270 -1.8605
 3414SOL    HW221705   2.123   3.155   1.059 -0.7654  0.3136 -1.0904
 3415SOL     OW21706   4.503   4.228  12.170  0.5127 -0.3382  0.1882
 3415SOL    HW121707   4.579   4.282  12.150 -0.4367  0.6619 -0.7386
 3415SOL    HW221708   4.449   4.234  12.091 -0.5316 -0.8683  0.8590
 3416SOL     OW21709   4.464   1.067  12.972  0.1168 -0.6264  0.8482
 3416SOL    HW121710   4.481   1.159  12.993  2.9921 -0.4967 -2.0148
 3416SOL    HW221711   4.471   1.015  13.052 -1.7849 -2.3503 -0.1219
 3417SOL     OW21712   3.945   1.367   9.205 -0.2969 -0.1837  0.4031
 3417SOL    HW121713   3.851   1.384   9.208  0.0159  1.2657  2.0758
 3417SOL    HW221714   3.971   1.457   9.185  0.6449 -0.7343 -0.8553
 3418SOL     OW21715   0.703   4.333   7.464  0.1652  0.2670 -0.0062
 3418SOL    HW121716   0.680   4.396   7.532  0.6260 -2.2095  2.4516
 3418SOL    HW221717   0.654   4.252   7.483 -0.7641  0.9670  0.5854
 3419SOL     OW21718   3.211   2.378   0.203 -0.5704 -0.0625  0.4617
 3419SOL    HW121719   3.243   2.356   0.116 -1.4795  2.5292 -0.5142
 3419SOL    HW221720   3.277   2.344   0.263 -0.6148 -1.2549 -0.1680
 3420SOL     OW21721   2.627   1.741   4.869  0.8568 -0.1868  0.1514
 3420SOL    HW121722   2.572   1.728   4.946  0.3851 -2.9557 -0.6526
 3420SOL    HW221723   2.555   1.764   4.810  1.3549 -1.6478 -0.9990
 3421SOL     OW21724   1.218   2.185   8.785  0.3887 -0.0577 -0.4547
 3421SOL    HW121725   1.176   2.234   8.714 -0.1620  0.1724  0.0272
 3421SOL    HW221726   1.146   2.130   8.816  1.9029 -1.9000 -0.2514
 3422SOL     OW21727   3.831   1.499   1.961  0.3354  0.0404  0.4077
 3422SOL    HW121728   3.800   1.417   1.922 -1.6758  1.7935 -1.6301
 3422SOL    HW221729   3.835   1.555   1.884 -1.8725 -2.5833 -1.6169
 3423SOL     OW21730   4.224   0.164   9.490 -0.0829  0.6807  0.2041
 3423SOL    HW121731   4.254   0.083   9.529  2.2668  1.0562 -0.8143
 3423SOL    HW221732   4.307   0.182   9.445 -0.0243  1.5923  0.6704
 3424SOL     OW21733   4.371   0.265  11.998 -0.1313 -0.0703 -0.0259
 3424SOL    HW121734   4.404   0.318  11.925  0.1473  1.0826  0.9526
 3424SOL    HW221735   4.449   0.236  12.044 -0.1166  1.5518  0.9477
 3425SOL     OW21736   0.325   0.027   8.610 -0.0533 -0.1142 -0.1084
 3425SOL    HW121737   0.419   0.034   8.628 -0.4581  1.0202  1.6031
 3425SOL    HW221738   0.298   0.118   8.600  1.6029  0.1331 -2.0859
 3426SOL     OW21739   4.411   0.140   3.914 -0.2532  0.4698 -0.0676
 3426SOL    HW121740   4.460   0.087   3.976  1.9845  1.9705 -0.5160
 3426SOL    HW221741   4.325   0.102   3.898 -0.1082  0.8016 -1.6543
 3427SOL     OW21742   3.935   4.710   3.684 -0.2615 -0.2763 -0.6621
 3427SOL    HW121743   3.859   4.654   3.696 -1.1914  0.7219 -1.8070
 3427SOL    HW221744   4.012   4.658   3.705  0.7325  0.9621 -1.1879
 3428SOL     OW21745   3.251   0.107   6.003 -0.2636 -0.2171  0.3584
 3428SOL    HW121746   3.286   0.172   6.064 -0.9937 -0.9309  1.5354
 3428SOL    HW221747   3.248   0.158   5.922  2.4580  0.5250  0.7278
 3429SOL     OW21748   0.316   4.088   7.727 -0.0690  0.5378  0.2898
 3429SOL    HW121749   0.223   4.067   7.739 -0.4913  1.7585 -0.8515
 3429SOL    HW221750   0.346   4.105   7.817 -0.5430  1.2689  0.3120
 3430SOL     OW21751   0.447   1.972   8.418 -0.1203 -0.5009  0.2564
 3430SOL    HW121752   0.506   2.030   8.465 -0.7136 -1.0233  1.6516
 3430SOL    HW221753   0.505   1.941   8.348  0.4180 -0.4388  0.6820
 3431SOL     OW21754   3.247   1.582   7.560  0.2410 -0.5626 -0.4832
 3431SOL    HW121755   3.214   1.653   7.504 -0.0828  0.2450  0.7433
 3431SOL    HW221756   3.208   1.607   7.643 -0.1808 -0.4030 -0.7283
 3432SOL     OW21757   2.599   4.389   4.935  0.2287  0.2108  0.1508
 3432SOL    HW121758   2.692   4.374   4.955  0.0327 -1.4894 -0.2407
 3432SOL    HW221759   2.555   4.420   5.014  0.0984 -0.8490  0.4937
 3433SOL     OW21760   1.977   4.138  10.603 -0.6109  0.3773  0.4501
 3433SOL    HW121761   2.008   4.162  10.515  0.1786 -1.7540  0.1426
 3433SOL    HW221762   1.892   4.181  10.608 -1.0217 -0.2943 -0.8865
 3434SOL     OW21763   2.230   2.227  15.294  0.0563  0.0811 -1.1418
 3434SOL    HW121764   2.186   2.295  15.345  0.1654  0.8003 -2.0315
 3434SOL    HW221765   2.319   2.245  15.325 -0.2426  1.2153 -0.9320
 3435SOL     OW21766   2.978   3.940   3.489  0.4089  0.2680 -0.2642
 3435SOL    HW121767   2.913   3.967   3.555  2.4539  0.0707  1.8339
 3435SOL    HW221768   3.019   3.865   3.531  1.3692  0.0929 -1.5386
 3436SOL     OW21769   2.506   1.752  10.509  0.5867  0.2818  0.1441
 3436SOL    HW121770   2.504   1.842  10.541 -0.4004  0.0759  0.6481
 3436SOL    HW221771   2.581   1.723  10.562 -0.5706 -3.7577 -0.3663
 3437SOL     OW21772   2.274   4.399   5.513 -0.2567 -0.4035 -0.2180
 3437SOL    HW121773   2.270   4.328   5.449  0.5379 -1.0986  0.4952
 3437SOL    HW221774   2.223   4.363   5.586 -0.5093  2.8138  1.1740
 3438SOL     OW21775   3.858   3.541   5.270  0.4750 -0.1058 -0.3236
 3438SOL    HW121776   3.841   3.524   5.363 -1.4961  0.8462 -0.5077
 3438SOL    HW221777   3.780   3.583   5.234  0.6899 -2.2228 -3.2546
 3439SOL     OW21778   1.449   1.807   3.204  0.7703  0.1294 -0.0281
 3439SOL    HW121779   1.457   1.840   3.114 -0.5195 -0.8493 -0.4981
 3439SOL    HW221780   1.459   1.714   3.187  3.2724  0.1030  1.5994
 3440SOL     OW21781   4.418   1.424   3.521 -0.4219 -0.5896 -0.8082
 3440SOL    HW121782   4.509   1.448   3.504 -0.6504  0.9259  0.1437
 3440SOL    HW221783   4.424   1.377   3.604 -0.8834  1.3379  0.3204
 3441SOL     OW21784   4.468   4.581   7.693  0.5233 -0.0770 -0.2684
 3441SOL    HW121785   4.492   4.672   7.713 -1.3258 -0.4526  3.6946
 3441SOL    HW221786   4.511   4.572   7.608 -0.9243 -1.8745 -0.8116
 3442SOL     OW21787   4.523   2.742   2.693  0.0240 -0.0262 -0.3368
 3442SOL    HW121788   4.554   2.651   2.690 -0.5622 -0.3009  1.8121
 3442SOL    HW221789   4.581   2.778   2.760  0.7357 -0.0055 -0.9552
 3443SOL     OW21790   3.653   4.345   2.010  0.3283 -0.2630  0.0562
 3443SOL    HW121791   3.563   4.333   1.979  0.7412 -1.6250 -0.6328
 3443SOL    HW221792   3.681   4.397   1.935 -0.9512 -0.4969 -0.5869
 3444SOL     OW21793   1.289   2.140  14.446 -0.0913  0.1756  0.0738
 3444SOL    HW121794   1.215   2.116  14.389  0.0871 -0.1879 -0.0031
 3444SOL    HW221795   1.242   2.155  14.528  0.5441  1.2948  0.2403
 3445SOL     OW21796   0.907   0.789  13.722  0.2450  0.1601  0.0780
 3445SOL    HW121797   0.978   0.743  13.767  2.0261  2.2785 -0.5718
 3445SOL    HW221798   0.894   0.852  13.793 -0.5029 -0.3656  0.3989
 3446SOL     OW21799   1.979   2.883  15.290  0.7111  0.1043 -0.3446
 3446SOL    HW121800   1.914   2.837  15.343  0.2936  2.0539  0.8505
 3446SOL    HW221801   2.017   2.938  15.359 -0.2154 -1.3988  1.3532
 3447SOL     OW21802   0.041   0.607   4.861  0.3599  0.5250 -0.2627
 3447SOL    HW121803   4.676   0.568   4.883  0.2724  0.9698  0.2077
 3447SOL    HW221804   0.062   0.541   4.796  0.8058  0.1323  0.2782
 3448SOL     OW21805   4.279   4.166   2.449 -0.6475 -0.2442 -0.4635
 3448SOL    HW121806   4.268   4.195   2.358  0.2678 -1.3996 -0.9415
 3448SOL    HW221807   4.240   4.234   2.504 -0.1365 -0.9802  0.7971
 3449SOL     OW21808   3.737   3.767  13.344 -0.1836 -0.9074 -0.3242
 3449SOL    HW121809   3.805   3.767  13.412 -0.1308  1.8560 -0.3824
 3449SOL    HW221810   3.790   3.794  13.269  1.9839 -2.4161  0.6729
 3450SOL     OW21811   0.191   1.819   8.399  0.0450 -0.1760  0.0268
 3450SOL    HW121812   0.118   1.830   8.460 -1.0606  1.5539 -1.5978
 3450SOL    HW221813   0.235   1.901   8.421  2.9759 -1.6194 -0.4335
 3451SOL     OW21814   1.571   2.939   6.904  0.4794  0.8439  0.0971
 3451SOL    HW121815   1.634   2.879   6.944  0.3622 -0.1496 -1.1794
 3451SOL    HW221816   1.513   2.873   6.866 -0.1643  1.5821 -0.2025
 3452SOL     OW21817   0.501   0.480  15.227 -0.0640 -0.0337 -0.0250
 3452SOL    HW121818   0.467   0.442  15.308  1.4478  2.3979  1.7476
 3452SOL    HW221819   0.527   0.404  15.175 -2.0708  0.1566 -1.3084
 3453SOL     OW21820   0.097   0.146   9.611  0.4395 -0.0236 -0.4280
 3453SOL    HW121821   0.105   0.077   9.676 -0.6788  0.2558  0.0163
 3453SOL    HW221822   0.007   0.135   9.580  1.4388 -0.4698 -3.1835
 3454SOL     OW21823   0.258   3.857   3.276 -0.1665  0.1540  0.2932
 3454SOL    HW121824   0.351   3.866   3.296  0.6174 -1.9089 -2.4572
 3454SOL    HW221825   0.243   3.902   3.192 -0.0554 -1.1713 -0.4417
 3455SOL     OW21826   0.126   4.294  13.129  0.1584 -0.6326  0.0954
 3455SOL    HW121827   0.112   4.370  13.072  1.3542 -0.5108 -0.0527
 3455SOL    HW221828   0.221   4.304  13.118  0.1251 -0.3895  0.0204
 3456SOL     OW21829   2.053   1.094   8.262 -0.3439  0.1195 -0.1597
 3456SOL    HW121830   2.096   1.145   8.331 -0.9794 -0.6918  0.8277
 3456SOL    HW221831   2.113   1.106   8.187  1.0325  1.5238  1.1531
 3457SOL     OW21832   3.328   0.758  10.456  0.4518 -0.3402 -0.2043
 3457SOL    HW121833   3.410   0.709  10.445  1.9925  2.2316 -0.0564
 3457SOL    HW221834   3.297   0.758  10.365 -0.2002 -1.9183  0.0144
 3458SOL     OW21835   3.643   1.763   3.860 -0.1292 -0.0029 -0.5083
 3458SOL    HW121836   3.722   1.719   3.893 -0.9360 -0.7835  0.3902
 3458SOL    HW221837   3.596   1.750   3.942 -1.0283  1.5199 -0.7903
 3459SOL     OW21838   0.494   1.571   4.266  0.0205  0.3407 -0.0316
 3459SOL    HW121839   0.583   1.538   4.276 -0.1508  0.2513  1.1677
 3459SOL    HW221840   0.499   1.611   4.179 -2.2936 -0.9462 -0.7617
 3460SOL     OW21841   2.335   4.202   3.382  0.2098  0.4427 -0.0706
 3460SOL    HW121842   2.416   4.237   3.419 -0.8621  0.1885  2.5139
 3460SOL    HW221843   2.332   4.124   3.437  3.1418  0.0024 -0.5117
 3461SOL     OW21844   3.641   2.556  12.232 -0.2075  0.5747 -0.3480
 3461SOL    HW121845   3.664   2.487  12.294 -1.2029 -3.0431 -3.9531
 3461SOL    HW221846   3.653   2.504  12.152  0.2555  1.1279 -0.6342
 3462SOL     OW21847   3.264   0.479   9.885  0.0279  0.4405 -0.2002
 3462SOL    HW121848   3.345   0.528   9.870 -0.0394  0.5291 -0.2725
 3462SOL    HW221849   3.254   0.432   9.803  0.6744  1.7003 -1.0042
 3463SOL     OW21850   3.665   1.866  10.503  0.5425  0.1712  0.6124
 3463SOL    HW121851   3.725   1.931  10.538  1.8193  0.7530 -2.6416
 3463SOL    HW221852   3.678   1.880  10.409 -0.2953  1.3943  0.6901
 3464SOL     OW21853   3.504   4.284   2.617 -0.2868 -0.1526 -0.0005
 3464SOL    HW121854   3.453   4.219   2.569  0.8692 -1.2276  0.2363
 3464SOL    HW221855   3.559   4.225   2.668 -0.2421 -1.0415 -1.0624
 3465SOL     OW21856   4.020   0.244   6.605 -0.1515 -0.0424  0.2319
 3465SOL    HW121857   4.065   0.254   6.521  0.0073 -1.9476  0.0978
 3465SOL    HW221858   4.077   0.307   6.648 -1.5041  1.0851  0.3882
 3466SOL     OW21859   1.920   3.570   8.427  0.8104 -0.2842 -0.0866
 3466SOL    HW121860   1.987   3.609   8.371  1.2191  1.5415  1.6663
 3466SOL    HW221861   1.967   3.517   8.491 -0.6677  1.0635  2.1075
 3467SOL     OW21862   0.818   0.825   6.981  0.4292  0.0450  0.6965
 3467SOL    HW121863   0.780   0.912   6.983  3.3892  1.4065 -2.2456
 3467SOL    HW221864   0.817   0.807   6.887  1.4971 -1.0367  0.8850
 3468SOL     OW21865   2.138   2.849   9.057  1.0012 -0.0184 -0.1784
 3468SOL    HW121866   2.146   2.805   9.142 -1.1956 -0.3367 -0.1522
 3468SOL    HW221867   2.136   2.773   8.999  1.6840 -0.4028  0.3010
 3469SOL     OW21868   3.008   0.752  11.041  0.6914  0.0782  0.2788
 3469SOL    HW121869   3.053   0.706  11.112 -2.4952 -1.2560  1.4342
 3469SOL    HW221870   2.979   0.836  11.077  0.3014  1.1928 -2.5833
 3470SOL     OW21871   3.196   3.547  10.449  0.5042  0.3032  0.5319
 3470SOL    HW121872   3.287   3.570  10.466  1.3621 -1.4182 -1.7682
 3470SOL    HW221873   3.172   3.459  10.477 -0.2397  0.0724 -0.7973
 3471SOL     OW21874   0.491   2.246  13.939 -0.2167  0.2350 -0.3427
 3471SOL    HW121875   0.454   2.307  14.004 -0.5171  0.8381 -1.0832
 3471SOL    HW221876   0.459   2.166  13.981 -0.7377  1.1209  0.9673
 3472SOL     OW21877   4.142   0.774   7.704  0.2841  0.1086  0.2989
 3472SOL    HW121878   4.194   0.739   7.776 -1.7232 -0.7767  1.3128
 3472SOL    HW221879   4.056   0.756   7.743 -1.2425 -0.2987 -3.2860
 3473SOL     OW21880   0.171   2.043   2.299 -0.3902  0.3937 -0.1764
 3473SOL    HW121881   0.137   1.979   2.362  0.0255 -1.2457 -1.6169
 3473SOL    HW221882   0.148   2.004   2.214 -0.1505 -2.7274  1.1847
 3474SOL     OW21883   0.836   0.126   5.248  0.3635 -0.0819  0.0058
 3474SOL    HW121884   0.839   0.056   5.182  0.8548 -0.1948  0.1515
 3474SOL    HW221885   0.750   0.107   5.287 -0.5206 -0.0273 -1.9349
 3475SOL     OW21886   2.936   3.577   5.125 -0.4606  0.2217  0.3137
 3475SOL    HW121887   2.914   3.499   5.075  1.3534 -1.3994  2.0163
 3475SOL    HW221888   2.891   3.557   5.207  2.0287 -0.8009  1.4283
 3476SOL     OW21889   1.905   4.659  16.589 -0.7331  0.3305  0.2602
 3476SOL    HW121890   1.900   4.696  16.677 -0.8121 -0.0422  0.4100
 3476SOL    HW221891   1.916   0.018  16.535 -2.0951  1.2152  1.2687
 3477SOL     OW21892   0.483   3.264   6.078  0.8715  0.1216  0.5764
 3477SOL    HW121893   0.446   3.347   6.048 -1.1170 -0.6139  0.9884
 3477SOL    HW221894   0.552   3.300   6.134 -0.4199  1.9099  1.0378
 3478SOL     OW21895   1.879   1.888   5.926  0.0811  0.0799  0.4764
 3478SOL    HW121896   1.799   1.840   5.909 -0.4235  0.5937  1.4178
 3478SOL    HW221897   1.941   1.841   5.870  0.2813  3.6516 -2.3028
 3479SOL     OW21898   1.199   2.693   8.021 -0.5134  0.4694 -0.4528
 3479SOL    HW121899   1.234   2.774   8.058  3.5825 -1.3047 -0.3997
 3479SOL    HW221900   1.174   2.637   8.095 -1.4293  1.0493 -0.3194
 3480SOL     OW21901   3.337   2.368   6.642  0.7542  0.1957  0.3265
 3480SOL    HW121902   3.247   2.334   6.643  0.9215 -0.1721  4.0500
 3480SOL    HW221903   3.366   2.313   6.715  0.8633  1.8615  1.5393
 3481SOL     OW21904   1.887   3.811   2.398  0.3541 -0.0799 -0.4485
 3481SOL    HW121905   1.801   3.848   2.377  0.3815  0.1220 -0.2061
 3481SOL    HW221906   1.957   3.874   2.380 -1.2263  1.7322 -0.2373
 3482SOL     OW21907   2.837   2.622   7.062 -0.6004 -0.2005 -0.3348
 3482SOL    HW121908   2.814   2.713   7.076  2.0687  0.3790  0.2387
 3482SOL    HW221909   2.803   2.580   7.141  0.1834 -1.2093 -0.5240
 3483SOL     OW21910   4.230   3.582   3.735 -0.6624  0.1669  0.1647
 3483SOL    HW121911   4.177   3.504   3.720  0.6107 -1.1498  2.5869
 3483SOL    HW221912   4.276   3.548   3.811  1.7700  0.3630 -1.2258
 3484SOL     OW21913   0.615   0.427  11.514 -0.2427  0.1434 -0.2834
 3484SOL    HW121914   0.567   0.475  11.581  0.0797 -0.1930  0.1812
 3484SOL    HW221915   0.587   0.340  11.540 -1.9874  0.5253 -0.8583
 3485SOL     OW21916   0.261   2.105  10.935  0.4012 -0.3366  0.5108
 3485SOL    HW121917   0.205   2.089  10.860 -0.3359  1.6594  0.6309
 3485SOL    HW221918   0.233   2.193  10.959  1.1127 -0.4107  1.6359
 3486SOL     OW21919   2.471   2.100   8.519  0.0774 -0.0467 -0.0619
 3486SOL    HW121920   2.413   2.154   8.572  0.2110 -0.7726  0.8097
 3486SOL    HW221921   2.510   2.174   8.471 -1.0605 -1.1384 -2.6944
 3487SOL     OW21922   4.259   1.602   3.959  0.1621 -0.1302  0.3286
 3487SOL    HW121923   4.275   1.611   3.865 -3.4338  0.9442 -0.1833
 3487SOL    HW221924   4.164   1.604   3.957  0.1836  0.2819 -0.3228
 3488SOL     OW21925   4.232   3.796   7.349 -0.5525 -0.3647 -0.1452
 3488SOL    HW121926   4.240   3.891   7.361  2.2983 -0.5403 -0.7357
 3488SOL    HW221927   4.252   3.757   7.434 -2.9018 -0.6396  0.2855
 3489SOL     OW21928   3.046   0.715   6.447 -0.4970  0.2102  0.3944
 3489SOL    HW121929   3.081   0.626   6.443  1.6756  1.0613  0.6231
 3489SOL    HW221930   3.091   0.736   6.529  0.9519  1.7216 -0.7796
 3490SOL     OW21931   4.696   3.102   3.194  0.3492  0.2748  0.3082
 3490SOL    HW121932   4.606   3.076   3.173 -0.8220  3.3647  1.5144
 3490SOL    HW221933   0.005   3.032   3.253  1.9596  0.0793 -0.6874
 3491SOL     OW21934   2.771   3.872   5.233  0.1220  0.2901 -0.0937
 3491SOL    HW121935   2.787   3.810   5.162 -1.2988 -0.0493 -0.1188
 3491SOL    HW221936   2.702   3.827   5.281 -0.4532  0.4124 -0.8101
 3492SOL     OW21937   3.444   0.471  11.514  0.3529 -0.3768  0.2132
 3492SOL    HW121938   3.393   0.398  11.551 -2.4930  1.3382 -0.3034
 3492SOL    HW221939   3.490   0.499  11.593 -1.0436 -0.1230  0.9441
 3493SOL     OW21940   3.501   1.014   2.675  0.3361  0.0537 -0.2089
 3493SOL    HW121941   3.585   0.988   2.712  0.5673  1.3029  0.1304
 3493SOL    HW221942   3.474   0.941   2.618 -0.6758 -0.2221  0.6226
 3494SOL     OW21943   0.906   4.459   8.311  0.4087  0.0121  0.4267
 3494SOL    HW121944   0.860   4.503   8.383  0.5852  0.6136  0.1730
 3494SOL    HW221945   0.914   4.371   8.347  2.8258 -0.1502 -0.5022
 3495SOL     OW21946   1.537   1.876   4.976  0.7489 -0.2530 -0.1001
 3495SOL    HW121947   1.549   1.950   5.036  0.7237 -0.4976  0.2103
 3495SOL    HW221948   1.617   1.826   4.993 -0.1055 -0.8214  2.2590
 3496SOL     OW21949   2.311   2.231   8.735  0.2457 -0.2771 -0.1806
 3496SOL    HW121950   2.367   2.258   8.807  0.1245 -0.2608 -0.0935
 3496SOL    HW221951   2.308   2.135   8.730 -1.4138 -0.2677  0.5299
 3497SOL     OW21952   3.260   1.416  10.481  0.3098  0.0766  0.4073
 3497SOL    HW121953   3.250   1.440  10.574 -2.5640 -3.5143  1.0349
 3497SOL    HW221954   3.355   1.408  10.472  0.1071 -1.9919  0.1105
 3498SOL     OW21955   0.772   3.541  11.840  0.2056 -0.0330  0.0375
 3498SOL    HW121956   0.834   3.471  11.860 -0.1207 -0.6747 -1.1713
 3498SOL    HW221957   0.735   3.557  11.928  0.1098  1.2584 -0.2452
 3499SOL     OW21958   2.115   1.149   5.996  0.3524  0.4373 -0.2160
 3499SOL    HW121959   2.201   1.108   6.003 -0.0582  0.0070  2.1970
 3499SOL    HW221960   2.054   1.095   6.046  1.3567  0.2999  0.8680
 3500SOL     OW21961   1.761   4.295   9.357 -0.0249 -0.0880 -0.0459
 3500SOL    HW121962   1.735   4.380   9.391 -1.8814 -0.8704  0.4773
 3500SOL    HW221963   1.839   4.289   9.413  1.2070  1.0801 -1.6322
 3501SOL     OW21964   1.609   2.352  17.163  0.1373 -0.3795  0.3551
 3501SOL    HW121965   1.632   2.381  17.251  0.9390 -1.3105  0.4512
 3501SOL    HW221966   1.568   2.429  17.124  0.3136  0.6468  2.1896
 3502SOL     OW21967   4.170   3.443   8.467 -0.2998  0.3001 -0.2138
 3502SOL    HW121968   4.179   3.357   8.427 -2.8663  0.6189 -1.5283
 3502SOL    HW221969   4.078   3.461   8.447 -0.5140 -1.2059 -0.5087
 3503SOL     OW21970   4.527   3.593   5.698  0.1900 -0.6273  0.1873
 3503SOL    HW121971   4.572   3.675   5.676 -1.3859 -0.0220 -0.7570
 3503SOL    HW221972   4.526   3.594   5.793 -1.2219 -0.9874  0.1731
 3504SOL     OW21973   3.273   4.559   2.215 -0.0751  0.1566  0.4470
 3504SOL    HW121974   3.367   4.564   2.197 -0.2217  2.3571  0.2738
 3504SOL    HW221975   3.272   4.569   2.310  2.6143 -0.2860  0.5227
 3505SOL     OW21976   0.597   0.136   5.970 -0.2611 -0.0264  0.0877
 3505SOL    HW121977   0.597   0.201   5.900  2.5006  0.5800  0.6542
 3505SOL    HW221978   0.510   0.155   6.006 -1.2135 -0.3255 -2.0731
 3506SOL     OW21979   2.472   1.155   5.729  0.4214  0.4466  0.4662
 3506SOL    HW121980   2.422   1.083   5.766 -1.4780  2.9710  2.8077
 3506SOL    HW221981   2.429   1.232   5.767  0.6710  0.8540 -0.0765
 3507SOL     OW21982   2.460   4.370   1.029  0.5442 -0.2206  0.4122
 3507SOL    HW121983   2.448   4.307   1.101 -2.8085 -1.0758 -0.9261
 3507SOL    HW221984   2.386   4.423   1.059 -0.3227 -0.2296 -1.7335
 3508SOL     OW21985   2.044   3.713  10.315  0.3222 -0.5677 -0.1574
 3508SOL    HW121986   2.098   3.669  10.382  1.5095 -0.2083 -0.8779
 3508SOL    HW221987   2.117   3.727  10.255  0.3463  0.0079  0.0047
 3509SOL     OW21988   3.208   0.755   2.345  0.1076 -0.2742  0.3035
 3509SOL    HW121989   3.121   0.769   2.306 -0.8950 -1.5737  2.0711
 3509SOL    HW221990   3.258   0.808   2.283  1.1566 -1.3402  0.2456
 3510SOL     OW21991   2.196   2.680   4.325  0.3514 -0.0253 -0.1807
 3510SOL    HW121992   2.192   2.594   4.366  0.3342  0.1997  0.3003
 3510SOL    HW221993   2.283   2.716   4.341  1.1708 -1.2450 -1.9265
 3511SOL     OW21994   1.287   2.579  13.302  0.1622 -0.8141  0.7818
 3511SOL    HW121995   1.195   2.568  13.328 -0.8405 -1.4306 -3.0212
 3511SOL    HW221996   1.277   2.562  13.208 -3.7072 -0.3331  1.1124
 3512SOL     OW21997   0.422   1.768   8.839  0.1396  0.1785 -0.3610
 3512SOL    HW121998   0.391   1.723   8.917 -0.3285  1.7174  0.3320
 3512SOL    HW221999   0.449   1.691   8.788  0.8584 -0.1099  0.4481
 3513SOL     OW22000   1.792   1.970  12.474  0.2212  0.0170 -0.1449
 3513SOL    HW122001   1.711   1.924  12.495 -0.3426  0.1892 -1.8824
 3513SOL    HW222002   1.854   1.897  12.464  1.2804  0.6408  1.9169
 3514SOL     OW22003   2.630   3.236   8.300 -0.0579  0.2271  0.3461
 3514SOL    HW122004   2.689   3.310   8.310 -0.5446  0.8543 -1.5661
 3514SOL    HW222005   2.690   3.162   8.311 -0.1061  0.2058  0.4762
 3515SOL     OW22006   1.697   3.577   3.628  0.6318 -0.5353 -0.5767
 3515SOL    HW122007   1.771   3.616   3.581  2.4207  0.7740  3.2796
 3515SOL    HW222008   1.680   3.649   3.690 -2.1454 -0.7975 -1.0347
 3516SOL     OW22009   4.593   0.049   7.455 -0.0852  0.1256 -0.1761
 3516SOL    HW122010   4.520   0.012   7.406 -0.6421  0.0551  0.7071
 3516SOL    HW222011   4.663   0.061   7.391  0.8686 -1.3157  0.6047
 3517SOL     OW22012   4.190   3.470   8.891  0.5788 -0.3719  0.1264
 3517SOL    HW122013   4.218   3.536   8.954 -1.4702  1.2033 -0.6020
 3517SOL    HW222014   4.269   3.461   8.838 -0.0233  1.1693 -1.0262
 3518SOL     OW22015   0.106   0.967   2.797 -0.5476 -0.6782 -0.2637
 3518SOL    HW122016   0.051   0.986   2.721 -1.3832 -0.6042  0.3577
 3518SOL    HW222017   0.049   0.937   2.867  0.1034 -1.9204 -0.2760
 3519SOL     OW22018   2.169   3.597  10.843  0.4675 -0.0453  0.1064
 3519SOL    HW122019   2.203   3.683  10.869 -3.5010  2.2406 -2.2997
 3519SOL    HW222020   2.228   3.584  10.769  0.3927 -1.4679  0.3109
 3520SOL     OW22021   3.182   3.282   5.277 -0.2280 -0.2203 -0.2011
 3520SOL    HW122022   3.119   3.285   5.205 -1.2520  3.2201  0.8641
 3520SOL    HW222023   3.130   3.249   5.350 -1.5924 -0.9892 -1.5025
 3521SOL     OW22024   3.831   2.561  14.699  0.4405  0.2960 -0.4572
 3521SOL    HW122025   3.847   2.598  14.613 -0.3899  0.2391 -0.6314
 3521SOL    HW222026   3.805   2.474  14.669  0.2714  0.0533  0.3915
 3522SOL     OW22027   2.564   2.821   9.072  0.5886  0.3204  0.2796
 3522SOL    HW122028   2.501   2.809   9.001  2.1942  1.1647 -1.2986
 3522SOL    HW222029   2.558   2.741   9.124 -2.6121  0.6665  0.4238
 3523SOL     OW22030   1.103   2.542  14.230  0.1393  0.3182 -0.4240
 3523SOL    HW122031   1.186   2.528  14.276  1.4121  2.2709 -2.1108
 3523SOL    HW222032   1.045   2.476  14.269  0.1376  0.6316  0.1121
 3524SOL     OW22033   4.639   1.442  15.718 -0.3649 -0.2546  0.8296
 3524SOL    HW122034   4.649   1.537  15.712 -1.8539 -0.1306  0.3650
 3524SOL    HW222035   4.550   1.437  15.685  0.2651 -0.6815 -0.8084
 3525SOL     OW22036   3.759   1.863   4.680  0.0041  0.4947  0.4684
 3525SOL    HW122037   3.723   1.779   4.707 -0.5560  1.1202  1.6692
 3525SOL    HW222038   3.801   1.845   4.595 -0.2424 -1.0344  0.6746
 3526SOL     OW22039   1.072   3.796   4.995  0.1175  0.5193 -0.0168
 3526SOL    HW122040   1.040   3.737   4.926  0.4218 -1.3288  1.4297
 3526SOL    HW222041   1.124   3.862   4.950  0.5578  1.8005  2.3876
 3527SOL     OW22042   1.806   2.886   3.628  0.5245  0.5775  0.0832
 3527SOL    HW122043   1.730   2.829   3.641  1.1178 -0.2680 -0.1044
 3527SOL    HW222044   1.850   2.841   3.556 -1.3655  0.4664 -0.9955
 3528SOL     OW22045   2.434   1.414   5.135 -0.2836  0.1893  0.1858
 3528SOL    HW122046   2.517   1.438   5.177  0.7825 -1.5135 -0.9678
 3528SOL    HW222047   2.445   1.320   5.119 -0.4646 -0.0487  1.4560
 3529SOL     OW22048   1.577   2.084  13.061 -0.3195  0.3960 -0.0117
 3529SOL    HW122049   1.668   2.058  13.061  0.2078  2.2134  1.0876
 3529SOL    HW222050   1.542   2.058  12.976  1.4529 -1.0446 -0.2855
 3530SOL     OW22051   4.612   0.811   5.318 -0.3661  0.2633 -0.3555
 3530SOL    HW122052   4.530   0.859   5.330 -0.1602  0.4145  0.4242
 3530SOL    HW222053   4.629   0.832   5.226 -0.6441 -0.1399 -0.5014
 3531SOL     OW22054   4.574   4.666   4.077  0.1429 -0.0804 -0.3519
 3531SOL    HW122055   4.581   4.627   4.164  0.0306 -2.7142 -1.5259
 3531SOL    HW222056   4.547   4.587   4.030 -2.0112 -0.7103  1.9534
 3532SOL     OW22057   1.415   3.838   5.858  0.0109  0.0303  0.0199
 3532SOL    HW122058   1.373   3.865   5.776 -2.2011 -2.0790  0.4667
 3532SOL    HW222059   1.397   3.905   5.924  1.6512 -0.9191  1.4267
 3533SOL     OW22060   3.230   3.477   9.730  0.0146 -0.0683  0.2551
 3533SOL    HW122061   3.316   3.473   9.772 -0.0443 -0.7280  0.3104
 3533SOL    HW222062   3.225   3.398   9.677 -1.9512 -1.1286  1.9808
 3534SOL     OW22063   0.294   1.779   6.017  0.3174  0.6232 -0.0797
 3534SOL    HW122064   0.296   1.796   6.112  0.6738 -0.5060  0.1127
 3534SOL    HW222065   0.319   1.866   5.987  0.2632  0.6440 -0.0653
 3535SOL     OW22066   1.611   4.157   2.319  0.0914 -0.2884  0.3103
 3535SOL    HW122067   1.544   4.090   2.323 -1.5186  1.3219  0.4042
 3535SOL    HW222068   1.614   4.186   2.410 -0.6346 -1.7146  0.7825
 3536SOL     OW22069   1.006   0.945  10.650  0.0212  0.2690  0.0750
 3536SOL    HW122070   1.101   0.940  10.659 -0.2851 -1.3859  2.2391
 3536SOL    HW222071   0.978   0.960  10.740 -0.2264 -1.8534  0.3598
 3537SOL     OW22072   0.026   3.342  15.624 -0.2863  0.8605  0.1501
 3537SOL    HW122073   0.084   3.408  15.663 -1.4646  0.9872  1.7079
 3537SOL    HW222074   0.081   3.306  15.556 -1.1543  0.0178 -0.1088
 3538SOL     OW22075   0.308   2.075   5.624 -0.6023 -0.1482 -0.0761
 3538SOL    HW122076   0.299   2.001   5.564  2.2117 -0.0460 -0.6341
 3538SOL    HW222077   0.216   2.101   5.633 -0.3939  0.5948 -0.0377
 3539SOL     OW22078   3.383   3.046   2.493 -0.2876 -0.0194  0.2814
 3539SOL    HW122079   3.425   2.974   2.540 -1.0279 -0.4861  0.2172
 3539SOL    HW222080   3.321   3.004   2.435  0.0853 -0.1176 -0.0485
 3540SOL     OW22081   0.166   1.329   2.894  0.2335  0.4597  0.0332
 3540SOL    HW122082   0.228   1.402   2.886 -0.1299  0.8660  0.8516
 3540SOL    HW222083   0.103   1.368   2.956  2.9009  1.3457  2.2085
 3541SOL     OW22084   1.511   4.344   3.556 -0.5890  0.7778  0.0541
 3541SOL    HW122085   1.446   4.372   3.620 -2.5139  0.8985 -1.9525
 3541SOL    HW222086   1.580   4.399   3.592 -0.6008  0.9780 -0.2309
 3542SOL     OW22087   4.705   1.620   0.604  0.0129 -0.0031  0.3444
 3542SOL    HW122088   0.032   1.681   0.661  1.5153 -1.1504  0.3493
 3542SOL    HW222089   0.062   1.572   0.572  1.5699  1.2309  2.2207
 3543SOL     OW22090   1.278   0.900   8.463 -0.3664  0.1003  0.0980
 3543SOL    HW122091   1.213   0.855   8.516 -1.0528 -0.8844 -1.5839
 3543SOL    HW222092   1.269   0.988   8.500  1.2461  1.0079 -1.6229
 3544SOL     OW22093   2.539   0.816   2.489 -0.0283  0.2324 -0.0917
 3544SOL    HW122094   2.497   0.859   2.563 -0.4781  0.6096 -0.5585
 3544SOL    HW222095   2.538   0.729   2.530  2.9575  1.2810  2.1854
 3545SOL     OW22096   3.588   1.185   5.738  0.0689 -0.1449  0.2185
 3545SOL    HW122097   3.568   1.268   5.782 -0.8739 -0.2613  0.0047
 3545SOL    HW222098   3.503   1.143   5.726 -1.0185  1.4946  2.3443
 3546SOL     OW22099   0.913   0.556   9.311 -0.1942 -0.3506  0.0069
 3546SOL    HW122100   0.964   0.482   9.344  1.1843  0.3850 -0.4617
 3546SOL    HW222101   0.961   0.616   9.368  1.3063 -2.7106  1.2041
 3547SOL     OW22102   3.656   0.297  15.093  0.0351  0.0293  0.0494
 3547SOL    HW122103   3.636   0.315  15.001 -2.1631  1.7718  0.8706
 3547SOL    HW222104   3.708   0.218  15.082  0.1482  0.2409 -0.9310
 3548SOL     OW22105   4.669   2.881  12.427  0.2430 -0.3290 -0.3276
 3548SOL    HW122106   0.008   2.948  12.463  0.3633 -0.1916 -0.7714
 3548SOL    HW222107   4.659   2.814  12.494 -1.4184  0.9488  0.7071
 3549SOL     OW22108   1.633   0.442   4.789 -0.4286  0.1371  0.0050
 3549SOL    HW122109   1.581   0.520   4.806 -1.3398 -0.5340  0.2803
 3549SOL    HW222110   1.636   0.440   4.694 -1.0363 -0.5233 -0.0018
 3550SOL     OW22111   4.372   2.423   9.854  0.0795  0.1838 -0.0016
 3550SOL    HW122112   4.371   2.414   9.949  0.5028  0.0795 -0.0104
 3550SOL    HW222113   4.380   2.518   9.845 -0.8474  0.3758  1.2063
 3551SOL     OW22114   4.301   2.664  12.280 -0.2313  0.1516 -0.6507
 3551SOL    HW122115   4.254   2.602  12.225 -1.5227  0.9712 -0.4836
 3551SOL    HW222116   4.238   2.697  12.345  0.2599 -2.3698  1.1155
 3552SOL     OW22117   4.331   3.098  13.738  0.1804 -0.0319 -0.2663
 3552SOL    HW122118   4.395   3.111  13.807 -2.9985 -1.7570  3.0319
 3552SOL    HW222119   4.315   3.003  13.740 -2.1724  0.3554 -0.1529
 3553SOL     OW22120   3.478   0.559   8.042  0.2991 -0.2946  0.4919
 3553SOL    HW122121   3.433   0.491   7.992  1.8362  0.0167 -1.2848
 3553SOL    HW222122   3.571   0.539   8.047  0.4095 -0.3064 -1.7532
 3554SOL     OW22123   2.026   4.650  14.352  0.4904 -0.3541 -0.2549
 3554SOL    HW122124   1.970   4.582  14.315 -2.6715  0.8511  2.3636
 3554SOL    HW222125   1.969   4.707  14.403  0.5394 -1.8515  1.4654
 3555SOL     OW22126   1.548   0.735   5.318  0.1961 -0.2877  0.5379
 3555SOL    HW122127   1.480   0.690   5.368  0.0933 -0.1672  0.5076
 3555SOL    HW222128   1.502   0.775   5.244  0.6794  1.9610  1.4583
 3556SOL     OW22129   0.128   2.277   3.320 -0.1234  0.3910 -0.0893
 3556SOL    HW122130   0.119   2.190   3.359  0.3963 -0.1734 -1.2233
 3556SOL    HW222131   0.043   2.278   3.276 -0.8251 -1.8634  1.2212
 3557SOL     OW22132   1.068   2.433   2.415  0.1963 -0.4299 -0.1063
 3557SOL    HW122133   1.064   2.501   2.347  0.8284  0.0111  0.2928
 3557SOL    HW222134   1.015   2.364   2.377  0.9404 -1.4716  0.7505
 3558SOL     OW22135   2.574   3.943   8.731 -0.7009  0.2577  0.0923
 3558SOL    HW122136   2.510   3.930   8.661 -1.0491  1.3658  0.2046
 3558SOL    HW222137   2.603   4.033   8.718  1.2605 -0.2335  1.0003
 3559SOL     OW22138   0.839   0.665   4.419  0.0460  0.1033  0.0875
 3559SOL    HW122139   0.753   0.707   4.418  0.0120  0.0269 -0.3153
 3559SOL    HW222140   0.834   0.636   4.511  1.5204  0.6321  0.3320
 3560SOL     OW22141   3.189   0.407   6.823 -0.4519 -0.1615 -0.1677
 3560SOL    HW122142   3.241   0.451   6.890 -1.2062  1.0217 -0.3667
 3560SOL    HW222143   3.258   0.389   6.760 -1.1595 -0.6566 -0.8012
 3561SOL     OW22144   1.454   3.683   7.609  0.0669 -0.0641  0.1524
 3561SOL    HW122145   1.425   3.592   7.608  0.0335 -0.0594  0.9658
 3561SOL    HW222146   1.548   3.664   7.604  0.4186  1.5303  0.5367
 3562SOL     OW22147   3.896   3.180   0.989  0.8578  0.2164  0.1126
 3562SOL    HW122148   3.983   3.166   1.027  0.7940  0.4728  0.3538
 3562SOL    HW222149   3.908   3.250   0.924  2.4077 -0.1270  0.0257
 3563SOL     OW22150   2.418   2.982   2.977 -0.0314 -0.2309  0.4921
 3563SOL    HW122151   2.404   3.057   2.920 -0.2317 -0.6973 -0.0690
 3563SOL    HW222152   2.493   2.933   2.942 -1.4196 -1.3923 -0.8546
 3564SOL     OW22153   1.866   1.768  15.854  1.2557 -0.4289 -0.0855
 3564SOL    HW122154   1.830   1.845  15.811 -0.0133 -0.4932  0.8556
 3564SOL    HW222155   1.956   1.788  15.881  0.5501  1.5398  0.7295
 3565SOL     OW22156   1.081   3.331   9.263 -0.9184  0.0638 -0.3757
 3565SOL    HW122157   1.128   3.327   9.346 -1.8676  0.6723  0.1861
 3565SOL    HW222158   1.063   3.238   9.253  2.9788 -0.6042 -1.3594
 3566SOL     OW22159   1.508   4.135   4.629  0.5748  0.1820  0.4239
 3566SOL    HW122160   1.523   4.041   4.626  0.6556  0.2741 -1.5279
 3566SOL    HW222161   1.600   4.159   4.638  0.8613 -0.3077 -1.1847
 3567SOL     OW22162   1.785   3.048   7.524  0.1623  0.6178 -0.1568
 3567SOL    HW122163   1.815   2.994   7.451 -0.3313  0.0470  0.0677
 3567SOL    HW222164   1.796   2.979   7.589 -0.6740  0.7539  0.1295
 3568SOL     OW22165   1.272   0.958   3.577 -0.1427  0.3397 -0.1462
 3568SOL    HW122166   1.345   1.007   3.538  0.7909 -0.3102  0.7913
 3568SOL    HW222167   1.314   0.948   3.662 -0.2967  3.2056  0.2521
 3569SOL     OW22168   2.158   3.495   9.777 -0.0780  0.2782  0.6177
 3569SOL    HW122169   2.100   3.439   9.829  0.9018 -1.3217 -0.0263
 3569SOL    HW222170   2.114   3.492   9.692  0.5147 -0.2264  0.3280
 3570SOL     OW22171   3.480   1.802   2.051 -0.7061  0.2856 -0.4583
 3570SOL    HW122172   3.415   1.857   2.095  0.2026  0.1371  1.0700
 3570SOL    HW222173   3.543   1.777   2.119  1.1712  1.4989 -1.7575
 3571SOL     OW22174   4.261   1.261  16.204 -0.0838  0.0997  0.0188
 3571SOL    HW122175   4.238   1.344  16.245 -0.2337 -1.2250  2.6281
 3571SOL    HW222176   4.199   1.203  16.248  0.7961 -0.8385  0.0355
 3572SOL     OW22177   0.145   4.272   8.811  0.4021  0.3119  0.1518
 3572SOL    HW122178   0.196   4.245   8.735  0.1947 -0.5453  0.3119
 3572SOL    HW222179   0.182   4.359   8.825 -0.5866  0.9630 -1.3518
 3573SOL     OW22180   0.645   0.474  17.371 -0.1929 -0.2305 -0.0948
 3573SOL    HW122181   0.692   0.550  17.336 -0.7765  1.1189  2.0569
 3573SOL    HW222182   0.684   0.398  17.328  1.7329  1.2402 -0.9303
 3574SOL     OW22183   0.855   1.838   9.406 -0.1082  0.3690  0.0531
 3574SOL    HW122184   0.929   1.777   9.404  1.0364  1.7437  0.2917
 3574SOL    HW222185   0.797   1.796   9.344  0.9545 -0.9856 -0.0189
 3575SOL     OW22186   4.192   1.519   6.864  0.0483  0.0897 -0.0352
 3575SOL    HW122187   4.273   1.490   6.822 -1.5993  0.6274 -3.6149
 3575SOL    HW222188   4.206   1.614   6.864  0.0376  0.0895  0.8122
 3576SOL     OW22189   2.423   3.597   4.626  0.4508  0.2919  0.1327
 3576SOL    HW122190   2.468   3.547   4.558 -1.8346  0.3326 -1.3722
 3576SOL    HW222191   2.467   3.573   4.708  0.1260 -1.5325 -0.2246
 3577SOL     OW22192   0.823   3.565  13.584  0.2445  0.1490 -0.3835
 3577SOL    HW122193   0.756   3.496  13.591  1.2337 -0.8212 -0.4777
 3577SOL    HW222194   0.841   3.585  13.676 -1.6336 -1.2814  0.2971
 3578SOL     OW22195   3.521   2.207  10.333 -0.0031  0.5933 -0.3037
 3578SOL    HW122196   3.469   2.282  10.360  0.8627  0.4587  1.8007
 3578SOL    HW222197   3.446   2.157  10.301 -0.1589  1.5475 -1.4382
 3579SOL     OW22198   4.422   0.957   5.898  0.6993  0.2295  0.0802
 3579SOL    HW122199   4.338   0.920   5.869  1.3471 -1.4935  0.4365
 3579SOL    HW222200   4.387   1.041   5.929  4.7020  1.8568  0.2709
 3580SOL     OW22201   3.614   1.940   3.439 -0.1465 -0.1793 -0.3538
 3580SOL    HW122202   3.628   2.022   3.391 -1.5650  0.0061 -0.4454
 3580SOL    HW222203   3.665   1.882   3.383 -0.9748 -0.8105 -0.4475
 3581SOL     OW22204   3.235   3.782   8.717 -0.2960  0.2118  0.4456
 3581SOL    HW122205   3.293   3.778   8.793 -0.6933  1.4595  0.8132
 3581SOL    HW222206   3.302   3.766   8.650 -1.8679  1.8345 -1.5310
 3582SOL     OW22207   4.661   4.534   3.125  0.0511  0.3355  0.4499
 3582SOL    HW122208   4.649   4.447   3.089  0.3775  0.4539  0.0623
 3582SOL    HW222209   0.036   4.545   3.136 -0.1025  2.9551 -0.8161
 3583SOL     OW22210   0.607   2.226   5.811 -0.2702  0.6933  0.3287
 3583SOL    HW122211   0.541   2.295   5.810  1.9328  2.7792 -1.0448
 3583SOL    HW222212   0.679   2.280   5.779 -1.5320  1.2702 -1.5204
 3584SOL     OW22213   4.279   1.598   0.983 -0.0808  0.2380 -0.0278
 3584SOL    HW122214   4.370   1.605   0.954 -0.0221  0.2783  0.1642
 3584SOL    HW222215   4.236   1.568   0.903 -2.0013  0.3465  0.9545
 3585SOL     OW22216   0.309   3.728   7.739 -0.6739  0.2139  0.3367
 3585SOL    HW122217   0.250   3.771   7.677 -0.4612  1.1883  0.8054
 3585SOL    HW222218   0.391   3.765   7.706 -0.3343 -4.1233 -3.6012
 3586SOL     OW22219   2.930   3.794   9.679 -0.1397 -0.0685  0.3030
 3586SOL    HW122220   2.982   3.715   9.673  0.0432 -0.0321  1.3603
 3586SOL    HW222221   2.859   3.756   9.730 -0.6029 -1.7918 -1.6372
 3587SOL     OW22222   1.846   3.974   4.614  0.1777 -0.1194 -0.1026
 3587SOL    HW122223   1.831   4.061   4.651 -0.8403 -0.1878 -0.3717
 3587SOL    HW222224   1.919   4.004   4.560 -0.9452  1.2015 -0.8782
 3588SOL     OW22225   2.363   3.378   8.577 -0.1327  0.5323 -0.0263
 3588SOL    HW122226   2.430   3.441   8.551  1.4703 -0.9860  0.3964
 3588SOL    HW222227   2.333   3.326   8.503 -2.2899  0.9495  0.5594
 3589SOL     OW22228   1.135   0.479   7.374 -0.5642 -0.1680 -0.0473
 3589SOL    HW122229   1.060   0.448   7.322  0.9421  0.2510 -2.5020
 3589SOL    HW222230   1.162   0.392   7.402  0.2994  0.1217  0.0160
 3590SOL     OW22231   3.242   0.402  11.333 -0.0091  0.7269 -0.1814
 3590SOL    HW122232   3.204   0.484  11.303  0.7237  1.2025  0.1958
 3590SOL    HW222233   3.322   0.437  11.372  0.1248  0.4494 -0.2052
 3591SOL     OW22234   2.263   4.108   1.015 -0.2844 -0.3307 -0.3101
 3591SOL    HW122235   2.348   4.120   0.974 -0.1897 -1.3558 -0.4234
 3591SOL    HW222236   2.249   4.014   1.000  0.6349 -0.2386 -1.6965
 3592SOL     OW22237   1.219   3.391  17.374 -0.1991  0.1273 -0.2931
 3592SOL    HW122238   1.268   3.335  17.434  1.2987 -1.1736 -2.6919
 3592SOL    HW222239   1.228   3.479  17.410  2.0313 -0.7613  1.3354
 3593SOL     OW22240   1.202   4.681   6.751  0.9851 -0.3423  0.1254
 3593SOL    HW122241   1.126   4.712   6.701  0.1690 -1.0033  0.9462
 3593SOL    HW222242   1.249   4.652   6.673 -0.1027  0.3237 -0.7849
 3594SOL     OW22243   3.794   1.703   2.148  0.5548 -0.2347  0.4307
 3594SOL    HW122244   3.845   1.765   2.096  0.5576 -0.2901  0.3667
 3594SOL    HW222245   3.812   1.630   2.088  0.7782 -0.3187  0.6045
 3595SOL     OW22246   0.913   2.014   5.343  0.0090 -0.6172 -0.0554
 3595SOL    HW122247   0.824   2.022   5.377 -0.0169 -1.7424  0.1318
 3595SOL    HW222248   0.928   2.108   5.332  0.3709 -0.5719  0.7968
 3596SOL     OW22249   1.619   2.978   4.181 -0.3162  0.0918 -0.1880
 3596SOL    HW122250   1.682   3.004   4.249 -0.0998  0.1234 -0.4002
 3596SOL    HW222251   1.676   2.940   4.115 -0.4481 -1.1398  0.4118
 3597SOL     OW22252   0.705   4.079  16.345 -0.0871  0.2266  0.0024
 3597SOL    HW122253   0.711   4.156  16.288  1.1777 -1.3158 -1.9316
 3597SOL    HW222254   0.798   4.084  16.365  0.1713  0.6534 -1.2515
 3598SOL     OW22255   1.110   0.806   4.604 -0.0013 -0.5344 -0.1149
 3598SOL    HW122256   1.096   0.810   4.509 -0.5220 -3.4870 -0.1549
 3598SOL    HW222257   1.047   0.863   4.648  1.2002  0.1747  0.6769
 3599SOL     OW22258   2.511   0.975  14.902 -0.0087  0.2639  0.3143
 3599SOL    HW122259   2.515   0.929  14.818  2.1921 -2.1527  1.7576
 3599SOL    HW222260   2.555   1.054  14.871  1.8501 -0.4361  1.1530
 3600SOL     OW22261   3.276   4.426   4.012  0.2292  0.0320  0.0017
 3600SOL    HW122262   3.297   4.446   4.103 -0.2924 -0.4022  0.2136
 3600SOL    HW222263   3.251   4.510   3.973 -2.0528 -2.0162 -2.9622
 3601SOL     OW22264   4.417   4.308  16.090  0.0280 -0.7283 -0.0631
 3601SOL    HW122265   4.377   4.231  16.051  0.4792  0.3100 -2.5335
 3601SOL    HW222266   4.358   4.382  16.081  0.7744 -0.4457 -2.4548
 3602SOL     OW22267   0.083   4.593   6.975  0.2743  0.1618  0.0240
 3602SOL    HW122268   0.092   4.688   6.968 -1.6443  0.5576  3.0027
 3602SOL    HW222269   0.094   4.564   6.885 -2.9662 -3.8883  0.9629
 3603SOL     OW22270   3.622   0.876   5.885 -0.0002  0.1065  0.2738
 3603SOL    HW122271   3.713   0.882   5.857  0.2621 -0.2967  1.0380
 3603SOL    HW222272   3.618   0.950   5.946  0.1852  0.6698 -0.4074
 3604SOL     OW22273   0.480   0.133   2.070  1.0666 -0.0263  0.3832
 3604SOL    HW122274   0.547   0.111   2.006 -0.1932  0.7739 -1.2076
 3604SOL    HW222275   0.537   0.164   2.140  0.4667  2.8526 -0.4071
 3605SOL     OW22276   1.309   1.958   0.664  0.0601  0.2562  0.0344
 3605SOL    HW122277   1.323   1.967   0.758  0.1276 -1.1947  0.1627
 3605SOL    HW222278   1.397   1.934   0.634  1.0386  0.2106  2.9624
 3606SOL     OW22279   0.184   3.474   3.083 -0.6302 -0.0501 -0.1258
 3606SOL    HW122280   0.089   3.485   3.082 -0.5473  0.7323  0.9381
 3606SOL    HW222281   0.197   3.400   3.024  2.1326  0.8564 -0.6707
 3607SOL     OW22282   0.098   1.069   7.920  0.3847 -0.3072  0.5713
 3607SOL    HW122283   0.133   1.121   7.848 -2.7321 -1.2245 -1.6190
 3607SOL    HW222284   0.055   1.002   7.866  3.4719 -0.7984 -1.3020
 3608SOL     OW22285   1.422   0.985   3.803  0.2153  0.0280  0.0045
 3608SOL    HW122286   1.473   1.010   3.880  1.3024 -2.4549  0.0901
 3608SOL    HW222287   1.452   0.894   3.798  0.4296  0.0423  1.1604
 3609SOL     OW22288   1.725   4.608   8.273  0.0282 -0.3819 -0.7139
 3609SOL    HW122289   1.734   4.544   8.344  1.4931 -0.0601 -0.6145
 3609SOL    HW222290   1.728   4.691   8.322  0.5068 -0.5225 -0.5083
 3610SOL     OW22291   2.971   2.313   1.825  0.2038 -0.1723  0.3207
 3610SOL    HW122292   3.007   2.316   1.737  2.9802 -2.9511  1.3481
 3610SOL    HW222293   3.022   2.244   1.868 -0.5037 -0.4687  0.6908
 3611SOL     OW22294   1.589   0.268  11.157  0.3677  0.1589  0.6503
 3611SOL    HW122295   1.628   0.191  11.199  0.0140 -0.4623 -0.1691
 3611SOL    HW222296   1.608   0.241  11.068  1.2110  1.7572  0.3465
 3612SOL     OW22297   3.916   0.422   5.020  0.0926  0.0449 -0.5245
 3612SOL    HW122298   3.948   0.401   5.108  0.2057 -0.3298 -0.6564
 3612SOL    HW222299   3.856   0.348   5.013  1.3357 -0.9406 -0.5752
 3613SOL     OW22300   4.594   3.395   4.445 -0.4898 -0.1290 -0.1984
 3613SOL    HW122301   4.604   3.426   4.355  0.8123  0.2306  0.0672
 3613SOL    HW222302   4.509   3.433   4.465 -1.4967 -2.7252  0.4279
 3614SOL     OW22303   0.964   4.215   3.120 -0.0287  0.0293  0.7242
 3614SOL    HW122304   1.019   4.167   3.182  0.6671  0.2725  0.3051
 3614SOL    HW222305   0.964   4.149   3.051  2.4421 -0.9908  1.6941
 3615SOL     OW22306   1.145   2.289   9.075  0.2512  0.4809 -0.1201
 3615SOL    HW122307   1.068   2.231   9.078  1.1585 -0.6644  0.9932
 3615SOL    HW222308   1.112   2.354   9.013  0.9318  1.7628  0.8697
 3616SOL     OW22309   3.924   4.220  11.352  0.0349 -0.3177 -0.3866
 3616SOL    HW122310   3.890   4.138  11.318  0.2290 -0.2230 -0.8141
 3616SOL    HW222311   3.876   4.227  11.435 -1.5020  1.9846 -1.4784
 3617SOL     OW22312   0.145   4.503  12.917  0.1325  0.8800  0.1110
 3617SOL    HW122313   0.240   4.494  12.913 -0.0569 -1.2218  0.1834
 3617SOL    HW222314   0.137   4.584  12.968  2.2831  0.2110  1.5301
 3618SOL     OW22315   3.443   3.284   4.338  0.4205 -0.0961  0.7159
 3618SOL    HW122316   3.507   3.340   4.294  1.5477 -0.8197  1.4373
 3618SOL    HW222317   3.433   3.214   4.273  0.2002 -1.7775  2.5381
 3619SOL     OW22318   1.249   3.448   2.856  0.1411 -0.0224  0.1432
 3619SOL    HW122319   1.310   3.502   2.806  0.7402  0.0326  0.9244
 3619SOL    HW222320   1.307   3.409   2.921 -1.3302 -0.4849  1.1770
 3620SOL     OW22321   0.808   0.033   7.852 -0.5558  0.2178 -0.3004
 3620SOL    HW122322   0.802   4.697   7.930 -0.2968  1.8615  0.8844
 3620SOL    HW222323   0.847   4.698   7.783  1.3253  0.4630  0.5583
 3621SOL     OW22324   1.596   3.246   7.884 -0.8280 -0.1413 -0.2481
 3621SOL    HW122325   1.521   3.212   7.932 -0.8382 -0.4008 -0.4514
 3621SOL    HW222326   1.568   3.224   7.796 -0.0550 -0.9807 -0.2762
 3622SOL     OW22327   4.400   0.412  17.292  1.0724  0.3639  0.3883
 3622SOL    HW122328   4.393   0.363  17.210 -1.4836  1.1594  0.1384
 3622SOL    HW222329   4.490   0.394  17.318  1.1711  0.9935  0.4819
 3623SOL     OW22330   3.523   4.642  17.441  0.3193  0.0050 -0.0452
 3623SOL    HW122331   3.451   4.683  17.488 -1.0146 -2.8450  0.3994
 3623SOL    HW222332   3.589   4.642  17.510 -1.6649 -3.6163  1.8688
 3624SOL     OW22333   2.408   2.484   9.674  0.3753  0.0900  0.1311
 3624SOL    HW122334   2.330   2.531   9.702 -0.0654 -0.6624  0.1676
 3624SOL    HW222335   2.372   2.402   9.640 -1.7628  1.2730 -0.4450
 3625SOL     OW22336   2.588   2.225   6.638 -0.1537  1.0186  0.1257
 3625SOL    HW122337   2.539   2.281   6.579 -0.5622 -0.5812 -1.0354
 3625SOL    HW222338   2.592   2.142   6.591 -0.3347  0.1735  1.5987
 3626SOL     OW22339   0.444   0.272   6.363 -0.2109  0.4545 -0.4230
 3626SOL    HW122340   0.538   0.254   6.354 -0.4018 -1.3992  1.4214
 3626SOL    HW222341   0.427   0.213   6.436 -1.9684  3.1964  1.4029
 3627SOL     OW22342   1.021   3.251   3.006  0.0559  0.4784 -0.0606
 3627SOL    HW122343   1.055   3.212   3.087 -1.5124  3.6083  2.1040
 3627SOL    HW222344   1.009   3.168   2.961 -0.1114  0.2097  0.4712
 3628SOL     OW22345   2.186   1.076   1.473 -0.3279 -0.0456 -0.5195
 3628SOL    HW122346   2.236   1.063   1.392  1.1305 -1.0524  0.5540
 3628SOL    HW222347   2.181   1.171   1.480 -0.6692 -0.0954 -0.1500
 3629SOL     OW22348   1.205   2.730  13.064  0.8282  0.4720 -0.9446
 3629SOL    HW122349   1.256   2.780  13.000 -0.3243  0.2368 -2.0575
 3629SOL    HW222350   1.220   2.640  13.034 -0.7535  0.2102 -0.9288
 3630SOL     OW22351   0.310   1.242   9.491 -0.5875  0.4535  0.7194
 3630SOL    HW122352   0.242   1.176   9.480  1.1470 -1.3000  0.3706
 3630SOL    HW222353   0.275   1.314   9.439  0.0356  0.0166 -0.2974
 3631SOL     OW22354   4.137   2.231   6.288  0.5782  0.6166  0.3930
 3631SOL    HW122355   4.103   2.297   6.227 -0.7977  0.2562  0.7511
 3631SOL    HW222356   4.132   2.144   6.249 -1.3243  2.5068 -3.5195
 3632SOL     OW22357   0.751   2.283   9.110 -0.0505 -0.1532 -0.1435
 3632SOL    HW122358   0.806   2.210   9.136  0.2485 -0.1142 -0.6596
 3632SOL    HW222359   0.803   2.360   9.136  1.5969 -1.4368  0.3369
 3633SOL     OW22360   2.768   1.879   8.952 -0.4516  0.5107  0.5522
 3633SOL    HW122361   2.700   1.857   8.888  1.4502  0.9710 -1.6491
 3633SOL    HW222362   2.780   1.794   8.995 -0.9292 -0.3895 -1.0764
 3634SOL     OW22363   0.788   3.921   9.217 -0.4564 -0.4402  0.0629
 3634SOL    HW122364   0.700   3.957   9.232  1.4851  2.6415  3.8054
 3634SOL    HW222365   0.761   3.834   9.184  2.3446 -0.7053 -1.5048
 3635SOL     OW22366   3.495   4.359  10.815  0.0170  0.2235 -0.2037
 3635SOL    HW122367   3.463   4.272  10.791  1.7645 -0.9957  1.8671
 3635SOL    HW222368   3.586   4.354  10.788  0.0884 -1.9735  0.3921
 3636SOL     OW22369   3.543   2.102   5.652 -0.0198  0.1340 -0.0827
 3636SOL    HW122370   3.544   2.144   5.565  0.5901  0.6980  0.1900
 3636SOL    HW222371   3.612   2.150   5.698 -1.4257  0.0040  2.1307
 3637SOL     OW22372   1.896   0.347   3.010 -0.3914  0.1962  0.2124
 3637SOL    HW122373   1.832   0.283   2.979  0.5502 -1.3994  1.5710
 3637SOL    HW222374   1.884   0.409   2.938  2.1423  1.2067  0.6445
 3638SOL     OW22375   1.558   4.103  10.463 -0.4525  0.5277  0.6018
 3638SOL    HW122376   1.553   4.017  10.504  0.4032  0.0133 -0.3865
 3638SOL    HW222377   1.495   4.160  10.508  0.3596  1.7177  0.2401
 3639SOL     OW22378   3.594   3.593   5.205 -0.3787 -0.3652  0.2625
 3639SOL    HW122379   3.612   3.618   5.114  0.5481 -0.4812  0.4205
 3639SOL    HW222380   3.507   3.554   5.199 -0.7511  0.8413 -2.2308
 3640SOL     OW22381   4.077   2.473   2.825 -0.1824  0.3114  0.0825
 3640SOL    HW122382   4.147   2.537   2.837  0.0339  0.1884 -0.5410
 3640SOL    HW222383   4.076   2.455   2.731 -0.2143 -0.5683  0.2527
 3641SOL     OW22384   4.692   0.252   6.501  1.3163  0.3824  0.0861
 3641SOL    HW122385   4.612   0.237   6.551  1.1995  0.2551 -0.1438
 3641SOL    HW222386   0.022   0.304   6.565 -1.1700  1.5403  1.0717
 3642SOL     OW22387   1.598   2.096   4.371  0.4482  0.1856  0.4228
 3642SOL    HW122388   1.637   2.171   4.325  0.0936 -0.1150 -0.3651
 3642SOL    HW222389   1.513   2.133   4.398  1.0384  0.8397  1.4035
 3643SOL     OW22390   0.029   4.231  16.280 -0.3857 -0.6228 -0.4313
 3643SOL    HW122391   0.103   4.171  16.280  0.1779  0.0700 -0.6394
 3643SOL    HW222392   0.006   4.240  16.187 -0.1622 -1.5313 -0.5688
 3644SOL     OW22393   1.913   1.876   2.599 -0.3557 -0.4549 -0.2805
 3644SOL    HW122394   1.885   1.967   2.611  1.2950  0.0418 -0.2253
 3644SOL    HW222395   1.879   1.867   2.510 -1.1072  1.0650 -0.1484
 3645SOL     OW22396   3.023   0.371  11.676 -0.5917 -0.4828  0.5862
 3645SOL    HW122397   2.951   0.316  11.706 -1.8456  0.2373 -1.1181
 3645SOL    HW222398   3.064   0.315  11.610 -0.7675  1.3595 -1.0765
 3646SOL     OW22399   4.285   0.975   6.882 -0.1333 -0.2164 -0.5722
 3646SOL    HW122400   4.357   1.019   6.928 -0.0944 -1.4081  0.5027
 3646SOL    HW222401   4.331   0.895   6.857 -2.6787 -1.8715  0.1570
 3647SOL     OW22402   0.456   3.009   0.259  0.4714  0.1794 -0.1593
 3647SOL    HW122403   0.443   3.085   0.316 -0.7378 -1.0243  1.1978
 3647SOL    HW222404   0.546   3.026   0.230  0.3599 -1.7417 -1.6391
 3648SOL     OW22405   3.428   1.852  10.814 -0.3902 -0.1066  0.0608
 3648SOL    HW122406   3.400   1.800  10.739  1.1483 -0.7087 -0.0786
 3648SOL    HW222407   3.509   1.890  10.781 -0.4728  1.5248  1.7034
 3649SOL     OW22408   3.533   3.226  15.339 -0.1377  0.3376 -0.1993
 3649SOL    HW122409   3.464   3.283  15.305 -0.5046  1.0908  1.8037
 3649SOL    HW222410   3.597   3.297  15.351 -1.4749  1.6856 -1.0436
 3650SOL     OW22411   2.533   1.008   2.663 -0.5530 -0.2101  0.0468
 3650SOL    HW122412   2.536   0.994   2.758 -0.8509 -0.1786  0.0637
 3650SOL    HW222413   2.498   1.097   2.657  1.6970  0.9464  3.8763
 3651SOL     OW22414   3.998   2.685   6.322 -0.4216 -0.2022 -0.1324
 3651SOL    HW122415   4.007   2.616   6.388  1.0579  0.1216 -0.0068
 3651SOL    HW222416   4.071   2.741   6.346  0.0496 -0.4289 -1.0181
 3652SOL     OW22417   0.673   3.363   6.275  0.2754  0.6924 -0.5359
 3652SOL    HW122418   0.731   3.437   6.295 -2.7997  2.9258  0.0599
 3652SOL    HW222419   0.707   3.286   6.320 -1.5608 -0.8248 -1.7409
 3653SOL     OW22420   3.170   2.156  17.009 -0.4101 -0.1559  0.2440
 3653SOL    HW122421   3.143   2.089  17.072  0.6522 -1.1088 -0.3090
 3653SOL    HW222422   3.116   2.230  17.037  0.4937 -0.0309  1.6720
 3654SOL     OW22423   2.088   0.753   7.658  0.0553 -0.4708  0.2321
 3654SOL    HW122424   1.999   0.726   7.680 -0.1761  0.2521  0.2004
 3654SOL    HW222425   2.079   0.843   7.626  0.8350  0.0308  1.4453
 3655SOL     OW22426   3.160   3.617   7.666 -0.7508 -0.5814  0.8778
 3655SOL    HW122427   3.136   3.692   7.720 -0.3443  1.6515 -2.0426
 3655SOL    HW222428   3.229   3.581   7.721  0.7291  1.9761  0.6605
 3656SOL     OW22429   2.403   2.629  15.891 -0.3432  0.8092  0.4263
 3656SOL    HW122430   2.433   2.719  15.876  0.6194  0.3721 -0.2930
 3656SOL    HW222431   2.377   2.603  15.803  1.8261 -0.5057  0.1762
 3657SOL     OW22432   0.514   3.830  12.852  0.3632  0.5660  0.1400
 3657SOL    HW122433   0.493   3.871  12.936 -1.9318  0.6714 -0.4686
 3657SOL    HW222434   0.436   3.775  12.841 -0.3918  1.6366  0.1013
 3658SOL     OW22435   2.663   1.617   3.268  0.1620  0.4492 -0.3713
 3658SOL    HW122436   2.719   1.541   3.252 -1.5326 -0.9314  0.2770
 3658SOL    HW222437   2.648   1.639   3.177 -2.3933 -2.5609 -0.6622
 3659SOL     OW22438   3.321   3.566  13.624  0.0103 -0.1937  0.2928
 3659SOL    HW122439   3.280   3.480  13.619 -0.2528 -0.1223  1.1929
 3659SOL    HW222440   3.387   3.554  13.693  0.4669  1.1477  0.0894
 3660SOL     OW22441   0.089   0.374   4.261 -0.2952  0.3276 -0.2096
 3660SOL    HW122442   0.028   0.329   4.202  1.0158 -0.3975 -1.0134
 3660SOL    HW222443   0.037   0.447   4.295  0.1752  0.6338 -0.1438
 3661SOL     OW22444   0.422   1.979   7.827  0.4656 -0.1764  1.0391
 3661SOL    HW122445   0.351   2.043   7.827  0.8034  0.2029  1.2398
 3661SOL    HW222446   0.406   1.917   7.756 -1.5096  1.4170  0.0867
 3662SOL     OW22447   2.517   0.010   4.508  0.2082  0.3269  0.1013
 3662SOL    HW122448   2.455   0.069   4.551 -0.1491  0.9263 -1.2427
 3662SOL    HW222449   2.579   0.002   4.581  1.3597  0.0376 -0.9066
 3663SOL     OW22450   0.995   1.466  16.528  0.1553  0.1646  0.7079
 3663SOL    HW122451   1.028   1.410  16.458  0.0634 -0.1161  0.8841
 3663SOL    HW222452   0.933   1.402  16.564 -0.2047  0.4462  0.5906
 3664SOL     OW22453   2.025   4.405   4.816 -0.1775  0.5935  0.6276
 3664SOL    HW122454   1.952   4.466   4.807 -0.2874  0.5176  0.9922
 3664SOL    HW222455   1.982   4.346   4.877 -1.3515  1.2508  0.4296
 3665SOL     OW22456   3.251   2.172   5.550 -0.1053 -0.5142  1.2241
 3665SOL    HW122457   3.241   2.092   5.498  0.0954  0.1577  0.1559
 3665SOL    HW222458   3.340   2.198   5.528  0.8363 -2.4044  2.8532
 3666SOL     OW22459   1.505   4.628   7.008 -0.0331  0.1565  0.5926
 3666SOL    HW122460   1.456   4.707   6.983 -1.0976 -0.3949  0.9443
 3666SOL    HW222461   1.521   4.630   7.102 -0.6383 -2.6062  0.7563
 3667SOL     OW22462   1.815   0.309   8.022 -0.4623 -0.4541  0.4638
 3667SOL    HW122463   1.837   0.398   8.050  0.6607 -0.5883  0.0187
 3667SOL    HW222464   1.856   0.260   8.093 -2.5405  1.1823  2.7557
 3668SOL     OW22465   3.768   3.455   6.124 -0.3816 -0.0892 -0.1053
 3668SOL    HW122466   3.834   3.490   6.184  0.7057  0.6629 -1.7605
 3668SOL    HW222467   3.789   3.361   6.124 -0.3332 -0.0810  0.7060
 3669SOL     OW22468   3.690   3.519   2.048  0.4899 -0.4226 -0.5625
 3669SOL    HW122469   3.758   3.494   2.110  0.3045  0.0074 -0.1855
 3669SOL    HW222470   3.710   3.602   2.006 -1.0104  1.2148  1.9322
 3670SOL     OW22471   1.950   0.548   5.738 -0.4738  0.6388 -0.3361
 3670SOL    HW122472   1.870   0.597   5.757 -0.2411  1.4506 -1.4165
 3670SOL    HW222473   2.016   0.594   5.790  0.2118  0.6853 -1.2567
 3671SOL     OW22474   2.203   4.502   2.539  0.2158 -0.5652 -0.2090
 3671SOL    HW122475   2.281   4.490   2.484  0.3942  1.3905 -0.3813
 3671SOL    HW222476   2.237   4.572   2.595  0.6178  0.4399 -1.7070
 3672SOL     OW22477   4.605   2.766   9.026  0.4044 -0.0778 -0.3813
 3672SOL    HW122478   4.662   2.705   8.980 -0.6195 -0.5754 -1.0046
 3672SOL    HW222479   4.544   2.708   9.073 -1.2056  0.6060 -1.6198
 3673SOL     OW22480   0.494   1.353   5.109 -0.1336  0.1086  0.3472
 3673SOL    HW122481   0.549   1.423   5.143 -0.9096  0.9622 -0.1424
 3673SOL    HW222482   0.461   1.325   5.194  2.0826  1.4510  1.6524
 3674SOL     OW22483   0.388   1.323   5.855 -0.1112  0.2154 -0.2324
 3674SOL    HW122484   0.478   1.326   5.824  0.6691  0.3106  2.0046
 3674SOL    HW222485   0.385   1.418   5.866  1.2019 -0.0376  2.2860
 3675SOL     OW22486   2.942   3.255   8.108  0.0636 -0.3495 -0.2445
 3675SOL    HW122487   3.031   3.223   8.124 -0.8006 -1.4893  2.2604
 3675SOL    HW222488   2.950   3.345   8.138 -1.4427  0.1099 -1.2353
 3676SOL     OW22489   4.260   2.891   2.965 -0.0495 -0.2778 -0.8946
 3676SOL    HW122490   4.214   2.924   2.889  0.0289 -1.5039 -1.4759
 3676SOL    HW222491   4.183   2.877   3.019  1.0709 -2.6894  0.1229
 3677SOL     OW22492   2.064   4.069   5.693 -0.1818 -0.6380 -0.2843
 3677SOL    HW122493   2.113   4.043   5.771  1.6677 -0.9866 -1.5634
 3677SOL    HW222494   1.985   4.014   5.697 -0.4414 -0.1200  1.4053
 3678SOL     OW22495   0.913   0.556   9.703  0.1630  0.1038 -0.4687
 3678SOL    HW122496   0.829   0.597   9.723 -0.6247 -0.2416 -3.1180
 3678SOL    HW222497   0.895   0.469   9.740 -1.0417  0.8476  0.6782
 3679SOL     OW22498   1.370   1.535   4.899  0.0465 -0.0231  0.0453
 3679SOL    HW122499   1.466   1.536   4.904  0.3081 -0.8142 -4.7360
 3679SOL    HW222500   1.362   1.469   4.831  0.2017 -0.0000  0.0053
 3680SOL     OW22501   2.335   2.216   2.855  0.2215 -0.0695  0.0897
 3680SOL    HW122502   2.280   2.201   2.778  3.0428  2.9903 -2.5103
 3680SOL    HW222503   2.266   2.256   2.909  1.0925  1.8351 -0.1958
 3681SOL     OW22504   4.288   3.466  15.821 -0.5520  0.1246  0.0844
 3681SOL    HW122505   4.276   3.515  15.902 -1.9949 -0.5524  0.2686
 3681SOL    HW222506   4.274   3.376  15.849  1.8681  0.3723  2.0671
 3682SOL     OW22507   0.253   2.460   2.486  0.2396 -0.3415 -0.1396
 3682SOL    HW122508   0.296   2.545   2.480 -1.5452  0.4157 -1.9731
 3682SOL    HW222509   0.251   2.448   2.581 -2.2598  2.4110  0.1701
 3683SOL     OW22510   1.402   3.150   5.203 -0.0084  0.2297 -0.4154
 3683SOL    HW122511   1.329   3.145   5.141 -0.8577  1.1462  0.5156
 3683SOL    HW222512   1.401   3.244   5.219  1.8560 -0.0718  1.5800
 3684SOL     OW22513   4.415   0.101   7.967 -0.1846 -0.5156 -0.3166
 3684SOL    HW122514   4.490   0.126   8.021  1.4985 -4.5167 -0.7444
 3684SOL    HW222515   4.438   0.143   7.884 -0.2500  1.9931  0.9353
 3685SOL     OW22516   3.445   2.287   0.282  0.1154 -0.1143 -0.0816
 3685SOL    HW122517   3.473   2.318   0.368  3.5086 -0.4365 -1.0747
 3685SOL    HW222518   3.533   2.278   0.246 -0.0372  1.3115 -0.8111
 3686SOL     OW22519   2.097   0.904   0.202  0.1300  0.0495 -0.0194
 3686SOL    HW122520   2.076   0.982   0.152 -0.9032  0.8960  1.7450
 3686SOL    HW222521   2.164   0.867   0.144 -1.4595 -0.4890 -1.5028
 3687SOL     OW22522   2.586   0.604   2.707  0.3803 -0.0041 -0.0093
 3687SOL    HW122523   2.555   0.627   2.795  1.2186  3.2006 -0.5404
 3687SOL    HW222524   2.681   0.617   2.711  0.4929 -1.1546  0.8869
 3688SOL     OW22525   0.121   0.023  14.850  0.3472 -0.6460 -0.1036
 3688SOL    HW122526   0.051   0.030  14.915  0.6598  0.4569  0.1214
 3688SOL    HW222527   0.150   4.657  14.881  3.4440  0.3255 -0.3836
 3689SOL     OW22528   0.424   3.384   1.715  0.0912 -0.3782 -0.5336
 3689SOL    HW122529   0.417   3.479   1.701  1.3420 -0.4167 -1.4030
 3689SOL    HW222530   0.475   3.374   1.635  0.6424 -2.4568  0.0889
 3690SOL     OW22531   2.291   3.707   2.947 -0.2493 -0.3391  0.3899
 3690SOL    HW122532   2.248   3.782   2.987  0.3923  0.0800  0.2984
 3690SOL    HW222533   2.327   3.747   2.868 -0.2163 -2.1516 -0.5264
 3691SOL     OW22534   0.923   0.218   3.230 -0.0085 -0.2686 -0.4446
 3691SOL    HW122535   0.841   0.223   3.280  1.4167 -0.9519  1.9669
 3691SOL    HW222536   0.886   0.212   3.142 -0.4799  0.1178 -0.2725
 3692SOL     OW22537   1.834   4.178   2.539 -0.2107  0.2873 -0.1799
 3692SOL    HW122538   1.869   4.243   2.478  1.4372 -1.7254 -1.4094
 3692SOL    HW222539   1.919   4.138   2.558  0.2768 -0.4651 -3.9962
 3693SOL     OW22540   4.648   0.624   4.352 -0.3386  0.3679 -0.5580
 3693SOL    HW122541   4.621   0.709   4.317 -1.4147  0.1585 -0.2448
 3693SOL    HW222542   0.005   0.651   4.401 -0.2779  0.5430 -0.7479
 3694SOL     OW22543   2.074   2.260   7.969  0.4201  0.4287  0.3492
 3694SOL    HW122544   2.166   2.287   7.959  0.7242 -0.0814  1.6561
 3694SOL    HW222545   2.081   2.187   8.030 -0.4474 -0.4341 -0.6119
 3695SOL     OW22546   1.325   4.453  15.499  0.0423  0.8437  0.0258
 3695SOL    HW122547   1.317   4.465  15.594  0.3370 -1.7997  0.4031
 3695SOL    HW222548   1.233   4.470  15.478 -0.7007 -1.2336  1.6296
 3696SOL     OW22549   1.927   1.519   1.652  0.6820 -0.5166  0.2334
 3696SOL    HW122550   1.871   1.507   1.575  2.3655  0.8351 -1.1850
 3696SOL    HW222551   1.962   1.430   1.656 -0.9117 -1.2154 -1.2775
 3697SOL     OW22552   2.234   3.837   2.091 -0.1551  0.6131 -0.2456
 3697SOL    HW122553   2.269   3.917   2.050  0.4845  0.7195  0.5007
 3697SOL    HW222554   2.241   3.776   2.017  0.2850  2.0638 -1.4166
 3698SOL     OW22555   0.613   0.697   5.145 -0.1031 -0.0017  0.4825
 3698SOL    HW122556   0.684   0.634   5.159  1.1245  1.2492 -0.0789
 3698SOL    HW222557   0.540   0.655   5.189 -0.1356 -0.5887 -0.1312
 3699SOL     OW22558   4.004   3.012   9.051  0.6864 -0.7174 -0.1721
 3699SOL    HW122559   4.039   3.065   8.980  2.5438  0.5629  1.7044
 3699SOL    HW222560   3.910   3.032   9.053  0.9226  0.4796 -1.6397
 3700SOL     OW22561   1.865   1.545   0.647 -0.4556  0.0640 -0.1444
 3700SOL    HW122562   1.835   1.635   0.629  2.9413  1.4435  1.0229
 3700SOL    HW222563   1.901   1.554   0.735  1.1679 -0.2571 -0.7735
 3701SOL     OW22564   3.503   4.035  16.060 -0.2258  0.1437 -0.2905
 3701SOL    HW122565   3.511   4.004  16.150 -0.2359  0.7406 -0.0867
 3701SOL    HW222566   3.414   4.070  16.060 -1.1914 -2.3125 -0.1675
 3702SOL     OW22567   2.577   1.280   6.115  0.4000  0.1576  0.2742
 3702SOL    HW122568   2.523   1.309   6.188  3.0306  0.9622  1.9088
 3702SOL    HW222569   2.543   1.192   6.101 -0.5103  0.5862 -0.1894
 3703SOL     OW22570   2.322   3.716   8.386 -0.0946  0.4562 -0.0195
 3703SOL    HW122571   2.373   3.770   8.325  0.8635  0.4135  0.7543
 3703SOL    HW222572   2.269   3.651   8.338  1.9831 -1.7024  0.6169
 3704SOL     OW22573   2.460   2.148  15.871  0.1030  0.4456 -0.0433
 3704SOL    HW122574   2.468   2.134  15.966  0.3196  0.0992 -0.1125
 3704SOL    HW222575   2.457   2.243  15.863 -0.4982  0.2921 -1.5979
 3705SOL     OW22576   1.117   3.239   7.631 -0.1509 -0.0936 -0.0005
 3705SOL    HW122577   1.182   3.171   7.649  0.5285 -0.2729 -3.1695
 3705SOL    HW222578   1.067   3.190   7.566 -0.1179 -0.6061  0.3564
 3706SOL     OW22579   0.866   0.191  15.183  0.0435 -0.3756 -0.4969
 3706SOL    HW122580   0.786   0.139  15.181  0.6500 -1.3302 -0.1018
 3706SOL    HW222581   0.847   0.271  15.231  3.0720 -0.6374  1.1683
 3707SOL     OW22582   2.086   0.890  16.545  0.5184 -0.0837  0.1126
 3707SOL    HW122583   2.001   0.929  16.566  2.2989  2.8002  2.0781
 3707SOL    HW222584   2.066   0.824  16.480 -0.5270  1.0459 -0.6936
 3708SOL     OW22585   1.470   1.233   1.593 -0.4193  0.4008 -0.3160
 3708SOL    HW122586   1.561   1.248   1.617 -0.6407  2.8528 -1.0272
 3708SOL    HW222587   1.445   1.316   1.551 -0.9368 -0.6120 -2.0170
 3709SOL     OW22588   2.793   0.919   1.456  0.2459 -0.2547  0.0694
 3709SOL    HW122589   2.713   0.973   1.453 -0.4844 -1.4063 -1.4346
 3709SOL    HW222590   2.764   0.841   1.503 -1.8503  1.0320  0.9438
 3710SOL     OW22591   0.134   4.088   1.933 -0.0252  0.3095 -0.4488
 3710SOL    HW122592   0.156   4.178   1.956 -1.1358  0.3190  0.5820
 3710SOL    HW222593   0.147   4.040   2.016  0.2615  2.3938  0.7015
 3711SOL     OW22594   1.734   2.764   7.028 -0.1742  0.1724 -0.0851
 3711SOL    HW122595   1.823   2.796   7.038  0.2904 -0.0536 -3.4575
 3711SOL    HW222596   1.730   2.702   7.101 -0.3634 -3.3564 -3.1297
 3712SOL     OW22597   1.629   3.454   8.062 -0.2583 -0.7985  0.1610
 3712SOL    HW122598   1.538   3.434   8.087 -1.1994 -0.4364 -2.9112
 3712SOL    HW222599   1.637   3.393   7.988  0.7847  1.9731 -1.9739
 3713SOL     OW22600   1.270   0.479   9.621  0.9245 -0.4810 -0.0533
 3713SOL    HW122601   1.314   0.487   9.536 -0.4609 -0.5574 -0.7690
 3713SOL    HW222602   1.332   0.417   9.659  2.2698  0.0360 -1.3662
 3714SOL     OW22603   1.840   4.335   6.678 -0.0611 -0.4269  0.0089
 3714SOL    HW122604   1.875   4.416   6.640 -1.3390 -0.0271 -0.2925
 3714SOL    HW222605   1.760   4.332   6.627  0.9613 -0.9872 -1.5814
 3715SOL     OW22606   0.824   1.348   3.558 -0.1932 -0.5239 -0.3585
 3715SOL    HW122607   0.890   1.317   3.619  2.5772  0.9085 -2.6228
 3715SOL    HW222608   0.741   1.344   3.607 -0.3921  1.6975 -0.5253
 3716SOL     OW22609   0.113   3.549  16.951 -0.0135  0.5818 -0.5326
 3716SOL    HW122610   0.148   3.624  16.903  1.9243 -0.7603 -1.2391
 3716SOL    HW222611   0.185   3.491  16.926  1.6717  1.8620  1.2684
 3717SOL     OW22612   1.025   4.014   5.885  0.2860  0.1883 -0.0568
 3717SOL    HW122613   1.116   4.042   5.893  0.2658 -0.5779  2.9343
 3717SOL    HW222614   1.045   3.921   5.879  1.5515  0.5615 -1.6508
 3718SOL     OW22615   1.077   1.283   2.050 -0.1982 -0.1433  0.9189
 3718SOL    HW122616   1.134   1.338   1.996  0.6747 -1.9473 -0.0008
 3718SOL    HW222617   1.079   1.200   2.002 -2.5728 -0.6521  1.6791
 3719SOL     OW22618   4.594   1.468  14.958 -0.6428 -0.3401 -0.0882
 3719SOL    HW122619   4.517   1.502  15.004 -0.8345  1.2093 -1.5666
 3719SOL    HW222620   4.548   1.401  14.908  0.1986 -0.9097 -0.1047
 3720SOL     OW22621   1.490   1.991   8.951 -0.4451  0.4212  0.1686
 3720SOL    HW122622   1.428   2.039   9.008 -0.2852  1.1931 -0.3054
 3720SOL    HW222623   1.466   1.899   8.960  0.8293 -0.1469 -2.3345
 3721SOL     OW22624   0.416   1.356   2.701 -0.2457 -0.1960 -0.4441
 3721SOL    HW122625   0.328   1.384   2.675  0.6632  0.5186 -2.7511
 3721SOL    HW222626   0.424   1.268   2.664  0.9107 -0.1603 -0.2785
 3722SOL     OW22627   1.710   1.697   6.840  0.1753  0.1901  0.4393
 3722SOL    HW122628   1.737   1.632   6.906  0.7105 -0.6302 -0.5983
 3722SOL    HW222629   1.662   1.640   6.780 -0.8706 -0.4971  1.9049
 3723SOL     OW22630   1.005   2.579   4.088 -0.0779 -0.2316  0.0330
 3723SOL    HW122631   1.068   2.522   4.044 -0.4762 -0.4314 -0.2838
 3723SOL    HW222632   1.058   2.659   4.089  1.1122 -0.9881 -1.3272
 3724SOL     OW22633   4.192   0.992   3.362  0.1335  0.3302  0.8207
 3724SOL    HW122634   4.212   0.923   3.425 -0.8517 -0.0607  0.7155
 3724SOL    HW222635   4.210   1.071   3.413  2.9755  0.0904  0.1755
 3725SOL     OW22636   3.215   3.338   8.727  0.1168 -0.5611  0.0554
 3725SOL    HW122637   3.204   3.273   8.796  1.2332  0.6100  1.3282
 3725SOL    HW222638   3.285   3.393   8.762 -0.7163  1.2155 -1.0181
 3726SOL     OW22639   4.393   4.658   5.013 -0.0525  0.3255 -0.3423
 3726SOL    HW122640   4.383   4.701   4.928  1.4098 -0.9773 -1.1738
 3726SOL    HW222641   4.452   4.585   4.993  1.0238  1.4659 -1.2610
 3727SOL     OW22642   0.358   2.041   5.919 -0.0988  0.4265 -0.6433
 3727SOL    HW122643   0.395   2.019   5.833  0.5403 -0.0747 -0.2380
 3727SOL    HW222644   0.325   2.129   5.900  0.7894  0.8869 -0.0404
 3728SOL     OW22645   2.846   3.519   1.154 -0.0593 -0.6928 -0.1658
 3728SOL    HW122646   2.920   3.578   1.164  0.5017 -1.4266  0.0189
 3728SOL    HW222647   2.780   3.556   1.212 -0.3843 -2.4621  0.6077
 3729SOL     OW22648   4.449   3.302   9.838  0.2428 -0.2332 -0.1986
 3729SOL    HW122649   4.368   3.305   9.890  0.8966 -2.0614  0.9251
 3729SOL    HW222650   4.485   3.218   9.867 -1.0810 -0.7498 -0.0242
 3730SOL     OW22651   4.508   1.486   3.976 -0.2182  0.4373  0.2879
 3730SOL    HW122652   4.421   1.524   3.963 -1.1652 -2.5437 -2.1244
 3730SOL    HW222653   4.557   1.568   3.966  0.1295 -0.0532 -1.8981
 3731SOL     OW22654   4.378   1.160   8.186  0.2736 -0.1278  0.4261
 3731SOL    HW122655   4.308   1.096   8.175  0.5688 -0.5120  0.7901
 3731SOL    HW222656   4.453   1.108   8.215  2.1597  2.2131 -0.3332
 3732SOL     OW22657   0.814   4.658   4.687  0.3892  0.5044  0.0354
 3732SOL    HW122658   0.885   4.600   4.660 -1.9877 -1.8319 -1.1235
 3732SOL    HW222659   0.859   0.023   4.694  0.5490  0.2742  1.8022
 3733SOL     OW22660   4.532   3.530   4.195 -0.5612 -0.3010 -0.4345
 3733SOL    HW122661   4.443   3.560   4.211  0.0371  1.5744 -0.5995
 3733SOL    HW222662   4.574   3.597   4.249 -0.3468 -0.2429 -0.6699
 3734SOL     OW22663   2.328   4.028   1.910  0.3971  0.1648 -0.4227
 3734SOL    HW122664   2.368   3.976   1.839 -1.2328 -2.6517  0.7210
 3734SOL    HW222665   2.282   4.091   1.855 -0.8175  0.1220  0.5717
 3735SOL     OW22666   2.463   1.696   7.085  0.0624  0.5240  0.6812
 3735SOL    HW122667   2.388   1.640   7.105  0.9774 -0.6395  0.8432
 3735SOL    HW222668   2.419   1.780   7.068 -2.1739 -0.7041  0.4307
 3736SOL     OW22669   1.627   1.542   3.350 -0.0032  0.6611 -0.7259
 3736SOL    HW122670   1.641   1.633   3.377 -2.3970  1.0847 -0.8868
 3736SOL    HW222671   1.710   1.501   3.375 -0.6456  0.3481  0.9142
 3737SOL     OW22672   0.634   1.444   7.304 -0.0627  0.0650 -0.9263
 3737SOL    HW122673   0.708   1.406   7.350  1.0167  2.1465 -0.9629
 3737SOL    HW222674   0.629   1.538   7.321 -0.8604 -0.2204  0.4043
 3738SOL     OW22675   4.661   3.196   4.140 -0.0537 -0.1958  0.2882
 3738SOL    HW122676   4.699   3.185   4.227 -3.4438 -1.4538  1.5941
 3738SOL    HW222677   0.013   3.249   4.105 -0.8934  1.2206  0.6999
 3739SOL     OW22678   3.117   2.515   3.790  0.0815 -0.1051 -0.0083
 3739SOL    HW122679   3.165   2.435   3.813  1.4070  0.6865  0.0004
 3739SOL    HW222680   3.136   2.533   3.698 -2.0609  1.0070 -0.2104
 3740SOL     OW22681   2.500   3.737   7.348  0.3427 -0.0344 -0.3275
 3740SOL    HW122682   2.553   3.816   7.355 -3.0702  2.0673  1.4738
 3740SOL    HW222683   2.471   3.739   7.257 -0.9062  1.4699  0.1005
 3741SOL     OW22684   4.634   4.686  13.009  0.1423  0.6034  0.6440
 3741SOL    HW122685   4.651   4.658  13.099  1.3019  0.7304  0.4677
 3741SOL    HW222686   4.596   0.054  13.014  0.4118  0.7005  0.9907
 3742SOL     OW22687   3.213   0.789   3.756  0.4194  0.1708 -0.0045
 3742SOL    HW122688   3.303   0.773   3.727  0.2138  0.9110 -1.0455
 3742SOL    HW222689   3.216   0.825   3.844  0.6244 -0.0623  0.0837
 3743SOL     OW22690   3.187   0.221   4.772 -0.2622 -0.0239 -0.2357
 3743SOL    HW122691   3.244   0.281   4.724 -0.0767  0.1156  0.1541
 3743SOL    HW222692   3.108   0.273   4.758 -0.1127  0.1599 -0.3979
 3744SOL     OW22693   0.982   0.600   4.076 -0.1105 -0.2891 -0.3779
 3744SOL    HW122694   1.024   0.573   4.158  0.4881 -0.3995 -0.7187
 3744SOL    HW222695   0.925   0.671   4.106 -0.1383  0.6285 -2.6461
 3745SOL     OW22696   4.124   3.559  17.613 -0.3666 -0.3602 -0.5650
 3745SOL    HW122697   4.212   3.570  17.651  0.0549 -1.4391 -1.2312
 3745SOL    HW222698   4.138   3.601  17.528  3.5996  0.7216  0.6124
 3746SOL     OW22699   3.926   1.946  10.605 -0.3610  0.4229  0.4622
 3746SOL    HW122700   3.881   1.975  10.685 -0.0082  0.4028  0.6670
 3746SOL    HW222701   3.989   1.878  10.629 -0.6086  0.3819  1.0113
 3747SOL     OW22702   0.953   2.432  12.089 -0.1557  0.4283 -0.4515
 3747SOL    HW122703   1.039   2.418  12.049  0.7303 -0.0008  1.5551
 3747SOL    HW222704   0.988   2.426  12.178 -2.4204 -0.3634  0.3939
 3748SOL     OW22705   1.173   3.795   2.331 -0.0919  0.8378 -0.2200
 3748SOL    HW122706   1.150   3.706   2.303 -0.3431  0.5839  0.7706
 3748SOL    HW222707   1.136   3.783   2.419 -1.3255  0.6852 -0.7552
 3749SOL     OW22708   0.628   1.100   7.298 -0.0214  0.1857 -0.5663
 3749SOL    HW122709   0.678   1.084   7.378 -1.5367  0.8997  0.5350
 3749SOL    HW222710   0.663   1.183   7.267 -0.2905  0.0080 -1.3505
 3750SOL     OW22711   1.056   0.072  17.549 -0.1846 -0.3814  0.5453
 3750SOL    HW122712   1.015   0.037  17.470 -1.0338 -1.2452  1.3829
 3750SOL    HW222713   1.007   0.053  17.628 -0.9714  0.9052  0.3563
 3751SOL     OW22714   1.138   0.208  11.744 -0.1796  0.5779  0.0229
 3751SOL    HW122715   1.163   0.298  11.764  3.2352 -0.7222  1.6739
 3751SOL    HW222716   1.055   0.232  11.703  0.1592 -1.0101 -1.6220
 3752SOL     OW22717   0.895   3.274  16.351  0.3876  0.2253 -0.0677
 3752SOL    HW122718   0.914   3.255  16.259  0.2787 -0.5959  0.0733
 3752SOL    HW222719   0.805   3.303  16.337  0.4363  1.2040  1.7318
 3753SOL     OW22720   1.969   0.909   7.154 -0.0537 -0.5780 -0.6254
 3753SOL    HW122721   1.994   0.958   7.076 -2.6841 -1.2104 -1.8288
 3753SOL    HW222722   1.925   0.976   7.206  2.2810  0.1271  0.4626
 3754SOL     OW22723   1.012   4.130  16.348  0.0409 -0.0346 -0.3587
 3754SOL    HW122724   1.055   4.124  16.433  1.5876 -1.6847 -1.2585
 3754SOL    HW222725   1.028   4.218  16.316 -0.7103  0.4540  0.5977
 3755SOL     OW22726   1.754   0.469   5.984 -0.3946  0.0639 -0.0354
 3755SOL    HW122727   1.835   0.418   5.983  0.2905  1.1581 -2.7942
 3755SOL    HW222728   1.682   0.406   5.980 -1.2417  1.1447 -2.0518
 3756SOL     OW22729   4.265   1.791  17.103 -0.8965 -0.8744  0.2818
 3756SOL    HW122730   4.279   1.873  17.055 -0.5519  0.0443  1.9324
 3756SOL    HW222731   4.191   1.762  17.051 -0.1020 -2.2197 -0.1035
 3757SOL     OW22732   1.017   2.829   2.416 -0.7023  0.3358 -0.3492
 3757SOL    HW122733   1.014   2.921   2.390 -3.8648 -0.0212 -1.2430
 3757SOL    HW222734   1.065   2.788   2.344 -0.9752  1.2137 -1.0329
 3758SOL     OW22735   3.723   2.556   5.806 -0.1065 -0.0682  0.1620
 3758SOL    HW122736   3.783   2.614   5.760 -0.2048 -1.6361 -1.9922
 3758SOL    HW222737   3.655   2.621   5.823 -0.0242 -0.1641  0.8509
 3759SOL     OW22738   4.686   0.882   7.740  0.0351  0.4792 -0.5195
 3759SOL    HW122739   4.666   0.793   7.711 -1.1301 -0.6694  3.6825
 3759SOL    HW222740   4.612   0.891   7.801  0.9726  1.4291  0.4785
 3760SOL     OW22741   2.246   2.766  11.485  0.6106  0.5626  0.0726
 3760SOL    HW122742   2.173   2.817  11.449  0.5371 -0.6148 -1.4649
 3760SOL    HW222743   2.317   2.823  11.454  0.8040  0.3710  0.1647
 3761SOL     OW22744   1.805   2.939   2.620 -0.5108 -1.1332  0.1991
 3761SOL    HW122745   1.769   2.992   2.692 -1.1933  0.5196 -1.3639
 3761SOL    HW222746   1.772   2.851   2.637  1.0575 -1.7699 -0.0542
 3762SOL     OW22747   4.264   3.471   1.993  0.0579  0.6057  0.2988
 3762SOL    HW122748   4.358   3.488   1.986 -0.1318  0.8969 -1.4216
 3762SOL    HW222749   4.232   3.503   1.909 -0.1861  2.2451  1.0108
 3763SOL     OW22750   0.214   0.134  14.382  0.2771 -0.3588 -0.3740
 3763SOL    HW122751   0.218   0.225  14.353  2.2564 -0.7503 -1.3333
 3763SOL    HW222752   0.196   0.140  14.476  2.9713 -1.9426  0.2400
 3764SOL     OW22753   0.133   2.404   5.293 -0.2129  0.2946 -0.0062
 3764SOL    HW122754   0.182   2.477   5.254 -0.7135  0.5559 -0.1506
 3764SOL    HW222755   0.203   2.339   5.287 -0.6042 -0.3223  2.1424
 3765SOL     OW22756   2.494   0.696   2.965 -0.0898  0.3001  0.2061
 3765SOL    HW122757   2.422   0.660   3.017  0.4658 -0.4916  0.4334
 3765SOL    HW222758   2.483   0.790   2.977  1.2637  0.5377 -0.3760
 3766SOL     OW22759   0.785   0.597   3.697 -0.4417  0.1201 -0.0366
 3766SOL    HW122760   0.813   0.594   3.606 -0.2709  1.6164 -0.0266
 3766SOL    HW222761   0.692   0.621   3.693 -0.1014  1.1048 -1.7058
 3767SOL     OW22762   3.523   2.371   5.793 -0.2298  0.8979  0.3649
 3767SOL    HW122763   3.560   2.318   5.864  1.0519  0.9750 -0.2401
 3767SOL    HW222764   3.585   2.443   5.781  3.3123 -2.3534 -0.8064
 3768SOL     OW22765   3.665   1.966  12.217  0.2603  0.6254 -0.0600
 3768SOL    HW122766   3.572   1.949  12.202 -0.1876  1.0630  2.0758
 3768SOL    HW222767   3.695   2.038  12.162  0.5386 -0.1083 -0.8680
 3769SOL     OW22768   0.849   0.868   3.553  0.2724 -0.1896  0.2790
 3769SOL    HW122769   0.848   0.785   3.504  0.0763 -0.7950  1.3085
 3769SOL    HW222770   0.758   0.895   3.561  0.5623  0.8221  0.1242
 3770SOL     OW22771   2.406   4.494  15.078 -0.3949 -0.1446 -0.3270
 3770SOL    HW122772   2.368   4.452  15.156 -1.8324 -0.8927 -1.4340
 3770SOL    HW222773   2.344   4.565  15.065 -0.7077 -0.1506  1.1778
 3771SOL     OW22774   2.953   3.953   6.897 -0.3651 -0.2311  0.1163
 3771SOL    HW122775   2.953   4.047   6.913 -0.4229  0.0406 -1.4867
 3771SOL    HW222776   2.925   3.940   6.807  1.5573  0.6257 -0.5884
 3772SOL     OW22777   2.866   2.988   7.460 -0.3464  0.3432 -0.4961
 3772SOL    HW122778   2.918   3.049   7.408 -1.5071  1.5912 -0.1918
 3772SOL    HW222779   2.898   3.017   7.545 -0.8493 -1.2912  0.2420
 3773SOL     OW22780   3.461   3.457   5.584 -0.5501  0.3954  0.1060
 3773SOL    HW122781   3.506   3.492   5.507 -0.6154  0.3956  0.0674
 3773SOL    HW222782   3.415   3.384   5.543 -0.4476  0.0322  0.6351
 3774SOL     OW22783   2.064   3.035  14.238  0.1955 -0.1841 -0.8645
 3774SOL    HW122784   2.027   3.072  14.318 -2.1351 -1.4127 -1.3712
 3774SOL    HW222785   2.070   2.941  14.257  1.3042 -0.2481 -1.5224
 3775SOL     OW22786   0.869   3.589   6.605  0.3230  0.2771 -0.2176
 3775SOL    HW122787   0.940   3.620   6.660 -0.8868 -0.1896  1.5874
 3775SOL    HW222788   0.843   3.505   6.642  2.3418  0.3743  1.3863
 3776SOL     OW22789   4.083   1.091   3.816 -0.5454 -0.0342 -0.1018
 3776SOL    HW122790   4.095   1.058   3.905 -0.2182 -0.1130 -0.1774
 3776SOL    HW222791   4.034   1.173   3.829 -2.2023 -1.2166  1.1406
 3777SOL     OW22792   1.868   3.807  11.705  0.4592 -0.5232 -0.0659
 3777SOL    HW122793   1.777   3.827  11.685  0.1903 -1.3904  0.2911
 3777SOL    HW222794   1.903   3.891  11.677 -0.6209  0.4673  1.5099
 3778SOL     OW22795   0.570   2.908   6.644  0.6284 -0.0086 -0.1569
 3778SOL    HW122796   0.595   2.855   6.720  0.0431  2.4501  1.7475
 3778SOL    HW222797   0.659   2.921   6.613  0.5855 -1.3489 -0.8550
 3779SOL     OW22798   0.578   3.355   4.579 -0.0387  1.0799  0.6011
 3779SOL    HW122799   0.576   3.273   4.627  0.7289  0.5155 -0.3417
 3779SOL    HW222800   0.532   3.320   4.503  0.5086  1.1311  0.2461
 3780SOL     OW22801   2.616   4.353   7.131 -0.3576 -0.0256 -0.4745
 3780SOL    HW122802   2.584   4.265   7.114 -1.0128  0.6435 -2.7588
 3780SOL    HW222803   2.686   4.355   7.066  0.8348  0.7564  0.8360
 3781SOL     OW22804   3.123   0.849   4.967  0.2981  0.1009  0.4014
 3781SOL    HW122805   3.107   0.907   4.892 -0.4672  1.3121  1.4918
 3781SOL    HW222806   3.144   0.921   5.026  1.0313 -0.2657  0.5913
 3782SOL     OW22807   2.951   1.944  15.872  0.0016  0.8190 -0.1296
 3782SOL    HW122808   2.895   1.912  15.942  0.8960  3.0716  1.5983
 3782SOL    HW222809   2.888   1.928  15.802  1.9601 -1.7878 -1.2900
 3783SOL     OW22810   1.349   3.305   4.941  0.0641 -0.1007  0.0042
 3783SOL    HW122811   1.388   3.317   4.854  0.0673  1.0915  0.1641
 3783SOL    HW222812   1.300   3.386   4.955  0.6205  0.0927  0.8281
 3784SOL     OW22813   2.291   3.876  10.946 -0.4617 -0.0950 -0.2424
 3784SOL    HW122814   2.218   3.919  10.901 -0.0717  0.5223 -0.2715
 3784SOL    HW222815   2.284   3.913  11.034  2.0067 -1.2349  0.4098
 3785SOL     OW22816   0.765   2.562   9.954  0.4176 -0.1150  0.1924
 3785SOL    HW122817   0.846   2.609   9.974 -1.1056  1.0233  3.7402
 3785SOL    HW222818   0.726   2.605   9.878  3.0620  1.1234 -0.4329
 3786SOL     OW22819   3.984   4.035   5.168  0.1096 -0.1880  0.2472
 3786SOL    HW122820   3.890   4.021   5.157  0.1881 -1.2835  0.9048
 3786SOL    HW222821   4.005   4.011   5.259 -0.4038  1.4459  0.7902
 3787SOL     OW22822   1.603   0.955   4.450  0.0978  0.1704 -0.4945
 3787SOL    HW122823   1.695   0.966   4.474 -0.1368  0.4140  0.2648
 3787SOL    HW222824   1.561   0.990   4.528  2.9324  2.6230 -0.0505
 3788SOL     OW22825   1.294   4.705   3.765  0.0756  0.3563  0.3317
 3788SOL    HW122826   1.345   0.036   3.701 -2.6459  1.9104 -0.6043
 3788SOL    HW222827   1.309   0.034   3.846 -0.6708 -0.4058  0.9111
 3789SOL     OW22828   2.281   0.238   6.747  0.3046 -0.3003  0.2062
 3789SOL    HW122829   2.245   0.314   6.793  1.2952  0.3593 -0.1247
 3789SOL    HW222830   2.369   0.232   6.782 -0.0968 -1.2466  1.0368
 3790SOL     OW22831   0.540   3.572   5.601  0.3071  0.1001 -0.4270
 3790SOL    HW122832   0.553   3.509   5.531 -1.2654  1.1344 -1.6496
 3790SOL    HW222833   0.629   3.567   5.636 -0.2456  2.0264  1.2897
 3791SOL     OW22834   2.657   3.984   6.721 -0.0376 -0.0667  0.0345
 3791SOL    HW122835   2.669   4.078   6.734  1.3871 -0.2188 -0.1105
 3791SOL    HW222836   2.674   3.997   6.628  1.1804  2.9416  0.6732
 3792SOL     OW22837   1.299   0.417   4.073  0.2673  0.4097  0.1885
 3792SOL    HW122838   1.358   0.432   4.146 -0.0885  1.0629  0.3449
 3792SOL    HW222839   1.261   0.504   4.059  1.0525  0.5653 -1.0005
 3793SOL     OW22840   0.627   0.904   0.717 -0.5734 -0.4924 -0.6491
 3793SOL    HW122841   0.699   0.933   0.773 -1.2912  0.9948 -0.4914
 3793SOL    HW222842   0.604   0.821   0.758  0.8402 -0.9956 -0.8717
 3794SOL     OW22843   2.253   0.829   5.232  0.0476  0.5833 -0.8505
 3794SOL    HW122844   2.244   0.815   5.326  0.0319  0.7178 -0.8328
 3794SOL    HW222845   2.246   0.924   5.222  1.9369  0.9995  1.8637
 3795SOL     OW22846   0.998   3.153   0.335 -0.0434  0.3518  0.3770
 3795SOL    HW122847   0.917   3.194   0.304 -0.1843  1.1608  1.8207
 3795SOL    HW222848   1.042   3.230   0.371 -2.1467  2.4019 -1.4143
 3796SOL     OW22849   0.135   1.796   0.772 -0.1162  0.4493  0.2300
 3796SOL    HW122850   0.061   1.851   0.746  2.6769  4.7970  1.4325
 3796SOL    HW222851   0.149   1.811   0.865 -1.0812  3.4460 -0.1067
 3797SOL     OW22852   1.201   0.808   0.152  0.2965 -0.7919  0.0167
 3797SOL    HW122853   1.295   0.799   0.135  0.5083  0.6133  0.4548
 3797SOL    HW222854   1.211   0.774   0.240  0.0453 -0.0419  0.3372
 3798SOL     OW22855   2.198   1.101   4.664 -0.1351 -0.1096  0.0206
 3798SOL    HW122856   2.176   1.016   4.702  0.3280 -0.7979 -1.2667
 3798SOL    HW222857   2.230   1.155   4.736  0.7877 -1.4478  0.6184
 3799SOL     OW22858   2.771   4.377   7.389  0.4759 -0.1039  0.2631
 3799SOL    HW122859   2.863   4.361   7.370 -0.4252 -2.5079 -2.0896
 3799SOL    HW222860   2.737   4.383   7.299 -0.4342  2.4753  0.7833
 3800SOL     OW22861   1.481   1.075   3.450  0.2164  0.6016 -0.3593
 3800SOL    HW122862   1.503   1.147   3.391  0.6039  0.8696  0.1107
 3800SOL    HW222863   1.568   1.042   3.471 -0.5823 -1.6712 -0.5915
 3801SOL     OW22864   2.052   3.629  13.243  0.0113  0.5942 -0.2418
 3801SOL    HW122865   2.131   3.636  13.188  0.0957 -0.2074 -0.2122
 3801SOL    HW222866   2.064   3.704  13.302  2.3953  0.2913 -0.3451
 3802SOL     OW22867   1.632   0.927  11.666 -0.4363  0.5982 -0.6272
 3802SOL    HW122868   1.660   0.837  11.645  0.6474  1.2186 -1.8209
 3802SOL    HW222869   1.639   0.929  11.762 -0.5682 -1.5747 -0.5672
 3803SOL     OW22870   0.572   1.940   1.553 -0.0603 -0.1152  0.3475
 3803SOL    HW122871   0.531   1.922   1.469  0.9346  0.7973 -0.3388
 3803SOL    HW222872   0.620   2.022   1.540  1.0636 -0.5849  1.5155
 3804SOL     OW22873   0.486   0.434  13.229 -0.0019  0.4595  0.2031
 3804SOL    HW122874   0.463   0.479  13.310  3.0308  3.1450 -0.4106
 3804SOL    HW222875   0.555   0.494  13.202  0.1041 -0.6254 -1.9154
 3805SOL     OW22876   2.642   4.522   6.384 -0.3789 -1.0078  0.3007
 3805SOL    HW122877   2.594   4.579   6.323  0.0303  0.1347  1.0486
 3805SOL    HW222878   2.713   4.578   6.415  1.0658 -1.7870 -1.6130
 3806SOL     OW22879   0.926   1.366   6.546 -0.0367 -0.5565  0.4561
 3806SOL    HW122880   0.844   1.334   6.582  0.2304 -1.8930 -0.1284
 3806SOL    HW222881   0.946   1.288   6.494  0.8181  0.5491 -0.8864
 3807SOL     OW22882   2.518   2.277  17.007 -0.2805  0.3044  0.2418
 3807SOL    HW122883   2.466   2.198  17.017 -0.1874  0.1373 -0.5391
 3807SOL    HW222884   2.493   2.317  17.090  1.8840  2.9192 -0.3292
 3808SOL     OW22885   1.987   2.907   7.060 -0.4854 -0.3058  0.1976
 3808SOL    HW122886   2.057   2.843   7.073  0.0855  0.9014  3.0909
 3808SOL    HW222887   2.027   2.955   6.988 -1.8999 -0.6293 -0.8189
 3809SOL     OW22888   1.835   1.071   3.814  0.1137  0.1519  1.1567
 3809SOL    HW122889   1.793   1.019   3.883  0.7300  1.9469  2.9097
 3809SOL    HW222890   1.903   1.007   3.795 -2.3340 -1.0969 -3.2220
 3810SOL     OW22891   3.835   0.569  14.267 -0.2373  0.1630  0.6583
 3810SOL    HW122892   3.768   0.554  14.200 -0.3120 -2.6838  1.3987
 3810SOL    HW222893   3.814   0.659  14.293  1.3855  0.3765  1.1942
 3811SOL     OW22894   1.865   0.713   5.018  0.1915  0.2457 -0.0902
 3811SOL    HW122895   1.834   0.713   5.109  0.6827 -1.6735  0.0744
 3811SOL    HW222896   1.852   0.620   4.999 -1.1585  0.4616 -0.2656
 3812SOL     OW22897   1.171   2.534   3.301  0.0869 -0.7585  0.0717
 3812SOL    HW122898   1.116   2.573   3.369 -0.8435 -0.4645 -0.8542
 3812SOL    HW222899   1.256   2.565   3.332  0.1708 -0.4975 -0.4224
 3813SOL     OW22900   4.125   3.401   2.910  0.9545  0.0691 -0.1707
 3813SOL    HW122901   4.067   3.369   2.841 -0.7605  2.6754  0.0694
 3813SOL    HW222902   4.188   3.455   2.861 -0.0554 -0.1801 -1.7406
 3814SOL     OW22903   1.510   4.618   0.016 -0.2410 -0.2528 -0.0981
 3814SOL    HW122904   1.426   4.663   0.008 -0.5797 -0.6645  1.0710
 3814SOL    HW222905   1.548   4.662   0.092  0.9533 -1.3569 -0.0538
 3815SOL     OW22906   3.332   3.935  10.046 -0.0038  0.1895  0.1937
 3815SOL    HW122907   3.281   3.873   9.993  0.2753  1.9818 -2.1984
 3815SOL    HW222908   3.380   3.996   9.990 -0.2703  1.1497  1.0303
 3816SOL     OW22909   3.154   3.949  16.238 -0.3657  0.3414  0.1472
 3816SOL    HW122910   3.198   4.017  16.188  0.5653 -0.3623  0.0061
 3816SOL    HW222911   3.188   3.978  16.323 -0.3639 -0.0566  0.2813
 3817SOL     OW22912   3.073   3.069  11.463 -0.0454 -0.0615 -0.5112
 3817SOL    HW122913   3.164   3.090  11.481  0.1117  0.7567 -2.2325
 3817SOL    HW222914   3.075   3.008  11.389  0.2784 -0.8449  0.1501
 3818SOL     OW22915   3.907   3.216   0.676  0.5792  0.4008 -0.2024
 3818SOL    HW122916   3.962   3.284   0.714 -0.1112  1.4196 -1.0562
 3818SOL    HW222917   3.951   3.142   0.718  2.8283  0.8046 -1.8982
 3819SOL     OW22918   3.377   3.426  15.286  0.3247  0.1011  0.4676
 3819SOL    HW122919   3.283   3.435  15.302  0.3730  1.2164  0.0910
 3819SOL    HW222920   3.412   3.503  15.331  0.9628 -0.3875  0.8099
 3820SOL     OW22921   2.280   3.352   0.891 -0.4358 -0.6345  0.4674
 3820SOL    HW122922   2.304   3.369   0.800 -1.9917  0.9602  0.3379
 3820SOL    HW222923   2.362   3.328   0.933  2.0699  1.0680 -3.5474
 3821SOL     OW22924   3.468   0.174   4.437  0.1247  0.1572 -0.0165
 3821SOL    HW122925   3.549   0.218   4.462  0.8575 -0.9688 -0.3661
 3821SOL    HW222926   3.404   0.238   4.466  0.7722 -0.1365  2.0414
 3822SOL     OW22927   3.029   3.185  11.833 -0.3844 -0.2131 -0.0829
 3822SOL    HW122928   3.028   3.259  11.772 -0.9781 -0.3733 -0.2658
 3822SOL    HW222929   3.010   3.219  11.920 -0.6708 -1.2546  0.2700
 3823SOL     OW22930   0.735   4.132   8.457 -0.4081  0.0029  0.0666
 3823SOL    HW122931   0.692   4.217   8.444  2.4613  1.0129 -2.8798
 3823SOL    HW222932   0.669   4.071   8.425 -1.1146 -0.0059  1.5344
 3824SOL     OW22933   2.431   3.638   3.581  0.1711  0.7942 -0.5206
 3824SOL    HW122934   2.432   3.589   3.498 -2.2123 -0.6402  0.2940
 3824SOL    HW222935   2.391   3.575   3.641 -0.3247  0.6017 -1.0520
 3825SOL     OW22936   1.129   4.276  15.299 -0.5891 -0.3562  0.3133
 3825SOL    HW122937   1.095   4.254  15.385  1.2656 -2.3019  0.5187
 3825SOL    HW222938   1.046   4.300  15.256 -0.3979 -1.9778 -0.9725
 3826SOL     OW22939   1.994   3.575   6.362  0.2096  0.2995  0.4590
 3826SOL    HW122940   1.933   3.590   6.434  0.4336 -1.4987  1.0332
 3826SOL    HW222941   2.010   3.667   6.342  0.0932 -0.1328 -1.6827
 3827SOL     OW22942   2.639   4.135  17.644 -0.1904 -0.2307  0.4116
 3827SOL    HW122943   2.588   4.165   0.038  2.0072 -0.2279  1.9006
 3827SOL    HW222944   2.635   4.039  17.646 -0.0192 -0.2360  0.4942
 3828SOL     OW22945   0.490   4.582   1.273  0.2248 -0.1899 -0.0459
 3828SOL    HW122946   0.537   4.501   1.297 -1.9531 -1.9621 -1.7552
 3828SOL    HW222947   0.560   4.635   1.236  0.2791 -0.3636 -0.1973
 3829SOL     OW22948   3.537   3.405   0.318 -0.3181  0.1949  0.7446
 3829SOL    HW122949   3.606   3.371   0.261 -1.8002 -1.9903  0.2460
 3829SOL    HW222950   3.590   3.402   0.398  1.0638  0.5540 -0.1597
 3830SOL     OW22951   3.226   0.089   9.800 -0.5261  0.0401  0.6599
 3830SOL    HW122952   3.251   4.716   9.800  0.3232  0.2696  1.3660
 3830SOL    HW222953   3.286   0.119   9.868  0.3363 -2.1257  0.8522
 3831SOL     OW22954   3.017   2.060   6.958 -0.0481 -0.0797  0.1072
 3831SOL    HW122955   3.061   2.079   6.875  0.0793  1.5177  0.5424
 3831SOL    HW222956   2.924   2.062   6.934  0.5850 -1.5612 -2.4773
 3832SOL     OW22957   0.687   0.941   2.884  0.3444  0.3220 -0.0373
 3832SOL    HW122958   0.680   1.013   2.946  2.9276 -1.4389  2.2945
 3832SOL    HW222959   0.663   0.975   2.797 -0.0566 -0.0004 -0.0509
 3833SOL     OW22960   3.376   2.347   1.900  0.8005 -0.4312  0.1623
 3833SOL    HW122961   3.316   2.405   1.852  2.6286  0.3202 -1.2243
 3833SOL    HW222962   3.411   2.415   1.957  2.0884  1.3857 -2.8122
 3834SOL     OW22963   1.715   4.202   8.583  0.3454 -0.1278 -0.3297
 3834SOL    HW122964   1.690   4.110   8.594 -1.3732  0.5224  1.0741
 3834SOL    HW222965   1.776   4.192   8.509  1.8928  0.7454  0.8307
 3835SOL     OW22966   3.452   3.411   7.697  0.0100  0.3055 -0.4259
 3835SOL    HW122967   3.480   3.498   7.726 -0.6634 -0.2421  1.9208
 3835SOL    HW222968   3.497   3.405   7.613  1.4146 -2.2169  0.5061
 3836SOL     OW22969   2.659   2.092   1.717 -0.3065 -0.6593 -0.0152
 3836SOL    HW122970   2.616   2.072   1.801 -1.6391 -0.5077 -0.6640
 3836SOL    HW222971   2.584   2.101   1.659 -1.2000 -1.6070  0.9848
 3837SOL     OW22972   0.631   4.551   6.962  0.3777 -0.0660  0.0158
 3837SOL    HW122973   0.704   4.493   6.941 -0.6330 -1.0701 -0.6861
 3837SOL    HW222974   0.638   4.529   7.055  1.2698  0.4383  0.0740
 3838SOL     OW22975   0.746   0.486   8.790 -0.1897 -0.4747  0.0269
 3838SOL    HW122976   0.658   0.463   8.761 -1.5235  2.4705  1.6917
 3838SOL    HW222977   0.794   0.403   8.791  0.9158  0.1310 -2.2007
 3839SOL     OW22978   1.365   4.414   7.287 -0.6795 -0.8657  0.3291
 3839SOL    HW122979   1.460   4.424   7.295 -0.9998  1.6633  1.0358
 3839SOL    HW222980   1.358   4.350   7.216 -1.1891  0.5110 -0.8565
 3840SOL     OW22981   4.078   2.991   5.788 -0.3177 -0.2412  0.0452
 3840SOL    HW122982   4.028   3.065   5.823 -1.2636 -1.5369  1.4509
 3840SOL    HW222983   4.151   2.985   5.849  0.5725 -0.9292 -1.0899
 3841SOL     OW22984   2.931   2.800   6.710  0.1593  0.0714 -0.5985
 3841SOL    HW122985   2.978   2.824   6.790 -1.5347 -1.7155  0.9333
 3841SOL    HW222986   2.895   2.715   6.736 -1.9978  1.1762 -0.0244
 3842SOL     OW22987   2.755   3.117   3.062 -0.1894  0.3140 -0.0195
 3842SOL    HW122988   2.685   3.177   3.037  1.4206  2.3375  0.3595
 3842SOL    HW222989   2.809   3.178   3.113  1.5211 -0.6868 -0.6200
 3843SOL     OW22990   0.940   3.133   9.562 -0.6649 -0.3515 -0.2848
 3843SOL    HW122991   1.004   3.203   9.572  1.7175 -2.4394 -1.2418
 3843SOL    HW222992   1.001   3.060   9.557 -1.8522 -1.4520  1.4067
 3844SOL     OW22993   2.124   3.119  12.807  0.0149  0.4914 -0.1021
 3844SOL    HW122994   2.101   3.141  12.717  1.1213 -0.5166 -0.6285
 3844SOL    HW222995   2.036   3.123  12.845 -0.0631  0.1591 -0.2429
 3845SOL     OW22996   2.185   0.258   7.197 -0.3199  0.0404  0.4327
 3845SOL    HW122997   2.209   0.344   7.164  1.9149 -0.8204 -0.2146
 3845SOL    HW222998   2.230   0.260   7.282  1.7637 -2.4545 -0.5883
 3846SOL     OW22999   0.256   4.187   7.330  0.9397 -0.4035 -0.2032
 3846SOL    HW123000   0.172   4.199   7.374  0.9846  1.8774 -0.7385
 3846SOL    HW223001   0.277   4.099   7.361  1.5865 -0.2041 -0.0609
 3847SOL     OW23002   0.770   0.377   4.185  0.2026  0.5170  0.0209
 3847SOL    HW123003   0.852   0.427   4.189  0.7954 -0.6241  1.9618
 3847SOL    HW223004   0.701   0.432   4.222 -1.5892 -0.2861 -2.1371
 3848SOL     OW23005   0.196   0.409  15.240 -0.0192  0.2994 -0.0409
 3848SOL    HW123006   0.154   0.495  15.250  0.3092  0.2656  1.6265
 3848SOL    HW223007   0.200   0.407  15.144  1.5451  2.5969 -0.0227
 3849SOL     OW23008   0.420   3.097   3.516 -0.0849  0.8637  0.1348
 3849SOL    HW123009   0.346   3.145   3.478 -1.2489 -1.3247 -0.3474
 3849SOL    HW223010   0.497   3.127   3.467 -0.3538  1.0183 -0.1948
 3850SOL     OW23011   2.170   3.018   0.684  0.0019 -0.1046 -0.4748
 3850SOL    HW123012   2.083   2.989   0.714  0.3125 -0.3927  0.1398
 3850SOL    HW223013   2.235   2.980   0.743  0.9158  2.5707  0.2347
 3851SOL     OW23014   1.618   0.614  17.565  0.3132 -0.5861 -0.1459
 3851SOL    HW123015   1.608   0.709  17.552 -0.4952 -0.6339  0.1441
 3851SOL    HW223016   1.615   0.586  17.473 -3.1835  1.4256 -0.6281
 3852SOL     OW23017   4.170   4.581   3.409  0.2967 -0.1376 -0.1022
 3852SOL    HW123018   4.160   4.576   3.314  0.1398 -2.2406  0.0199
 3852SOL    HW223019   4.189   4.674   3.416  0.1691 -0.0649 -0.7043
 3853SOL     OW23020   2.272   1.245  14.925 -0.2289 -0.3471 -0.2606
 3853SOL    HW123021   2.255   1.262  14.833 -1.0328 -0.4336 -0.1285
 3853SOL    HW223022   2.360   1.281  14.931 -0.6496  0.5624  0.4900
 3854SOL     OW23023   1.980   3.769   3.617  0.2878 -0.1564 -0.1529
 3854SOL    HW123024   2.050   3.829   3.643 -2.1123  2.0460  1.2479
 3854SOL    HW223025   2.017   3.683   3.637 -0.1916  0.1059  1.8140
 3855SOL     OW23026   2.038   3.975   2.645  0.1193  0.0634  0.1411
 3855SOL    HW123027   2.075   3.923   2.573  0.3945 -1.1854  1.1837
 3855SOL    HW223028   2.123   3.998   2.684  0.8863  0.6351 -1.8839
 3856SOL     OW23029   0.474   4.719   6.323 -0.1435  0.3671 -0.1536
 3856SOL    HW123030   0.503   4.654   6.258 -1.9601 -1.6652  1.0579
 3856SOL    HW223031   0.397   4.681   6.366 -0.6163 -0.5149 -1.7669
 3857SOL     OW23032   1.490   1.854   8.703 -0.0190 -0.3758  0.2444
 3857SOL    HW123033   1.403   1.835   8.738  0.8402 -1.2850  1.8946
 3857SOL    HW223034   1.515   1.939   8.738 -0.3524  0.2160 -0.9829
 3858SOL     OW23035   4.424   3.491   4.823 -0.4020 -0.5860 -0.2400
 3858SOL    HW123036   4.492   3.558   4.815 -0.9729  0.2009  1.4300
 3858SOL    HW223037   4.478   3.424   4.784  0.6475 -0.1331  0.4325
 3859SOL     OW23038   4.126   1.469  17.499  0.2261  0.4414 -0.2659
 3859SOL    HW123039   4.130   1.521  17.579 -0.4579 -0.2409  0.2191
 3859SOL    HW223040   4.195   1.405  17.519  1.0073  0.9660 -1.2949
 3860SOL     OW23041   0.404   1.773   4.937 -0.6212  0.0235 -0.0800
 3860SOL    HW123042   0.320   1.785   4.894 -0.3824  0.0850 -0.5337
 3860SOL    HW223043   0.457   1.728   4.871 -0.7072  1.7276 -1.3105
 3861SOL     OW23044   2.979   1.557  12.977 -0.1734  0.2912 -0.1304
 3861SOL    HW123045   2.930   1.634  13.004 -1.0944 -0.1858 -0.4574
 3861SOL    HW223046   2.977   1.574  12.883 -2.0579  0.0469 -0.1230
 3862SOL     OW23047   3.651   3.351   3.733  0.7523  0.0649  0.6518
 3862SOL    HW123048   3.660   3.419   3.666  2.9279 -1.0134 -0.1496
 3862SOL    HW223049   3.558   3.338   3.717  1.1967  0.8605 -2.5943
 3863SOL     OW23050   4.116   1.853  17.342 -0.1711  0.3092 -0.2267
 3863SOL    HW123051   4.098   1.759  17.350  1.0863  0.1625  0.6941
 3863SOL    HW223052   4.199   1.845  17.296 -0.3364  0.5185 -0.5664
 3864SOL     OW23053   2.986   0.477   9.919 -0.7309 -0.1634  0.5194
 3864SOL    HW123054   2.982   0.504  10.010  1.2504  1.0249  0.2354
 3864SOL    HW223055   3.078   0.476   9.894 -1.0192 -0.8001 -0.5439
 3865SOL     OW23056   3.538   2.323   8.928  0.1205  0.2050 -0.2230
 3865SOL    HW123057   3.479   2.372   8.985  1.9656  0.7506  1.2356
 3865SOL    HW223058   3.491   2.240   8.926  0.2677  0.1383 -0.8703
 3866SOL     OW23059   3.301   2.585   6.241 -0.5738  0.0282  0.2631
 3866SOL    HW123060   3.284   2.540   6.158  2.2591  0.4350 -0.5315
 3866SOL    HW223061   3.319   2.506   6.292 -2.8953  0.0775  1.1573
 3867SOL     OW23062   2.895   2.284   3.081  0.1285 -0.2386 -0.2374
 3867SOL    HW123063   2.827   2.296   3.147  0.9133  2.7716 -0.0043
 3867SOL    HW223064   2.945   2.214   3.124 -1.0251 -0.9544 -0.0400
 3868SOL     OW23065   3.920   4.136   4.011 -0.4030  0.0147  0.0077
 3868SOL    HW123066   3.857   4.129   3.940 -1.7258  0.4672  1.1410
 3868SOL    HW223067   3.861   4.133   4.086  0.5650 -0.4593  0.7522
 3869SOL     OW23068   1.351   0.540   2.389 -0.4009  0.1588  0.2393
 3869SOL    HW123069   1.328   0.617   2.337  3.2333  0.2533 -1.1658
 3869SOL    HW223070   1.436   0.566   2.425 -0.0767 -0.3980 -0.1281
 3870SOL     OW23071   1.768   1.952   7.921 -0.2854 -0.3413 -0.3017
 3870SOL    HW123072   1.854   1.939   7.880  1.2344  1.5450  2.2495
 3870SOL    HW223073   1.711   1.892   7.873  1.2570 -1.7286 -0.3806
 3871SOL     OW23074   0.662   4.141   5.944 -0.7955 -0.2641 -0.0488
 3871SOL    HW123075   0.749   4.175   5.965 -0.6232 -0.4103 -0.5147
 3871SOL    HW223076   0.601   4.199   5.990 -0.5456 -0.0225 -0.0270
 3872SOL     OW23077   0.394   3.810   7.073  0.5094 -0.8737 -0.2213
 3872SOL    HW123078   0.463   3.834   7.011  0.2295 -1.7866 -0.8999
 3872SOL    HW223079   0.431   3.756   7.142  1.6745  0.0062 -0.1563
 3873SOL     OW23080   4.580   2.634   8.263 -0.2145 -0.0974 -0.0251
 3873SOL    HW123081   4.531   2.554   8.284 -1.3867  0.2613 -1.3731
 3873SOL    HW223082   4.605   2.609   8.174  1.1052 -0.5122  0.4730
 3874SOL     OW23083   1.487   3.903   3.096  0.3252 -0.3834 -0.2426
 3874SOL    HW123084   1.558   3.859   3.049 -0.0323  0.5002 -1.6355
 3874SOL    HW223085   1.489   3.865   3.183  1.7186 -2.4955 -1.1901
 3875SOL     OW23086   4.605   2.763   7.507  0.1238 -0.6859 -0.3842
 3875SOL    HW123087   4.686   2.781   7.458  0.8630  2.8927  2.1009
 3875SOL    HW223088   4.549   2.815   7.449 -0.8111 -0.1217  1.0489
 3876SOL     OW23089   3.726   2.031  17.158 -0.5864  0.0271 -0.2623
 3876SOL    HW123090   3.703   1.967  17.091  1.0175 -0.6987 -0.1082
 3876SOL    HW223091   3.653   2.093  17.162  1.0231  1.9603 -1.2281
 3877SOL     OW23092   4.655   2.337   5.134 -0.6285 -0.1264 -0.1323
 3877SOL    HW123093   4.593   2.283   5.183  1.2790  0.2128  2.6379
 3877SOL    HW223094   0.004   2.345   5.200  0.2294  0.7430 -1.1284
 3878SOL     OW23095   2.020   3.131   3.336 -0.4455  0.9664  0.5609
 3878SOL    HW123096   2.069   3.134   3.418 -0.2498 -1.1254  0.5291
 3878SOL    HW223097   2.102   3.115   3.290 -1.9364  0.0271 -1.7537
 3879SOL     OW23098   3.432   1.351   7.209 -0.0967  0.0247  0.7572
 3879SOL    HW123099   3.447   1.413   7.281  0.9775 -0.5404  1.0237
 3879SOL    HW223100   3.427   1.412   7.135 -0.6106  0.9412  1.5396
 3880SOL     OW23101   1.118   1.564   4.226  0.1014 -0.0595  0.2378
 3880SOL    HW123102   1.205   1.525   4.223 -0.2878 -0.7879 -1.8594
 3880SOL    HW223103   1.142   1.657   4.226  0.9135 -0.2712 -1.6007
 3881SOL     OW23104   2.297   3.047   5.999  0.4938 -0.4538 -0.4152
 3881SOL    HW123105   2.388   3.058   5.970  0.9617  2.1469  2.0083
 3881SOL    HW223106   2.291   2.952   5.992  0.0161 -0.5920  1.9075
 3882SOL     OW23107   1.976   2.265   7.173  0.4581 -0.0377 -0.7311
 3882SOL    HW123108   2.046   2.202   7.190 -0.6369 -0.5737  1.7975
 3882SOL    HW223109   2.028   2.338   7.138  0.9019  0.1136  0.2309
 3883SOL     OW23110   4.376   4.700   5.399 -0.3759  0.2558  0.3664
 3883SOL    HW123111   4.378   4.692   5.494  1.3754  0.6186  0.3703
 3883SOL    HW223112   4.470   4.709   5.381 -0.0018 -1.9464  1.1854
 3884SOL     OW23113   2.155   1.526   2.521 -0.3647  0.2056  0.1244
 3884SOL    HW123114   2.244   1.556   2.509 -0.8761  1.4693 -0.4650
 3884SOL    HW223115   2.139   1.487   2.435  0.6831 -0.4890  0.2517
 3885SOL     OW23116   1.256   4.320   6.538  0.0043  0.0136 -0.2377
 3885SOL    HW123117   1.177   4.319   6.592  0.7375 -0.2809  0.8397
 3885SOL    HW223118   1.265   4.415   6.540  0.3392 -0.0395  0.9664
 3886SOL     OW23119   3.285   2.568   7.541 -0.0137  0.0029 -0.1693
 3886SOL    HW123120   3.370   2.597   7.576  0.1634  0.8625 -1.3063
 3886SOL    HW223121   3.273   2.629   7.468 -0.6183  0.5502  0.3961
 3887SOL     OW23122   4.157   2.435  15.317  0.2177  0.0173 -0.2930
 3887SOL    HW123123   4.161   2.400  15.406  0.1943 -1.4926 -0.8890
 3887SOL    HW223124   4.068   2.466  15.304 -0.4750 -1.7019  0.3894
 3888SOL     OW23125   4.642   1.527   6.765 -0.3582  0.3034  0.6553
 3888SOL    HW123126   4.654   1.601   6.825 -0.9311  1.0302 -0.1333
 3888SOL    HW223127   4.559   1.547   6.721  1.0635  0.2725 -2.0350
 3889SOL     OW23128   4.428   4.041  14.658 -0.0639 -0.1407 -0.0489
 3889SOL    HW123129   4.488   4.061  14.586 -2.1157  0.0468 -1.7131
 3889SOL    HW223130   4.344   4.077  14.629  0.2613  0.5713 -0.1217
 3890SOL     OW23131   0.776   2.941   6.469  0.4775 -0.2866  0.7831
 3890SOL    HW123132   0.821   3.026   6.471 -0.6245  0.2603  2.4589
 3890SOL    HW223133   0.719   2.949   6.393  1.6018 -0.0824 -0.0403
 3891SOL     OW23134   0.790   3.718   2.086 -0.4199  0.0573  0.2149
 3891SOL    HW123135   0.757   3.751   2.170  0.1101  0.9182  0.0827
 3891SOL    HW223136   0.820   3.629   2.107  0.1589  0.5101  1.3253
 3892SOL     OW23137   3.370   2.849  17.032  0.0318 -0.3042 -0.3714
 3892SOL    HW123138   3.296   2.789  17.035 -0.5560  0.4512  0.3352
 3892SOL    HW223139   3.399   2.834  17.122  1.1982  0.1070 -0.6820
 3893SOL     OW23140   1.044   2.708   6.763  0.4452 -0.1929  0.1492
 3893SOL    HW123141   1.050   2.636   6.700 -1.0651  2.2837 -2.7904
 3893SOL    HW223142   1.060   2.782   6.705  1.7602 -0.4483  0.1948
 3894SOL     OW23143   1.409   2.328   8.952 -0.4805 -0.2749 -0.3186
 3894SOL    HW123144   1.325   2.282   8.958  0.7819 -2.4152  0.9800
 3894SOL    HW223145   1.457   2.263   8.901 -0.1476  0.2051 -0.6102
 3895SOL     OW23146   2.723   2.351  16.360  0.3806 -0.0464 -0.0155
 3895SOL    HW123147   2.766   2.414  16.302 -1.3024  1.4996  0.4224
 3895SOL    HW223148   2.703   2.406  16.436 -1.6515 -1.0965  0.2000
 3896SOL     OW23149   0.499   0.446   4.288 -0.3545 -0.6036 -0.1012
 3896SOL    HW123150   0.434   0.389   4.247  0.9685 -1.2790 -1.2548
 3896SOL    HW223151   0.504   0.510   4.217  0.4423  0.1277  0.6150
 3897SOL     OW23152   1.097   0.380   9.423  0.0864 -0.1045 -0.2571
 3897SOL    HW123153   1.188   0.404   9.404  0.7204 -0.1195  2.8999
 3897SOL    HW223154   1.102   0.364   9.517 -0.1844  4.1665  0.4777
 3898SOL     OW23155   0.342   3.319   0.752  0.0525  0.4906 -0.3173
 3898SOL    HW123156   0.316   3.229   0.735  0.2395  0.7314 -1.9281
 3898SOL    HW223157   0.295   3.325   0.835  0.4814  1.5820 -0.1522
 3899SOL     OW23158   3.415   0.741   2.826  0.5890 -0.2756 -0.4576
 3899SOL    HW123159   3.410   0.772   2.735 -3.0378 -1.0143 -0.5107
 3899SOL    HW223160   3.429   0.647   2.816 -1.6426 -0.5109 -1.4166
 3900SOL     OW23161   4.194   1.392  12.383 -0.2665  0.0763 -0.1319
 3900SOL    HW123162   4.282   1.362  12.362 -1.0341 -0.7003 -2.1620
 3900SOL    HW223163   4.208   1.434  12.468 -0.0615 -0.7788  0.2576
 3901SOL     OW23164   2.761   1.870  16.084 -0.6454  0.0495 -0.3507
 3901SOL    HW123165   2.673   1.902  16.063 -0.9269 -1.1253 -0.9175
 3901SOL    HW223166   2.793   1.931  16.151 -0.7987 -0.0858 -0.1533
 3902SOL     OW23167   4.266   3.827  15.964 -0.3720  0.1264  0.1140
 3902SOL    HW123168   4.237   3.915  15.986  0.4707  0.1141  1.2901
 3902SOL    HW223169   4.349   3.840  15.918 -1.0354 -1.3076 -1.5075
 3903SOL     OW23170   0.181   3.131   9.013 -0.2917  0.0569 -0.3379
 3903SOL    HW123171   0.092   3.120   8.978 -0.8985 -0.5786  1.4414
 3903SOL    HW223172   0.145   3.112   9.099 -0.8526 -3.3293 -1.3192
 3904SOL     OW23173   0.508   0.919   5.425 -0.6171  0.5572 -0.0457
 3904SOL    HW123174   0.555   0.970   5.359  2.2765 -2.6660 -0.4882
 3904SOL    HW223175   0.426   0.967   5.434 -0.9491  0.1286 -0.8076
 3905SOL     OW23176   0.356   0.431   4.850  0.1721  0.0001  0.7057
 3905SOL    HW123177   0.348   0.525   4.835 -0.6688 -0.2437 -0.3354
 3905SOL    HW223178   0.451   0.429   4.863  0.4163 -1.2189 -1.3627
 3906SOL     OW23179   3.314   1.983  11.905 -0.4400  0.2922 -0.7423
 3906SOL    HW123180   3.274   2.008  11.821 -2.1891 -0.4376 -0.1236
 3906SOL    HW223181   3.396   2.033  11.902  0.1494 -0.5866  1.2182
 3907SOL     OW23182   0.345   2.209   7.456  1.0604  0.6289  0.2717
 3907SOL    HW123183   0.279   2.251   7.511  0.5173  0.3508 -0.1761
 3907SOL    HW223184   0.326   2.115   7.462  0.2108  0.8177  0.5742
 3908SOL     OW23185   1.342   0.158   3.983 -0.4079  0.0217  0.3847
 3908SOL    HW123186   1.381   0.223   3.925  0.2023 -0.3832  0.3393
 3908SOL    HW223187   1.373   0.189   4.068  2.2172 -0.8078 -0.2762
 3909SOL     OW23188   3.802   1.319  13.408 -0.3828 -0.1678  0.4644
 3909SOL    HW123189   3.761   1.355  13.486 -1.7187 -1.0045  0.1583
 3909SOL    HW223190   3.884   1.284  13.441  0.3761  0.8940 -0.2994
 3910SOL     OW23191   1.962   0.483   8.708  0.5864 -0.0213 -0.5971
 3910SOL    HW123192   1.954   0.404   8.655 -2.3034  0.5114 -0.9518
 3910SOL    HW223193   2.038   0.468   8.766 -0.5884 -0.2606  0.8896
 3911SOL     OW23194   3.065   2.115   2.807 -0.0309  0.0481  0.1518
 3911SOL    HW123195   2.977   2.107   2.769 -0.9320  2.8552  1.7028
 3911SOL    HW223196   3.056   2.068   2.890  0.1729 -1.3864 -0.6383
 3912SOL     OW23197   1.752   0.197   4.823 -0.4014 -1.0021 -0.5286
 3912SOL    HW123198   1.683   0.264   4.821 -0.9516 -1.4981  1.7929
 3912SOL    HW223199   1.764   0.193   4.728 -0.9860 -0.0634 -0.6507
 3913SOL     OW23200   1.558   0.108   0.507  0.7563 -0.2326  0.1441
 3913SOL    HW123201   1.584   0.103   0.415 -0.3214 -1.7463 -0.0639
 3913SOL    HW223202   1.601   0.193   0.522 -1.4187  1.2833 -2.1457
 3914SOL     OW23203   0.237   3.495  11.157  0.0270 -0.1106  0.4895
 3914SOL    HW123204   0.228   3.565  11.222 -1.8764  2.4800 -2.5622
 3914SOL    HW223205   0.312   3.443  11.187  1.4807  1.4208 -0.4480
 3915SOL     OW23206   1.458   0.675   2.692 -0.1598 -0.0562  0.0305
 3915SOL    HW123207   1.450   0.579   2.687 -0.1951 -0.0347 -0.3045
 3915SOL    HW223208   1.442   0.701   2.783  0.1831  1.6838 -0.4129
 3916SOL     OW23209   1.176   1.280   3.407 -0.1569 -0.1469 -0.0648
 3916SOL    HW123210   1.120   1.204   3.415  0.6706 -0.7225  0.2868
 3916SOL    HW223211   1.255   1.235   3.437 -1.3432 -2.2364 -0.1274
 3917SOL     OW23212   4.203   4.166   5.062  0.1222  0.4369  0.2051
 3917SOL    HW123213   4.129   4.110   5.086  0.3382  0.2562  0.4406
 3917SOL    HW223214   4.150   4.246   5.056  1.3364  1.1043 -1.5944
 3918SOL     OW23215   3.094   0.934   6.687  0.2964  0.0838 -0.0265
 3918SOL    HW123216   3.165   0.997   6.675 -1.0743  1.9874  1.7392
 3918SOL    HW223217   3.136   0.848   6.690  1.0141  0.4429  0.1069
 3919SOL     OW23218   4.587   2.959  15.645  0.8891  0.1995  0.1156
 3919SOL    HW123219   4.657   2.961  15.580 -1.2550 -1.4760 -2.2420
 3919SOL    HW223220   4.599   3.050  15.673  1.6711 -0.4902  1.9832
 3920SOL     OW23221   1.278   0.939   3.100  0.4234 -0.0302 -0.0868
 3920SOL    HW123222   1.339   1.003   3.065  0.4157 -0.0347 -0.1085
 3920SOL    HW223223   1.219   0.999   3.146  1.1934 -0.2062  1.1319
 3921SOL     OW23224   0.251   2.369   8.922 -0.2554  0.1012 -0.6621
 3921SOL    HW123225   0.327   2.314   8.899 -0.1737  0.2561 -0.7611
 3921SOL    HW223226   0.267   2.401   9.010 -2.1332  1.6899 -0.9023
 3922SOL     OW23227   3.618   4.421   4.098 -0.6535 -0.5098 -0.2374
 3922SOL    HW123228   3.584   4.491   4.042  1.7535  1.4764  0.7607
 3922SOL    HW223229   3.629   4.463   4.183 -2.2924 -2.5847  1.0041
 3923SOL     OW23230   3.152   1.469   7.301 -0.1938  0.6136 -0.2094
 3923SOL    HW123231   3.188   1.545   7.347  2.3495 -1.3260  1.0294
 3923SOL    HW223232   3.169   1.398   7.363 -2.3419 -0.5000 -0.9155
 3924SOL     OW23233   1.933   0.974   9.509  0.2511  0.1191 -0.1321
 3924SOL    HW123234   2.027   0.984   9.499  0.2724 -0.9098 -0.9604
 3924SOL    HW223235   1.901   0.999   9.423  3.5640  1.2715 -1.0316
 3925SOL     OW23236   3.020   2.660   6.481 -0.8243 -0.8217  0.2871
 3925SOL    HW123237   2.976   2.699   6.557 -0.1544 -2.2162  1.3862
 3925SOL    HW223238   3.109   2.657   6.516 -1.3604 -2.1044  1.5682
 3926SOL     OW23239   3.174   0.812  15.151  0.1417  0.4281 -0.1743
 3926SOL    HW123240   3.225   0.825  15.231  0.9925 -0.5545 -0.5646
 3926SOL    HW223241   3.162   0.717  15.155  1.0268  0.3443  0.4821
 3927SOL     OW23242   0.133   3.481   3.525  0.3220  0.1649  0.3714
 3927SOL    HW123243   0.180   3.518   3.450  0.1275  0.2856  0.3082
 3927SOL    HW223244   0.047   3.506   3.492  0.4615 -0.1975 -0.2583
 3928SOL     OW23245   4.573   4.172   7.810  0.1405  0.1584 -0.0240
 3928SOL    HW123246   4.488   4.139   7.780 -0.1667  1.0495 -0.1384
 3928SOL    HW223247   4.541   4.258   7.839  1.2152  0.2243  0.9612
 3929SOL     OW23248   4.259   4.078   7.412  0.4762  0.4313  0.2085
 3929SOL    HW123249   4.306   4.061   7.493 -2.4894  0.2159  1.9078
 3929SOL    HW223250   4.332   4.108   7.357 -1.2727  0.2331 -2.2400
 3930SOL     OW23251   1.812   1.495   1.029 -0.4680 -0.0518  0.4023
 3930SOL    HW123252   1.878   1.522   0.964 -2.1144  0.1253 -1.2072
 3930SOL    HW223253   1.789   1.414   0.982 -1.0685  0.9910 -1.1229
 3931SOL     OW23254   0.478   1.563   0.883  0.0309 -0.2297  0.2435
 3931SOL    HW123255   0.458   1.470   0.876 -0.5584 -0.0819 -0.0441
 3931SOL    HW223256   0.573   1.559   0.892  0.3952 -0.1009 -3.6744
 3932SOL     OW23257   0.085   0.798   3.891  0.2220 -0.0021  0.3616
 3932SOL    HW123258   0.178   0.790   3.872  0.6330  0.6942  2.1342
 3932SOL    HW223259   0.073   0.713   3.933 -1.4743  0.9368  1.7889
 3933SOL     OW23260   2.859   0.300   5.010  0.2485 -0.2774 -0.0086
 3933SOL    HW123261   2.769   0.293   4.980  0.6946 -1.1210 -1.1691
 3933SOL    HW223262   2.856   0.393   5.032  0.7756  0.1290 -1.6584
 3934SOL     OW23263   1.651   0.154   5.963  0.5122 -0.0916 -0.2350
 3934SOL    HW123264   1.655   0.157   5.867  4.2888 -1.1035 -0.0945
 3934SOL    HW223265   1.690   0.069   5.983  0.5968 -0.1234 -0.5284
 3935SOL     OW23266   1.224   0.466  11.796 -0.6307 -0.3404  0.1692
 3935SOL    HW123267   1.302   0.521  11.791  0.0077 -1.1572  1.0487
 3935SOL    HW223268   1.176   0.495  11.874 -0.3397 -0.1087  0.2627
 3936SOL     OW23269   0.505   3.829   1.389  0.5521 -0.4372  0.5500
 3936SOL    HW123270   0.547   3.838   1.304 -1.9340  1.4093 -0.4780
 3936SOL    HW223271   0.497   3.734   1.402 -1.7263 -0.2903  0.2222
 3937SOL     OW23272   1.835   1.070   9.283  0.2585 -0.2107 -0.5298
 3937SOL    HW123273   1.745   1.044   9.298  0.0128  1.7361  1.4297
 3937SOL    HW223274   1.847   1.057   9.189 -0.4506 -0.0979 -0.6340
 3938SOL     OW23275   3.298   4.093   2.725 -0.3455 -0.0125  0.4805
 3938SOL    HW123276   3.319   4.030   2.656 -0.0810 -0.5372  1.0450
 3938SOL    HW223277   3.327   4.051   2.806  1.5978  0.8750  0.2294
 3939SOL     OW23278   3.803   1.890   6.946 -0.0832  0.5648 -0.1555
 3939SOL    HW123279   3.709   1.910   6.945 -0.1450  0.2624 -0.3684
 3939SOL    HW223280   3.811   1.795   6.954  0.0529  0.5396 -0.5797
 3940SOL     OW23281   4.003   4.669   2.913  0.2650  0.5604  0.2143
 3940SOL    HW123282   3.969   4.676   2.824  2.6982  0.8573 -0.6832
 3940SOL    HW223283   3.944   4.605   2.953 -1.4798  3.2024  1.8622
 3941SOL     OW23284   0.707   4.043   3.353 -0.0002 -0.5797  0.5128
 3941SOL    HW123285   0.765   4.008   3.285  1.4977  1.6774  0.6206
 3941SOL    HW223286   0.776   4.093   3.398 -0.3773  0.3336  0.0870
 3942SOL     OW23287   2.695   3.678   3.520 -0.0562  0.6037 -0.1798
 3942SOL    HW123288   2.602   3.670   3.540 -0.0907  3.3172  0.8041
 3942SOL    HW223289   2.697   3.771   3.543  0.5474  0.3568  0.7657
 3943SOL     OW23290   0.446   2.237  14.943  0.3093  0.4116  0.1400
 3943SOL    HW123291   0.429   2.173  15.013  0.1741 -2.0957 -2.1708
 3943SOL    HW223292   0.428   2.187  14.864  2.7834  1.2383 -0.9474
 3944SOL     OW23293   0.558   0.448   2.484  0.0669  0.6753 -0.2479
 3944SOL    HW123294   0.555   0.517   2.418 -1.7094  1.4247  0.6226
 3944SOL    HW223295   0.487   0.394   2.449  0.9247 -0.9790  0.5553
 3945SOL     OW23296   1.150   2.721   7.720 -0.8202 -0.1584  0.2386
 3945SOL    HW123297   1.201   2.680   7.790 -1.0169  0.7563  0.9357
 3945SOL    HW223298   1.221   2.763   7.672 -0.3741  1.6298  2.4261
 3946SOL     OW23299   2.128   0.128  13.970  0.3399  0.0788 -0.0293
 3946SOL    HW123300   2.039   0.099  13.987 -0.3465  1.5871 -1.1150
 3946SOL    HW223301   2.170   0.062  13.915 -0.9714 -0.8462  0.0778
 3947SOL     OW23302   0.747   4.214   2.201 -0.2232  0.9937  0.7913
 3947SOL    HW123303   0.836   4.237   2.175 -0.0943 -0.2414  0.1474
 3947SOL    HW223304   0.752   4.255   2.287  2.2705  1.1964  0.5346
 3948SOL     OW23305   4.073   3.170   4.962  0.7165  0.3809  0.1925
 3948SOL    HW123306   4.125   3.250   4.970 -1.4938  1.9429 -0.9563
 3948SOL    HW223307   4.100   3.122   5.041  0.9359  0.2831  0.0584
 3949SOL     OW23308   3.350   3.782   6.209 -0.0547 -0.0404 -0.2176
 3949SOL    HW123309   3.358   3.686   6.211  0.6034  0.0393  0.8597
 3949SOL    HW223310   3.381   3.794   6.120  0.0715  2.1480  0.1156
 3950SOL     OW23311   2.862   4.253   5.481 -0.0418 -0.3973 -1.0303
 3950SOL    HW123312   2.867   4.289   5.392 -3.0526  0.2252 -0.9350
 3950SOL    HW223313   2.932   4.190   5.468 -0.7129 -1.3404 -0.0113
 3951SOL     OW23314   4.351   3.520   8.053  0.3603  0.1983  0.2130
 3951SOL    HW123315   4.355   3.523   7.957  0.7521 -0.3275  0.2156
 3951SOL    HW223316   4.360   3.427   8.071 -0.4393  0.1910  0.5696
 3952SOL     OW23317   3.304   0.888   4.457 -0.0826 -0.3773  0.3368
 3952SOL    HW123318   3.320   0.798   4.485  0.6979 -0.5586 -0.7039
 3952SOL    HW223319   3.362   0.937   4.516  1.0831 -1.3524 -0.0038
 3953SOL     OW23320   1.913   3.372   7.652  0.1821 -0.2701  1.1115
 3953SOL    HW123321   1.989   3.405   7.700  0.1172  4.3663 -2.0171
 3953SOL    HW223322   1.954   3.381   7.566  1.2667 -0.8444  1.5641
 3954SOL     OW23323   3.454   4.277   7.963 -0.4392 -0.9445  0.1125
 3954SOL    HW123324   3.529   4.256   8.019  0.9659  2.7814 -0.3948
 3954SOL    HW223325   3.457   4.370   7.982 -2.7807 -1.2943  2.2465
 3955SOL     OW23326   0.020   4.514   8.265  0.3803 -0.0702  0.2527
 3955SOL    HW123327   0.035   4.495   8.172  1.3515 -1.2809  0.6503
 3955SOL    HW223328   0.094   4.571   8.286 -0.5838  1.5420 -0.7224
 3956SOL     OW23329   3.730   0.515   6.736 -0.4126  0.0387  0.5881
 3956SOL    HW123330   3.782   0.517   6.656 -4.1351 -1.5880 -1.8821
 3956SOL    HW223331   3.786   0.488   6.808 -0.2194  2.2301  1.2495
 3957SOL     OW23332   0.835   1.296   1.006 -0.3946 -0.0624 -0.0835
 3957SOL    HW123333   0.928   1.319   0.997 -0.2303 -1.8166 -2.8819
 3957SOL    HW223334   0.792   1.381   1.016 -0.8852 -0.5249  1.6645
 3958SOL     OW23335   4.022   3.462   2.648  0.4647 -0.2694 -0.0192
 3958SOL    HW123336   4.067   3.543   2.624  1.1409 -1.3717 -2.4681
 3958SOL    HW223337   4.040   3.413   2.567 -2.0838  2.4798 -2.2402
 3959SOL     OW23338   0.550   0.985   4.771  0.2308  0.6029 -0.3233
 3959SOL    HW123339   0.556   1.048   4.843 -0.3905 -0.7190  0.8894
 3959SOL    HW223340   0.548   0.903   4.819 -0.3191 -0.3138 -1.9106
 3960SOL     OW23341   1.761   1.732   3.625  0.3500 -0.1623 -0.1737
 3960SOL    HW123342   1.783   1.756   3.535  1.8681 -0.1462  0.2025
 3960SOL    HW223343   1.834   1.675   3.649  0.8161  0.2977 -0.4913
 3961SOL     OW23344   1.631   0.461   5.705  0.2680  0.0203 -0.4952
 3961SOL    HW123345   1.675   0.525   5.761 -0.8980  0.4872 -0.1342
 3961SOL    HW223346   1.703   0.426   5.651  0.3511 -1.8170  0.8060
 3962SOL     OW23347   2.907   0.234   6.690 -0.3692  0.2491  0.3370
 3962SOL    HW123348   2.834   0.269   6.740 -2.0581  0.4588 -2.2597
 3962SOL    HW223349   2.979   0.251   6.751  1.5984 -1.9690 -1.3629
 3963SOL     OW23350   1.971   1.377  10.839  0.1764  0.3218  0.6440
 3963SOL    HW123351   1.998   1.312  10.774  0.0783  1.2344 -0.3113
 3963SOL    HW223352   1.880   1.351  10.857 -0.5439  1.6867 -1.0487
 3964SOL     OW23353   3.617   0.806   7.838 -0.7388  0.1934 -0.5328
 3964SOL    HW123354   3.521   0.803   7.839 -0.6461 -1.7949  1.7079
 3964SOL    HW223355   3.630   0.773   7.927  2.1155  1.6322 -0.4263
 3965SOL     OW23356   2.007   1.309   7.929  0.1834 -0.1764 -0.1919
 3965SOL    HW123357   1.935   1.372   7.927  1.7707  1.7134  1.6446
 3965SOL    HW223358   2.054   1.345   8.004 -0.1096  0.8623 -0.5061
 3966SOL     OW23359   1.983   2.470  10.044 -0.4441 -0.1015 -0.1938
 3966SOL    HW123360   1.963   2.551  10.090 -0.6442 -0.4724  0.3772
 3966SOL    HW223361   1.944   2.402  10.100  0.5192  1.1928  2.0463
 3967SOL     OW23362   3.658   0.524   3.307  0.2119  0.5688  0.8131
 3967SOL    HW123363   3.633   0.449   3.254 -0.1835  3.0744 -2.5345
 3967SOL    HW223364   3.721   0.565   3.247 -0.5284  0.1088 -0.2805
 3968SOL     OW23365   2.008   3.147  12.540  0.3733  0.1277  0.0901
 3968SOL    HW123366   1.954   3.131  12.463  0.5939 -0.4872  0.0579
 3968SOL    HW223367   2.094   3.147  12.497  0.8872  2.5037  1.1374
 3969SOL     OW23368   3.328   1.718   2.902  0.4638 -0.3525  0.1111
 3969SOL    HW123369   3.323   1.772   2.981 -0.8753  1.8233 -1.4351
 3969SOL    HW223370   3.421   1.705   2.882  0.6174 -1.4559  1.5839
 3970SOL     OW23371   3.945   3.420   4.837  0.2995  0.3777 -0.4122
 3970SOL    HW123372   3.987   3.409   4.751 -0.9384 -1.3947 -0.7987
 3970SOL    HW223373   3.992   3.361   4.896 -0.5026  0.4937  0.3328
 3971SOL     OW23374   2.745   1.784   9.711  0.1037 -0.6507  0.1349
 3971SOL    HW123375   2.673   1.733   9.674  0.1435 -0.5693 -0.0559
 3971SOL    HW223376   2.714   1.822   9.794  1.1997 -0.6086  0.5199
 3972SOL     OW23377   4.594   1.180   4.392 -0.1525 -0.3052  0.4147
 3972SOL    HW123378   4.668   1.176   4.452 -0.1555  1.6656  0.5365
 3972SOL    HW223379   4.629   1.247   4.333 -1.1138 -0.1895 -0.0210
 3973SOL     OW23380   1.561   4.680   7.274 -0.3709 -0.0627  0.0025
 3973SOL    HW123381   1.526   0.049   7.283  0.1404 -0.0790  2.1175
 3973SOL    HW223382   1.639   4.682   7.330 -0.2854  0.2398 -0.1256
 3974SOL     OW23383   0.986   2.977   9.102  0.1357 -0.2101  0.2138
 3974SOL    HW123384   0.982   2.966   9.197  2.3118  0.7710  0.4156
 3974SOL    HW223385   0.923   3.048   9.091 -0.5697 -0.9309 -0.4952
 3975SOL     OW23386   2.717   2.571   2.952 -0.1934 -0.4002 -0.1431
 3975SOL    HW123387   2.769   2.562   3.032  0.4654 -2.9218 -0.8552
 3975SOL    HW223388   2.737   2.485   2.915 -1.6930 -0.1709 -1.5156
 3976SOL     OW23389   0.724   2.203   8.124 -0.2304  0.3259  0.0861
 3976SOL    HW123390   0.781   2.279   8.135  0.3764 -0.5070  2.9551
 3976SOL    HW223391   0.772   2.167   8.049  0.1299  1.5009 -0.2369
 3977SOL     OW23392   2.038   3.505   3.677 -0.5991 -0.3547 -0.2374
 3977SOL    HW123393   2.126   3.477   3.653 -0.7211 -2.0925  1.3631
 3977SOL    HW223394   2.058   3.521   3.770 -0.2251 -0.3626 -0.3169
 3978SOL     OW23395   3.477   0.235  12.428  0.0776  0.3501  0.4958
 3978SOL    HW123396   3.402   0.181  12.403  0.7551 -0.0227 -0.6962
 3978SOL    HW223397   3.429   0.318  12.419  0.3063  0.4525  0.2276
 3979SOL     OW23398   1.674   0.816   8.410  0.2192  0.0291  0.2889
 3979SOL    HW123399   1.743   0.817   8.344 -0.2910 -0.3317 -0.2517
 3979SOL    HW223400   1.707   0.757   8.478 -2.7569  1.8360  3.3552
 3980SOL     OW23401   4.672   0.823   4.639 -0.3662 -0.2993  0.0265
 3980SOL    HW123402   4.663   0.751   4.702 -0.5419 -0.5912 -0.3330
 3980SOL    HW223403   0.030   0.792   4.592  0.5831  2.1951 -0.0530
 3981SOL     OW23404   2.852   1.587   8.628 -0.2748 -0.0271 -0.2601
 3981SOL    HW123405   2.835   1.523   8.559 -0.3898  0.1047 -0.3553
 3981SOL    HW223406   2.879   1.525   8.695 -1.4525  0.2488  0.4815
 3982SOL     OW23407   0.319   4.423  16.978  0.1388 -0.4003  0.8996
 3982SOL    HW123408   0.279   4.493  17.029  0.1716  0.1573  0.1534
 3982SOL    HW223409   0.384   4.473  16.928  0.9929 -0.1999  2.2030
 3983SOL     OW23410   1.639   0.929  11.938 -0.7539  0.2353  0.4079
 3983SOL    HW123411   1.613   0.994  12.004  0.0577  3.1484 -2.1641
 3983SOL    HW223412   1.574   0.859  11.946 -1.6264  0.8103 -1.6089
 3984SOL     OW23413   2.971   3.035   1.465  0.6039  0.1647 -0.9252
 3984SOL    HW123414   2.994   2.975   1.536  0.3943  1.3703  0.1699
 3984SOL    HW223415   2.898   2.981   1.435  1.0707 -0.1163 -1.5571
 3985SOL     OW23416   2.232   2.735   5.336  0.1921 -0.1558 -0.1375
 3985SOL    HW123417   2.247   2.824   5.306 -2.0538 -0.1778 -1.3270
 3985SOL    HW223418   2.287   2.694   5.268  2.5971  0.9399  1.1405
 3986SOL     OW23419   1.285   0.309   6.174  0.5334 -0.6709 -0.3397
 3986SOL    HW123420   1.259   0.381   6.231  0.7781  0.7900 -2.0783
 3986SOL    HW223421   1.375   0.295   6.204  0.8166  1.6861 -0.1107
 3987SOL     OW23422   3.601   2.175  13.328 -0.1583  0.2658 -0.4730
 3987SOL    HW123423   3.640   2.259  13.351  0.2115  0.8378 -3.1143
 3987SOL    HW223424   3.508   2.191  13.343 -0.4901 -0.9079 -1.2292
 3988SOL     OW23425   1.099   0.789   8.643 -0.0459  0.1161 -0.1564
 3988SOL    HW123426   1.006   0.803   8.662 -0.7332 -2.2537 -1.7917
 3988SOL    HW223427   1.107   0.694   8.643 -1.2437  0.0167 -2.8571
 3989SOL     OW23428   1.944   0.672   1.956 -0.6729  0.2381  0.0450
 3989SOL    HW123429   1.919   0.747   2.011 -0.1424  1.2443 -1.0885
 3989SOL    HW223430   2.035   0.647   1.970 -0.4406  1.4134  0.5794
 3990SOL     OW23431   4.181   3.048   5.223  0.1793 -0.5986  0.4128
 3990SOL    HW123432   4.212   3.088   5.304 -0.2736 -0.9935  0.7830
 3990SOL    HW223433   4.166   2.957   5.248 -0.5938 -0.4516  0.4760
 3991SOL     OW23434   2.366   0.127   6.301 -0.5726  0.1827  0.2169
 3991SOL    HW123435   2.422   0.066   6.253  0.4275  2.4779 -1.4802
 3991SOL    HW223436   2.430   0.184   6.344  0.9433 -1.0157 -0.4416
 3992SOL     OW23437   0.708   2.873   8.861 -0.0668  0.6678  0.0360
 3992SOL    HW123438   0.748   2.894   8.776 -2.0391 -1.9026 -1.5262
 3992SOL    HW223439   0.780   2.822   8.896  0.1471  1.9866  1.5125
 3993SOL     OW23440   2.293   3.845   3.336  0.2105 -0.1448 -0.3358
 3993SOL    HW123441   2.278   3.877   3.246 -2.0938  0.3974  0.2550
 3993SOL    HW223442   2.257   3.757   3.328 -0.6126  0.0796  0.9042
 3994SOL     OW23443   2.234   3.306   4.204  0.1715  0.4649  0.0738
 3994SOL    HW123444   2.140   3.313   4.192  0.4114 -1.6132 -3.0400
 3994SOL    HW223445   2.242   3.213   4.183  1.8436  0.6235 -0.0159
 3995SOL     OW23446   3.355   4.460   5.022 -0.8045  0.4575  0.4625
 3995SOL    HW123447   3.427   4.476   4.961 -1.2609  2.8148  0.5459
 3995SOL    HW223448   3.366   4.365   5.029  0.7373  0.5937 -0.1119
 3996SOL     OW23449   2.333   4.458   4.545 -0.7446  0.1523 -0.3660
 3996SOL    HW123450   2.379   4.445   4.462 -1.6451  1.8708 -1.1283
 3996SOL    HW223451   2.401   4.433   4.608  1.0464  1.9607 -1.5903
 3997SOL     OW23452   3.810   2.171  11.790  0.0927  0.6822 -0.0424
 3997SOL    HW123453   3.890   2.218  11.810  0.5623  0.7037 -1.9844
 3997SOL    HW223454   3.817   2.162  11.694  0.8818  1.6586 -0.0673
 3998SOL     OW23455   3.077   1.755   2.313  0.0768 -0.3956  0.3650
 3998SOL    HW123456   3.165   1.781   2.339 -0.3785  0.8694  0.6452
 3998SOL    HW223457   3.030   1.791   2.389  1.1840  0.7014  0.5348
 3999SOL     OW23458   3.113   1.094   3.281  0.3402  0.0562 -0.3710
 3999SOL    HW123459   3.059   1.024   3.318  0.6041 -0.0745 -0.2264
 3999SOL    HW223460   3.083   1.171   3.329 -0.8384 -1.9087  2.0242
 4000SOL     OW23461   0.407   1.937  16.432  0.1354 -0.5262  0.0641
 4000SOL    HW123462   0.314   1.916  16.419 -0.1466  0.8549 -0.1865
 4000SOL    HW223463   0.426   1.902  16.519  0.0994 -0.8947 -0.0775
 4001SOL     OW23464   2.872   4.589   0.941 -0.0563  0.3572 -0.2770
 4001SOL    HW123465   2.942   4.629   0.992 -1.2361  0.8715  0.9567
 4001SOL    HW223466   2.815   4.665   0.926 -0.5337 -0.5592 -3.0741
 4002SOL     OW23467   2.589   0.985   6.920 -0.5000 -0.3953 -0.5662
 4002SOL    HW123468   2.681   1.004   6.939 -0.4888 -0.8444 -0.1661
 4002SOL    HW223469   2.569   0.942   7.004 -0.1240  0.0943 -0.2221
 4003SOL     OW23470   4.084   4.155  12.778  0.0601 -0.2402 -0.4214
 4003SOL    HW123471   4.129   4.226  12.824 -0.8533 -0.6702  1.1022
 4003SOL    HW223472   4.062   4.199  12.696  1.8084  0.7691 -0.3678
 4004SOL     OW23473   3.403   1.343   3.052  0.2292 -0.1038  0.0005
 4004SOL    HW123474   3.401   1.249   3.069 -2.1434 -0.2360 -1.0902
 4004SOL    HW223475   3.392   1.367   3.144  0.9871  0.6727 -0.1042
 4005SOL     OW23476   2.254   2.886   6.455  0.1068 -0.1643  0.6681
 4005SOL    HW123477   2.263   2.802   6.500 -0.3855  0.2909  1.6246
 4005SOL    HW223478   2.345   2.901   6.431 -0.1160 -0.0879 -0.1348
 4006SOL     OW23479   4.518   0.144   7.692 -0.2919 -0.0419  0.1382
 4006SOL    HW123480   4.602   0.157   7.737 -1.3317 -2.1980  2.7532
 4006SOL    HW223481   4.542   0.119   7.603  3.0297  0.3470  0.9398
 4007SOL     OW23482   0.531   0.930   6.902 -0.4643 -0.1686 -0.1783
 4007SOL    HW123483   0.504   0.899   6.815 -2.5185  0.7714  0.1153
 4007SOL    HW223484   0.444   0.926   6.943 -1.1311 -0.6310 -1.6306
 4008SOL     OW23485   2.427   4.027   3.945  0.1497  0.0291 -0.8399
 4008SOL    HW123486   2.360   4.092   3.924  0.4983  0.7808  0.3767
 4008SOL    HW223487   2.506   4.076   3.925 -1.1705  2.1045 -0.9482
 4009SOL     OW23488   4.396   1.413   8.247 -0.2791 -0.1459  0.4165
 4009SOL    HW123489   4.394   1.319   8.228  1.3478 -0.3511  1.2772
 4009SOL    HW223490   4.448   1.445   8.174 -0.7945 -0.6001 -0.1492
 4010SOL     OW23491   4.621   3.342   6.564  0.4271 -0.1740  0.3765
 4010SOL    HW123492   4.666   3.424   6.544  1.1810 -0.6989 -0.0689
 4010SOL    HW223493   4.528   3.366   6.571  0.0787 -0.7441 -2.2608
 4011SOL     OW23494   0.855   3.946  17.121 -0.4557 -0.0618  0.3939
 4011SOL    HW123495   0.912   3.893  17.065 -1.1606 -1.6179  1.1632
 4011SOL    HW223496   0.927   3.991  17.166 -0.6074 -1.8590  2.4330
 4012SOL     OW23497   1.772   2.018  11.243  0.1471  0.0090 -0.0915
 4012SOL    HW123498   1.719   1.982  11.172 -1.2842 -0.5374  1.2512
 4012SOL    HW223499   1.717   2.095  11.262  1.0585  0.3921  0.9966
 4013SOL     OW23500   3.244   0.647   3.247  0.7138  0.2054  0.2663
 4013SOL    HW123501   3.234   0.553   3.229  1.2097 -0.4935  3.4990
 4013SOL    HW223502   3.236   0.691   3.163 -0.8290  2.6165  1.6757
 4014SOL     OW23503   4.208   0.803   2.902 -0.4769  0.3518 -0.2852
 4014SOL    HW123504   4.256   0.863   2.959  2.4140 -2.1709 -0.0621
 4014SOL    HW223505   4.115   0.817   2.920 -0.4335  0.4101 -0.1057
 4015SOL     OW23506   3.019   3.634   2.579 -0.3677 -0.1877  0.4841
 4015SOL    HW123507   3.113   3.642   2.563 -0.4491 -0.8076 -0.3115
 4015SOL    HW223508   3.018   3.687   2.659  0.9936  1.0969 -0.3642
 4016SOL     OW23509   0.625   2.126  12.936 -0.4276 -0.9299  0.2628
 4016SOL    HW123510   0.672   2.170  12.865  0.0138 -1.8521 -0.0099
 4016SOL    HW223511   0.627   2.186  13.011 -0.8386 -2.3192  1.3909
 4017SOL     OW23512   0.678   1.443   8.269 -0.8699 -0.2336 -0.3259
 4017SOL    HW123513   0.631   1.506   8.324 -1.2002  0.4551 -1.4037
 4017SOL    HW223514   0.639   1.454   8.182  0.4712  1.3396 -0.7241
 4018SOL     OW23515   2.967   2.209   5.921  0.0214  0.1947  0.3503
 4018SOL    HW123516   2.956   2.178   6.011 -1.1877 -1.0845 -0.2523
 4018SOL    HW223517   2.967   2.304   5.936 -1.0924  0.5550 -1.8666
 4019SOL     OW23518   2.843   2.644   3.864 -0.4548 -0.2215  0.5482
 4019SOL    HW123519   2.808   2.679   3.782  2.4592  1.1360 -0.1233
 4019SOL    HW223520   2.932   2.619   3.841  0.1682  1.4316  1.1323
 4020SOL     OW23521   0.535   1.606   1.413 -0.4872 -0.4326 -0.0489
 4020SOL    HW123522   0.611   1.594   1.356 -0.0373 -2.0216  0.9150
 4020SOL    HW223523   0.509   1.687   1.368 -0.2939 -0.1900  0.2735
 4021SOL     OW23524   4.274   2.535   3.400  0.1177 -0.5792  0.7755
 4021SOL    HW123525   4.274   2.572   3.488 -0.7923  1.0898  0.0750
 4021SOL    HW223526   4.191   2.489   3.400 -0.7455  0.9772  1.2888
 4022SOL     OW23527   4.254   0.055   1.323  0.5087 -0.1428 -0.5267
 4022SOL    HW123528   4.262   0.130   1.263 -2.9248 -0.4411 -1.3752
 4022SOL    HW223529   4.300   0.085   1.402 -0.2591 -0.1386 -0.0755
 4023SOL     OW23530   1.389   3.721   0.819 -0.2360 -0.0675 -0.5919
 4023SOL    HW123531   1.426   3.638   0.787  0.8259 -0.7304  2.3872
 4023SOL    HW223532   1.370   3.764   0.735  0.0865 -1.3345 -1.3195
 4024SOL     OW23533   1.705   2.128  10.244 -0.0684  0.0592  0.0868
 4024SOL    HW123534   1.617   2.151  10.274  0.2836 -0.0853  1.2329
 4024SOL    HW223535   1.737   2.062  10.305 -0.1071 -1.3719 -1.4280
 4025SOL     OW23536   3.948   2.923   2.342  0.5083  0.1644 -0.1887
 4025SOL    HW123537   3.928   3.011   2.311 -2.5499 -0.6420 -0.4242
 4025SOL    HW223538   3.886   2.925   2.415  1.3033  0.6235  0.4810
 4026SOL     OW23539   3.107   1.507   3.305  0.1853  0.1927 -0.4275
 4026SOL    HW123540   3.174   1.440   3.286 -0.9476 -1.5647  1.7511
 4026SOL    HW223541   3.163   1.562   3.360  0.8901 -2.1080  1.1682
 4027SOL     OW23542   1.104   2.632   7.142  0.3860  0.1639  0.2205
 4027SOL    HW123543   1.150   2.714   7.157  1.7846 -0.4861 -0.5172
 4027SOL    HW223544   1.172   2.571   7.171  1.6449  0.5689 -1.8616
 4028SOL     OW23545   0.734   0.295   3.613 -0.3083 -0.1164  0.5258
 4028SOL    HW123546   0.781   0.369   3.573 -0.5730  0.0369  0.4959
 4028SOL    HW223547   0.654   0.345   3.632 -2.0410 -1.9989 -1.9314
 4029SOL     OW23548   3.690   2.335   2.369 -0.5345 -0.1552 -0.5813
 4029SOL    HW123549   3.771   2.291   2.341 -1.0459 -2.2235  1.1238
 4029SOL    HW223550   3.704   2.416   2.321 -2.0205 -0.4316 -1.4832
 4030SOL     OW23551   0.997   1.487  13.087  0.6104  0.5673 -0.4038
 4030SOL    HW123552   0.919   1.473  13.035  1.3218 -1.4505 -0.9357
 4030SOL    HW223553   0.975   1.455  13.174 -0.0658  0.1943 -0.7164
 4031SOL     OW23554   2.575   3.883  16.974  0.3429 -0.6402 -0.1439
 4031SOL    HW123555   2.652   3.827  16.969 -0.7077 -2.1543  0.5488
 4031SOL    HW223556   2.615   3.970  16.970  0.1538 -0.5377  0.1464
 4032SOL     OW23557   2.916   2.801   8.022  0.2027  0.0364  0.1826
 4032SOL    HW123558   2.960   2.795   8.107 -0.1129  1.7566  0.4502
 4032SOL    HW223559   2.866   2.882   8.023  2.0572  1.1683 -0.1331
 4033SOL     OW23560   3.634   4.431  11.261 -0.9508  0.5812  0.8786
 4033SOL    HW123561   3.635   4.525  11.243 -1.8260  0.7790  1.8839
 4033SOL    HW223562   3.698   4.421  11.332  0.6406  1.6171 -0.3873
 4034SOL     OW23563   0.564   2.607   3.521  0.5938 -0.5153  0.1656
 4034SOL    HW123564   0.473   2.630   3.503  0.3652 -0.9239  0.7882
 4034SOL    HW223565   0.603   2.693   3.536  0.2721 -0.1316 -1.1771
 4035SOL     OW23566   0.435   2.837   4.335 -0.2512 -0.9743 -0.6784
 4035SOL    HW123567   0.527   2.864   4.334 -0.6212  0.4640  2.0607
 4035SOL    HW223568   0.385   2.917   4.318  0.8860 -0.2229 -0.4757
 4036SOL     OW23569   3.560   4.130   2.146  0.0531 -0.1991  0.4230
 4036SOL    HW123570   3.551   4.174   2.230 -3.7930  0.1174 -0.1876
 4036SOL    HW223571   3.603   4.202   2.099 -1.1558  1.5186  1.9487
 4037SOL     OW23572   1.763   2.519   9.064 -0.2398  1.0328 -0.1805
 4037SOL    HW123573   1.696   2.463   9.104 -0.0779  0.2856 -0.9550
 4037SOL    HW223574   1.817   2.556   9.134  1.6879 -0.2886 -0.9541
 4038SOL     OW23575   2.786   0.924   2.559 -0.3128 -0.0705 -0.0961
 4038SOL    HW123576   2.703   0.912   2.604  0.2975  0.1287  1.0645
 4038SOL    HW223577   2.752   0.959   2.477 -0.4375 -0.1754 -0.0890
 4039SOL     OW23578   3.145   3.491  11.286 -0.2014  0.0022 -0.5951
 4039SOL    HW123579   3.140   3.459  11.196  2.4665 -1.6263 -0.1477
 4039SOL    HW223580   3.096   3.425  11.336 -1.4152  0.3949 -1.2690
 4040SOL     OW23581   4.576   1.198   6.768 -0.3940  0.1933  0.4261
 4040SOL    HW123582   4.611   1.284   6.746  1.6775 -0.7000  0.2176
 4040SOL    HW223583   4.503   1.218   6.827 -3.0126 -1.1064 -2.3502
 4041SOL     OW23584   0.992   2.084  17.508  0.0507  0.2023 -0.0419
 4041SOL    HW123585   0.934   2.159  17.514  0.0498  0.2165 -0.2523
 4041SOL    HW223586   0.939   2.032  17.447  0.2790 -1.5175  1.2074
 4042SOL     OW23587   0.396   2.424   5.800  0.4501  0.2543  0.2048
 4042SOL    HW123588   0.322   2.435   5.740  1.2855  1.9043 -0.5356
 4042SOL    HW223589   0.350   2.411   5.883 -0.1177  1.6712  0.1086
 4043SOL     OW23590   2.039   3.119  15.437  0.1319 -0.2725 -0.0864
 4043SOL    HW123591   1.963   3.169  15.407  0.0806 -0.2737  0.0424
 4043SOL    HW223592   2.033   3.142  15.530  0.4616 -0.5507  0.0037
 4044SOL     OW23593   3.608   1.459   8.676  0.7795 -0.1217  0.3219
 4044SOL    HW123594   3.701   1.433   8.675  0.7589 -0.3104  2.7530
 4044SOL    HW223595   3.622   1.543   8.633 -2.0883 -0.9275 -2.1106
 4045SOL     OW23596   2.810   4.336   9.819 -0.0027  0.3869 -0.2874
 4045SOL    HW123597   2.727   4.313   9.860 -0.0948 -0.3729 -0.9100
 4045SOL    HW223598   2.835   4.253   9.778  1.8891  0.1392  1.3474
 4046SOL     OW23599   1.345   0.031   5.935 -0.0616  0.1971 -0.5119
 4046SOL    HW123600   1.287   0.057   5.863  0.4673  2.9297  0.0439
 4046SOL    HW223601   1.424   0.077   5.908  0.2997  0.1280  0.4126
 4047SOL     OW23602   1.343   1.583   9.281  0.1128  0.0545  0.2906
 4047SOL    HW123603   1.380   1.658   9.328  1.4299 -0.4220  0.0223
 4047SOL    HW223604   1.423   1.536   9.256  0.5804  1.0229 -0.0510
 4048SOL     OW23605   3.562   3.462   8.038  0.5238  0.0534 -0.2799
 4048SOL    HW123606   3.594   3.391   7.983 -1.8114 -1.9898  1.0297
 4048SOL    HW223607   3.552   3.420   8.123  2.8125  1.5720  0.7345
 4049SOL     OW23608   3.812   1.871  11.765 -0.1566 -0.4929  0.2698
 4049SOL    HW123609   3.834   1.936  11.832  1.4019 -0.0408 -0.6859
 4049SOL    HW223610   3.781   1.925  11.692  1.2120 -0.5928 -0.3907
 4050SOL     OW23611   0.149   3.982   2.767 -0.3769  0.0637  0.4537
 4050SOL    HW123612   0.058   3.954   2.756 -1.1025  3.7466 -3.2227
 4050SOL    HW223613   0.152   4.075   2.745  0.3491  0.2706  1.4468
 4051SOL     OW23614   2.585   0.731   8.827 -0.3640  0.0846  0.3578
 4051SOL    HW123615   2.638   0.730   8.906  0.5253  1.2633 -0.2284
 4051SOL    HW223616   2.652   0.705   8.764  0.6215  2.5555  0.4018
 4052SOL     OW23617   0.352   3.523  10.922  0.1964  0.3112 -0.1027
 4052SOL    HW123618   0.434   3.474  10.931  1.0488  1.7307  0.0287
 4052SOL    HW223619   0.317   3.530  11.011  1.4236  4.0610  0.1264
 4053SOL     OW23620   3.583   2.416  14.754 -0.4714 -0.2587  0.6320
 4053SOL    HW123621   3.564   2.485  14.817 -2.0336 -1.9426  2.0019
 4053SOL    HW223622   3.529   2.450  14.683  0.0012  0.8834  0.8167
 4054SOL     OW23623   4.686   0.110   2.321 -0.0482  0.3416  0.4657
 4054SOL    HW123624   4.704   0.024   2.283 -0.1778 -0.2098  1.6526
 4054SOL    HW223625   4.614   0.081   2.378 -0.2889  0.2186  0.0957
 4055SOL     OW23626   1.162   3.309   8.502 -0.6509 -0.3681 -0.0478
 4055SOL    HW123627   1.183   3.243   8.569 -1.6202 -0.0249  0.5900
 4055SOL    HW223628   1.247   3.353   8.493 -1.3637  1.3655  1.7211
 4056SOL     OW23629   3.955   3.768   5.699 -0.1264 -0.7262  0.1817
 4056SOL    HW123630   3.975   3.745   5.790 -2.2639 -0.5414  0.7076
 4056SOL    HW223631   4.041   3.786   5.660 -0.4121  1.4951  0.5627
 4057SOL     OW23632   3.573   0.713   7.264 -0.2699  0.0594 -0.4799
 4057SOL    HW123633   3.585   0.727   7.358 -0.3482 -0.7399 -0.3492
 4057SOL    HW223634   3.622   0.783   7.220 -1.5528 -0.3489 -2.5604
 4058SOL     OW23635   1.368   2.899   9.114 -0.9644  0.0068  0.2139
 4058SOL    HW123636   1.459   2.871   9.118 -1.6722 -2.7430 -2.4920
 4058SOL    HW223637   1.321   2.834   9.167  0.0506 -0.0746  0.9904
 4059SOL     OW23638   2.022   2.858   4.449 -0.0718 -0.2869  0.6125
 4059SOL    HW123639   2.070   2.857   4.532 -1.6753  1.8619  1.5458
 4059SOL    HW223640   2.073   2.796   4.396 -0.1729  0.7478 -0.6933
 4060SOL     OW23641   4.643   3.606   3.373  0.3942  0.2882 -0.3791
 4060SOL    HW123642   4.591   3.595   3.452  0.8651  0.5295 -0.0375
 4060SOL    HW223643   4.644   3.701   3.367 -2.1687  0.4420  1.4239
 4061SOL     OW23644   4.533   4.660  15.424  0.0629 -0.2362 -0.0539
 4061SOL    HW123645   4.583   0.023  15.420 -0.3485 -0.1643 -3.6392
 4061SOL    HW223646   4.602   4.595  15.411  2.8608  2.3965  1.5867
 4062SOL     OW23647   1.836   2.129   2.645  0.2429  0.1128  0.1658
 4062SOL    HW123648   1.767   2.158   2.585 -0.5290 -0.4367  0.7925
 4062SOL    HW223649   1.886   2.211   2.644 -0.9513  0.8438  0.4199
 4063SOL     OW23650   3.090   0.535   2.888  0.2061 -0.3928  0.7741
 4063SOL    HW123651   3.074   0.617   2.935  1.1562  0.2466 -0.0055
 4063SOL    HW223652   3.163   0.491   2.932  2.2206  2.1996  0.0333
 4064SOL     OW23653   1.041   0.686   5.284 -0.3556  0.6290  0.4762
 4064SOL    HW123654   0.952   0.698   5.318 -0.4791  0.9674  0.0383
 4064SOL    HW223655   1.065   0.599   5.316  0.7400  1.5281  2.0802
 4065SOL     OW23656   1.053   2.458   3.678  0.3402 -0.3976  0.1766
 4065SOL    HW123657   1.014   2.498   3.600 -2.7163  0.6494  2.2359
 4065SOL    HW223658   1.122   2.518   3.706 -0.5931  0.9774 -0.4707
 4066SOL     OW23659   2.186   2.019   9.802 -0.6056  0.0769  0.6449
 4066SOL    HW123660   2.251   1.964   9.760  0.9778  1.7541  0.9112
 4066SOL    HW223661   2.212   2.025   9.895  2.1223  0.1384 -0.1209
 4067SOL     OW23662   1.975   0.415   6.547  0.4282  0.8237 -0.3918
 4067SOL    HW123663   2.007   0.484   6.489 -1.6679  0.6468 -1.7341
 4067SOL    HW223664   1.895   0.380   6.508  0.5585 -0.4043  0.4301
 4068SOL     OW23665   0.516   0.720   1.942 -0.0955 -0.1757 -0.0760
 4068SOL    HW123666   0.568   0.643   1.918  0.1989  0.1923 -0.6190
 4068SOL    HW223667   0.497   0.750   1.853  2.3753  2.1473  0.1653
 4069SOL     OW23668   4.401   3.098   4.208 -0.0208 -0.3445 -0.6113
 4069SOL    HW123669   4.496   3.111   4.210  0.2693 -2.8315  1.7115
 4069SOL    HW223670   4.393   3.023   4.266 -2.5071  0.0022 -0.5042
 4070SOL     OW23671   3.073   3.584   5.878 -0.1073 -0.3610 -0.0156
 4070SOL    HW123672   3.026   3.549   5.954 -1.1002  0.8765 -0.0648
 4070SOL    HW223673   3.085   3.506   5.824  0.2157 -1.0869  1.1067
 4071SOL     OW23674   2.811   1.757   6.685  0.1813 -0.0046  0.4828
 4071SOL    HW123675   2.812   1.678   6.740  1.3520 -0.7376 -0.6017
 4071SOL    HW223676   2.884   1.729   6.631 -1.1284  0.6262 -1.5947
 4072SOL     OW23677   1.059   4.053  16.625  0.3824 -0.0571 -0.0499
 4072SOL    HW123678   1.140   4.046  16.677  0.4134  0.6593  0.0029
 4072SOL    HW223679   0.999   4.036  16.698 -2.0133  2.0290 -1.5580
 4073SOL     OW23680   1.456   0.072  10.966  0.2184  0.8953  0.0853
 4073SOL    HW123681   1.385   0.128  10.936  0.4921  0.3800 -1.5218
 4073SOL    HW223682   1.527   0.130  10.940  0.5912  0.7121  0.6798
 4074SOL     OW23683   2.143   1.772   9.140  0.0294  0.1988  0.6339
 4074SOL    HW123684   2.118   1.862   9.159 -0.9259  0.1404 -0.2959
 4074SOL    HW223685   2.085   1.727   9.201 -0.0605 -0.0539  0.3624
 4075SOL     OW23686   0.602   3.457   2.342  0.2307  0.1715  0.5017
 4075SOL    HW123687   0.572   3.482   2.430  0.0350 -2.3704  1.1609
 4075SOL    HW223688   0.541   3.506   2.287  1.9703  2.0542  0.2097
 4076SOL     OW23689   2.575   3.205   5.352  0.7202  0.3144 -0.4488
 4076SOL    HW123690   2.544   3.219   5.441  2.1409 -2.2239  0.4563
 4076SOL    HW223691   2.669   3.220   5.357  0.9920 -0.9968 -1.5548
 4077SOL     OW23692   1.647   1.672   1.201 -0.5120  0.4031  0.4518
 4077SOL    HW123693   1.684   1.595   1.159  0.0788  1.1230 -0.3440
 4077SOL    HW223694   1.564   1.651   1.243 -0.0281 -3.7069 -0.7267
 4078SOL     OW23695   3.762   4.620  10.879 -0.0310  0.1057 -0.0640
 4078SOL    HW123696   3.724   4.700  10.843  0.0289 -0.1751 -0.7575
 4078SOL    HW223697   3.683   4.575  10.909 -0.6544 -0.7798 -2.9871
 4079SOL     OW23698   3.168   0.154  11.560 -0.3452 -0.1898  0.1434
 4079SOL    HW123699   3.262   0.161  11.581 -0.2574  2.7555 -1.3530
 4079SOL    HW223700   3.130   0.122  11.642 -0.3651  0.2083  0.2867
 4080SOL     OW23701   2.375   2.106   6.004 -0.5107  0.6383  0.0566
 4080SOL    HW123702   2.312   2.034   6.004  1.7232 -1.2972 -1.8992
 4080SOL    HW223703   2.401   2.098   6.096  0.8633  0.5849 -0.3294
 4081SOL     OW23704   3.300   4.108   2.074  0.2827  0.2309  0.2794
 4081SOL    HW123705   3.311   4.102   1.979 -0.8256  1.4108  0.0659
 4081SOL    HW223706   3.390   4.122   2.103  0.7381 -0.9921 -0.5898
 4082SOL     OW23707   2.504   1.507   7.678 -0.2298  0.0009  0.8309
 4082SOL    HW123708   2.583   1.456   7.662  1.3620  2.1217  1.9460
 4082SOL    HW223709   2.520   1.587   7.628  1.3465 -0.0588  1.2431
 4083SOL     OW23710   1.543   4.660   2.835 -0.2040  0.4443  0.1172
 4083SOL    HW123711   1.560   4.568   2.857 -2.2165 -0.4433 -2.0646
 4083SOL    HW223712   1.531   4.701   2.921 -0.2281 -0.1390  0.3948
 4084SOL     OW23713   0.939   3.995  11.514 -0.3043  0.1175  0.0108
 4084SOL    HW123714   0.963   3.997  11.421  1.3253  0.4086  0.4400
 4084SOL    HW223715   1.018   4.017  11.563  0.2244 -2.5747  0.3648
 4085SOL     OW23716   1.390   0.078  13.847  0.3558 -0.1882 -0.0380
 4085SOL    HW123717   1.302   0.055  13.819 -0.8005  1.1303  2.5299
 4085SOL    HW223718   1.443   0.024  13.789 -0.2410 -0.0484 -0.7089
 4086SOL     OW23719   1.364   0.629   5.151 -0.2657  0.2077 -0.2696
 4086SOL    HW123720   1.347   0.536   5.136  0.1223  0.3282 -1.4088
 4086SOL    HW223721   1.433   0.636   5.085  1.3812 -0.1489  1.4145
 4087SOL     OW23722   2.422   4.342  17.573  0.0271 -0.3143 -0.1628
 4087SOL    HW123723   2.359   4.344  17.645  1.1411  2.9806  0.7152
 4087SOL    HW223724   2.458   4.256  17.596 -1.7927 -0.3958  2.3738
 4088SOL     OW23725   0.956   2.656   5.118 -0.1934 -0.0634 -0.4564
 4088SOL    HW123726   0.900   2.661   5.195  2.7625  1.8770  1.5897
 4088SOL    HW223727   0.897   2.637   5.046  1.8702 -1.1677 -1.8564
 4089SOL     OW23728   3.162   1.496   2.261 -0.2959 -0.8136  0.1073
 4089SOL    HW123729   3.217   1.447   2.323 -0.0356 -1.9958 -1.0529
 4089SOL    HW223730   3.137   1.569   2.317 -0.8238 -0.4510 -0.6201
 4090SOL     OW23731   2.142   1.109   4.208  0.1548 -0.3928  0.5302
 4090SOL    HW123732   2.115   1.181   4.265  0.4349 -0.4242  0.7048
 4090SOL    HW223733   2.220   1.086   4.259  1.0660  0.8328 -0.3275
 4091SOL     OW23734   1.832   0.973   0.590  0.4344 -0.1314 -0.2403
 4091SOL    HW123735   1.840   0.879   0.579  1.3613 -0.0843  0.0144
 4091SOL    HW223736   1.799   0.977   0.680 -0.3339  2.1485 -0.6230
 4092SOL     OW23737   1.259   2.716   1.735 -0.5369  0.2327 -0.5706
 4092SOL    HW123738   1.256   2.787   1.671 -0.8744 -0.0206 -0.8311
 4092SOL    HW223739   1.336   2.667   1.706  0.7211  1.3193  0.9567
 4093SOL     OW23740   2.222   4.201   3.901  0.3906  0.0932  0.1274
 4093SOL    HW123741   2.158   4.203   3.830  1.0427  2.7159 -0.4061
 4093SOL    HW223742   2.239   4.294   3.919 -1.1189 -0.1736  2.8171
 4094SOL     OW23743   3.224   2.456  10.219 -0.2358  0.7618  0.3444
 4094SOL    HW123744   3.262   2.461  10.307 -1.3468  1.1624  0.7974
 4094SOL    HW223745   3.280   2.508  10.161 -0.8500  1.1973  0.1441
 4095SOL     OW23746   3.701   1.561   9.649  0.1272  0.4955 -0.1150
 4095SOL    HW123747   3.786   1.533   9.685 -0.5818 -2.4984 -0.7488
 4095SOL    HW223748   3.719   1.552   9.555 -1.9317 -0.5444 -0.3894
 4096SOL     OW23749   1.891   0.775   8.703  0.2494  0.0188 -0.0864
 4096SOL    HW123750   1.965   0.718   8.683 -0.4923 -1.2914  0.8950
 4096SOL    HW223751   1.832   0.739   8.637 -2.3740 -0.8386  2.7129
 4097SOL     OW23752   1.822   3.859  10.519 -0.4811 -0.3066 -0.2872
 4097SOL    HW123753   1.848   3.891  10.605 -2.5596 -0.9758  0.6186
 4097SOL    HW223754   1.726   3.859  10.530 -0.1062 -1.5733  2.9976
 4098SOL     OW23755   3.973   3.588   3.501 -0.0522 -0.0339 -0.3267
 4098SOL    HW123756   3.979   3.542   3.417  0.2972 -0.2409 -0.1888
 4098SOL    HW223757   4.053   3.549   3.538 -0.6202 -0.0831  0.8223
 4099SOL     OW23758   2.171   0.992   3.217 -0.5703 -0.1071  0.3991
 4099SOL    HW123759   2.138   0.987   3.128 -0.9867  0.0050  0.5471
 4099SOL    HW223760   2.260   0.974   3.188 -0.6267 -0.0099  0.1657
 4100SOL     OW23761   1.398   3.872   8.765 -0.0716  0.6976 -0.7379
 4100SOL    HW123762   1.410   3.808   8.835 -2.3277 -0.0927 -1.0862
 4100SOL    HW223763   1.343   3.934   8.812  1.0299  1.5158 -0.5025
 4101SOL     OW23764   2.165   4.182   5.097 -0.3977  0.1940 -0.4203
 4101SOL    HW123765   2.139   4.100   5.057  0.7858  0.4168 -1.6366
 4101SOL    HW223766   2.253   4.197   5.062 -0.5112 -0.4094 -0.9548
 4102SOL     OW23767   2.350   4.686   9.958  0.1555 -0.0445 -0.2130
 4102SOL    HW123768   2.275   4.643   9.999 -0.4626  0.2987 -0.9760
 4102SOL    HW223769   2.316   0.042   9.911  0.0205  0.6691  1.0459
 4103SOL     OW23770   1.637   0.355  16.092 -0.3843  0.4183  0.2830
 4103SOL    HW123771   1.648   0.301  16.170  2.6322  4.9626  2.9421
 4103SOL    HW223772   1.652   0.444  16.121 -2.5318  0.3776  1.4503
 4104SOL     OW23773   2.181   4.053  12.795 -0.2244 -0.1614  0.4221
 4104SOL    HW123774   2.096   4.094  12.808  0.0989  0.0710  1.8210
 4104SOL    HW223775   2.169   3.972  12.845  2.2493 -0.0856  1.1555
 4105SOL     OW23776   2.986   4.046   9.675 -0.2670 -0.0837  0.6880
 4105SOL    HW123777   2.955   3.955   9.673 -0.5659  0.0606 -1.3149
 4105SOL    HW223778   3.055   4.041   9.609  0.3037 -2.6399  1.4825
 4106SOL     OW23779   2.985   0.016   0.137 -0.0916  0.1659 -0.0984
 4106SOL    HW123780   3.053   4.673   0.114 -1.2817 -0.9421 -0.5780
 4106SOL    HW223781   3.025   0.094   0.098 -0.5100  0.5179  0.1664
 4107SOL     OW23782   0.167   3.129   7.835  0.0727  0.3068  0.6161
 4107SOL    HW123783   0.223   3.157   7.907 -0.1474 -0.0743  0.9311
 4107SOL    HW223784   0.169   3.036   7.854  1.5136  0.3118  0.4750
 4108SOL     OW23785   3.610   3.963   0.834 -0.9212  0.4109 -0.4017
 4108SOL    HW123786   3.672   3.922   0.774 -0.2179  2.2054 -0.9222
 4108SOL    HW223787   3.566   3.887   0.871 -0.2122  0.4393  0.5166
 4109SOL     OW23788   3.915   0.311   5.270 -0.1958 -0.2234 -0.0189
 4109SOL    HW123789   3.876   0.243   5.216  2.4964  0.1847 -2.4931
 4109SOL    HW223790   4.007   0.291   5.288 -1.1159 -0.3492  4.4170
 4110SOL     OW23791   2.994   1.405   8.804  0.5308 -0.0616 -0.0776
 4110SOL    HW123792   3.067   1.421   8.743 -1.1545  0.3164 -1.9893
 4110SOL    HW223793   3.047   1.410   8.883 -0.7065  3.1944  0.5338
 4111SOL     OW23794   1.551   2.498   4.583  0.2515 -0.2019 -0.2076
 4111SOL    HW123795   1.493   2.573   4.572  1.6969  0.8994 -0.3822
 4111SOL    HW223796   1.542   2.488   4.678  0.6074  1.2145 -0.0266
 4112SOL     OW23797   3.127   1.544   9.718 -0.5419  0.0772 -0.0122
 4112SOL    HW123798   3.174   1.625   9.733 -0.7241  0.1097  0.3772
 4112SOL    HW223799   3.202   1.486   9.704 -0.2901 -0.0459  1.8015
 4113SOL     OW23800   4.003   1.656   3.885 -0.3888  0.6769  0.2496
 4113SOL    HW123801   4.022   1.684   3.795  0.2339 -0.1384  0.1329
 4113SOL    HW223802   3.976   1.743   3.915  0.2242  1.0502 -0.2781
 4114SOL     OW23803   4.575   2.929  15.108  0.0664 -0.0055 -0.7130
 4114SOL    HW123804   4.488   2.891  15.115 -0.5913  1.4580 -1.0273
 4114SOL    HW223805   4.626   2.857  15.071 -0.4141 -1.4975  1.4744
 4115SOL     OW23806   4.685   4.055   6.788 -0.0159  0.3175  0.5015
 4115SOL    HW123807   4.671   3.966   6.756 -1.1455  1.2116 -1.4568
 4115SOL    HW223808   4.636   4.115   6.732 -0.1432  0.4557  0.7601
 4116SOL     OW23809   4.548   3.666   3.756  0.1446 -0.5511  0.0411
 4116SOL    HW123810   4.504   3.613   3.822 -0.3675 -0.3941 -0.1709
 4116SOL    HW223811   4.619   3.607   3.731 -0.7181 -1.9925  1.0435
 4117SOL     OW23812   1.330   0.346   5.120 -0.0776 -0.5535 -0.3826
 4117SOL    HW123813   1.397   0.308   5.063  1.1522  0.6875  0.2348
 4117SOL    HW223814   1.269   0.273   5.135 -0.5355 -0.2380 -0.7106
 4118SOL     OW23815   1.099   4.452   7.140  1.1580  0.3980  0.7490
 4118SOL    HW123816   1.131   4.466   7.230 -1.3550  0.6697  1.6168
 4118SOL    HW223817   1.158   4.498   7.080  0.4537  1.3049  0.7426
 4119SOL     OW23818   2.747   2.487   4.975 -0.3339 -0.0932 -0.2238
 4119SOL    HW123819   2.826   2.433   4.969 -0.1770  0.6008 -4.4874
 4119SOL    HW223820   2.774   2.569   4.932 -2.0243  0.2179 -0.6937
 4120SOL     OW23821   1.479   3.256   4.446  0.7756  1.0614 -0.2272
 4120SOL    HW123822   1.490   3.346   4.416 -3.4252  2.0900  1.2689
 4120SOL    HW223823   1.565   3.223   4.421  0.5181  0.3307 -0.1581
 4121SOL     OW23824   2.068   1.602   0.099 -0.3475 -0.0359  0.7512
 4121SOL    HW123825   2.044   1.692   0.120  0.9828  0.5412 -0.1607
 4121SOL    HW223826   1.999   1.546   0.135 -0.6201 -0.2591 -0.1148
 4122SOL     OW23827   1.495   2.559   9.238  0.1352 -0.0267  0.3668
 4122SOL    HW123828   1.464   2.573   9.149  0.3858 -2.1727 -0.0490
 4122SOL    HW223829   1.417   2.538   9.290 -0.5964 -1.0915 -1.1793
 4123SOL     OW23830   4.131   0.345   4.050 -0.2821  0.6638 -0.0002
 4123SOL    HW123831   4.081   0.335   4.131 -1.1698 -1.0364 -0.7476
 4123SOL    HW223832   4.090   0.277   3.997 -0.4938  0.5705  0.2780
 4124SOL     OW23833   3.796   3.852   8.873 -0.0976  0.1510  0.3354
 4124SOL    HW123834   3.733   3.820   8.937 -0.1587 -0.5649 -0.0755
 4124SOL    HW223835   3.853   3.776   8.865  0.0617  0.1734  1.3161
 4125SOL     OW23836   2.642   3.508   5.735 -0.1712 -0.7897 -0.0053
 4125SOL    HW123837   2.685   3.487   5.818  1.3476 -0.3175 -0.6742
 4125SOL    HW223838   2.566   3.450   5.737 -1.4603  0.9345  0.9800
 4126SOL     OW23839   3.250   4.577  10.753 -0.0137 -0.0149 -0.3740
 4126SOL    HW123840   3.337   4.613  10.736 -0.1625  0.1749 -0.7203
 4126SOL    HW223841   3.241   4.586  10.848 -0.3638 -0.1257 -0.3987
 4127SOL     OW23842   4.016   3.816   4.989 -0.4778  0.2159 -0.3566
 4127SOL    HW123843   3.935   3.808   4.939 -0.6503 -0.7796  0.0841
 4127SOL    HW223844   3.997   3.887   5.050  0.4710 -0.0193  0.2183
 4128SOL     OW23845   2.330   3.772  16.937  0.2059 -0.0459  0.9244
 4128SOL    HW123846   2.416   3.797  16.972  0.0414 -0.9122  1.9346
 4128SOL    HW223847   2.346   3.714  16.863 -1.8808 -0.3739  0.7494
 4129SOL     OW23848   1.253   0.543   6.308 -0.1944 -0.8318 -0.0163
 4129SOL    HW123849   1.257   0.599   6.231 -0.0282  0.2770  0.7845
 4129SOL    HW223850   1.173   0.574   6.351 -1.2057 -2.3995 -0.7691
 4130SOL     OW23851   2.619   2.972   8.627  0.2368  0.1513  0.3283
 4130SOL    HW123852   2.547   2.977   8.690  0.7936 -1.5272  1.1064
 4130SOL    HW223853   2.569   2.920   8.564 -1.0105 -1.3170  2.5416
 4131SOL     OW23854   0.965   3.809   4.311  0.0045 -0.1243 -0.1551
 4131SOL    HW123855   0.917   3.830   4.231 -1.5878 -1.2314  0.5078
 4131SOL    HW223856   0.986   3.896   4.346 -1.0667 -0.6930  1.8892
 4132SOL     OW23857   1.719   3.259   1.927  0.1472  0.2274 -0.4622
 4132SOL    HW123858   1.636   3.227   1.963 -1.0694  0.5957 -2.9918
 4132SOL    HW223859   1.716   3.240   1.833 -0.2876 -1.5544 -0.0916
 4133SOL     OW23860   3.682   2.461   8.603  0.2197  0.7412 -0.8041
 4133SOL    HW123861   3.637   2.540   8.575  0.1337 -0.0469 -2.8982
 4133SOL    HW223862   3.620   2.389   8.592  0.3124  0.6350 -0.6388
 4134SOL     OW23863   2.822   1.976  11.907  0.5817  0.5611  0.1560
 4134SOL    HW123864   2.748   2.030  11.936  1.1131  1.6696 -0.5409
 4134SOL    HW223865   2.846   1.941  11.993  2.2028 -1.5889 -1.1839
 4135SOL     OW23866   3.501   0.329   0.297 -0.3614 -0.2727  0.0404
 4135SOL    HW123867   3.578   0.316   0.353  1.3689  0.3076 -2.1684
 4135SOL    HW223868   3.432   0.354   0.358  0.1208  2.4784 -0.5151
 4136SOL     OW23869   2.774   0.289   9.907  0.1335  0.1345  0.0881
 4136SOL    HW123870   2.835   0.218   9.885 -0.8875 -0.7297  0.0747
 4136SOL    HW223871   2.825   0.369   9.900 -0.1698  0.1949 -1.4956
 4137SOL     OW23872   3.776   4.707   0.282  0.2092  0.3770  0.4285
 4137SOL    HW123873   3.809   0.067   0.241  1.0075  0.0250  0.3804
 4137SOL    HW223874   3.684   0.005   0.296  0.5090 -0.4773  3.5756
 4138SOL     OW23875   4.117   2.008  17.575  0.0633  0.4222 -0.0841
 4138SOL    HW123876   4.146   1.952  17.504 -0.6298 -0.3997  0.2902
 4138SOL    HW223877   4.026   2.013  17.548 -0.2750 -1.7636  0.6181
 4139SOL     OW23878   2.136   1.705   6.397 -0.2823 -0.3729  0.0534
 4139SOL    HW123879   2.173   1.769   6.458  0.1114  0.9627 -1.5720
 4139SOL    HW223880   2.086   1.651   6.458 -0.7812  0.2775  0.2231
 4140SOL     OW23881   3.782   3.626   5.534  0.3878  0.0234  0.2913
 4140SOL    HW123882   3.842   3.679   5.587 -0.6115  1.8105 -0.3612
 4140SOL    HW223883   3.731   3.691   5.485  1.3056  0.4664 -0.0849
 4141SOL     OW23884   1.213   0.347  17.496 -0.2059  0.9981  0.2930
 4141SOL    HW123885   1.170   0.288  17.557 -0.1691  0.3229 -0.3378
 4141SOL    HW223886   1.291   0.380  17.540  0.9100 -1.9510  0.4525
 4142SOL     OW23887   2.422   2.236   2.360  0.4139 -0.1288  0.2611
 4142SOL    HW123888   2.495   2.201   2.308 -0.8701  1.3749 -2.5699
 4142SOL    HW223889   2.460   2.318   2.391  1.6757 -0.3304 -0.7322
 4143SOL     OW23890   1.740   0.953   5.362  0.0854 -0.2895  0.1284
 4143SOL    HW123891   1.670   0.889   5.380  0.3084 -0.6933 -0.4374
 4143SOL    HW223892   1.716   1.016   5.430  2.7182  1.3513 -0.4836
 4144SOL     OW23893   2.544   3.512   4.877  0.7018 -0.3176  0.9101
 4144SOL    HW123894   2.452   3.520   4.902  0.7762  0.0201  1.0734
 4144SOL    HW223895   2.568   3.428   4.914  2.5541  0.2360  0.9664
 4145SOL     OW23896   4.315   2.111  12.464 -0.0568 -0.4241  0.0584
 4145SOL    HW123897   4.381   2.136  12.400 -1.0037  0.1914 -0.6825
 4145SOL    HW223898   4.361   2.033  12.495 -1.5626 -0.8215  1.3164
 4146SOL     OW23899   1.937   4.596   1.424  0.0095  0.1005 -0.0723
 4146SOL    HW123900   1.881   4.598   1.347  0.1675 -1.6084 -0.2382
 4146SOL    HW223901   2.013   4.650   1.403 -0.5806  1.4424  1.2333
 4147SOL     OW23902   3.910   3.689   2.909  0.5009  0.2324 -0.2974
 4147SOL    HW123903   3.853   3.632   2.857 -0.5249  0.3595  0.6847
 4147SOL    HW223904   3.918   3.637   2.989 -0.9193  1.0799  0.3938
 4148SOL     OW23905   3.258   4.167  16.109 -0.2476 -0.8130 -0.5998
 4148SOL    HW123906   3.180   4.202  16.066  0.0890 -0.5178 -0.9697
 4148SOL    HW223907   3.308   4.244  16.137 -1.7867  0.0580 -0.2208
 4149SOL     OW23908   4.224   0.652   3.258  0.1228 -0.1513  0.1178
 4149SOL    HW123909   4.138   0.628   3.223 -1.3298  1.6750  2.4450
 4149SOL    HW223910   4.195   0.722   3.317  0.0291 -1.4175  1.5721
 4150SOL     OW23911   0.693   2.283   4.146 -0.3840 -0.0209 -0.2255
 4150SOL    HW123912   0.715   2.208   4.201  0.4160  0.9357  0.7430
 4150SOL    HW223913   0.679   2.236   4.064 -0.3995  0.8785 -0.7432
 4151SOL     OW23914   2.272   1.793   9.440 -0.4333  0.8361  0.3646
 4151SOL    HW123915   2.302   1.884   9.432  0.1755  0.7838  1.9294
 4151SOL    HW223916   2.182   1.802   9.471 -0.2176  0.5218  1.0972
 4152SOL     OW23917   4.357   2.042   2.760  0.5349 -0.5171  0.1640
 4152SOL    HW123918   4.398   2.102   2.698  2.3169  0.5673  2.3625
 4152SOL    HW223919   4.423   1.973   2.774  1.4583  0.6401  1.4937
 4153SOL     OW23920   0.672   2.339   6.768  0.3436 -0.2678 -0.4169
 4153SOL    HW123921   0.718   2.410   6.724 -1.8646  1.9957  0.9580
 4153SOL    HW223922   0.737   2.269   6.765 -0.1643 -0.7750  0.3201
 4154SOL     OW23923   3.742   4.025   9.244 -0.3354 -0.3213 -0.5119
 4154SOL    HW123924   3.661   4.075   9.232  0.4617  0.9995 -0.3865
 4154SOL    HW223925   3.741   3.995   9.153  1.3552 -1.2584 -0.2173
 4155SOL     OW23926   0.730   2.435   3.155  0.2907 -0.0012 -1.1062
 4155SOL    HW123927   0.635   2.421   3.148  0.2462  0.1468 -0.7942
 4155SOL    HW223928   0.751   2.379   3.230  1.0934  1.9444  0.1091
 4156SOL     OW23929   3.368   4.336  11.302 -0.4807 -0.3715 -0.0045
 4156SOL    HW123930   3.350   4.384  11.222  0.4348  0.0087  0.0143
 4156SOL    HW223931   3.453   4.377  11.318 -1.4419  1.6312 -0.0463
 4157SOL     OW23932   0.816   0.358  12.543  0.6371 -0.3717 -0.6219
 4157SOL    HW123933   0.771   0.274  12.536  2.3459 -1.1307 -2.4680
 4157SOL    HW223934   0.827   0.370  12.637 -1.2408 -2.8401 -0.0941
 4158SOL     OW23935   2.584   0.251   4.942  0.3405  0.2927  0.0173
 4158SOL    HW123936   2.499   0.270   4.982  0.4876  1.4626 -0.2417
 4158SOL    HW223937   2.570   0.156   4.940 -0.3234  0.3696  1.4477
 4159SOL     OW23938   0.146   2.374  11.547  0.2419  0.2018  0.1731
 4159SOL    HW123939   0.060   2.398  11.582  0.1728  1.7355 -1.0974
 4159SOL    HW223940   0.122   2.321  11.471  0.3356 -0.4333  0.5867
 4160SOL     OW23941   2.923   0.757   5.591  0.2373  0.6017  0.9727
 4160SOL    HW123942   3.011   0.795   5.597  1.3285 -1.0794 -3.9755
 4160SOL    HW223943   2.895   0.796   5.674  1.1026  1.6940  0.7548
 4161SOL     OW23944   4.253   3.817   2.100 -0.3621 -0.1773  0.1247
 4161SOL    HW123945   4.203   3.894   2.125  1.4229  1.3060 -0.7945
 4161SOL    HW223946   4.314   3.844   2.031 -1.2979 -1.1148 -1.0638
 4162SOL     OW23947   3.536   3.829  13.719 -0.1265 -0.3260  0.2239
 4162SOL    HW123948   3.520   3.743  13.759  1.0858 -0.4407  0.4427
 4162SOL    HW223949   3.606   3.850  13.780 -0.3287  0.5071  0.1714
 4163SOL     OW23950   4.493   1.069   3.260 -0.4856  0.5599 -0.0397
 4163SOL    HW123951   4.435   1.003   3.222 -0.8304  0.9795 -0.2388
 4163SOL    HW223952   4.579   1.048   3.225 -1.5511 -0.9410 -1.7796
 4164SOL     OW23953   1.369   0.812   3.338  0.1248  0.1637 -0.5734
 4164SOL    HW123954   1.336   0.876   3.401  0.6647 -0.0209 -0.0929
 4164SOL    HW223955   1.397   0.867   3.265  1.2243  1.0898  0.5406
 4165SOL     OW23956   4.576   3.902   4.783  0.2916  0.2032  0.0631
 4165SOL    HW123957   4.483   3.883   4.788  0.2063  0.7193  0.3457
 4165SOL    HW223958   4.606   3.816   4.815 -0.9773  0.3148  1.5077
 4166SOL     OW23959   2.821   1.765  10.358 -0.2750 -0.4335  0.0085
 4166SOL    HW123960   2.742   1.752  10.306 -1.2670  1.8287  0.9610
 4166SOL    HW223961   2.807   1.709  10.434 -1.0879  0.4176  0.4744
 4167SOL     OW23962   0.951   2.220   7.706 -0.3877  0.0780  0.3835
 4167SOL    HW123963   1.041   2.193   7.686 -0.2342  0.4025  0.6382
 4167SOL    HW223964   0.903   2.168   7.642 -0.6181  1.2455 -0.3860
 4168SOL     OW23965   0.929   1.410   7.637 -0.1964  0.3311  0.5302
 4168SOL    HW123966   0.945   1.485   7.694 -0.6992  0.2200  0.8232
 4168SOL    HW223967   0.967   1.335   7.682  0.5450  0.3592 -0.0612
 4169SOL     OW23968   1.122   0.364   5.871  0.3085  0.6016 -0.1151
 4169SOL    HW123969   1.166   0.375   5.955 -2.4216 -2.7729  1.7783
 4169SOL    HW223970   1.029   0.363   5.894  0.7705 -2.4621  1.5939
 4170SOL     OW23971   4.208   4.323   1.911 -0.0972  0.6456 -0.7938
 4170SOL    HW123972   4.165   4.297   1.993  0.0124  3.3305  0.1170
 4170SOL    HW223973   4.300   4.301   1.921 -0.3924 -1.0092 -1.6570
 4171SOL     OW23974   0.242   0.595   5.612 -0.1509  0.1729 -0.1131
 4171SOL    HW123975   0.314   0.655   5.628  0.4802 -0.7277  0.4351
 4171SOL    HW223976   0.173   0.659   5.594  1.0297  1.2111 -0.9721
 4172SOL     OW23977   1.806   3.494  11.169 -0.0615  0.0756 -0.1318
 4172SOL    HW123978   1.822   3.420  11.227  0.7780 -0.7892 -1.4764
 4172SOL    HW223979   1.762   3.554  11.229  0.3800  0.5045 -0.2427
 4173SOL     OW23980   0.256   2.744   1.875  0.0097 -0.4117  0.9147
 4173SOL    HW123981   0.327   2.807   1.866  0.0624 -0.4528  1.0516
 4173SOL    HW223982   0.291   2.662   1.840  0.1590 -0.1726  0.5035
 4174SOL     OW23983   4.378   1.216   6.988  0.0089 -0.3950  0.0556
 4174SOL    HW123984   4.417   1.302   7.001 -0.7351  0.0298 -0.5039
 4174SOL    HW223985   4.285   1.239   6.996 -0.3735 -1.2156 -1.9641
 4175SOL     OW23986   2.173   2.925   8.522  0.3858 -0.0738  0.2685
 4175SOL    HW123987   2.214   2.859   8.467 -1.5810 -1.1936  0.1195
 4175SOL    HW223988   2.082   2.905   8.499 -0.0570  0.6899  1.3591
 4176SOL     OW23989   2.848   4.623   8.441 -0.7571  0.2944 -0.0487
 4176SOL    HW123990   2.798   4.676   8.504  0.5273  0.3604  0.8990
 4176SOL    HW223991   2.793   4.554   8.403 -1.8006  0.1741  1.6666
 4177SOL     OW23992   0.884   0.031   1.739 -0.1087  0.2008 -0.0914
 4177SOL    HW123993   0.969   4.709   1.748  0.4823  1.3346 -0.3928
 4177SOL    HW223994   0.854   4.709   1.658 -0.7957 -1.9210  1.2638
 4178SOL     OW23995   1.842   1.248   2.537 -0.0647 -0.5579 -0.4005
 4178SOL    HW123996   1.903   1.317   2.563 -0.9688  0.3491 -0.6564
 4178SOL    HW223997   1.866   1.229   2.447  0.4991  0.1873 -0.4067
 4179SOL     OW23998   3.882   0.697   7.451  0.0527 -0.1894  0.7536
 4179SOL    HW123999   3.960   0.742   7.416 -0.8771 -2.0863 -3.7235
 4179SOL    HW224000   3.814   0.764   7.452 -0.1816 -0.3970 -0.9958
 4180SOL     OW24001   4.438   0.455   0.621  0.7223  0.3058  0.3763
 4180SOL    HW124002   4.467   0.541   0.651  1.8802  0.8195 -2.1768
 4180SOL    HW224003   4.364   0.484   0.569 -0.0844 -0.9370  0.8337
 4181SOL     OW24004   4.232   4.688  15.480 -0.0340  0.1754 -0.4180
 4181SOL    HW124005   4.314   4.694  15.430  0.8701  0.5106  1.1152
 4181SOL    HW224006   4.251   0.038  15.543  1.1564 -0.7131  0.1895
 4182SOL     OW24007   0.047   2.491  11.949 -0.0541  0.3644  0.2869
 4182SOL    HW124008   4.687   2.466  11.900  1.4193 -2.7939 -0.4751
 4182SOL    HW224009   0.117   2.490  11.884 -1.1339 -0.7009 -0.8825
 4183SOL     OW24010   3.369   3.764   3.018 -0.0234 -0.4133  0.2123
 4183SOL    HW124011   3.450   3.718   3.042 -0.8480 -1.8906  0.1279
 4183SOL    HW224012   3.323   3.690   2.978 -0.2572 -1.3240  2.1692
 4184SOL     OW24013   4.342   3.794   6.954  0.1106 -0.2922  0.2625
 4184SOL    HW124014   4.412   3.807   6.889  0.4302 -1.1123  0.4370
 4184SOL    HW224015   4.324   3.888   6.961  0.0987 -0.1717 -1.3634
 4185SOL     OW24016   3.359   3.499   3.605  0.0039 -0.0311  0.0021
 4185SOL    HW124017   3.415   3.535   3.673  1.0192  0.4417 -1.0646
 4185SOL    HW224018   3.380   3.556   3.531 -0.3705  1.0670  0.7437
 4186SOL     OW24019   1.434   2.704   6.846  0.2229 -0.4338  0.5183
 4186SOL    HW124020   1.418   2.619   6.886  0.7622  0.6049  2.8929
 4186SOL    HW224021   1.481   2.692   6.763 -2.3479 -0.8103 -0.8828
 4187SOL     OW24022   1.715   4.560  14.136 -0.7236 -0.5159  0.4550
 4187SOL    HW124023   1.672   4.500  14.076  1.0853 -1.9804  0.6220
 4187SOL    HW224024   1.786   4.507  14.173 -0.0054  0.2816  0.2224
 4188SOL     OW24025   0.747   2.355   0.475 -0.4452 -0.5899  0.3078
 4188SOL    HW124026   0.664   2.368   0.520  0.2701 -2.3413  2.1106
 4188SOL    HW224027   0.730   2.325   0.385  2.1438 -0.6445 -0.1716
 4189SOL     OW24028   2.399   4.426   9.017 -0.4193  0.0113 -0.1383
 4189SOL    HW124029   2.430   4.363   9.081 -0.9453 -1.1165 -1.0025
 4189SOL    HW224030   2.438   4.508   9.047  0.1721 -0.3310  0.0279
 4190SOL     OW24031   3.026   3.390  11.670 -0.3453  0.1844  0.0030
 4190SOL    HW124032   3.120   3.394  11.651  0.2418 -0.1786  2.7734
 4190SOL    HW224033   2.991   3.408  11.583 -0.9826  2.4026  0.7263
 4191SOL     OW24034   1.033   0.691   9.498 -0.1801  0.5188  0.5096
 4191SOL    HW124035   1.080   0.757   9.548  1.4879 -0.4829  0.2629
 4191SOL    HW224036   0.994   0.631   9.562 -1.3556 -1.4224 -2.0031
 4192SOL     OW24037   1.204   3.580   2.182  0.2981  0.2071 -0.3312
 4192SOL    HW124038   1.134   3.537   2.132  1.3386  1.3904 -2.7864
 4192SOL    HW224039   1.288   3.545   2.151  0.8531  0.4747  0.8471
 4193SOL     OW24040   0.057   2.095   6.671  0.3491 -0.5625 -0.3239
 4193SOL    HW124041   0.022   2.113   6.758 -0.6803 -0.2538 -0.7982
 4193SOL    HW224042   4.699   2.073   6.619 -0.9408 -1.4619  1.9846
 4194SOL     OW24043   1.610   2.314   1.165  0.2485  0.3857  0.2040
 4194SOL    HW124044   1.597   2.408   1.153  0.4814  0.4003  0.0610
 4194SOL    HW224045   1.676   2.302   1.096 -0.4455 -0.2624 -0.3511
 4195SOL     OW24046   1.057   4.069   2.743 -0.4378 -0.4376  0.0810
 4195SOL    HW124047   0.972   4.066   2.787 -0.1685  1.5847  0.7514
 4195SOL    HW224048   1.082   4.158   2.767 -0.6775 -0.3502  0.0027
 4196SOL     OW24049   4.057   2.745   6.957 -0.2478 -0.1281  0.0581
 4196SOL    HW124050   4.054   2.840   6.958  0.0160 -0.1215  0.0275
 4196SOL    HW224051   3.983   2.725   7.015  0.1480  0.6574  0.8325
 4197SOL     OW24052   0.785   4.627   2.131 -0.0346  0.1253  0.1502
 4197SOL    HW124053   0.863   4.581   2.101  0.0685 -0.1823  0.8979
 4197SOL    HW224054   0.825   4.688   2.193  0.5421 -0.2001  0.0992
 4198SOL     OW24055   4.282   0.198  11.359  0.3171  0.1797  0.0653
 4198SOL    HW124056   4.322   0.214  11.444  2.1071 -1.0108 -0.5435
 4198SOL    HW224057   4.352   0.220  11.297 -2.0618  0.2701 -2.5913
 4199SOL     OW24058   3.150   4.043  16.928  0.1539 -0.6890 -0.2104
 4199SOL    HW124059   3.155   3.985  16.852 -2.9908 -1.5211  0.2305
 4199SOL    HW224060   3.069   4.009  16.964  0.1052 -1.0336 -0.6484
 4200SOL     OW24061   4.436   1.584   5.465  0.7205 -0.2409  0.0080
 4200SOL    HW124062   4.352   1.587   5.511 -0.2896  4.2249 -2.0686
 4200SOL    HW224063   4.460   1.492   5.458 -1.1811 -0.7083 -0.2249
 4201SOL     OW24064   0.996   4.137  11.230  0.0550  0.1616 -0.7415
 4201SOL    HW124065   1.089   4.122  11.251  0.0846 -0.1975 -1.1228
 4201SOL    HW224066   0.967   4.193  11.301  3.1872  0.5815  0.2266
 4202SOL     OW24067   3.046   3.694   1.145  0.1518 -0.4001 -0.4039
 4202SOL    HW124068   3.126   3.694   1.091  0.3238 -1.9619 -0.1283
 4202SOL    HW224069   3.067   3.762   1.210 -1.7674  1.1884 -1.4403
 4203SOL     OW24070   3.340   1.153  15.111  0.0268  0.2287 -0.2029
 4203SOL    HW124071   3.281   1.158  15.186 -0.3900 -0.5529 -0.4806
 4203SOL    HW224072   3.284   1.111  15.045  1.8671  0.7919 -2.1328
 4204SOL     OW24073   2.796   1.065   5.101 -0.5536  0.1567  0.1707
 4204SOL    HW124074   2.826   1.137   5.045  0.7028 -0.1111  0.5005
 4204SOL    HW224075   2.877   1.053   5.151 -0.8857  0.6468  0.8239
 4205SOL     OW24076   1.302   1.632   3.023  0.1175 -0.3248  0.0019
 4205SOL    HW124077   1.286   1.554   3.076  2.3015 -0.8506 -0.1085
 4205SOL    HW224078   1.325   1.595   2.937 -1.0251  2.2783 -1.4264
 4206SOL     OW24079   3.556   2.495  12.677 -0.0033  0.2401  0.5125
 4206SOL    HW124080   3.460   2.495  12.677  0.0059  0.7337  1.5442
 4206SOL    HW224081   3.575   2.407  12.708 -0.3249 -0.9753 -2.6838
 4207SOL     OW24082   1.903   4.506   4.044  0.1153  0.3285  0.4893
 4207SOL    HW124083   1.893   4.441   3.973 -0.4501 -0.3530  1.1965
 4207SOL    HW224084   1.872   4.456   4.120  1.6627  0.3876  1.1518
 4208SOL     OW24085   1.245   3.311   1.833 -0.0883 -0.3407 -0.0679
 4208SOL    HW124086   1.323   3.256   1.838 -1.3374 -1.9796  1.2491
 4208SOL    HW224087   1.203   3.277   1.754 -2.0885 -1.0682  1.3053
 4209SOL     OW24088   0.802   3.763   0.214 -0.0078  1.0310 -0.1502
 4209SOL    HW124089   0.718   3.732   0.181  0.4553 -1.7858  1.3122
 4209SOL    HW224090   0.827   3.699   0.281  1.3280  1.3473 -0.3513
 4210SOL     OW24091   1.926   2.681  10.220  0.4471 -0.5611  0.4461
 4210SOL    HW124092   1.854   2.648  10.274  0.7565 -0.3872  0.9664
 4210SOL    HW224093   2.001   2.687  10.279 -0.1221  1.1002  1.0080
 4211SOL     OW24094   0.333   2.800   3.835 -0.2826  0.1900  0.3438
 4211SOL    HW124095   0.382   2.882   3.844  2.1302 -1.2458  0.3666
 4211SOL    HW224096   0.389   2.747   3.892  0.8040 -1.1788 -2.0023
 4212SOL     OW24097   2.339   1.771   4.399  0.1146  0.6862  0.1162
 4212SOL    HW124098   2.332   1.745   4.307 -2.1863 -0.0856  0.5084
 4212SOL    HW224099   2.267   1.719   4.435  0.0604  0.6066 -0.1073
 4213SOL     OW24100   4.654   1.178   8.823 -0.0199 -0.1890 -0.5453
 4213SOL    HW124101   4.606   1.212   8.747  0.2531 -1.7292 -1.4032
 4213SOL    HW224102   4.598   1.193   8.899  2.0288  0.6836  0.7711
 4214SOL     OW24103   0.410   1.748   2.786  0.2524 -0.7094 -0.0007
 4214SOL    HW124104   0.350   1.709   2.849  0.4285 -2.0899 -0.6913
 4214SOL    HW224105   0.350   1.805   2.739  1.6299  0.5817 -0.2108
 4215SOL     OW24106   1.504   1.653   6.128  0.1710  0.1241 -0.2158
 4215SOL    HW124107   1.547   1.660   6.213  0.5773 -0.2117 -0.3927
 4215SOL    HW224108   1.471   1.564   6.139 -0.8771  0.5129 -0.2131
 4216SOL     OW24109   4.662   3.643   0.541 -0.2571  0.9867 -0.4834
 4216SOL    HW124110   4.610   3.722   0.551 -0.9225  0.5676 -0.6238
 4216SOL    HW224111   4.597   3.585   0.501  0.6596 -0.4434  0.0690
 4217SOL     OW24112   3.768   2.572   1.217  0.7680  0.5073 -0.3942
 4217SOL    HW124113   3.824   2.615   1.153  1.0262  2.0116  0.8317
 4217SOL    HW224114   3.687   2.622   1.205  0.9864  0.8479 -0.4603
 4218SOL     OW24115   1.160   1.445  10.056 -0.3968  0.2024  0.5650
 4218SOL    HW124116   1.088   1.469   9.997  0.2598 -0.3395 -0.4514
 4218SOL    HW224117   1.204   1.529  10.073  0.3616  0.0951 -0.9060
 4219SOL     OW24118   3.969   3.183   3.592 -0.6607 -0.5606 -0.0890
 4219SOL    HW124119   3.881   3.181   3.630  0.1699 -0.4953  1.8372
 4219SOL    HW224120   3.958   3.158   3.500 -3.0834 -0.1041  0.0989
 4220SOL     OW24121   2.040   4.123  11.894 -0.1209  0.8079  0.5601
 4220SOL    HW124122   2.083   4.064  11.956 -0.7548  0.1816  0.4049
 4220SOL    HW224123   2.097   4.200  11.894 -0.3321  0.9629  1.2267
 4221SOL     OW24124   3.012   1.692   5.281  0.3488 -0.2937  0.4638
 4221SOL    HW124125   3.050   1.607   5.257 -2.0113 -1.4263  0.6347
 4221SOL    HW224126   2.925   1.673   5.318 -0.1267  0.0791 -0.4577
 4222SOL     OW24127   3.104   3.943  17.324 -0.1562  0.4268 -0.1332
 4222SOL    HW124128   3.149   3.999  17.261  0.7178  0.1143  0.2292
 4222SOL    HW224129   3.036   3.905  17.268 -0.7665  2.2019 -0.6194
 4223SOL     OW24130   2.098   3.195   6.347  0.2098 -0.2483 -0.9284
 4223SOL    HW124131   2.031   3.156   6.291  2.2298 -3.1962 -1.2449
 4223SOL    HW224132   2.145   3.248   6.283 -0.7792  2.5439  0.6669
 4224SOL     OW24133   1.898   3.762   4.794  0.1582  0.4459 -0.3358
 4224SOL    HW124134   1.989   3.739   4.771 -0.3832 -1.1024 -0.9156
 4224SOL    HW224135   1.874   3.822   4.724  1.0616  3.3720  1.8707
 4225SOL     OW24136   2.384   2.426  13.510 -0.6187  1.0155  0.2830
 4225SOL    HW124137   2.353   2.506  13.552  1.5810  0.8509  2.2202
 4225SOL    HW224138   2.306   2.373  13.494  0.2502 -0.0787 -0.3631
 4226SOL     OW24139   3.590   4.023   9.870 -0.0253 -0.0121  0.0714
 4226SOL    HW124140   3.669   4.002   9.921 -0.2099  2.0872  1.2007
 4226SOL    HW224141   3.578   4.118   9.867  0.2662 -0.0129 -1.1247
 4227SOL     OW24142   1.106   0.679  17.635 -0.0251  0.0588 -0.2257
 4227SOL    HW124143   1.188   0.633  17.621 -1.2090 -2.1837  0.1635
 4227SOL    HW224144   1.132   0.741   0.023 -0.7433  0.7606 -0.5808
 4228SOL     OW24145   2.235   0.889   3.551  0.1951  0.1765  0.5753
 4228SOL    HW124146   2.279   0.866   3.469  0.5553 -0.4879  0.9488
 4228SOL    HW224147   2.154   0.838   3.538  0.3408  0.3957 -1.1591
 4229SOL     OW24148   1.584   3.088   8.807  0.5971 -0.4526 -0.0132
 4229SOL    HW124149   1.667   3.075   8.760 -0.3823 -1.7273 -1.3858
 4229SOL    HW224150   1.560   2.999   8.832 -2.6925  0.9823  1.8614
 4230SOL     OW24151   2.458   2.985   7.888 -0.3767 -0.2001 -0.4232
 4230SOL    HW124152   2.517   2.912   7.899 -0.6791 -0.1285  1.7160
 4230SOL    HW224153   2.519   3.058   7.877  0.1493 -0.2108  2.4015
 4231SOL     OW24154   0.901   0.578   1.848  0.5236  0.7263  0.3889
 4231SOL    HW124155   0.838   0.603   1.780  2.9672 -0.2764 -2.2257
 4231SOL    HW224156   0.837   0.529   1.900 -0.8641  0.5465 -1.5043
 4232SOL     OW24157   0.575   2.304   7.826 -0.1309  0.1415  0.4563
 4232SOL    HW124158   0.557   2.251   7.748  0.5778 -0.7627  0.9044
 4232SOL    HW224159   0.660   2.345   7.812  0.0274  0.1869  1.5969
 4233SOL     OW24160   3.806   2.300   4.370 -0.1422  0.4352  0.1521
 4233SOL    HW124161   3.851   2.373   4.327 -0.3970  2.0179  2.5201
 4233SOL    HW224162   3.738   2.284   4.304  0.5923  2.7402 -1.1714
 4234SOL     OW24163   4.333   1.241   9.853  0.2149  1.1464  0.4754
 4234SOL    HW124164   4.399   1.252   9.921  1.7464 -0.6593 -0.7226
 4234SOL    HW224165   4.251   1.253   9.903 -0.6216  3.0415 -1.3326
 4235SOL     OW24166   2.066   0.722   5.959  0.1170  0.1471 -0.0201
 4235SOL    HW124167   2.107   0.710   5.873 -1.1024  2.0420 -0.8690
 4235SOL    HW224168   2.136   0.701   6.021  0.7700 -0.4457 -0.9549
 4236SOL     OW24169   1.321   2.585   3.647  0.1938  0.5903 -0.4767
 4236SOL    HW124170   1.346   2.496   3.624 -1.3613 -0.2511  1.1629
 4236SOL    HW224171   1.329   2.577   3.742 -0.4543 -1.3647 -0.5878
 4237SOL     OW24172   2.567   4.318   9.225 -0.4178 -0.7794 -0.2154
 4237SOL    HW124173   2.653   4.279   9.237 -0.5944 -0.3396  2.3840
 4237SOL    HW224174   2.530   4.283   9.305  0.6003 -0.0743  0.5677
 4238SOL     OW24175   3.542   0.073  12.621  0.3917  0.0335  0.2256
 4238SOL    HW124176   3.519   0.149  12.567  0.7583  0.6294  0.9007
 4238SOL    HW224177   3.564   0.008  12.555 -0.2130  1.7486 -1.6448
 4239SOL     OW24178   2.077   0.527   8.206 -0.2190 -0.6717 -0.1301
 4239SOL    HW124179   2.116   0.440   8.205  0.8468 -0.2087  0.9394
 4239SOL    HW224180   2.116   0.566   8.128  0.6797 -1.0639  0.1301
 4240SOL     OW24181   0.233   2.700   8.113  0.1642  0.2608  0.1243
 4240SOL    HW124182   0.180   2.752   8.173 -0.1267  0.2117 -0.0885
 4240SOL    HW224183   0.226   2.613   8.152  0.5889  0.1628 -0.0139
 4241SOL     OW24184   3.578   2.765   8.206  0.4184 -0.4811 -0.5465
 4241SOL    HW124185   3.505   2.810   8.162  0.1508  0.2741  0.6660
 4241SOL    HW224186   3.620   2.836   8.253  1.7645 -0.6051 -1.5828
 4242SOL     OW24187   4.382   3.397  14.640 -0.4299 -0.2409 -0.1225
 4242SOL    HW124188   4.292   3.408  14.671 -1.2663 -1.8493 -1.9934
 4242SOL    HW224189   4.372   3.425  14.549  0.0646 -0.7380 -0.3255
 4243SOL     OW24190   4.222   4.543   5.197 -0.2282  0.2640  0.3036
 4243SOL    HW124191   4.273   4.571   5.121 -1.1388  0.5961 -0.1916
 4243SOL    HW224192   4.277   4.573   5.269  0.8290  0.8816 -0.7758
 4244SOL     OW24193   1.278   2.922   4.961  0.5026  0.3227  0.0287
 4244SOL    HW124194   1.224   2.979   5.014  0.7693 -0.0392  0.6885
 4244SOL    HW224195   1.221   2.902   4.887  3.1336 -0.7529 -1.7088
 4245SOL     OW24196   3.369   4.029   0.600  0.2724  0.1239 -0.2450
 4245SOL    HW124197   3.387   3.949   0.551 -0.8661  0.2961 -0.9491
 4245SOL    HW224198   3.438   4.090   0.574  0.5537 -0.4670 -0.8632
 4246SOL     OW24199   4.459   4.084   6.353 -0.4155  0.3683  0.0049
 4246SOL    HW124200   4.439   3.992   6.335 -1.7948  1.3915 -3.6891
 4246SOL    HW224201   4.371   4.122   6.349 -0.2318  0.8662  0.6972
 4247SOL     OW24202   3.600   3.712   0.634 -0.1229 -0.1991 -0.3889
 4247SOL    HW124203   3.514   3.676   0.657 -0.7923  3.0259  2.1787
 4247SOL    HW224204   3.637   3.629   0.603 -1.3762 -0.3681 -1.4278
 4248SOL     OW24205   3.582   4.342   6.449  0.0926  0.0886 -0.0482
 4248SOL    HW124206   3.659   4.396   6.429  2.0154 -1.8920  2.0598
 4248SOL    HW224207   3.522   4.350   6.375 -0.6841 -0.2236  0.5488
 4249SOL     OW24208   0.659   1.118   5.278  0.5762 -0.4656  0.1691
 4249SOL    HW124209   0.667   1.168   5.359 -3.9441  3.6079 -1.9238
 4249SOL    HW224210   0.739   1.143   5.232  0.1025  0.9984  0.1527
 4250SOL     OW24211   3.538   0.152   2.491  0.3411  0.1053 -0.0462
 4250SOL    HW124212   3.600   0.192   2.429  0.8917 -0.4511  0.1449
 4250SOL    HW224213   3.535   0.071   2.441  0.3371  0.5848 -0.8306
 4251SOL     OW24214   0.675   0.213  11.155 -0.0092  0.1263 -0.4719
 4251SOL    HW124215   0.714   0.242  11.237  0.5934 -1.2241 -0.2770
 4251SOL    HW224216   0.586   0.183  11.175 -0.3536  1.3091 -0.2000
 4252SOL     OW24217   4.196   0.643   0.051  0.0922 -0.4206  0.1379
 4252SOL    HW124218   4.214   0.582  17.661 -1.4013 -2.6310  1.6903
 4252SOL    HW224219   4.105   0.665   0.031  0.1718  0.5089  0.7813
 4253SOL     OW24220   4.316   0.578   7.188 -0.2515 -0.7484  0.1123
 4253SOL    HW124221   4.380   0.577   7.116 -0.8146  0.0576 -0.4038
 4253SOL    HW224222   4.364   0.538   7.260 -0.4948 -0.2133  0.5649
 4254SOL     OW24223   3.569   4.565   2.153  0.8065  0.4796  0.0668
 4254SOL    HW124224   3.599   4.634   2.093 -1.0463 -0.5510 -2.0506
 4254SOL    HW224225   3.600   4.491   2.100  2.2515  0.4712  0.9306
 4255SOL     OW24226   0.626   1.408  17.606 -0.1340  0.1863 -0.1574
 4255SOL    HW124227   0.589   1.340  17.662  1.6838 -1.8084 -1.3756
 4255SOL    HW224228   0.668   1.357  17.536 -1.7592 -0.8597 -0.3609
 4256SOL     OW24229   2.490   4.546   2.478  0.4669  0.8810 -0.7215
 4256SOL    HW124230   2.562   4.522   2.536  0.7394 -1.0312 -1.8354
 4256SOL    HW224231   2.539   4.558   2.396  0.3843  1.1097 -0.7353
 4257SOL     OW24232   1.592   0.952   9.343  0.2757  0.3873 -0.0004
 4257SOL    HW124233   1.576   0.862   9.315  1.5333 -0.3926  1.7881
 4257SOL    HW224234   1.521   0.966   9.406  0.3353  2.8739 -0.4908
 4258SOL     OW24235   4.425   2.938   6.681  0.2282 -0.2165 -0.2246
 4258SOL    HW124236   4.481   2.993   6.736  0.0439  2.0574 -2.2821
 4258SOL    HW224237   4.340   2.978   6.700  1.5015  0.9229  3.0750
 4259SOL     OW24238   0.908   0.442   7.215  0.4763 -0.6906  0.4196
 4259SOL    HW124239   0.817   0.458   7.238  0.8893  0.0755  1.5071
 4259SOL    HW224240   0.916   0.490   7.132 -3.0527 -3.1115 -1.3353
 4260SOL     OW24241   1.647   0.818   1.033  0.1159  0.9282  0.1890
 4260SOL    HW124242   1.587   0.871   1.086  1.9520  0.9034  2.2900
 4260SOL    HW224243   1.663   0.739   1.085 -0.6965  0.9255  0.4306
 4261SOL     OW24244   4.308   3.205   5.705 -0.1221 -0.5832 -0.1617
 4261SOL    HW124245   4.279   3.296   5.709  1.3905 -0.1140 -0.0038
 4261SOL    HW224246   4.282   3.190   5.614 -0.2865 -0.0406 -0.2050
 4262SOL     OW24247   2.470   0.664  17.569 -0.1014 -0.6547 -0.2506
 4262SOL    HW124248   2.531   0.663  17.495  0.8777  1.0641  0.5341
 4262SOL    HW224249   2.525   0.696  17.641  2.8425 -1.0896 -2.3046
 4263SOL     OW24250   2.048   3.976  15.292 -0.1364  0.0873  0.1529
 4263SOL    HW124251   2.030   3.914  15.363 -1.2183  0.5514  0.2882
 4263SOL    HW224252   2.090   3.920  15.227 -0.1549 -0.8249  0.9300
 4264SOL     OW24253   0.601   1.186   8.245  0.1870 -0.3512 -0.6054
 4264SOL    HW124254   0.603   1.153   8.335 -0.0124 -1.1577 -0.8988
 4264SOL    HW224255   0.628   1.277   8.254  0.4593 -0.5925  1.0677
 4265SOL     OW24256   1.437   4.277   5.266 -0.4466 -0.4208 -0.4933
 4265SOL    HW124257   1.496   4.230   5.208 -0.7723 -0.0359 -1.1467
 4265SOL    HW224258   1.365   4.215   5.271 -0.5609 -0.1544  1.1664
 4266SOL     OW24259   1.335   2.240   6.003 -0.4382  0.0681  0.4705
 4266SOL    HW124260   1.357   2.286   5.921  0.9883  1.0060  1.3736
 4266SOL    HW224261   1.306   2.157   5.966 -1.1798  0.3679  0.3816
 4267SOL     OW24262   4.200   1.673  14.947 -0.3324  0.6950  0.1483
 4267SOL    HW124263   4.268   1.687  14.882 -0.0182  0.1929  0.3625
 4267SOL    HW224264   4.246   1.601  14.990 -3.3619  0.1384  2.5585
 4268SOL     OW24265   1.279   4.103   2.051 -0.8992 -0.1019 -0.1518
 4268SOL    HW124266   1.223   4.088   2.127  0.1156  0.6028  0.7466
 4268SOL    HW224267   1.291   4.021   2.004 -1.3121  0.4445 -1.2212
 4269SOL     OW24268   3.800   4.254   5.094 -0.0301 -0.4335  0.4848
 4269SOL    HW124269   3.734   4.269   5.162 -0.8021 -0.6247 -0.2244
 4269SOL    HW224270   3.878   4.304   5.120 -0.2635 -0.5982  1.5130
 4270SOL     OW24271   0.625   0.386   4.886 -0.4515  0.5506  0.2854
 4270SOL    HW124272   0.669   0.391   4.971  1.7299 -1.5050 -0.7231
 4270SOL    HW224273   0.620   0.294   4.862  0.0509  0.5381  0.2226
 4271SOL     OW24274   0.248   1.011   6.490  0.1347 -0.5508 -0.2435
 4271SOL    HW124275   0.193   1.018   6.568  1.0998  1.6007  0.2312
 4271SOL    HW224276   0.189   0.980   6.421  0.8167  0.8951 -1.4714
 4272SOL     OW24277   1.387   3.792   4.958  0.0961  0.0899 -0.3011
 4272SOL    HW124278   1.348   3.764   4.876  0.4793 -5.0579  1.2660
 4272SOL    HW224279   1.468   3.830   4.923  0.4897 -1.0807 -0.6497
 4273SOL     OW24280   1.303   1.289  13.254  0.9654  0.0304  0.4764
 4273SOL    HW124281   1.397   1.305  13.258  1.1216 -0.2360 -1.9487
 4273SOL    HW224282   1.282   1.248  13.338 -1.2147 -0.8939 -0.5078
 4274SOL     OW24283   1.595   3.633   9.118  0.1515  0.1210  0.3700
 4274SOL    HW124284   1.579   3.556   9.063 -3.0018  0.8429  0.2361
 4274SOL    HW224285   1.523   3.689   9.088 -2.0259 -2.9519 -0.1647
 4275SOL     OW24286   3.634   4.413  12.699  0.1457 -0.3113  0.3754
 4275SOL    HW124287   3.603   4.416  12.609 -0.0444 -0.0834  0.4484
 4275SOL    HW224288   3.727   4.411  12.676 -0.2802  0.1880 -1.4157
 4276SOL     OW24289   4.584   4.373  15.647 -0.2925 -0.3517 -0.3111
 4276SOL    HW124290   4.615   4.347  15.560  0.0662  0.1562 -0.3363
 4276SOL    HW224291   4.570   4.290  15.692  1.8449 -1.0145 -0.8515
 4277SOL     OW24292   4.036   2.369   3.289  0.3990 -0.4713  0.4456
 4277SOL    HW124293   4.016   2.372   3.195 -0.5458  1.1497  0.6952
 4277SOL    HW224294   3.997   2.453   3.315  1.0582  0.4352 -1.4566
 4278SOL     OW24295   1.093   3.741   9.085  0.2385 -0.0540  0.0224
 4278SOL    HW124296   1.041   3.680   9.138 -0.9746 -0.4335 -1.6051
 4278SOL    HW224297   1.027   3.756   9.018  1.3619  0.6461 -0.9250
 4279SOL     OW24298   2.110   0.808   4.728  0.5317  0.0576  0.3669
 4279SOL    HW124299   2.015   0.796   4.724  0.5160  0.3315 -0.1371
 4279SOL    HW224300   2.122   0.779   4.818 -1.4132 -1.2092  0.2331
 4280SOL     OW24301   2.387   2.538   4.925  0.0562  0.5025 -0.2302
 4280SOL    HW124302   2.365   2.492   4.843  0.2048  1.8202 -1.0152
 4280SOL    HW224303   2.468   2.493   4.947 -0.4324  0.9154  2.3752
 4281SOL     OW24304   1.883   2.670  15.039  0.6823 -0.0185 -0.1649
 4281SOL    HW124305   1.842   2.602  14.985  0.6555  0.7527 -1.1169
 4281SOL    HW224306   1.897   2.627  15.123  0.0523 -1.2078 -0.6632
 4282SOL     OW24307   3.939   1.555   8.486 -0.6497  0.2794 -0.5225
 4282SOL    HW124308   3.984   1.542   8.402 -1.5410 -1.4669 -0.7303
 4282SOL    HW224309   3.883   1.631   8.467 -0.2127  0.8857  0.6132
 4283SOL     OW24310   0.729   2.377   3.728  1.0450  0.2285 -0.1162
 4283SOL    HW124311   0.678   2.375   3.809 -0.1092  1.9477 -0.7750
 4283SOL    HW224312   0.797   2.441   3.750  0.7911  0.3384  0.3499
 4284SOL     OW24313   3.854   4.029  10.777  0.0750 -0.0399  0.4385
 4284SOL    HW124314   3.759   4.023  10.787 -0.1735  1.3190 -1.0932
 4284SOL    HW224315   3.873   4.087  10.851 -0.3763 -0.5921  0.9879
 4285SOL     OW24316   4.510   0.530  16.436 -0.2577 -0.3523 -0.2983
 4285SOL    HW124317   4.580   0.590  16.411  0.0813 -1.0255 -0.9753
 4285SOL    HW224318   4.438   0.586  16.410  1.4423  1.7563 -0.4149
 4286SOL     OW24319   1.041   3.742  16.493  0.5748 -0.5013 -0.1099
 4286SOL    HW124320   1.000   3.655  16.493  0.1531 -0.3012 -0.8395
 4286SOL    HW224321   1.009   3.780  16.575  1.9044  2.6623 -1.0537
 4287SOL     OW24322   4.583   4.015  11.975  0.0801  0.3664  0.2461
 4287SOL    HW124323   4.574   3.966  12.057 -0.2732  1.0594  0.6173
 4287SOL    HW224324   4.504   4.069  11.969 -0.7613 -1.0011 -0.9411
 4288SOL     OW24325   3.269   2.241   7.145  0.3089 -0.5297  0.1383
 4288SOL    HW124326   3.306   2.233   7.232 -1.5628  0.3346  1.0151
 4288SOL    HW224327   3.176   2.242   7.167 -0.0678  3.0801 -1.5397
 4289SOL     OW24328   2.288   0.376   7.451 -0.1274  0.1190  0.6789
 4289SOL    HW124329   2.293   0.417   7.537 -1.9321  0.0176  0.8469
 4289SOL    HW224330   2.245   0.444   7.399  0.8972 -1.4550 -2.2891
 4290SOL     OW24331   2.695   2.477   5.392  0.2172 -0.3077 -0.3070
 4290SOL    HW124332   2.650   2.406   5.438 -0.2231  0.0696 -0.1559
 4290SOL    HW224333   2.785   2.444   5.394  0.7878  1.3025  0.2697
 4291SOL     OW24334   0.098   1.650  11.984 -0.1194  0.1298 -0.5419
 4291SOL    HW124335   0.186   1.628  11.954  0.5473  2.8531 -0.5336
 4291SOL    HW224336   0.094   1.605  12.068  0.5635 -0.1642 -0.6712
 4292SOL     OW24337   2.029   3.582  10.598 -0.2583  0.2588  0.3580
 4292SOL    HW124338   2.056   3.559  10.687 -0.4213  1.0084  0.6015
 4292SOL    HW224339   2.110   3.570  10.549 -1.5806  0.8106 -1.9494
 4293SOL     OW24340   3.636   3.379   6.498 -0.0345 -0.1466 -0.6637
 4293SOL    HW124341   3.621   3.356   6.590  2.5728  0.4876 -0.0726
 4293SOL    HW224342   3.556   3.416   6.461  0.1890  1.5904  0.6177
 4294SOL     OW24343   1.759   0.206   2.219 -0.7384  0.0332  0.3111
 4294SOL    HW124344   1.797   0.247   2.297  0.1065  1.4622 -0.8626
 4294SOL    HW224345   1.689   0.155   2.262 -0.0918 -1.7611 -0.7540
 4295SOL     OW24346   0.071   4.592   2.180 -0.0061 -0.0823 -0.0529
 4295SOL    HW124347   0.102   4.617   2.093  2.7828  1.9657  1.5548
 4295SOL    HW224348   0.045   4.500   2.171 -0.5576 -0.1021  1.7492
 4296SOL     OW24349   2.021   2.855   6.344  0.0144 -0.2753  0.3992
 4296SOL    HW124350   2.099   2.875   6.395 -0.4334 -0.4308  1.1381
 4296SOL    HW224351   2.047   2.774   6.301 -1.3548 -1.1969  1.2881
 4297SOL     OW24352   0.174   1.587   2.270 -0.0380  0.2674 -0.2703
 4297SOL    HW124353   0.102   1.648   2.253 -0.4896 -0.2746 -0.2995
 4297SOL    HW224354   0.126   1.506   2.256  0.4326 -0.1245  0.3920
 4298SOL     OW24355   4.430   1.274   3.774 -0.3306 -0.2745 -0.3367
 4298SOL    HW124356   4.479   1.316   3.845  0.7765 -0.1363 -1.1899
 4298SOL    HW224357   4.479   1.194   3.754 -0.2713 -0.0143 -1.2191
 4299SOL     OW24358   2.701   4.714   8.674 -0.3383 -0.3350 -0.3669
 4299SOL    HW124359   2.691   0.082   8.712  0.1969 -0.0479 -0.8972
 4299SOL    HW224360   2.752   4.681   8.748  0.3218  1.9156  0.2088
 4300SOL     OW24361   2.289   3.554  13.674 -0.1917 -0.4932  0.4036
 4300SOL    HW124362   2.280   3.487  13.742 -0.3878 -1.3047 -0.4145
 4300SOL    HW224363   2.375   3.529  13.641  0.2874 -0.7611  1.8424
 4301SOL     OW24364   2.297   2.545   9.436  0.4533 -0.1834 -0.0981
 4301SOL    HW124365   2.320   2.453   9.452  1.9764  0.1818 -0.2446
 4301SOL    HW224366   2.344   2.594   9.503  0.8251 -0.0877 -0.4317
 4302SOL     OW24367   2.892   1.263   0.989 -0.2293  0.5042  0.0368
 4302SOL    HW124368   2.923   1.178   0.956  1.4746  1.1092  0.0452
 4302SOL    HW224369   2.806   1.273   0.950 -0.4774  0.5480  0.5891
 4303SOL     OW24370   0.220   2.022   1.596 -0.2700  0.3317 -0.4655
 4303SOL    HW124371   0.159   2.060   1.660  0.9613 -0.0312  0.9120
 4303SOL    HW224372   0.299   2.075   1.605  0.9793 -1.9010  1.5386
 4304SOL     OW24373   1.155   0.156   1.038 -0.2394 -0.4239  0.3727
 4304SOL    HW124374   1.161   0.234   0.983 -1.9517 -0.8740 -0.4585
 4304SOL    HW224375   1.227   0.103   1.002 -0.5829  0.3140 -1.4064
 4305SOL     OW24376   4.044   3.388  13.546 -0.0805  0.2656 -0.0805
 4305SOL    HW124377   4.091   3.366  13.627 -0.2474 -1.0250 -0.3433
 4305SOL    HW224378   4.033   3.305  13.501 -0.2572  0.9289 -1.2655
 4306SOL     OW24379   0.984   2.337  16.436 -0.5383 -0.0264  0.1739
 4306SOL    HW124380   1.017   2.426  16.447 -2.6777  0.8528 -0.6656
 4306SOL    HW224381   0.893   2.352  16.413  0.1481 -0.0517 -2.4989
 4307SOL     OW24382   4.521   0.393   7.340  0.2837  0.2148  0.0785
 4307SOL    HW124383   4.522   0.475   7.389 -1.0921 -0.8161  1.8351
 4307SOL    HW224384   4.604   0.350   7.357 -0.5808 -1.0280  1.1236
 4308SOL     OW24385   3.620   1.152  15.214 -0.0350  0.2471 -0.0657
 4308SOL    HW124386   3.533   1.169  15.177 -0.4446 -0.1680  0.6986
 4308SOL    HW224387   3.683   1.155  15.143 -1.8930  0.9590 -1.6867
 4309SOL     OW24388   0.249   4.608   1.953  0.8071 -0.1623  0.1737
 4309SOL    HW124389   0.269   4.527   1.906 -2.5334 -1.4414  1.0165
 4309SOL    HW224390   0.336   4.621   1.991  0.9753  1.1654 -0.6518
 4310SOL     OW24391   0.461   2.819   8.744 -0.4622  0.1604  0.1559
 4310SOL    HW124392   0.419   2.735   8.728 -0.9322  0.1575  1.3864
 4310SOL    HW224393   0.549   2.797   8.775  0.5299  0.1074 -2.6487
 4311SOL     OW24394   4.256   3.962  11.792 -0.1969 -0.3006 -0.0244
 4311SOL    HW124395   4.198   3.971  11.867 -2.8180  1.5066 -2.2754
 4311SOL    HW224396   4.233   4.043  11.746  0.9766 -0.2969 -0.6128
 4312SOL     OW24397   4.163   1.196   4.801  0.5458 -0.3025 -0.8058
 4312SOL    HW124398   4.178   1.284   4.767  0.3946  0.2841  0.6092
 4312SOL    HW224399   4.207   1.151   4.729 -0.9878 -1.9485 -0.7188
 4313SOL     OW24400   2.125   1.852  11.544  0.7878  0.5278  0.4233
 4313SOL    HW124401   2.203   1.876  11.594  1.4876  0.7661 -0.7892
 4313SOL    HW224402   2.053   1.889  11.596 -0.2223 -0.9499  0.0779
 4314SOL     OW24403   0.108   1.158   1.530 -0.4681 -0.5837  0.2541
 4314SOL    HW124404   0.132   1.101   1.457 -3.2418 -2.8528  1.1212
 4314SOL    HW224405   0.067   1.093   1.587 -0.7524 -1.0516 -0.4843
 4315SOL     OW24406   2.745   2.421   1.698 -0.2564 -0.1589 -0.5283
 4315SOL    HW124407   2.821   2.373   1.731 -1.0445  0.8503  2.7331
 4315SOL    HW224408   2.784   2.509   1.701 -1.3771  0.3261 -0.0527
 4316SOL     OW24409   4.572   2.244   3.256 -0.2207 -0.0112 -0.1502
 4316SOL    HW124410   4.560   2.230   3.162 -1.4227 -0.8404  0.1300
 4316SOL    HW224411   4.560   2.153   3.283 -2.0221  0.5538  0.9034
 4317SOL     OW24412   1.031   4.416   7.514 -0.4444  0.3168  0.1122
 4317SOL    HW124413   0.980   4.475   7.459 -0.2582  1.3276  1.0270
 4317SOL    HW224414   1.115   4.462   7.515  0.0803 -0.6145 -1.1009
 4318SOL     OW24415   0.433   3.846   2.789  0.1834 -0.4442  0.0506
 4318SOL    HW124416   0.381   3.907   2.738 -0.3649 -0.2313  0.8688
 4318SOL    HW224417   0.368   3.776   2.793 -0.0379 -0.3859 -2.7382
 4319SOL     OW24418   2.878   2.324   2.806  0.0788 -0.4390  0.2961
 4319SOL    HW124419   2.875   2.315   2.902  1.2408 -0.9338  0.2942
 4319SOL    HW224420   2.839   2.237   2.791 -0.5526  0.3600 -2.6653
 4320SOL     OW24421   1.507   1.497   0.597 -0.1865  0.2582  0.1754
 4320SOL    HW124422   1.425   1.454   0.621 -0.2378  0.0073 -0.4468
 4320SOL    HW224423   1.569   1.492   0.670 -1.3476  2.1770  1.2888
 4321SOL     OW24424   1.218   2.144   3.852 -0.6483 -0.0152  0.6486
 4321SOL    HW124425   1.299   2.126   3.805  0.3978  0.9980  2.0800
 4321SOL    HW224426   1.154   2.112   3.788 -0.8969  2.5088 -0.3536
 4322SOL     OW24427   4.278   3.932   4.916  0.3406  0.5654 -0.6128
 4322SOL    HW124428   4.193   3.900   4.946  0.5851  0.7260  0.2418
 4322SOL    HW224429   4.260   4.025   4.901 -1.4784 -0.1494 -2.8491
 4323SOL     OW24430   0.604   4.697  17.671  0.2667  0.7530  0.1770
 4323SOL    HW124431   0.515   4.681   0.024 -0.5458  1.1102 -1.7643
 4323SOL    HW224432   0.649   4.613  17.660 -0.7367  0.4333 -1.6025
 4324SOL     OW24433   2.848   2.627  15.909  0.1819  0.1910  0.1204
 4324SOL    HW124434   2.926   2.613  15.963  0.8770 -1.1539 -1.2483
 4324SOL    HW224435   2.780   2.615  15.975  1.6823  1.0964  1.8575
 4325SOL     OW24436   0.409   1.358   6.999  0.3423 -0.5520  0.6956
 4325SOL    HW124437   0.382   1.383   7.087  0.2372 -4.0676  1.6360
 4325SOL    HW224438   0.427   1.440   6.953  1.0005 -1.2957 -0.3862
 4326SOL     OW24439   0.141   3.497   5.987 -0.4482  0.8997 -0.2751
 4326SOL    HW124440   0.102   3.433   6.047  0.9972 -1.0421 -1.3843
 4326SOL    HW224441   0.115   3.580   6.026 -0.3351  0.0016  1.7332
 4327SOL     OW24442   0.223   2.763  15.155  0.1236  0.2608  0.4694
 4327SOL    HW124443   0.192   2.827  15.091 -2.2294 -0.5702  0.7811
 4327SOL    HW224444   0.259   2.831  15.212  2.0834 -0.0434 -0.4142
 4328SOL     OW24445   3.717   0.628   5.073  0.3731 -0.7078 -0.2169
 4328SOL    HW124446   3.768   0.547   5.071  0.9477 -0.3554  0.2647
 4328SOL    HW224447   3.689   0.642   4.983  0.3316  0.8828  0.0341
 4329SOL     OW24448   4.190   0.459  17.503 -0.7380 -0.0367  0.3879
 4329SOL    HW124449   4.276   0.433  17.468 -0.2654  2.9978 -0.6858
 4329SOL    HW224450   4.133   0.464  17.427  0.2375  0.5817 -0.3084
 4330SOL     OW24451   3.587   0.210   4.187 -0.2666 -0.7057  0.0793
 4330SOL    HW124452   3.560   0.125   4.153 -1.1193  0.0893 -1.2363
 4330SOL    HW224453   3.558   0.190   4.276  3.6567  0.8768  1.7237
 4331SOL     OW24454   4.498   0.234   1.949  0.7959  0.0866  0.1174
 4331SOL    HW124455   4.466   0.290   2.020 -0.6608 -0.6284  0.0021
 4331SOL    HW224456   4.475   0.295   1.879 -2.2986 -0.0233  1.0668
 4332SOL     OW24457   4.192   3.660   7.123  0.5853 -0.0271 -0.0201
 4332SOL    HW124458   4.260   3.688   7.063  0.6368  1.4195  0.7093
 4332SOL    HW224459   4.215   3.706   7.204 -0.6047 -0.4459  0.5619
 4333SOL     OW24460   2.473   0.419  11.461 -0.3220  0.1821  0.7618
 4333SOL    HW124461   2.518   0.443  11.542 -3.0787  2.4211  1.6164
 4333SOL    HW224462   2.482   0.324  11.455  0.4140  0.2857  0.2510
 4334SOL     OW24463   3.775   1.692  12.148 -0.4304  0.1292  0.2275
 4334SOL    HW124464   3.766   1.778  12.189 -1.7615 -0.1663  0.5702
 4334SOL    HW224465   3.834   1.641  12.204  0.0264 -0.3770 -0.7139
 4335SOL     OW24466   2.588   0.361   8.384  0.2816  0.2009 -0.1944
 4335SOL    HW124467   2.580   0.423   8.311 -0.0249 -0.9293 -1.1241
 4335SOL    HW224468   2.506   0.375   8.431 -0.2964  1.1945 -1.4873
 4336SOL     OW24469   2.103   4.427  14.889 -0.1280  0.2223 -0.2800
 4336SOL    HW124470   2.086   4.433  14.983  2.3377  0.7810  0.1202
 4336SOL    HW224471   2.145   4.510  14.869  0.7219  0.3113  1.9220
 4337SOL     OW24472   1.158   3.084   3.164 -0.4455  0.2439 -0.3851
 4337SOL    HW124473   1.178   2.992   3.150  0.6456  0.3857  0.2529
 4337SOL    HW224474   1.187   3.085   3.255  2.2713 -3.0206 -1.2419
 4338SOL     OW24475   1.677   4.616  16.463 -0.1833 -0.0060 -0.0622
 4338SOL    HW124476   1.744   4.645  16.401 -0.7047 -0.3056 -0.7563
 4338SOL    HW224477   1.733   4.618  16.541 -1.2525 -1.4189  0.7261
 4339SOL     OW24478   1.401   2.698  10.684  0.2202 -0.5247  0.4658
 4339SOL    HW124479   1.456   2.642  10.628  0.8433 -0.0598  0.6138
 4339SOL    HW224480   1.456   2.775  10.696 -1.5290  0.9444 -0.9822
 4340SOL     OW24481   1.699   1.700   5.878  0.2540 -0.5708 -0.8537
 4340SOL    HW124482   1.705   1.620   5.826 -1.5728  0.6563 -2.9135
 4340SOL    HW224483   1.681   1.655   5.961 -1.6199  0.4441 -0.7321
 4341SOL     OW24484   0.960   1.184  13.393 -0.3588 -0.1680 -0.4886
 4341SOL    HW124485   1.033   1.171  13.454  0.1645  3.0708 -0.4561
 4341SOL    HW224486   0.903   1.121  13.438  0.3154  0.0139  0.6262
 4342SOL     OW24487   0.627   3.348   4.146  1.0469 -0.0072 -0.5704
 4342SOL    HW124488   0.532   3.350   4.136  0.8302 -0.7375  1.2496
 4342SOL    HW224489   0.653   3.321   4.058  1.4870 -2.4589  0.3200
 4343SOL     OW24490   3.145   3.571   4.433 -0.2366 -0.2880 -0.2791
 4343SOL    HW124491   3.053   3.569   4.407 -0.6839  0.8535  1.2277
 4343SOL    HW224492   3.178   3.481   4.429 -1.1861 -0.5131 -3.1440
 4344SOL     OW24493   3.465   3.091   3.259  0.0510 -0.1133 -0.0651
 4344SOL    HW124494   3.514   3.079   3.178  1.0102 -1.8394  0.7868
 4344SOL    HW224495   3.380   3.120   3.224 -0.2325  0.0615  0.7745
 4345SOL     OW24496   0.431   4.024   5.596 -0.4516 -0.0332  0.4952
 4345SOL    HW124497   0.495   3.972   5.645  1.9133  1.0709 -1.4607
 4345SOL    HW224498   0.486   4.039   5.519 -0.4631  0.2562  0.5425
 4346SOL     OW24499   2.528   2.483  10.415  0.1273 -0.6089 -0.3850
 4346SOL    HW124500   2.476   2.513  10.489  0.7860 -0.3286 -0.0384
 4346SOL    HW224501   2.465   2.421  10.379 -0.9541  0.3359 -0.1331
 4347SOL     OW24502   1.763   3.877   4.283 -0.1346 -0.6188 -0.0135
 4347SOL    HW124503   1.699   3.896   4.215  0.8206 -0.1250 -0.7766
 4347SOL    HW224504   1.822   3.951   4.266 -1.7893  0.8322  0.5715
 4348SOL     OW24505   3.482   2.266   3.573  0.0284 -0.7479 -0.3525
 4348SOL    HW124506   3.494   2.255   3.479  0.7126  2.1121 -0.6294
 4348SOL    HW224507   3.527   2.350   3.582  3.7889 -2.7511 -0.5309
 4349SOL     OW24508   2.310   1.092   5.177 -0.2199 -0.4066 -0.1324
 4349SOL    HW124509   2.324   1.034   5.102 -0.1671 -1.7477  0.9270
 4349SOL    HW224510   2.400   1.105   5.207 -0.1768 -0.3086 -0.3043
 4350SOL     OW24511   2.607   1.139   7.331 -0.0731  0.6337 -0.1021
 4350SOL    HW124512   2.699   1.166   7.327  0.8139 -2.3798  0.2269
 4350SOL    HW224513   2.579   1.162   7.243 -1.6144 -0.2984  0.1479
 4351SOL     OW24514   0.665   0.572  16.713  0.5764 -0.2355 -0.1185
 4351SOL    HW124515   0.667   0.552  16.619  4.0542 -1.8773  0.2859
 4351SOL    HW224516   0.584   0.524  16.730  0.8710 -0.4166  0.7457
 4352SOL     OW24517   2.039   2.103  15.759 -0.5648  0.4219 -0.8329
 4352SOL    HW124518   2.034   2.017  15.800  1.3564  1.3517  1.3589
 4352SOL    HW224519   1.949   2.126  15.780 -0.6071  1.1501 -1.7684
 4353SOL     OW24520   0.185   1.608  13.426  0.0270 -0.9513  0.2933
 4353SOL    HW124521   0.149   1.628  13.512  1.8190 -1.1602  1.0874
 4353SOL    HW224522   0.204   1.698  13.401 -1.9814 -0.5841  0.1121
 4354SOL     OW24523   0.556   3.297   2.968 -0.5888 -0.8599  0.3839
 4354SOL    HW124524   0.519   3.309   3.056  3.5730 -0.3155  2.0333
 4354SOL    HW224525   0.512   3.369   2.922  0.7709 -1.6220 -2.0833
 4355SOL     OW24526   1.662   4.551   3.639  0.4388  0.0844 -0.1265
 4355SOL    HW124527   1.734   4.552   3.576 -1.3922  1.7235 -2.1876
 4355SOL    HW224528   1.622   4.636   3.621  0.1685  0.2663  1.3251
 4356SOL     OW24529   0.723   4.307   4.494 -0.0382 -0.0366  0.3705
 4356SOL    HW124530   0.802   4.301   4.439  0.1750 -0.6326  0.7369
 4356SOL    HW224531   0.734   4.237   4.559 -0.6407  0.3635  0.8945
 4357SOL     OW24532   1.705   0.069   2.655  1.1382 -0.5633  0.0404
 4357SOL    HW124533   1.784   0.097   2.701  0.4498 -0.7684  1.3432
 4357SOL    HW224534   1.655   0.015   2.716  0.3916  1.0320  0.8449
 4358SOL     OW24535   0.403   2.636   6.020  0.1458  0.8902 -0.2097
 4358SOL    HW124536   0.401   2.541   6.020  1.1968  0.8619  1.5245
 4358SOL    HW224537   0.357   2.658   6.101  0.0642  1.6212 -0.4477
 4359SOL     OW24538   0.098   3.064   8.522  0.4272 -0.2332 -0.1609
 4359SOL    HW124539   0.185   3.062   8.562  0.0258  2.5740  0.8423
 4359SOL    HW224540   0.048   2.986   8.543 -0.7024 -0.0193 -2.1022
 4360SOL     OW24541   2.255   4.197   9.302 -0.4586 -0.4127 -0.1188
 4360SOL    HW124542   2.322   4.203   9.370  0.7193  2.7190 -1.5288
 4360SOL    HW224543   2.316   4.197   9.228 -0.4288 -0.1760 -0.0939
 4361SOL     OW24544   1.888   4.643   1.696  0.2098  0.0912 -0.9410
 4361SOL    HW124545   1.918   4.609   1.612  2.5239  0.4059 -0.2379
 4361SOL    HW224546   1.966   4.651   1.750 -0.5324 -3.2971  0.6206
 4362SOL     OW24547   0.459   1.535   5.515 -0.8471 -0.0695 -0.3260
 4362SOL    HW124548   0.515   1.575   5.581  0.1675 -0.7426 -0.7891
 4362SOL    HW224549   0.392   1.602   5.498  0.0306  1.6417  3.0102
 4363SOL     OW24550   3.038   0.420  17.008 -0.4091  0.5599 -0.0478
 4363SOL    HW124551   2.997   0.460  16.931  1.5211  2.3204 -0.1722
 4363SOL    HW224552   3.120   0.393  16.967  0.8547  2.1297  1.3873
 4364SOL     OW24553   2.847   3.573   7.833 -0.0416 -0.0834  0.6323
 4364SOL    HW124554   2.874   3.643   7.773  1.8678  0.5403  2.2279
 4364SOL    HW224555   2.775   3.606   7.886 -0.8779 -1.4063  0.3057
 4365SOL     OW24556   2.038   1.914   6.707 -0.2453 -0.4443 -0.6566
 4365SOL    HW124557   2.027   1.820   6.697 -2.0753 -0.2894 -0.0888
 4365SOL    HW224558   2.132   1.923   6.693 -0.0761  0.5283  1.1022
 4366SOL     OW24559   0.750   4.102   4.673  0.1367  0.2355 -0.6840
 4366SOL    HW124560   0.701   4.138   4.747 -0.3943 -0.4346 -0.7107
 4366SOL    HW224561   0.792   4.023   4.706 -1.5589  0.3302  1.7116
 4367SOL     OW24562   4.000   3.974   2.437 -0.0202 -0.1482 -0.7661
 4367SOL    HW124563   4.092   4.000   2.448 -0.2947 -0.4699  2.2728
 4367SOL    HW224564   3.988   3.912   2.509 -0.3770 -0.4589 -1.0960
 4368SOL     OW24565   0.677   2.070   7.074  0.2831 -0.1989 -0.3999
 4368SOL    HW124566   0.755   2.115   7.042 -1.8273  2.3329 -2.1055
 4368SOL    HW224567   0.637   2.045   6.991  0.2216 -1.2900 -0.0370
 4369SOL     OW24568   4.168   3.014   3.893 -0.4774  1.3343  0.1059
 4369SOL    HW124569   4.256   3.029   3.859 -1.5582  1.3448 -2.6104
 4369SOL    HW224570   4.156   2.921   3.872  1.6733  1.1510 -0.3273
 4370SOL     OW24571   3.204   3.720   9.848  0.1291  0.0378  0.4610
 4370SOL    HW124572   3.212   3.643   9.792 -0.1494 -0.7368  1.4750
 4370SOL    HW224573   3.129   3.689   9.898  1.1400 -0.4726  1.6690
 4371SOL     OW24574   0.268   1.829  10.879 -0.1887 -0.5938 -0.2460
 4371SOL    HW124575   0.221   1.790  10.953  1.8496 -1.4717  0.5794
 4371SOL    HW224576   0.277   1.911  10.927 -1.4175 -0.1002 -0.8509
 4372SOL     OW24577   3.448   4.573   0.128 -0.0492 -0.0369 -0.7487
 4372SOL    HW124578   3.526   4.613   0.089 -0.3499 -0.2669 -1.5790
 4372SOL    HW224579   3.462   4.582   0.222  1.0939  0.1959 -0.9364
 4373SOL     OW24580   1.442   3.628   2.776  0.3357  0.1122  0.3087
 4373SOL    HW124581   1.370   3.664   2.725  1.5585  2.0649 -0.0292
 4373SOL    HW224582   1.498   3.704   2.790 -2.5976  2.2567  0.2730
 4374SOL     OW24583   0.660   2.727  17.406  0.3014 -0.8698 -0.4620
 4374SOL    HW124584   0.714   2.769  17.473 -2.1841  0.9372  0.3786
 4374SOL    HW224585   0.732   2.702  17.347  0.0778 -0.9138 -0.7152
 4375SOL     OW24586   0.175   3.394   5.702  0.0682  0.1576  0.0601
 4375SOL    HW124587   0.100   3.340   5.726 -0.4431  1.0252  0.4475
 4375SOL    HW224588   0.167   3.478   5.749  1.4521  0.7566 -0.7964
 4376SOL     OW24589   3.223   3.088   7.245  0.0841  0.1394 -0.2774
 4376SOL    HW124590   3.235   3.183   7.235  0.5501  0.1012 -0.0723
 4376SOL    HW224591   3.253   3.083   7.336  0.5517 -0.4104 -0.4682
 4377SOL     OW24592   1.598   4.438   8.481  0.5571  0.2257  0.7274
 4377SOL    HW124593   1.537   4.461   8.551 -2.3102 -0.2216 -1.6113
 4377SOL    HW224594   1.638   4.363   8.525 -1.6747 -1.2885  0.1669
 4378SOL     OW24595   0.616   2.493  11.752 -0.3167  0.2914  0.3077
 4378SOL    HW124596   0.653   2.573  11.715 -0.7427 -0.8189 -2.5104
 4378SOL    HW224597   0.657   2.499  11.838  1.9367 -2.5965 -0.5572
 4379SOL     OW24598   0.391   1.045   8.672  0.0251  0.1374  0.4749
 4379SOL    HW124599   0.409   1.044   8.766  0.3841  3.3371  0.4387
 4379SOL    HW224600   0.328   0.973   8.662 -1.2544  1.2081  0.7167
 4380SOL     OW24601   2.266   2.620   1.404 -0.7064 -0.2270 -0.1972
 4380SOL    HW124602   2.199   2.674   1.446  0.4741 -0.6457  2.1625
 4380SOL    HW224603   2.219   2.591   1.325  0.5651 -2.4586 -0.1333
 4381SOL     OW24604   4.274   3.665   7.580  1.0255  0.8058 -0.2742
 4381SOL    HW124605   4.309   3.576   7.576 -0.5829  0.1247  0.6717
 4381SOL    HW224606   4.233   3.665   7.666  0.5713  1.7069 -0.4868
 4382SOL     OW24607   3.025   1.981   3.035  0.2662 -0.0164  0.4273
 4382SOL    HW124608   3.013   2.014   3.125 -2.1554  0.7859 -0.1947
 4382SOL    HW224609   3.016   1.886   3.044  0.5817 -0.0218  0.6790
 4383SOL     OW24610   3.259   2.028   5.049 -0.5634 -0.6033 -0.1382
 4383SOL    HW124611   3.317   1.960   5.083 -0.0342 -0.5483 -0.9469
 4383SOL    HW224612   3.173   1.987   5.056 -1.0831  0.3580 -0.9929
 4384SOL     OW24613   2.604   1.920   5.619 -0.0515 -0.4088 -0.2641
 4384SOL    HW124614   2.614   2.002   5.667 -1.6618  0.3788 -1.2852
 4384SOL    HW224615   2.690   1.912   5.577 -0.1995 -2.2903 -0.1942
 4385SOL     OW24616   2.102   2.777   6.746  0.1802  0.2322 -0.0081
 4385SOL    HW124617   2.039   2.832   6.701 -0.8080 -0.3360  0.6910
 4385SOL    HW224618   2.192   2.806   6.730  0.9375 -1.0786  1.8214
 4386SOL     OW24619   1.458   0.317   9.738 -0.0639  0.6377 -0.0763
 4386SOL    HW124620   1.518   0.347   9.806  0.5449 -0.4110 -0.1479
 4386SOL    HW224621   1.517   0.323   9.663 -0.6877 -1.6661 -0.7464
 4387SOL     OW24622   4.225   3.220   1.422 -0.1357 -0.2725 -0.1945
 4387SOL    HW124623   4.246   3.193   1.333 -1.8417 -0.4962 -0.5131
 4387SOL    HW224624   4.144   3.261   1.394  0.4261  1.7156  1.0587
 4388SOL     OW24625   2.986   2.920  15.269 -0.8933  0.2610 -0.2876
 4388SOL    HW124626   2.944   3.002  15.292  1.6803  1.0287  1.6753
 4388SOL    HW224627   3.074   2.950  15.250 -1.3846  3.1801  2.0371
 4389SOL     OW24628   0.359   0.239  13.020  0.0196 -0.4314 -0.0501
 4389SOL    HW124629   0.447   0.239  13.059  0.5569 -1.2928 -1.2168
 4389SOL    HW224630   0.353   0.156  12.971  0.6898  0.9553 -2.4755
 4390SOL     OW24631   1.243   2.070  16.726  0.5320  0.6033  0.4770
 4390SOL    HW124632   1.176   2.017  16.683 -0.6310  1.4357  1.2718
 4390SOL    HW224633   1.305   2.066  16.653  0.8534 -0.1330  0.7945
 4391SOL     OW24634   2.431   2.869   4.243  0.0418  0.1148  0.6933
 4391SOL    HW124635   2.437   2.900   4.333  0.5429  4.4372 -0.7773
 4391SOL    HW224636   2.511   2.899   4.199  0.3315 -1.9224 -0.1567
 4392SOL     OW24637   1.937   3.389   3.381 -0.5000 -0.3027  0.1084
 4392SOL    HW124638   1.939   3.308   3.331  1.0509 -0.3950  0.3183
 4392SOL    HW224639   2.004   3.372   3.447  0.4307  1.8630 -0.2489
 4393SOL     OW24640   4.414   3.424   6.911  0.5116  0.5535  0.1666
 4393SOL    HW124641   4.363   3.423   6.830 -2.0775  2.5428  1.7660
 4393SOL    HW224642   4.428   3.516   6.931 -2.9544  1.1472 -0.1035
 4394SOL     OW24643   1.636   3.146   3.856  0.6794 -0.1563 -0.5135
 4394SOL    HW124644   1.581   3.154   3.935  3.5884 -0.2423  1.5245
 4394SOL    HW224645   1.673   3.232   3.835  0.4308  0.1999  0.4682
 4395SOL     OW24646   4.388   0.722   1.162 -0.5229 -0.1580  0.4749
 4395SOL    HW124647   4.373   0.775   1.240  0.4096 -1.0703  1.2597
 4395SOL    HW224648   4.322   0.654   1.178  1.0842 -1.0367  3.2699
 4396SOL     OW24649   3.102   4.076  12.806 -0.3366  0.1909  0.1329
 4396SOL    HW124650   3.181   4.033  12.775 -0.7818 -0.3464 -0.2511
 4396SOL    HW224651   3.108   4.072  12.901  0.7880  1.8828  0.1514
 4397SOL     OW24652   1.897   3.657   5.539  0.0791  0.0294  0.6745
 4397SOL    HW124653   1.989   3.669   5.562 -0.0289  0.3020  0.9609
 4397SOL    HW224654   1.887   3.564   5.518 -0.1392 -0.0183  0.9907
 4398SOL     OW24655   0.870   2.876   3.489  0.2409 -0.3072 -0.1441
 4398SOL    HW124656   0.921   2.957   3.497 -0.2447 -0.1250  1.1496
 4398SOL    HW224657   0.780   2.906   3.501  1.6137  2.9738  2.0166
 4399SOL     OW24658   2.027   4.299   6.371  0.3389 -0.5089 -0.1224
 4399SOL    HW124659   2.048   4.309   6.278  2.5241  0.2055  0.4516
 4399SOL    HW224660   1.933   4.279   6.362  0.4752 -0.4223 -1.6500
 4400SOL     OW24661   0.336   0.327   2.395  0.4261  0.1870  0.3340
 4400SOL    HW124662   0.280   0.298   2.467 -0.1207  0.4680  0.0147
 4400SOL    HW224663   0.277   0.394   2.361 -0.4584 -0.8153 -0.0873
 4401SOL     OW24664   0.719   2.397   3.470  0.3445 -0.2847  0.5541
 4401SOL    HW124665   0.655   2.464   3.494  0.5287  0.8025 -2.0382
 4401SOL    HW224666   0.737   2.369   3.560  1.8654 -0.3576  0.2355
 4402SOL     OW24667   1.373   0.309   0.413 -0.2507 -0.0672 -0.2045
 4402SOL    HW124668   1.460   0.317   0.450 -0.1862  0.3404 -0.4508
 4402SOL    HW224669   1.325   0.323   0.494 -1.2862 -0.3594 -0.7625
 4403SOL     OW24670   2.056   3.396   8.596 -0.5753 -0.0901 -0.2137
 4403SOL    HW124671   2.014   3.325   8.644  0.5852 -0.0673  0.8269
 4403SOL    HW224672   2.096   3.342   8.528 -0.6373  1.2248 -1.2889
 4404SOL     OW24673   3.374   2.740  13.275  0.1760 -0.2881  0.1017
 4404SOL    HW124674   3.293   2.770  13.234  0.0910  0.9449  1.1519
 4404SOL    HW224675   3.357   2.769  13.365 -0.2161 -0.4971  0.0939
 4405SOL     OW24676   3.743   2.344   7.096  0.0653 -0.5302  0.2275
 4405SOL    HW124677   3.656   2.383   7.110 -0.9323 -1.6620 -2.8035
 4405SOL    HW224678   3.742   2.250   7.116 -0.0393 -0.4884  0.4202
 4406SOL     OW24679   3.671   1.185   6.496 -0.4562  0.2066 -0.0708
 4406SOL    HW124680   3.651   1.183   6.590  3.0590 -0.1706  0.6684
 4406SOL    HW224681   3.584   1.197   6.458  1.3619  0.6055 -4.0380
 4407SOL     OW24682   0.571   3.652   6.734 -0.1320 -0.7978 -0.7467
 4407SOL    HW124683   0.625   3.652   6.655  1.3991 -2.2268  0.3064
 4407SOL    HW224684   0.562   3.745   6.756 -1.5294 -0.5385 -2.4650
 4408SOL     OW24685   1.809   4.441   3.244 -0.1956  0.2124 -0.4233
 4408SOL    HW124686   1.860   4.361   3.259 -2.7154 -1.4612 -0.8022
 4408SOL    HW224687   1.841   4.467   3.157  1.2708 -0.1122  0.0057
 4409SOL     OW24688   2.008   3.794   5.188  0.1894 -0.1267  0.1219
 4409SOL    HW124689   1.995   3.705   5.154  0.9080 -0.3110  0.3262
 4409SOL    HW224690   2.090   3.778   5.236 -0.3023 -2.7059  0.1278
 4410SOL     OW24691   3.014   1.943   8.520  0.0416  0.0248 -0.3453
 4410SOL    HW124692   3.019   1.854   8.483  0.5808  0.2251 -0.7540
 4410SOL    HW224693   2.919   1.952   8.529  0.2379  1.9040 -0.3022
 4411SOL     OW24694   2.279   4.111   5.528  0.5422  0.2960  0.6353
 4411SOL    HW124695   2.235   4.157   5.456  1.5106  1.0604  0.5388
 4411SOL    HW224696   2.205   4.095   5.587  0.4845  0.1309  0.5174
 4412SOL     OW24697   0.600   0.196   7.980 -0.4309  0.2380  0.6780
 4412SOL    HW124698   0.663   0.159   7.918  0.4310  0.7662  1.2362
 4412SOL    HW224699   0.635   0.286   7.982 -0.3089  0.2354 -1.5523
 4413SOL     OW24700   0.965   2.587   2.616 -0.1200 -0.5072 -0.1531
 4413SOL    HW124701   0.990   2.514   2.559  2.0164 -0.4205  0.6998
 4413SOL    HW224702   0.948   2.654   2.549  0.1532  0.8632  1.1550
 4414SOL     OW24703   1.882   1.927   1.664 -0.5269 -0.5940  0.2666
 4414SOL    HW124704   1.931   1.936   1.746  0.1644 -0.4256 -0.1657
 4414SOL    HW224705   1.838   1.844   1.683 -0.3007 -0.6630  0.4893
 4415SOL     OW24706   4.174   3.582  16.030  0.4136 -0.7363 -0.2034
 4415SOL    HW124707   4.193   3.674  16.011  3.2662 -1.2464  0.1186
 4415SOL    HW224708   4.081   3.599  16.044  0.7168  2.5880 -2.1839
 4416SOL     OW24709   3.729   2.286   8.205 -0.3724  0.2815 -0.1464
 4416SOL    HW124710   3.650   2.235   8.189 -0.2246  0.1247 -0.3619
 4416SOL    HW224711   3.699   2.363   8.255 -1.4662  1.3817 -2.5178
 4417SOL     OW24712   3.421   1.067  17.471  0.4858  0.3567 -0.4569
 4417SOL    HW124713   3.491   1.110  17.519  1.2656 -1.1120 -0.2540
 4417SOL    HW224714   3.427   1.103  17.383 -0.0733  0.3724 -0.4893
 4418SOL     OW24715   4.719   4.492   7.972 -0.0056  0.8117 -0.2399
 4418SOL    HW124716   4.629   4.474   7.945  0.4133 -0.1691 -0.9719
 4418SOL    HW224717   0.020   4.565   7.914  0.3742 -0.4135 -1.6381
 4419SOL     OW24718   0.092   3.697   8.242 -0.2907 -0.0681 -0.2348
 4419SOL    HW124719   0.125   3.670   8.156  1.1431 -1.4912  0.7563
 4419SOL    HW224720   0.035   3.625   8.270  0.0607 -0.6885 -1.1332
 4420SOL     OW24721   2.461   3.232   0.723  0.2558  0.1899 -0.5881
 4420SOL    HW124722   2.476   3.138   0.734  2.5008  0.5256 -0.8335
 4420SOL    HW224723   2.551   3.263   0.713 -0.5634  2.5700 -0.5060
 4421SOL     OW24724   0.228   3.695   5.659 -0.0497 -0.2244  1.5190
 4421SOL    HW124725   0.228   3.763   5.727 -0.2202 -0.0109  1.3029
 4421SOL    HW224726   0.317   3.660   5.666 -0.2778 -1.1684 -0.2202
 4422SOL     OW24727   3.231   4.257   3.649 -0.1381 -0.4852 -0.1214
 4422SOL    HW124728   3.174   4.269   3.725  0.7681  2.1780  0.1283
 4422SOL    HW224729   3.183   4.312   3.587  2.2508  0.6397 -0.9505
 4423SOL     OW24730   0.890   1.065   2.075  0.1614  0.1401 -0.1626
 4423SOL    HW124731   0.936   1.051   1.992 -0.1417  1.0040 -0.4834
 4423SOL    HW224732   0.802   1.039   2.048  0.6027 -0.7048 -0.7690
 4424SOL     OW24733   1.625   2.534   5.326  0.3864 -0.4858 -0.1393
 4424SOL    HW124734   1.693   2.595   5.353 -0.3907  0.8542 -1.2171
 4424SOL    HW224735   1.586   2.593   5.262 -1.6144 -2.0105 -0.3208
 4425SOL     OW24736   0.830   2.230   2.307  0.9246 -0.6131 -0.0718
 4425SOL    HW124737   0.777   2.150   2.308 -0.3486  0.2520  0.5443
 4425SOL    HW224738   0.867   2.224   2.219  1.8578 -0.9042  0.3406
 4426SOL     OW24739   4.351   2.941   4.952  0.3455 -0.0993  0.8611
 4426SOL    HW124740   4.418   2.971   4.891 -0.3653 -2.7590 -1.2145
 4426SOL    HW224741   4.275   2.979   4.908  0.0572 -0.4979  1.0174
 4427SOL     OW24742   1.908   2.331  10.249 -0.3556  0.1270  0.1932
 4427SOL    HW124743   1.843   2.262  10.257  2.0905 -2.3444 -1.1336
 4427SOL    HW224744   1.967   2.305  10.320  0.8124  0.2193 -0.7245
 4428SOL     OW24745   3.639   2.893   5.121  0.9945 -0.3264 -0.0076
 4428SOL    HW124746   3.716   2.866   5.170 -0.2220 -1.3990  1.3167
 4428SOL    HW224747   3.644   2.989   5.122  1.5525 -0.3898  3.1776
 4429SOL     OW24748   1.681   1.688   6.376 -0.3822 -0.5120  0.1956
 4429SOL    HW124749   1.667   1.778   6.404  2.1464 -0.0211 -0.1824
 4429SOL    HW224750   1.769   1.699   6.342  0.1560 -1.1729  1.3745
 4430SOL     OW24751   2.374   1.071  16.797  0.4372 -0.2240  0.0372
 4430SOL    HW124752   2.434   1.128  16.845 -1.3777 -0.4088  2.4936
 4430SOL    HW224753   2.293   1.118  16.816  0.6881  1.0607 -2.1072
 4431SOL     OW24754   3.339   1.228   2.622 -0.1393 -0.2248 -0.1406
 4431SOL    HW124755   3.405   1.159   2.612  0.7097  0.7635 -1.3798
 4431SOL    HW224756   3.285   1.208   2.546  1.2722 -2.4530 -0.5697
 4432SOL     OW24757   2.286   0.436   9.148 -0.8776 -0.9784 -0.2034
 4432SOL    HW124758   2.303   0.463   9.058 -0.0112  0.3492  0.3643
 4432SOL    HW224759   2.201   0.473   9.170  0.5723  2.5078 -0.4717
 4433SOL     OW24760   4.287   0.836  17.447  0.6355 -0.2428  0.7245
 4433SOL    HW124761   4.195   0.826  17.421  1.0223  0.2989 -0.8471
 4433SOL    HW224762   4.323   0.778  17.380 -1.3627 -2.6121  1.6438
 4434SOL     OW24763   2.193   2.202   1.081  1.0562 -0.1076 -0.6121
 4434SOL    HW124764   2.197   2.161   0.994  0.0380 -0.3423 -0.5481
 4434SOL    HW224765   2.145   2.132   1.125 -0.6803  0.6538 -1.2951
 4435SOL     OW24766   0.809   3.512   5.695 -0.4392 -0.7223 -0.2091
 4435SOL    HW124767   0.793   3.440   5.756  0.7165  1.2377  2.4290
 4435SOL    HW224768   0.894   3.489   5.658  0.2945 -0.0838  1.0650
 4436SOL     OW24769   3.015   4.165   6.459  0.4340  0.1784 -0.9003
 4436SOL    HW124770   3.030   4.248   6.504  1.8963 -1.5053  1.6982
 4436SOL    HW224771   3.009   4.099   6.528  0.5346 -0.0953 -1.1514
 4437SOL     OW24772   1.059   2.275  13.960  0.4849  0.5017 -0.4025
 4437SOL    HW124773   1.099   2.188  13.963 -2.3117 -0.6848  2.0473
 4437SOL    HW224774   0.966   2.255  13.967  0.8755 -0.5884  1.6126
 4438SOL     OW24775   1.470   1.292   4.028  0.5198 -0.7396  0.3310
 4438SOL    HW124776   1.539   1.263   4.088  0.9176  0.9363  0.7076
 4438SOL    HW224777   1.515   1.304   3.944  2.8806  0.1116  1.7217
 4439SOL     OW24778   0.064   2.814   8.299 -0.1884  0.1329  0.3785
 4439SOL    HW124779   4.706   2.758   8.303 -0.2831  0.2234 -0.1583
 4439SOL    HW224780   0.080   2.809   8.393  1.5704 -0.4607  0.0490
 4440SOL     OW24781   1.549   3.668   4.696  0.2990 -0.0995 -0.4392
 4440SOL    HW124782   1.589   3.592   4.655  0.9038  0.7694 -1.4570
 4440SOL    HW224783   1.547   3.731   4.624  0.0063 -0.5259 -0.8007
 4441SOL     OW24784   0.088   1.962  11.103 -0.4302  0.0466 -0.7445
 4441SOL    HW124785   0.024   1.903  11.143 -0.8966  1.3354  0.4147
 4441SOL    HW224786   0.174   1.945  11.141 -1.2301 -1.5975  0.3628
 4442SOL     OW24787   3.857   4.380   2.721  0.4145 -0.1983  0.2850
 4442SOL    HW124788   3.824   4.468   2.702 -0.0068 -0.4912 -0.3644
 4442SOL    HW224789   3.771   4.337   2.728 -0.2258  0.9471 -0.6961
 4443SOL     OW24790   0.311   4.471   1.123 -0.0044  0.8034 -0.1435
 4443SOL    HW124791   0.230   4.483   1.173  0.1087 -3.5179  1.1345
 4443SOL    HW224792   0.376   4.516   1.176 -0.3976  0.0145  1.0147
 4444SOL     OW24793   0.400   2.141   3.863  0.1790  0.0528  0.1281
 4444SOL    HW124794   0.373   2.166   3.952 -1.7004 -1.3426 -0.0667
 4444SOL    HW224795   0.493   2.152   3.882  0.2069  1.0284 -0.5888
 4445SOL     OW24796   4.710   0.882   2.182  0.6504  0.1706 -0.1746
 4445SOL    HW124797   4.676   0.923   2.102  0.4725 -0.5027 -0.4491
 4445SOL    HW224798   0.085   0.876   2.169  0.8328  0.4097  1.0965
 4446SOL     OW24799   2.211   3.003  13.931  0.1859  0.1943 -1.0244
 4446SOL    HW124800   2.253   2.962  13.855 -0.0736  1.1420 -1.6647
 4446SOL    HW224801   2.136   3.042  13.888  0.1490  0.8383 -0.3752
 4447SOL     OW24802   4.710   3.038   9.198 -0.1313 -0.0757 -0.3325
 4447SOL    HW124803   4.686   3.097   9.269 -0.7318 -2.1264  1.1919
 4447SOL    HW224804   4.623   3.016   9.164 -1.1050  2.5609  0.5108
 4448SOL     OW24805   1.879   1.043   6.137  0.4301  0.0712 -0.3830
 4448SOL    HW124806   1.814   1.090   6.189 -1.1368 -0.8531 -1.5055
 4448SOL    HW224807   1.841   1.055   6.050 -0.0151  1.2239 -0.0189
 4449SOL     OW24808   1.863   3.505   1.854 -0.2634  0.4718 -0.3157
 4449SOL    HW124809   1.779   3.550   1.844 -0.1987  0.8478  0.8682
 4449SOL    HW224810   1.838   3.443   1.922  0.8220  0.4787  0.0844
 4450SOL     OW24811   2.682   4.229   7.754  0.3032 -0.3896  0.0794
 4450SOL    HW124812   2.720   4.311   7.721 -3.3705 -0.1546 -3.4838
 4450SOL    HW224813   2.676   4.181   7.672 -1.5749  1.1723 -0.6852
 4451SOL     OW24814   3.829   3.174   6.129  0.0403 -0.3026  0.5056
 4451SOL    HW124815   3.794   3.105   6.074 -2.5122  2.5758 -1.4261
 4451SOL    HW224816   3.780   3.163   6.211  0.5108  1.9450  1.0861
 4452SOL     OW24817   2.368   0.268   5.124 -0.4102  0.0497  0.4565
 4452SOL    HW124818   2.284   0.226   5.145 -0.8689  0.6347 -0.1962
 4452SOL    HW224819   2.424   0.218   5.183 -1.8162 -0.8237  1.0569
 4453SOL     OW24820   1.369   3.552  14.532 -0.2787  0.0653  0.5054
 4453SOL    HW124821   1.306   3.565  14.603 -0.6356  3.0309 -0.3450
 4453SOL    HW224822   1.389   3.639  14.497  1.1267 -0.2084  0.6246
 4454SOL     OW24823   4.489   4.192   5.062  0.3353 -0.2915  0.2844
 4454SOL    HW124824   4.478   4.127   4.993 -0.6991 -0.3023  0.4462
 4454SOL    HW224825   4.398   4.198   5.092  0.1110 -0.1002 -0.4361
 4455SOL     OW24826   3.479   3.420   5.854  0.2860  0.4521 -0.2438
 4455SOL    HW124827   3.451   3.424   5.762  0.4143  1.4966 -0.2310
 4455SOL    HW224828   3.552   3.357   5.851 -0.5967 -0.6691  2.0566
 4456SOL     OW24829   0.814   0.636   3.120 -0.0010 -0.4947 -0.2159
 4456SOL    HW124830   0.777   0.628   3.032 -0.1348  1.4688 -0.3367
 4456SOL    HW224831   0.762   0.709   3.154 -0.4460 -0.8019 -0.2453
 4457SOL     OW24832   0.112   1.257  17.630  0.0534 -0.5048 -0.2301
 4457SOL    HW124833   0.188   1.244   0.006  0.1655 -3.0349 -1.0046
 4457SOL    HW224834   0.104   1.174  17.583  4.6596  0.7101 -3.1385
 4458SOL     OW24835   4.585   2.286   4.440  0.1615 -0.4731 -0.6540
 4458SOL    HW124836   4.667   2.258   4.480  0.9898  0.4379 -1.7427
 4458SOL    HW224837   4.538   2.203   4.441  0.3763 -0.5889  0.4919
 4459SOL     OW24838   3.057   2.297   6.587 -0.6351 -0.4263  0.2960
 4459SOL    HW124839   3.084   2.236   6.518 -1.9759 -0.2520 -0.3821
 4459SOL    HW224840   2.976   2.333   6.550 -1.1447  0.0291  1.8451
 4460SOL     OW24841   1.352   1.245  12.075  0.0750  0.3291 -0.4016
 4460SOL    HW124842   1.353   1.316  12.012 -2.3197  1.0515  0.3644
 4460SOL    HW224843   1.258   1.224  12.085  0.4085 -1.1802 -0.3509
 4461SOL     OW24844   4.325   1.386   9.304 -0.3628  0.0829 -1.2671
 4461SOL    HW124845   4.312   1.292   9.316 -0.4438  0.8023  4.2291
 4461SOL    HW224846   4.415   1.377   9.272  0.1325  0.1486  0.0958
 4462SOL     OW24847   2.054   0.142   5.514 -0.3889  0.2464  0.3006
 4462SOL    HW124848   2.139   0.182   5.500  0.7732 -1.5539  2.2883
 4462SOL    HW224849   2.040   0.103   5.428 -0.3687  0.3981  0.2289
 4463SOL     OW24850   0.960   3.272   8.877 -0.1495  0.1003  0.3535
 4463SOL    HW124851   0.884   3.301   8.827  1.8506  1.4049 -1.8848
 4463SOL    HW224852   0.908   3.242   8.952  0.4310 -0.3714  0.5677
 4464SOL     OW24853   2.488   0.541   8.185 -0.3736 -0.0734  0.3627
 4464SOL    HW124854   2.436   0.571   8.260 -2.3591  0.7410 -1.3590
 4464SOL    HW224855   2.423   0.487   8.141  1.0663 -0.1335 -1.6734
 4465SOL     OW24856   2.394   3.358   5.211  0.1243  0.0562 -0.1223
 4465SOL    HW124857   2.478   3.319   5.236  0.5676  0.9143 -0.2671
 4465SOL    HW224858   2.336   3.323   5.279 -1.8700 -0.8259 -2.2982
 4466SOL     OW24859   4.577   1.674   0.342  0.2548 -0.2964  0.2159
 4466SOL    HW124860   4.660   1.721   0.329  0.7337 -0.5926  2.1999
 4466SOL    HW224861   4.598   1.631   0.425  0.1589 -1.6412 -0.4574
 4467SOL     OW24862   1.281   4.207   1.072 -0.3081  0.1954  0.1614
 4467SOL    HW124863   1.263   4.284   1.018  0.4630 -0.5690 -1.1985
 4467SOL    HW224864   1.212   4.143   1.053  1.6103 -1.9192  0.2125
 4468SOL     OW24865   4.164   4.069   8.864  0.2125 -0.3588  0.1190
 4468SOL    HW124866   4.166   4.119   8.946 -0.6214  0.4699 -0.3651
 4468SOL    HW224867   4.129   4.136   8.805  1.5294  0.3424  0.1407
 4469SOL     OW24868   1.034   3.183   5.516 -0.4198 -0.3677 -0.0758
 4469SOL    HW124869   1.027   3.268   5.558 -1.0619 -0.7994  0.6877
 4469SOL    HW224870   0.979   3.137   5.580  0.0195 -1.5784 -0.5611
 4470SOL     OW24871   4.523   0.727   2.319 -0.2222  0.0892  0.4801
 4470SOL    HW124872   4.460   0.754   2.252 -0.5004 -0.9508  0.3311
 4470SOL    HW224873   4.603   0.764   2.279 -0.7144 -0.5757 -1.1360
 4471SOL     OW24874   3.380   0.831   6.895  0.1804  0.1078 -0.1378
 4471SOL    HW124875   3.336   0.896   6.950 -0.8063 -0.2251 -0.5288
 4471SOL    HW224876   3.372   0.875   6.810  2.1547  0.0696 -0.3495
 4472SOL     OW24877   1.544   2.339   9.618 -0.1263  0.2530 -0.5261
 4472SOL    HW124878   1.480   2.281   9.660 -1.5498  0.4123 -2.4738
 4472SOL    HW224879   1.598   2.363   9.693 -0.2290  0.7656 -0.6178
 4473SOL     OW24880   1.561   2.330  12.530 -0.0656 -0.4966  0.2726
 4473SOL    HW124881   1.611   2.400  12.489 -1.9199  0.3979 -0.4604
 4473SOL    HW224882   1.631   2.265  12.533  0.9978  0.6968  1.2350
 4474SOL     OW24883   0.682   0.682  15.405  0.4708  0.6626 -0.2748
 4474SOL    HW124884   0.637   0.618  15.350 -0.3142  1.7964 -0.9555
 4474SOL    HW224885   0.695   0.623  15.479  0.6339 -2.4197 -2.7617
 4475SOL     OW24886   2.858   1.374   2.907 -0.4824  0.2439 -0.9002
 4475SOL    HW124887   2.886   1.371   2.816 -1.6550  3.1172 -1.3842
 4475SOL    HW224888   2.938   1.352   2.955 -0.7429 -0.4228 -0.7739
 4476SOL     OW24889   1.687   1.047   2.913  0.4973  0.2890  0.7931
 4476SOL    HW124890   1.737   1.127   2.929 -1.1665  1.0792  2.0904
 4476SOL    HW224891   1.597   1.077   2.924 -0.4922 -1.3116 -2.9142
 4477SOL     OW24892   3.666   0.898   7.093  0.4146  0.0577 -0.5903
 4477SOL    HW124893   3.686   0.835   7.024  0.3617 -0.0575 -0.5007
 4477SOL    HW224894   3.613   0.961   7.045 -2.5806 -1.1751  1.1186
 4478SOL     OW24895   4.074   2.558  13.828 -0.4583 -0.2986  0.0686
 4478SOL    HW124896   4.035   2.471  13.823  0.9708 -0.9044 -0.8304
 4478SOL    HW224897   4.160   2.531  13.795  0.2034  1.8887 -0.0302
 4479SOL     OW24898   0.486   0.428   3.605 -0.5813 -0.0270 -0.3087
 4479SOL    HW124899   0.519   0.518   3.604 -0.9545  0.0689 -3.2492
 4479SOL    HW224900   0.413   0.442   3.545 -2.3581  2.0514  2.3668
 4480SOL     OW24901   3.490   0.832   5.635 -0.2914  0.0593 -0.2296
 4480SOL    HW124902   3.547   0.871   5.701  1.8944  0.5815 -2.4429
 4480SOL    HW224903   3.498   0.889   5.559  1.1126  0.4049  0.1744
 4481SOL     OW24904   1.085   0.384  14.910  0.1790  0.8516 -0.5639
 4481SOL    HW124905   1.072   0.290  14.902 -0.5116  0.8354  0.6943
 4481SOL    HW224906   0.995   0.405  14.885 -0.3977 -0.0023  0.7897
 4482SOL     OW24907   2.719   2.312   4.245 -0.4757  0.0288 -0.3342
 4482SOL    HW124908   2.639   2.276   4.282 -1.5648  0.7423 -1.9979
 4482SOL    HW224909   2.684   2.377   4.184  0.1096  1.4109  0.7939
 4483SOL     OW24910   4.281   4.182   5.389 -0.0452 -0.1934  0.1925
 4483SOL    HW124911   4.228   4.106   5.366 -0.7478 -0.1340  1.6250
 4483SOL    HW224912   4.211   4.248   5.388  0.1393 -0.0179 -0.8368
 4484SOL     OW24913   0.919   4.438   1.823  0.1377 -0.5343 -0.5607
 4484SOL    HW124914   0.954   4.472   1.906 -1.5984 -0.6704  0.2204
 4484SOL    HW224915   0.989   4.469   1.766  2.8622  1.7919  4.0331
 4485SOL     OW24916   1.309   2.791   7.267  0.1366 -0.1580  0.1403
 4485SOL    HW124917   1.376   2.725   7.284  2.4065  2.4891  1.3609
 4485SOL    HW224918   1.352   2.873   7.243 -0.2892 -0.1477 -0.6077
 4486SOL     OW24919   0.938   3.275  10.846 -0.3752  0.5232  0.2457
 4486SOL    HW124920   1.023   3.308  10.815 -0.3124  0.6971  0.6024
 4486SOL    HW224921   0.891   3.278  10.763  0.1142  1.8829  0.0221
 4487SOL     OW24922   4.222   1.229  15.919  0.4054 -0.4159 -0.4420
 4487SOL    HW124923   4.274   1.230  15.999  0.4258 -3.0090 -0.3938
 4487SOL    HW224924   4.150   1.285  15.947 -0.9345 -2.7850  0.8710
 4488SOL     OW24925   3.193   1.872   4.288 -0.3645 -0.1210  0.3423
 4488SOL    HW124926   3.122   1.847   4.228 -0.2816 -0.8248  0.5432
 4488SOL    HW224927   3.210   1.785   4.322  0.8815  0.3773  0.9880
 4489SOL     OW24928   2.908   4.479   8.120  0.6585  0.1802  0.0684
 4489SOL    HW124929   2.813   4.487   8.132  0.6652  0.2850  0.0491
 4489SOL    HW224930   2.928   4.523   8.037  0.1725 -1.6887 -1.0442
 4490SOL     OW24931   1.905   1.461   6.539  0.0223 -0.0064  0.1828
 4490SOL    HW124932   1.867   1.459   6.451 -0.3180 -1.3210  0.3477
 4490SOL    HW224933   1.904   1.366   6.556  2.7578  0.3318  2.1407
 4491SOL     OW24934   2.748   1.671   7.078 -0.3648 -0.6309 -0.1413
 4491SOL    HW124935   2.747   1.739   7.145  0.7576  0.5325 -1.2974
 4491SOL    HW224936   2.662   1.690   7.042  0.2247  3.1410  0.3697
 4492SOL     OW24937   0.915   2.819  14.869 -0.3956  0.0750 -0.0735
 4492SOL    HW124938   0.837   2.833  14.815  0.1934  3.0296 -0.1650
 4492SOL    HW224939   0.893   2.869  14.948  0.4667  0.7674 -0.2660
 4493SOL     OW24940   1.525   3.318   4.744 -0.3786  0.2843 -0.2947
 4493SOL    HW124941   1.539   3.264   4.666 -1.9898  2.2414 -1.9259
 4493SOL    HW224942   1.591   3.386   4.729  1.0377 -0.5700  2.1056
 4494SOL     OW24943   1.011   4.508   3.197 -0.5956  0.4510 -0.0987
 4494SOL    HW124944   1.001   4.417   3.166 -0.5472  0.0419  1.1044
 4494SOL    HW224945   1.105   4.518   3.207 -0.4653 -2.0989  1.3573
 4495SOL     OW24946   3.417   1.321  17.661  0.0748  0.0955  0.3670
 4495SOL    HW124947   3.462   1.403   0.004 -0.9509  0.4276  1.1463
 4495SOL    HW224948   3.491   1.261  17.666  0.4364  0.4855 -0.2340
 4496SOL     OW24949   3.958   1.989  11.975 -0.0733  0.5543  0.3874
 4496SOL    HW124950   4.043   1.965  11.938  0.2598  1.0272  0.8515
 4496SOL    HW224951   3.977   1.952  12.061 -0.1943  0.2289  0.2743
 4497SOL     OW24952   0.948   0.885   2.316  0.3508 -0.1774 -0.1868
 4497SOL    HW124953   1.042   0.890   2.334  0.1103  1.7868  0.5722
 4497SOL    HW224954   0.938   0.953   2.249 -1.8203 -0.5784 -0.2537
 4498SOL     OW24955   1.036   3.278  10.416  0.2914  0.2849 -0.3042
 4498SOL    HW124956   0.983   3.292  10.494  1.5870  0.6063  0.5253
 4498SOL    HW224957   1.058   3.185  10.425 -1.9068 -0.0636  1.2575
 4499SOL     OW24958   0.382   1.418   4.874 -0.3454 -0.0068  0.1166
 4499SOL    HW124959   0.441   1.484   4.837 -1.1912  0.4090 -0.5323
 4499SOL    HW224960   0.423   1.403   4.959 -2.6267 -1.3281  0.9771
 4500SOL     OW24961   4.690   3.000   8.887 -0.0054  0.0235  0.0026
 4500SOL    HW124962   0.044   2.965   8.836 -0.9212 -1.0740 -0.5877
 4500SOL    HW224963   4.639   2.922   8.911  1.6689 -0.7245  1.0870
 4501SOL     OW24964   3.585   0.316   3.123  0.3191  0.1214  0.1893
 4501SOL    HW124965   3.610   0.223   3.125 -2.4250 -0.6589 -0.4476
 4501SOL    HW224966   3.550   0.333   3.036  0.4305  0.4626  0.2146
 4502SOL     OW24967   4.072   0.558   1.693  0.0803  0.1771 -0.1787
 4502SOL    HW124968   4.087   0.641   1.739  1.3529 -1.4113  2.2756
 4502SOL    HW224969   3.979   0.567   1.670 -0.2513 -0.5526  0.8969
 4503SOL     OW24970   2.599   3.108   8.955  0.7244 -0.0215 -0.1816
 4503SOL    HW124971   2.562   3.057   8.883 -1.1930 -0.8735  1.4035
 4503SOL    HW224972   2.637   3.182   8.907  1.2604 -1.5765 -2.1483
 4504SOL     OW24973   2.726   2.612   4.381 -0.0194  0.4727 -0.5888
 4504SOL    HW124974   2.653   2.568   4.423 -2.2300  2.0627 -2.7828
 4504SOL    HW224975   2.792   2.542   4.376 -0.3761  0.1312 -0.4680
 4505SOL     OW24976   2.585   4.244   2.776  0.2972 -0.7861  0.1021
 4505SOL    HW124977   2.515   4.308   2.792  1.4322  0.3915  0.4069
 4505SOL    HW224978   2.569   4.190   2.853 -0.6530 -1.2811 -0.4426
 4506SOL     OW24979   3.169   0.428   7.726 -0.2461 -0.6483  0.0514
 4506SOL    HW124980   3.084   0.463   7.698  1.1680  2.8767  0.2056
 4506SOL    HW224981   3.224   0.433   7.648  0.3484  1.4107  0.6012
 4507SOL     OW24982   1.420   1.700   5.259 -0.3134 -0.0760  0.2584
 4507SOL    HW124983   1.468   1.757   5.199 -1.8299  2.0580  1.0504
 4507SOL    HW224984   1.492   1.660   5.307 -0.4112 -0.1879  0.3113
 4508SOL     OW24985   3.345   1.912   2.272  0.0149 -0.4244  0.4234
 4508SOL    HW124986   3.350   1.849   2.344 -1.0610 -3.2594 -2.0207
 4508SOL    HW224987   3.396   1.985   2.308  1.5767 -1.0038 -0.6238
 4509SOL     OW24988   3.158   2.456   8.486  0.1222  0.5478 -0.5399
 4509SOL    HW124989   3.231   2.432   8.542 -0.4907  0.3034  0.1617
 4509SOL    HW224990   3.094   2.438   8.554  2.4228 -0.5219  1.3150
 4510SOL     OW24991   0.096   1.839   7.922  0.2179 -0.1570  0.5724
 4510SOL    HW124992   0.017   1.823   7.870 -0.6540  0.6338  1.6397
 4510SOL    HW224993   0.160   1.792   7.869  1.1729  0.4485  1.1771
 4511SOL     OW24994   0.366   2.042  15.120  0.1181  0.0532  0.1188
 4511SOL    HW124995   0.379   2.016  15.211  2.5829  1.8374  0.2619
 4511SOL    HW224996   0.293   1.983  15.101 -0.3540  0.2950  1.1424
 4512SOL     OW24997   4.190   4.278   2.814 -0.2096 -0.3104  0.0337
 4512SOL    HW124998   4.124   4.210   2.830  0.4950 -0.5913  1.6914
 4512SOL    HW224999   4.138   4.340   2.763 -2.5520 -0.8731  1.7324
 4513SOL     OW25000   2.747   3.112   0.890  0.2159  0.2723 -0.1370
 4513SOL    HW125001   2.778   3.164   0.815  2.4755 -1.8274 -0.6621
 4513SOL    HW225002   2.663   3.075   0.864 -0.5598  1.9911 -0.1008
 4514SOL     OW25003   2.816   2.062   2.703 -0.3605  0.0293 -0.1037
 4514SOL    HW125004   2.731   2.090   2.670 -0.7987  1.0554  1.9068
 4514SOL    HW225005   2.780   2.010   2.775  1.3737 -0.3039  0.5195
 4515SOL     OW25006   3.759   4.200   4.235  0.1628 -1.4967 -0.3613
 4515SOL    HW125007   3.718   4.269   4.182 -0.6512 -2.2314 -0.6951
 4515SOL    HW225008   3.829   4.255   4.272 -1.4402 -0.5623  1.3150
 4516SOL     OW25009   1.634   0.906  11.149  0.6131  0.0925  0.4230
 4516SOL    HW125010   1.672   0.870  11.230 -2.2167  0.5658  1.9508
 4516SOL    HW225011   1.704   0.905  11.084 -0.1628  0.4077 -0.4159
 4517SOL     OW25012   2.039   3.724   7.116 -0.8017 -0.0931  0.1381
 4517SOL    HW125013   1.989   3.665   7.172 -0.0865  0.9247  1.8356
 4517SOL    HW225014   1.987   3.728   7.036 -1.9069  1.7380  0.9526
 4518SOL     OW25015   2.841   0.917   9.029  0.1688  0.1035 -0.0398
 4518SOL    HW125016   2.795   0.997   9.055  0.7660  0.5056 -0.2363
 4518SOL    HW225017   2.848   0.941   8.936  0.2110 -0.4199 -0.1760
 4519SOL     OW25018   0.617   4.540   8.179 -0.3697 -0.0926 -0.3906
 4519SOL    HW125019   0.598   4.551   8.085 -0.5078 -1.2542 -0.5071
 4519SOL    HW225020   0.704   4.577   8.190 -1.5090  2.0466  1.4201
 4520SOL     OW25021   2.640   2.970   1.829 -0.1471 -0.1541  0.6111
 4520SOL    HW125022   2.728   2.941   1.854  0.9668 -0.0987 -3.1610
 4520SOL    HW225023   2.645   3.056   1.872 -0.4419 -0.4621  1.2454
 4521SOL     OW25024   3.633   2.803   9.779 -0.2876  0.1161  0.5866
 4521SOL    HW125025   3.643   2.829   9.871 -0.1760 -0.3834  0.7152
 4521SOL    HW225026   3.722   2.772   9.765 -0.0123  1.0632  0.3065
 4522SOL     OW25027   0.907   3.665   3.913  0.5505  0.0335 -0.4652
 4522SOL    HW125028   0.942   3.616   3.838 -0.7570  1.4159 -1.9771
 4522SOL    HW225029   0.985   3.703   3.955  1.3752 -1.8015 -0.3370
 4523SOL     OW25030   4.515   2.871   6.431  0.3956 -0.7143  0.4515
 4523SOL    HW125031   4.451   2.806   6.401  1.8644 -0.6834 -2.8165
 4523SOL    HW225032   4.465   2.908   6.503  0.4829  2.2630 -1.0195
 4524SOL     OW25033   1.502   0.222   7.106  0.0515 -0.0262 -0.0106
 4524SOL    HW125034   1.486   0.197   7.015  1.0234  0.8246 -0.4250
 4524SOL    HW225035   1.436   0.289   7.124  0.7342  0.1077  1.9088
 4525SOL     OW25036   2.103   3.623   1.859  0.5165 -0.0552 -0.3465
 4525SOL    HW125037   2.018   3.582   1.875  0.9793  0.3480  3.0022
 4525SOL    HW225038   2.158   3.546   1.850  0.3287  0.0543 -2.5374
 4526SOL     OW25039   2.276   3.963  12.519  0.3966  0.2522 -0.2045
 4526SOL    HW125040   2.249   4.010  12.598  0.9290 -2.5253  1.6026
 4526SOL    HW225041   2.211   4.011  12.467 -0.0528 -0.8708 -0.6860
 4527SOL     OW25042   4.369   3.926  17.435  0.7744  0.2985 -0.0119
 4527SOL    HW125043   4.304   3.996  17.425 -0.3723 -0.7371  0.0958
 4527SOL    HW225044   4.408   3.930  17.348 -0.6847  1.9268 -0.5958
 4528SOL     OW25045   2.794   2.670   2.609  0.2120 -0.1538 -0.7866
 4528SOL    HW125046   2.701   2.692   2.595 -0.0254 -0.5867  0.1101
 4528SOL    HW225047   2.835   2.711   2.533  0.0702  0.2613 -0.6450
 4529SOL     OW25048   1.814   2.835  12.565  0.2135  0.6049 -0.3996
 4529SOL    HW125049   1.829   2.929  12.569  4.0157  0.0831 -1.6551
 4529SOL    HW225050   1.889   2.802  12.615 -0.8675  0.7680  1.2866
 4530SOL     OW25051   3.055   3.466  10.206 -0.5159  0.3328 -0.1232
 4530SOL    HW125052   3.141   3.425  10.210 -2.5127 -3.9869 -0.8981
 4530SOL    HW225053   3.000   3.401  10.250 -0.7737  1.4614  1.2129
 4531SOL     OW25054   2.291   1.572   7.857 -0.1363 -0.7589  0.2612
 4531SOL    HW125055   2.229   1.534   7.795 -0.5624 -0.9814  0.8317
 4531SOL    HW225056   2.371   1.537   7.817 -0.5375  0.7503 -1.8717
 4532SOL     OW25057   1.724   1.430  15.145  0.6337  0.3279 -0.2572
 4532SOL    HW125058   1.783   1.456  15.075  2.3012 -2.6125  0.0380
 4532SOL    HW225059   1.744   1.496  15.212 -0.4258  0.0753  0.3118
 4533SOL     OW25060   2.624   3.206  15.675  0.1140  0.3619 -0.0307
 4533SOL    HW125061   2.664   3.170  15.754  0.2635  0.5344 -0.0278
 4533SOL    HW225062   2.709   3.212  15.632  0.2376  0.9047  0.2894
 4534SOL     OW25063   2.523   2.100   9.183 -0.1516  0.3005  0.4917
 4534SOL    HW125064   2.495   2.009   9.172 -2.3897  1.0560 -0.2784
 4534SOL    HW225065   2.618   2.095   9.182 -0.3295 -3.0435  0.2268
 4535SOL     OW25066   0.462   3.335   3.218  0.4139 -0.0783 -0.4490
 4535SOL    HW125067   0.454   3.429   3.232 -0.2276 -0.2418  0.2658
 4535SOL    HW225068   0.371   3.313   3.237  0.8754 -1.0307  0.6546
 4536SOL     OW25069   1.391   2.454   8.234 -0.8018 -0.7446  0.2407
 4536SOL    HW125070   1.374   2.545   8.260  0.7277 -0.4791  0.3331
 4536SOL    HW225071   1.484   2.463   8.257  0.0154  0.7225 -3.6159
 4537SOL     OW25072   3.591   4.278  17.055  0.6160 -0.0382 -0.2598
 4537SOL    HW125073   3.503   4.250  17.029  0.4116  0.0006  0.3838
 4537SOL    HW225074   3.562   4.289  17.145 -0.5502 -0.5808 -0.5688
 4538SOL     OW25075   0.152   3.244   3.742  1.0418  0.0076 -0.1147
 4538SOL    HW125076   0.064   3.239   3.704  1.6769 -1.7727 -1.3645
 4538SOL    HW225077   0.192   3.321   3.701  0.2390  2.5406  3.8647
 4539SOL     OW25078   3.585   1.423   6.896 -0.1431  0.1234 -0.3896
 4539SOL    HW125079   3.633   1.454   6.973 -1.5923 -0.0884  0.6013
 4539SOL    HW225080   3.496   1.453   6.915 -0.8498 -1.5793 -1.0456
 4540SOL     OW25081   1.941   1.916   4.506  0.2002  0.5554  0.1379
 4540SOL    HW125082   1.949   1.937   4.600  0.1860 -2.2988  0.7665
 4540SOL    HW225083   1.848   1.901   4.489  0.2309 -0.7052  1.0183
 4541SOL     OW25084   0.253   3.980   0.334 -0.6235  0.3864 -0.3218
 4541SOL    HW125085   0.234   4.042   0.404  0.4311  0.5215 -0.1604
 4541SOL    HW225086   0.252   4.034   0.255 -0.1892 -0.4446 -0.8941
 4542SOL     OW25087   3.360   0.331   5.076  0.0518  0.2974 -0.3649
 4542SOL    HW125088   3.423   0.372   5.135  0.1407 -1.3672  0.6935
 4542SOL    HW225089   3.288   0.314   5.137 -0.1019  1.9142 -0.0815
 4543SOL     OW25090   2.363   2.514   3.010  0.0378  0.1850 -0.1010
 4543SOL    HW125091   2.357   2.419   3.025  0.1240 -0.0424 -1.5250
 4543SOL    HW225092   2.458   2.526   3.013  0.1164 -0.4582  0.1883
 4544SOL     OW25093   1.022   1.348   9.035 -1.0096  0.1779 -0.3359
 4544SOL    HW125094   1.073   1.268   9.048 -2.1541 -0.4154  0.5272
 4544SOL    HW225095   0.957   1.322   8.968 -1.4174 -0.1605  0.1908
 4545SOL     OW25096   3.016   3.533   8.214  0.2694  0.1007  0.5106
 4545SOL    HW125097   2.974   3.599   8.269  0.5358  1.7190 -1.2055
 4545SOL    HW225098   3.089   3.584   8.178 -1.1214  2.2314  0.6975
 4546SOL     OW25099   0.307   2.494   1.788 -0.1917  0.3047  0.1418
 4546SOL    HW125100   0.291   2.452   1.703 -0.8255  0.0741  0.3765
 4546SOL    HW225101   0.295   2.417   1.845 -2.3208  0.4713 -0.1094
 4547SOL     OW25102   2.511   4.574   9.475  0.7889  0.0315  0.9740
 4547SOL    HW125103   2.436   4.600   9.421  0.1645 -1.2406  1.2378
 4547SOL    HW225104   2.580   4.555   9.412 -0.2297 -0.6168  0.0606
 4548SOL     OW25105   0.339   1.432   4.408 -0.2567 -0.5552 -0.3439
 4548SOL    HW125106   0.395   1.486   4.352 -0.4863  0.5876  0.5417
 4548SOL    HW225107   0.398   1.393   4.472  3.7802  0.6675 -3.3213
 4549SOL     OW25108   3.519   3.576  10.233  0.6005 -0.0993  0.0170
 4549SOL    HW125109   3.595   3.631  10.213  0.6511  0.8251  2.6754
 4549SOL    HW225110   3.513   3.580  10.329  1.4147 -0.0555  0.0640
 4550SOL     OW25111   1.176   2.339   6.511  0.2282 -0.2509 -0.4692
 4550SOL    HW125112   1.259   2.292   6.505 -0.0210 -0.7233 -0.2110
 4550SOL    HW225113   1.138   2.311   6.428  0.4014  0.9610 -0.9521
 4551SOL     OW25114   3.170   3.830   4.471  0.2263 -0.4472  0.3164
 4551SOL    HW125115   3.150   3.833   4.564  0.4470 -2.2344  0.4322
 4551SOL    HW225116   3.158   3.736   4.457 -0.7855 -0.1700 -0.7271
 4552SOL     OW25117   3.101   4.262   3.893  0.5171  0.7252 -0.2015
 4552SOL    HW125118   3.054   4.221   3.966 -0.1885  0.9637 -0.5230
 4552SOL    HW225119   3.172   4.307   3.937 -0.8627  0.8208  1.9262
 4553SOL     OW25120   1.040   4.356   8.078 -0.6862 -0.5436  0.2006
 4553SOL    HW125121   1.091   4.428   8.042  0.2577 -1.9208 -1.2096
 4553SOL    HW225122   1.034   4.379   8.171 -0.6752 -0.6009  0.2158
 4554SOL     OW25123   4.161   0.723   6.777  0.1845  0.3370 -0.1620
 4554SOL    HW125124   4.161   0.720   6.872  0.7006 -0.3416 -0.1853
 4554SOL    HW225125   4.096   0.791   6.758 -0.1429 -0.0208 -0.3210
 4555SOL     OW25126   3.029   2.179   8.359  0.4578  0.5393 -0.1128
 4555SOL    HW125127   3.120   2.198   8.383  0.4116  1.1333 -0.4138
 4555SOL    HW225128   3.016   2.103   8.415  1.7778  1.3611  1.3102
 4556SOL     OW25129   3.743   1.390   7.611 -0.4526 -0.1125 -0.1990
 4556SOL    HW125130   3.684   1.425   7.678 -1.1157  0.1932 -0.9284
 4556SOL    HW225131   3.818   1.450   7.611  0.8189 -1.7474  2.9078
 4557SOL     OW25132   1.334   1.142   2.090  0.2695  0.0618 -0.2828
 4557SOL    HW125133   1.275   1.196   2.141 -2.2537 -0.2796 -2.8287
 4557SOL    HW225134   1.402   1.105   2.147 -0.1436  0.2480  0.3266
 4558SOL     OW25135   2.000   3.327   8.195  0.3813 -0.2426  0.2352
 4558SOL    HW125136   1.960   3.299   8.112  0.6270 -1.4013  0.5219
 4558SOL    HW225137   1.937   3.289   8.256 -0.2194  0.6580  0.1839
 4559SOL     OW25138   1.112   2.213   4.567 -0.2690  0.0883 -0.5672
 4559SOL    HW125139   1.112   2.149   4.496  0.3022  0.0093 -0.4997
 4559SOL    HW225140   1.038   2.179   4.619  0.4236  1.7186  1.4983
 4560SOL     OW25141   0.266   1.102   2.989  0.0581 -0.3063 -0.2012
 4560SOL    HW125142   0.217   1.178   2.957  0.7269  0.0675 -0.3489
 4560SOL    HW225143   0.230   1.041   2.924  0.8121 -0.5633 -0.3769
 4561SOL     OW25144   4.516   2.430   0.436  0.6197 -0.6851  0.1483
 4561SOL    HW125145   4.436   2.405   0.482 -0.4435  2.3719 -0.0956
 4561SOL    HW225146   4.580   2.396   0.500 -0.2391  0.1200  1.4423
 4562SOL     OW25147   4.352   2.499  10.128 -0.4243  0.3016 -0.1133
 4562SOL    HW125148   4.349   2.450  10.210 -1.5147  1.6634  0.6663
 4562SOL    HW225149   4.351   2.589  10.159  0.7169  0.3724 -0.2987
 4563SOL     OW25150   3.520   3.453   7.001  0.0057  0.2738 -0.1160
 4563SOL    HW125151   3.444   3.476   6.947  0.0696 -1.5856 -0.9977
 4563SOL    HW225152   3.590   3.458   6.936 -0.0310  3.3346  0.0574
 4564SOL     OW25153   0.259   3.893   7.358 -0.4874 -0.3664 -0.4981
 4564SOL    HW125154   0.340   3.848   7.333  0.4319  0.2185  1.4502
 4564SOL    HW225155   0.198   3.821   7.346  1.3976 -1.7280 -2.0153
 4565SOL     OW25156   1.784   0.824  13.079  0.4105 -0.1977  0.3777
 4565SOL    HW125157   1.719   0.801  13.145  0.5638  1.2098  1.0444
 4565SOL    HW225158   1.749   0.905  13.041 -0.3596  0.0273  1.5572
 4566SOL     OW25159   4.411   2.913   2.483  0.2966  0.7838  0.5717
 4566SOL    HW125160   4.419   2.820   2.464  1.8333  0.8427  0.8904
 4566SOL    HW225161   4.428   2.905   2.577  4.0904 -2.2494 -0.3602
 4567SOL     OW25162   3.753   1.393   4.759  0.3908  0.0810  0.1269
 4567SOL    HW125163   3.779   1.318   4.705  0.7767 -0.1510  0.6225
 4567SOL    HW225164   3.832   1.425   4.802 -0.5899 -2.0184  3.4920
 4568SOL     OW25165   2.240   1.900  12.855 -0.1268 -0.5321 -0.6594
 4568SOL    HW125166   2.208   1.958  12.786 -0.8239  1.0812  1.0082
 4568SOL    HW225167   2.323   1.878  12.813  0.3629 -2.3265  1.2272
 4569SOL     OW25168   4.266   2.425   2.081 -0.3555 -0.2986 -0.7980
 4569SOL    HW125169   4.174   2.403   2.074 -0.1915 -0.6714 -1.8482
 4569SOL    HW225170   4.307   2.367   2.016  1.7480 -0.0139  0.2539
 4570SOL     OW25171   4.396   0.206  17.082  0.3198  0.3386 -0.7833
 4570SOL    HW125172   4.485   0.179  17.107  0.4155  0.3090 -1.1567
 4570SOL    HW225173   4.363   0.129  17.037  2.1149 -0.6426 -0.4315
 4571SOL     OW25174   1.582   0.597  15.694 -0.1207 -0.1560 -0.2480
 4571SOL    HW125175   1.624   0.666  15.643  0.0583  0.9355  1.3793
 4571SOL    HW225176   1.576   0.635  15.782  0.0668  1.6560 -1.0267
 4572SOL     OW25177   0.699   3.053   8.587  0.7095 -0.0027  0.1902
 4572SOL    HW125178   0.640   3.126   8.603  0.0261 -0.0624 -2.0638
 4572SOL    HW225179   0.771   3.058   8.650 -0.9583  2.1772  1.9323
 4573SOL     OW25180   3.677   2.924   3.286 -0.1379 -0.4288 -0.5633
 4573SOL    HW125181   3.584   2.945   3.294 -0.2434 -1.6099  1.1990
 4573SOL    HW225182   3.679   2.833   3.255 -2.3557 -0.4151 -0.7540
 4574SOL     OW25183   0.310   0.808   3.305 -0.0773 -0.2982 -0.1664
 4574SOL    HW125184   0.360   0.811   3.223 -0.6955 -1.8344 -0.6040
 4574SOL    HW225185   0.334   0.722   3.339 -0.7508  0.0501  1.1795
 4575SOL     OW25186   3.359   1.701  14.386  0.2495  0.1862 -0.1436
 4575SOL    HW125187   3.305   1.631  14.349 -0.3146  0.2802  0.4889
 4575SOL    HW225188   3.407   1.667  14.462  1.8954  0.4219 -1.0841
 4576SOL     OW25189   3.305   3.463  10.060 -0.1824  0.1377  0.7854
 4576SOL    HW125190   3.369   3.479   9.991 -1.6239 -1.6902 -0.9783
 4576SOL    HW225191   3.230   3.426  10.013  0.0754 -1.5939  1.7417
 4577SOL     OW25192   3.267   0.548   8.291  0.4159  0.4465  0.3327
 4577SOL    HW125193   3.353   0.516   8.262  0.6462  0.6277  0.7967
 4577SOL    HW225194   3.252   0.481   8.358  0.4080  0.2613  0.1472
 4578SOL     OW25195   1.795   2.228   5.099  0.1468  0.4238  0.3595
 4578SOL    HW125196   1.758   2.302   5.051 -2.4321  0.6275  2.6284
 4578SOL    HW225197   1.732   2.235   5.172  0.2693  3.1126  0.2222
 4579SOL     OW25198   2.699   1.139   6.676 -0.0266  0.6667 -0.2944
 4579SOL    HW125199   2.660   1.077   6.737 -0.3748  0.8917 -0.2893
 4579SOL    HW225200   2.624   1.188   6.644 -0.9268 -0.0585  0.7360
 4580SOL     OW25201   3.686   1.466   1.295 -0.2023 -0.2937 -0.2364
 4580SOL    HW125202   3.607   1.507   1.259  1.3616  0.3031 -3.0139
 4580SOL    HW225203   3.671   1.499   1.384  0.0475  2.2637 -1.1436
 4581SOL     OW25204   2.898   3.580   4.346  0.6002  0.0549  0.2592
 4581SOL    HW125205   2.900   3.658   4.291 -2.5339 -1.0988 -1.4701
 4581SOL    HW225206   2.896   3.520   4.271 -2.2981  2.2416 -1.4166
 4582SOL     OW25207   0.602   3.604   6.443 -0.4748  0.4073  0.7885
 4582SOL    HW125208   0.693   3.597   6.473  0.6382 -4.1384 -3.5979
 4582SOL    HW225209   0.581   3.697   6.437 -0.8297  0.4219  2.4666
 4583SOL     OW25210   1.420   0.685   8.338 -0.3942 -0.4153 -0.6770
 4583SOL    HW125211   1.373   0.762   8.370 -0.9187 -1.2372  0.5167
 4583SOL    HW225212   1.510   0.710   8.358  0.0463  0.3284 -3.4701
 4584SOL     OW25213   4.184   0.420  15.715 -0.0418  0.1205  1.2086
 4584SOL    HW125214   4.100   0.406  15.758 -1.4220 -0.7176 -1.7940
 4584SOL    HW225215   4.195   0.515  15.707  0.3922 -0.0101  0.1926
 4585SOL     OW25216   4.211   4.357  12.881  0.2696  0.3075 -0.2641
 4585SOL    HW125217   4.159   4.431  12.911  0.4765  1.7349 -3.4338
 4585SOL    HW225218   4.299   4.386  12.904  0.1926 -1.4375  2.2500
 4586SOL     OW25219   1.507   2.765   1.956  0.2046 -0.5257 -0.0913
 4586SOL    HW125220   1.517   2.743   1.864  1.3359  1.3849 -0.4100
 4586SOL    HW225221   1.598   2.776   1.981 -0.8081  2.0611  2.4295
 4587SOL     OW25222   1.596   2.816   6.310 -0.2265  0.1412 -0.1272
 4587SOL    HW125223   1.530   2.844   6.247  0.6196 -0.1938 -1.1556
 4587SOL    HW225224   1.665   2.785   6.251 -1.1503 -1.2798 -0.4666
 4588SOL     OW25225   2.188   3.420   4.783  0.3701 -0.6262 -0.2045
 4588SOL    HW125226   2.232   3.434   4.867 -0.4319  2.7892 -0.3242
 4588SOL    HW225227   2.239   3.479   4.727 -0.0119  0.4463  0.5854
 4589SOL     OW25228   4.210   1.852   8.991  0.4011  0.1540 -0.4960
 4589SOL    HW125229   4.267   1.802   8.933 -0.7832  0.4521 -1.9308
 4589SOL    HW225230   4.235   1.814   9.075 -2.2866  2.5924  1.4213
 4590SOL     OW25231   0.599   1.589   2.325  0.3026 -0.2824 -0.0507
 4590SOL    HW125232   0.673   1.638   2.362  1.4259 -2.1911  0.2204
 4590SOL    HW225233   0.638   1.503   2.341 -1.3578 -1.0201  0.0292
 4591SOL     OW25234   3.541   2.080   2.431 -0.2601  0.3142 -0.1502
 4591SOL    HW125235   3.582   2.164   2.412  0.9496 -0.0259  0.9541
 4591SOL    HW225236   3.612   2.027   2.467 -0.5611  0.5677  0.8318
 4592SOL     OW25237   4.328   2.668  16.230 -0.3450 -0.1819  0.2936
 4592SOL    HW125238   4.378   2.724  16.289  0.7132 -0.5009 -0.3051
 4592SOL    HW225239   4.381   2.588  16.238 -0.4004 -0.2797 -0.3500
 4593SOL     OW25240   1.621   0.712  16.741 -0.0970  0.6565  0.1651
 4593SOL    HW125241   1.562   0.784  16.762 -0.1775  0.3126  1.1005
 4593SOL    HW225242   1.700   0.739  16.788 -0.0357  0.8551 -0.0538
 4594SOL     OW25243   1.373   1.326   9.134  0.3024  0.2198 -0.5915
 4594SOL    HW125244   1.458   1.345   9.095  0.3067 -0.5485 -0.9665
 4594SOL    HW225245   1.328   1.407   9.111  0.0644  0.8452  1.9965
 4595SOL     OW25246   1.111   2.558  14.660  0.2277 -0.4341  0.1605
 4595SOL    HW125247   1.159   2.489  14.613  0.1541  0.3255 -1.0191
 4595SOL    HW225248   1.021   2.530  14.640  0.0811  0.1162  0.0612
 4596SOL     OW25249   3.275   3.412   8.385  0.1750 -0.2381  0.1107
 4596SOL    HW125250   3.225   3.435   8.307  0.5090  0.8816  0.2191
 4596SOL    HW225251   3.347   3.475   8.387  1.1689 -1.3690  0.4021
 4597SOL     OW25252   0.240   4.527   8.073  0.6160 -0.3029  0.2370
 4597SOL    HW125253   0.163   4.498   8.024 -1.3262  0.7783  2.6990
 4597SOL    HW225254   0.208   4.617   8.078 -0.9919 -0.8644  0.0560
 4598SOL     OW25255   2.513   1.912   6.811  0.7077 -0.3030  0.9982
 4598SOL    HW125256   2.501   1.923   6.905 -0.2810 -2.0799  1.0764
 4598SOL    HW225257   2.441   1.851   6.796  0.8144  0.0245 -0.9788
 4599SOL     OW25258   2.655   0.956  13.734  0.8319  0.4676  0.2435
 4599SOL    HW125259   2.663   1.051  13.725 -1.7392  0.7128  0.5274
 4599SOL    HW225260   2.564   0.937  13.712  0.8453  2.9478 -1.9952
 4600SOL     OW25261   4.175   3.180   8.387 -0.2851  0.0979  0.7408
 4600SOL    HW125262   4.168   3.160   8.293  1.9281 -0.7632  0.7532
 4600SOL    HW225263   4.269   3.164   8.392 -0.0844  0.6933 -0.8715
 4601SOL     OW25264   4.178   1.707   5.396 -0.3294  0.4010  0.1220
 4601SOL    HW125265   4.086   1.732   5.391 -0.4055  0.3119  1.0934
 4601SOL    HW225266   4.170   1.635   5.458  0.4893  0.2018 -0.0074
 4602SOL     OW25267   0.910   3.764   8.878 -0.0291  0.2168 -0.2414
 4602SOL    HW125268   0.916   3.840   8.819  1.3934 -0.3545 -0.8445
 4602SOL    HW225269   0.820   3.767   8.910 -1.6045 -1.0904 -4.4758
 4603SOL     OW25270   2.041   3.247  13.484 -0.6611 -0.0092 -0.2847
 4603SOL    HW125271   1.950   3.218  13.493 -1.0750  1.2923 -0.2238
 4603SOL    HW225272   2.060   3.256  13.577 -2.3005 -0.3222  0.0919
 4604SOL     OW25273   1.754   1.361  10.360 -0.0057 -0.3637 -0.3337
 4604SOL    HW125274   1.793   1.293  10.416 -1.5580 -1.3428 -0.4386
 4604SOL    HW225275   1.679   1.312  10.326  0.7234 -0.8102 -1.3051
 4605SOL     OW25276   1.386   1.469   4.206  0.4724 -0.3166 -0.1631
 4605SOL    HW125277   1.419   1.427   4.126  1.0296 -1.8772  0.9045
 4605SOL    HW225278   1.470   1.491   4.246  0.4796  2.0841 -1.5248
 4606SOL     OW25279   1.882   3.149   6.157 -1.2552 -0.0645  0.3126
 4606SOL    HW125280   1.919   3.100   6.084  0.5021  1.0700  0.4197
 4606SOL    HW225281   1.794   3.113   6.151 -0.8723 -0.8338 -0.5447
 4607SOL     OW25282   0.775   1.478   3.048 -0.3054  0.1159 -0.6707
 4607SOL    HW125283   0.860   1.458   3.009 -1.0512 -0.0585 -2.1833
 4607SOL    HW225284   0.797   1.467   3.141  2.7907  1.0353 -1.2925
 4608SOL     OW25285   0.740   0.900   5.033  0.0730  0.1989  0.6011
 4608SOL    HW125286   0.677   0.968   5.057  0.3131 -0.0229  1.8381
 4608SOL    HW225287   0.694   0.832   5.081 -0.4804 -0.8424 -1.3978
 4609SOL     OW25288   1.872   2.656   4.747 -0.5202 -0.0330  0.2883
 4609SOL    HW125289   1.967   2.668   4.741 -0.6546  0.4117 -1.0210
 4609SOL    HW225290   1.839   2.725   4.690  0.2663  0.5515  0.5455
 4610SOL     OW25291   0.129   3.927   9.062 -0.5087  0.2344  0.1622
 4610SOL    HW125292   0.149   3.837   9.039  0.8427  0.3337  0.9770
 4610SOL    HW225293   0.067   3.949   8.992  0.4236  0.2493 -0.6614
 4611SOL     OW25294   1.932   2.690   7.464 -0.0326  0.2146 -0.4926
 4611SOL    HW125295   1.945   2.731   7.550 -0.8458  2.6323 -1.5077
 4611SOL    HW225296   1.858   2.630   7.466  1.9231 -2.2080 -0.0879
 4612SOL     OW25297   3.536   3.877   2.165 -0.1213 -0.4085  0.1010
 4612SOL    HW125298   3.530   3.967   2.133 -1.1982  0.0464  1.6115
 4612SOL    HW225299   3.632   3.876   2.160 -0.1656  1.3735 -1.0103
 4613SOL     OW25300   4.139   3.825   6.520  0.7724 -0.4007 -0.3703
 4613SOL    HW125301   4.183   3.886   6.580  0.8438  0.0900 -0.9190
 4613SOL    HW225302   4.061   3.790   6.563  0.1169  0.1519 -1.1171
 4614SOL     OW25303   4.668   0.582   2.041 -0.0962  0.5063 -0.4871
 4614SOL    HW125304   4.654   0.498   2.085  0.0657  1.1470  0.7831
 4614SOL    HW225305   4.592   0.578   1.983 -0.3555  2.5208 -0.2729
 4615SOL     OW25306   0.154   3.455   6.329  0.1426  0.4522 -0.2433
 4615SOL    HW125307   0.174   3.365   6.303  2.3118  2.2240 -4.8093
 4615SOL    HW225308   0.231   3.499   6.293  0.6827 -0.1138  0.2230
 4616SOL     OW25309   2.458   4.073   5.967 -0.0448  0.0033 -0.3274
 4616SOL    HW125310   2.481   4.062   5.875  0.6528  1.7910 -0.3591
 4616SOL    HW225311   2.532   4.028   6.009  1.2184  1.5641 -0.8677
 4617SOL     OW25312   1.229   4.299   5.535  0.2566  0.4655  0.1144
 4617SOL    HW125313   1.220   4.260   5.448  1.5083 -3.5079  1.7888
 4617SOL    HW225314   1.154   4.254   5.574 -1.6055  1.4789 -2.2946
 4618SOL     OW25315   0.430   3.024   6.393  0.0398  0.0555  0.0891
 4618SOL    HW125316   0.459   3.115   6.391  0.5942 -0.1266  0.0121
 4618SOL    HW225317   0.502   2.977   6.350 -0.9845  1.0851 -2.7378
 4619SOL     OW25318   4.523   4.285  15.169 -0.2337 -0.1432 -0.0888
 4619SOL    HW125319   4.464   4.331  15.229  1.8472 -1.4683  3.0042
 4619SOL    HW225320   4.561   4.355  15.116 -2.3080  0.7920 -0.3223
 4620SOL     OW25321   2.340   0.365   3.747 -0.1340  0.2210  0.5125
 4620SOL    HW125322   2.387   0.424   3.687 -0.0433  1.2879  1.6263
 4620SOL    HW225323   2.409   0.365   3.813 -1.6803 -0.7190  2.1145
 4621SOL     OW25324   2.377   3.590   9.429  0.2344 -0.5064  0.1332
 4621SOL    HW125325   2.466   3.585   9.465 -0.7778 -0.3377  2.6230
 4621SOL    HW225326   2.364   3.685   9.432 -0.6220 -0.6847  2.3912
 4622SOL     OW25327   4.525   4.408   2.703 -0.4804 -0.2033 -0.6876
 4622SOL    HW125328   4.520   4.416   2.608  1.6434 -0.0468 -0.7893
 4622SOL    HW225329   4.616   4.431   2.722 -0.8985  0.3791  0.6283
 4623SOL     OW25330   1.849   4.176   6.004  0.3782 -0.3491 -0.2908
 4623SOL    HW125331   1.803   4.142   6.081 -0.2943  1.2604  0.0317
 4623SOL    HW225332   1.779   4.187   5.938  0.6666  0.7042 -0.4238
 4624SOL     OW25333   2.410   3.311  13.093 -0.7791  0.0504 -0.2974
 4624SOL    HW125334   2.351   3.247  13.133 -0.3264 -2.7108 -4.0810
 4624SOL    HW225335   2.429   3.265  13.012  0.2771  0.8796 -0.5297
 4625SOL     OW25336   3.813   3.392  10.617 -0.4448  0.7260 -0.2130
 4625SOL    HW125337   3.768   3.476  10.612 -0.8052  0.4932 -0.8129
 4625SOL    HW225338   3.845   3.384  10.527  0.1199  1.3809 -0.0692
 4626SOL     OW25339   2.134   1.848   8.373  0.1766 -0.0315 -0.1922
 4626SOL    HW125340   2.069   1.779   8.361  0.4053 -0.8687  3.2439
 4626SOL    HW225341   2.153   1.842   8.467 -2.4655 -2.3536  0.1836
 4627SOL     OW25342   2.164   3.188  13.252  0.2052  0.0950 -0.2284
 4627SOL    HW125343   2.120   3.270  13.230  0.6192  0.6055  0.8199
 4627SOL    HW225344   2.153   3.199  13.347 -0.7664 -4.8103  0.1877
 4628SOL     OW25345   0.176   0.742   6.326  0.4437 -0.1084  0.4598
 4628SOL    HW125346   0.132   0.716   6.244  0.9133  1.7613 -0.3946
 4628SOL    HW225347   0.261   0.763   6.288 -0.8395  2.3426 -1.0874
 4629SOL     OW25348   2.675   3.756   2.855  0.0836 -0.7270 -0.4889
 4629SOL    HW125349   2.678   3.846   2.889 -1.3268 -0.2797 -1.5380
 4629SOL    HW225350   2.607   3.763   2.788 -1.2724 -1.7876  0.7779
 4630SOL     OW25351   1.998   1.808   3.191 -0.2028  0.1808  0.2363
 4630SOL    HW125352   2.083   1.823   3.231  1.4540 -0.6500 -3.0330
 4630SOL    HW225353   2.022   1.833   3.102  0.5988  4.2166  1.5579
 4631SOL     OW25354   0.620   0.552   9.272  0.4090 -0.5124 -0.9234
 4631SOL    HW125355   0.633   0.588   9.184  0.4878 -1.6591 -1.3892
 4631SOL    HW225356   0.713   0.552   9.293  0.3226  1.1220 -0.5958
 4632SOL     OW25357   0.053   1.449   6.367 -0.6412  0.0752  0.5139
 4632SOL    HW125358   0.072   1.392   6.293  2.3348  0.6681  0.8028
 4632SOL    HW225359   4.678   1.449   6.354 -0.9002  0.8661  2.3089
 4633SOL     OW25360   1.202   2.524   7.503  0.9932 -0.3718 -0.1941
 4633SOL    HW125361   1.155   2.603   7.531 -0.3514 -0.8984 -0.9875
 4633SOL    HW225362   1.285   2.540   7.549  0.0830  1.3594  0.8693
 4634SOL     OW25363   0.380   0.672   8.006  0.2974  0.2867 -0.0537
 4634SOL    HW125364   0.335   0.751   8.036 -0.5325  0.5097 -1.8718
 4634SOL    HW225365   0.351   0.666   7.915  1.2657 -2.5159 -0.1659
 4635SOL     OW25366   0.322   3.162   8.061 -0.1703  0.3990  0.0536
 4635SOL    HW125367   0.313   3.111   8.142  0.2661 -1.5340 -1.1240
 4635SOL    HW225368   0.396   3.218   8.083  0.9188 -1.4948  1.2549
 4636SOL     OW25369   0.242   0.155   1.325 -0.4352  0.2625 -0.2733
 4636SOL    HW125370   0.249   0.105   1.406 -0.8097  2.0937  0.8650
 4636SOL    HW225371   0.200   0.231   1.364 -1.8052 -0.2164 -0.7811
 4637SOL     OW25372   1.613   1.208   0.109  0.7232 -0.3811  0.2355
 4637SOL    HW125373   1.694   1.197   0.159 -0.3367  2.2688  2.4987
 4637SOL    HW225374   1.598   1.301   0.122 -2.1069 -0.7328 -0.6777
 4638SOL     OW25375   1.455   1.981   7.216  0.1669 -0.6386  0.0908
 4638SOL    HW125376   1.484   1.960   7.127  0.9531 -0.8929  0.4029
 4638SOL    HW225377   1.408   1.900   7.237  0.2658 -0.9421 -0.8648
 4639SOL     OW25378   2.764   2.038  10.315  0.0307 -0.7557 -0.3962
 4639SOL    HW125379   2.777   1.951  10.352 -0.3221 -1.2443 -1.4192
 4639SOL    HW225380   2.763   2.012  10.223  1.1598 -0.8307 -0.3915
 4640SOL     OW25381   2.925   1.658  15.389  0.0700  0.1319 -0.0940
 4640SOL    HW125382   2.924   1.753  15.402  1.4142 -0.1219  1.7852
 4640SOL    HW225383   2.946   1.654  15.296  2.3116  3.3682  0.2443
 4641SOL     OW25384   1.796   0.978   5.088 -0.0857 -0.0301 -0.5076
 4641SOL    HW125385   1.752   0.978   5.173 -0.6916 -1.3105 -0.8191
 4641SOL    HW225386   1.809   0.883   5.081  3.7392  0.4395  0.1749
 4642SOL     OW25387   0.139   0.200   5.124 -0.0612  0.6442  0.0251
 4642SOL    HW125388   0.061   0.254   5.141  1.8519  2.5215  2.7350
 4642SOL    HW225389   0.112   0.109   5.130  3.5556 -0.3500  1.1585
 4643SOL     OW25390   3.562   0.877  14.879 -0.0433 -0.2741  0.1325
 4643SOL    HW125391   3.621   0.811  14.843 -0.1502  0.7051 -1.8218
 4643SOL    HW225392   3.559   0.936  14.804 -0.1554  1.0893  1.2201
 4644SOL     OW25393   0.891   2.602   7.421 -0.8975  0.6499  0.5184
 4644SOL    HW125394   0.908   2.516   7.382 -0.4002  1.5516 -1.2231
 4644SOL    HW225395   0.956   2.650   7.370 -0.1849 -0.5729  0.2740
 4645SOL     OW25396   4.442   1.540  10.295  0.2004  0.2830  0.3795
 4645SOL    HW125397   4.515   1.567  10.239  1.5043 -2.8425  0.5744
 4645SOL    HW225398   4.426   1.622  10.342  0.7232  1.1381 -0.9539
 4646SOL     OW25399   1.204   0.472   7.899 -0.2858 -0.7024  0.5052
 4646SOL    HW125400   1.121   0.457   7.943 -0.4645 -3.8442 -0.8634
 4646SOL    HW225401   1.240   0.538   7.958  0.1821 -0.6306  0.1427
 4647SOL     OW25402   2.585   2.130   5.802 -0.1085 -0.1829  0.1222
 4647SOL    HW125403   2.509   2.128   5.860  0.0800 -1.9546  0.3314
 4647SOL    HW225404   2.574   2.216   5.762  0.8094 -1.0694 -2.0331
 4648SOL     OW25405   3.659   4.666  14.010 -0.3654 -0.0631  0.0617
 4648SOL    HW125406   3.634   4.689  14.100 -1.7357  1.5307 -0.7492
 4648SOL    HW225407   3.731   4.605  14.028  0.1511  0.7915  0.9096
 4649SOL     OW25408   4.034   3.399   4.582  0.7020  0.5742 -0.1896
 4649SOL    HW125409   4.017   3.338   4.510 -1.2929  0.5682  0.2775
 4649SOL    HW225410   4.082   3.466   4.533 -0.0328 -0.0231 -1.7390
 4650SOL     OW25411   2.359   3.242   1.583  0.2014  0.1812 -0.0087
 4650SOL    HW125412   2.335   3.165   1.532  1.0670  0.5296 -0.9462
 4650SOL    HW225413   2.297   3.307   1.551  0.6112  0.9471  0.7355
 4651SOL     OW25414   3.494   3.897   8.422  0.6958 -0.1344  0.7057
 4651SOL    HW125415   3.576   3.849   8.410  1.5051  0.9597  1.8717
 4651SOL    HW225416   3.514   3.933   8.509 -1.8021  1.6916  0.5347
 4652SOL     OW25417   0.421   2.175   2.253  0.1394 -0.4311 -0.1228
 4652SOL    HW125418   0.354   2.111   2.278 -1.2316  1.0748  0.0542
 4652SOL    HW225419   0.468   2.149   2.174 -1.1590  0.7112 -1.2752
 4653SOL     OW25420   3.564   4.644  16.156 -0.5158 -0.2556  0.1252
 4653SOL    HW125421   3.543   4.627  16.247 -1.0341 -0.0432  0.0419
 4653SOL    HW225422   3.648   4.689  16.169 -1.1280  0.7129  0.7082
 4654SOL     OW25423   2.373   2.769   6.739 -0.5515 -0.0831  0.3429
 4654SOL    HW125424   2.440   2.834   6.756  0.0774 -0.4341 -0.8184
 4654SOL    HW225425   2.397   2.706   6.807 -1.8701 -0.2758  0.6475
 4655SOL     OW25426   0.315   4.463   3.726  0.1191 -0.1373 -0.5875
 4655SOL    HW125427   0.349   4.547   3.755  1.3504 -0.1705 -1.9019
 4655SOL    HW225428   0.264   4.493   3.650  0.4788  1.0473 -0.3506
 4656SOL     OW25429   3.825   3.410   7.651 -0.5113 -0.2543  0.8389
 4656SOL    HW125430   3.883   3.443   7.582 -0.8310 -0.9743  0.2225
 4656SOL    HW225431   3.789   3.487   7.694 -0.2666 -0.1635  0.8795
 4657SOL     OW25432   0.794   1.510   4.671 -0.4551  0.0996  0.0666
 4657SOL    HW125433   0.795   1.417   4.692 -1.9786  0.3962  1.4635
 4657SOL    HW225434   0.832   1.509   4.583  1.3557  1.8943  0.8135
 4658SOL     OW25435   1.307   0.193  16.484 -0.4860  0.0701  0.1485
 4658SOL    HW125436   1.215   0.170  16.471 -0.7419 -0.4240  2.8032
 4658SOL    HW225437   1.345   0.133  16.420 -0.2166  0.2013  0.1883
 4659SOL     OW25438   1.825   3.184   8.002  0.2262 -0.6742 -0.0742
 4659SOL    HW125439   1.776   3.106   8.026 -1.5066 -0.3973 -2.7003
 4659SOL    HW225440   1.756   3.230   7.952  1.0865 -2.6976 -3.1346
 4660SOL     OW25441   2.177   3.662   8.027  0.2438 -1.1130  0.1848
 4660SOL    HW125442   2.223   3.622   8.100  1.9474  0.6139  0.0543
 4660SOL    HW225443   2.240   3.731   8.004 -1.1962  0.4578  0.9755
 4661SOL     OW25444   0.489   1.460   3.060 -0.2491 -0.3953  0.3194
 4661SOL    HW125445   0.578   1.495   3.070  0.3948 -2.1928  0.9496
 4661SOL    HW225446   0.512   1.367   3.052  1.3380  0.1252 -1.1569
 4662SOL     OW25447   1.039   4.507  15.535  0.3724 -0.3865  0.2635
 4662SOL    HW125448   0.967   4.486  15.475 -2.1684  0.8073  2.8776
 4662SOL    HW225449   1.032   4.431  15.593 -0.0318 -0.7407 -0.2404
 4663SOL     OW25450   0.851   4.222   5.367  0.2811 -0.4787  0.3689
 4663SOL    HW125451   0.921   4.161   5.343 -0.6494 -1.6034  0.4913
 4663SOL    HW225452   0.892   4.308   5.359 -1.7055  0.4675  0.4615
 4664SOL     OW25453   2.370   4.255   7.305 -0.3138  0.4077 -0.0053
 4664SOL    HW125454   2.361   4.198   7.382  1.5863  0.3581  0.1780
 4664SOL    HW225455   2.324   4.208   7.236 -0.6349 -0.6647  0.9361
 4665SOL     OW25456   0.075   2.566  11.298  0.3464  0.5974 -0.1406
 4665SOL    HW125457   0.007   2.587  11.362  0.2683  1.0042 -0.3586
 4665SOL    HW225458   0.145   2.522  11.346  0.9618  0.0951 -1.4762
 4666SOL     OW25459   3.489   3.689   4.372  0.3406 -0.2864  0.7645
 4666SOL    HW125460   3.397   3.672   4.354  0.5286 -1.3324  0.7843
 4666SOL    HW225461   3.529   3.730   4.295 -1.2412 -2.0754 -0.9975
 4667SOL     OW25462   3.952   3.409  10.099  0.1099  0.2768 -0.5677
 4667SOL    HW125463   4.003   3.445  10.026 -2.6746  3.1333 -1.0898
 4667SOL    HW225464   3.921   3.327  10.060 -0.3199 -0.6004  1.6272
 4668SOL     OW25465   1.122   1.904   1.644 -0.1564  0.1385  0.1171
 4668SOL    HW125466   1.077   1.914   1.728 -1.4284  0.0579 -0.5572
 4668SOL    HW225467   1.050   1.917   1.582 -0.6918 -1.2602  0.4420
 4669SOL     OW25468   1.195   4.260  12.339 -0.2250  0.7579 -0.0692
 4669SOL    HW125469   1.114   4.299  12.370  0.0529  1.4549 -0.2303
 4669SOL    HW225470   1.251   4.337  12.333  0.2315  0.2338 -2.8181
 4670SOL     OW25471   3.702   3.292   3.168  0.0463 -0.1695 -0.5074
 4670SOL    HW125472   3.785   3.339   3.162 -1.0297  1.3349 -3.7117
 4670SOL    HW225473   3.709   3.229   3.097 -2.2002 -1.5291  0.4773
 4671SOL     OW25474   1.120   3.354   9.825 -0.3849  0.3104  0.5068
 4671SOL    HW125475   1.138   3.289   9.892 -1.8685  0.0071  0.6173
 4671SOL    HW225476   1.148   3.433   9.870 -0.7257  0.9814 -0.4476
 4672SOL     OW25477   0.058   3.515   9.286  0.1542  0.6064 -0.1441
 4672SOL    HW125478   4.701   3.562   9.320  0.0444  0.5686 -0.3352
 4672SOL    HW225479   0.064   3.530   9.192  0.8206  2.2402  0.1637
 4673SOL     OW25480   2.089   0.411   3.887  0.3363 -0.3124  0.1239
 4673SOL    HW125481   2.156   0.436   3.822  0.3314  0.7622  0.5279
 4673SOL    HW225482   2.143   0.404   3.965  0.3132  1.4557  0.2908
 4674SOL     OW25483   1.901   4.524   3.512  0.4748 -0.5210  0.4129
 4674SOL    HW125484   1.857   4.530   3.428  0.1454  1.6202  0.7337
 4674SOL    HW225485   1.954   4.445   3.505 -0.5862 -1.3393  1.5427
 4675SOL     OW25486   4.170   2.956   6.774 -0.5322 -0.1480  0.4891
 4675SOL    HW125487   4.090   2.920   6.736 -0.5531  0.1944  0.2109
 4675SOL    HW225488   4.145   2.974   6.865 -3.0537  1.4808 -0.5178
 4676SOL     OW25489   3.392   0.074   4.923  0.0864 -0.0542 -0.0358
 4676SOL    HW125490   3.313   0.078   4.870 -0.0101  0.5658  0.1604
 4676SOL    HW225491   3.388   0.156   4.972 -0.2816  1.2056 -2.1770
 4677SOL     OW25492   4.483   0.413   2.222 -0.1653  0.2457  0.1391
 4677SOL    HW125493   4.502   0.494   2.269 -3.4042  1.2088 -0.1762
 4677SOL    HW225494   4.491   0.352   2.295  0.5819  0.5950  0.3486
 4678SOL     OW25495   0.686   1.108   7.714  0.0140 -0.1600 -0.2340
 4678SOL    HW125496   0.623   1.166   7.672  1.2778  1.4936  0.1948
 4678SOL    HW225497   0.721   1.156   7.789 -0.7974  0.1093 -0.0273
 4679SOL     OW25498   1.424   2.484   5.093  0.6353 -0.1576 -0.1709
 4679SOL    HW125499   1.329   2.483   5.102  0.3824 -0.9618 -2.7361
 4679SOL    HW225500   1.442   2.573   5.123  0.1458  0.6450 -2.2583
 4680SOL     OW25501   4.466   0.315   1.391  0.0412  0.3848  0.4737
 4680SOL    HW125502   4.513   0.234   1.410  2.1430  1.2461 -1.1619
 4680SOL    HW225503   4.519   0.379   1.439 -1.7759  2.3243 -0.0876
 4681SOL     OW25504   3.380   2.758   3.378 -0.1326 -0.3648 -0.1449
 4681SOL    HW125505   3.449   2.706   3.338 -0.4263 -1.0106  0.1799
 4681SOL    HW225506   3.334   2.791   3.301 -0.1620 -1.7635 -0.7266
 4682SOL     OW25507   1.252   1.255   6.508 -0.2433  0.0962  0.1565
 4682SOL    HW125508   1.171   1.208   6.485 -0.1452 -0.2831  0.5909
 4682SOL    HW225509   1.238   1.330   6.451  1.0914  0.6326  0.5390
 4683SOL     OW25510   1.927   3.872   6.100 -0.5851 -0.2324 -0.1026
 4683SOL    HW125511   1.879   3.794   6.074 -1.9347  0.1724  1.1750
 4683SOL    HW225512   1.852   3.929   6.115 -1.4408 -1.1410 -0.9005
 4684SOL     OW25513   0.281   2.320   4.903 -0.0192  0.2878 -0.5035
 4684SOL    HW125514   0.240   2.294   4.986 -1.3365  0.3464 -1.1373
 4684SOL    HW225515   0.238   2.406   4.900 -1.1221 -0.2817 -0.9499
 4685SOL     OW25516   4.086   4.154  10.976 -0.4652  0.5683  0.8254
 4685SOL    HW125517   4.110   4.231  10.925  1.9291 -0.6763  0.0900
 4685SOL    HW225518   4.158   4.099  10.946  0.6808  1.6301  1.6489
 4686SOL     OW25519   0.645   2.737   9.783 -0.2925  0.2609 -0.0325
 4686SOL    HW125520   0.618   2.828   9.772  0.6550  0.5887  0.3503
 4686SOL    HW225521   0.651   2.724   9.689 -0.8038  2.4865 -0.3674
 4687SOL     OW25522   4.494   1.570  10.743  0.0287  0.4068  0.5052
 4687SOL    HW125523   4.535   1.527  10.818  1.0270 -1.7051 -1.2851
 4687SOL    HW225524   4.554   1.541  10.675 -1.0608 -2.2211  0.6592
 4688SOL     OW25525   0.313   1.352   7.836 -0.1226 -0.6951  0.4527
 4688SOL    HW125526   0.329   1.374   7.927  2.1652  0.0944 -0.1212
 4688SOL    HW225527   0.404   1.337   7.806  1.1774  0.9421  3.6572
 4689SOL     OW25528   2.897   0.493   3.081 -0.5722 -0.0032 -0.3384
 4689SOL    HW125529   2.962   0.457   3.020  1.8895  0.8505  1.7729
 4689SOL    HW225530   2.919   0.584   3.102  1.4657 -0.1182 -1.9976
 4690SOL     OW25531   0.997   4.350   3.962 -0.2365  0.2206 -0.2180
 4690SOL    HW125532   1.090   4.371   3.958 -0.4022  0.5573 -2.0666
 4690SOL    HW225533   0.963   4.437   3.983 -0.7787 -0.4002  1.5054
 4691SOL     OW25534   2.652   0.119  13.747  0.6296 -0.3804  0.7826
 4691SOL    HW125535   2.628   0.053  13.813 -1.5545  0.3058  0.6733
 4691SOL    HW225536   2.728   0.076  13.708  0.6961 -1.0880  1.6841
 4692SOL     OW25537   3.721   3.924   5.771  0.4135 -0.2170  0.4260
 4692SOL    HW125538   3.787   3.860   5.743  0.5155  0.3228 -0.5662
 4692SOL    HW225539   3.648   3.890   5.719  1.7194  0.0731 -1.6041
 4693SOL     OW25540   2.033   1.826  12.624  0.3640 -0.2628  0.2004
 4693SOL    HW125541   2.028   1.823  12.528  0.6820 -0.3821  0.1886
 4693SOL    HW225542   2.060   1.917  12.636 -1.3488  0.3365 -0.4864
 4694SOL     OW25543   4.245   2.712  12.817 -0.3107  0.1416 -0.1492
 4694SOL    HW125544   4.151   2.704  12.802 -0.1417  1.6074 -2.0106
 4694SOL    HW225545   4.239   2.803  12.848  1.1087 -0.3279  1.5191
 4695SOL     OW25546   2.708   1.856   8.178 -0.0077 -0.1134  0.1126
 4695SOL    HW125547   2.765   1.818   8.245  1.0196  1.5117  0.1804
 4695SOL    HW225548   2.764   1.933   8.164 -0.2099  0.0482  0.1907
 4696SOL     OW25549   4.446   3.888   5.120 -0.3313 -0.3433 -0.4323
 4696SOL    HW125550   4.380   3.911   5.055  0.6140  0.0457 -1.2507
 4696SOL    HW225551   4.463   3.797   5.095 -0.7296 -0.6481  0.4155
 4697SOL     OW25552   0.904   1.927   1.483 -0.1695  0.4262 -0.0144
 4697SOL    HW125553   0.833   1.992   1.487 -1.5382 -1.0418 -0.6387
 4697SOL    HW225554   0.922   1.953   1.392  0.5149 -0.4228 -0.1169
 4698SOL     OW25555   4.381   1.605   8.885  0.4791  0.6861 -0.3206
 4698SOL    HW125556   4.439   1.657   8.830 -0.3092  2.3484  0.4340
 4698SOL    HW225557   4.409   1.517   8.861 -1.3094 -0.1939  0.7581
 4699SOL     OW25558   3.624   2.609   6.365  0.3459  0.7718 -0.2488
 4699SOL    HW125559   3.675   2.587   6.443 -0.8725 -0.5762  0.1766
 4699SOL    HW225560   3.591   2.522   6.340  0.0922  1.2678 -1.6350
 4700SOL     OW25561   1.355   2.251   1.745  0.0941 -0.4513 -0.7081
 4700SOL    HW125562   1.414   2.215   1.811 -1.6652  1.1174  1.7041
 4700SOL    HW225563   1.405   2.312   1.691  1.4914  0.2208  1.3888
 4701SOL     OW25564   0.624   2.191   0.269 -0.1610  0.5612  0.1924
 4701SOL    HW125565   0.665   2.121   0.219  2.3963  3.3891 -1.6759
 4701SOL    HW225566   0.549   2.146   0.307 -2.4898  2.0968 -2.5740
 4702SOL     OW25567   3.859   3.277   5.226 -0.0999 -0.0929 -0.0076
 4702SOL    HW125568   3.870   3.371   5.212  0.6798 -0.3981 -1.3694
 4702SOL    HW225569   3.913   3.265   5.304 -0.2029  0.7697  0.2053
 4703SOL     OW25570   1.735   3.107   9.466 -0.6299 -0.0023  0.3646
 4703SOL    HW125571   1.806   3.155   9.508 -1.1726 -1.1227  2.5700
 4703SOL    HW225572   1.752   3.016   9.493 -0.4142 -0.1433 -0.2256
 4704SOL     OW25573   0.781   3.089   6.783 -0.3484  0.4811 -0.2007
 4704SOL    HW125574   0.733   3.014   6.817 -0.5756  0.5824 -0.2999
 4704SOL    HW225575   0.863   3.087   6.833 -1.4101 -0.7512  1.4849
 4705SOL     OW25576   3.901   3.027  15.459 -0.2607  0.2005 -0.6935
 4705SOL    HW125577   3.877   3.089  15.527 -1.8089  0.4860 -1.5002
 4705SOL    HW225578   3.994   3.047  15.444 -0.2084  0.7315  0.3379
 4706SOL     OW25579   2.035   4.544  13.637  0.0340  0.0495  0.3218
 4706SOL    HW125580   2.084   4.625  13.651  1.4010 -0.3731 -2.1229
 4706SOL    HW225581   2.095   4.472  13.655 -0.9349 -1.3644 -2.0401
 4707SOL     OW25582   0.255   3.085  11.398  0.4435 -0.4066  0.9096
 4707SOL    HW125583   0.244   2.992  11.382 -1.2224 -0.7775  4.3779
 4707SOL    HW225584   0.180   3.129  11.358  0.7446 -0.2424  0.5196
 4708SOL     OW25585   0.556   4.440  13.973  0.2927  0.0131 -0.2797
 4708SOL    HW125586   0.604   4.521  13.955  0.4059 -0.3611 -1.6596
 4708SOL    HW225587   0.469   4.473  13.996 -0.6384 -2.2900 -0.5607
 4709SOL     OW25588   0.716   2.178   2.995  0.3288  0.4581 -0.3573
 4709SOL    HW125589   0.653   2.138   2.935 -0.1647  1.6395 -0.6404
 4709SOL    HW225590   0.693   2.132   3.075 -1.1333  0.3490 -0.8286
 4710SOL     OW25591   1.551   2.620  17.106 -0.2663  0.0443  0.1068
 4710SOL    HW125592   1.583   2.703  17.073 -0.3908  0.1615  0.2791
 4710SOL    HW225593   1.474   2.645  17.158 -2.0748 -2.6097 -1.2592
 4711SOL     OW25594   1.894   1.066   8.667 -0.1451  0.0000  0.0897
 4711SOL    HW125595   1.951   1.119   8.612 -0.0310 -0.1808  0.0330
 4711SOL    HW225596   1.935   0.980   8.664 -1.9177 -0.8027 -0.9970
 4712SOL     OW25597   3.736   2.058  14.262 -0.4577  0.2723  0.3440
 4712SOL    HW125598   3.670   1.992  14.240  1.8413 -2.1851  0.7727
 4712SOL    HW225599   3.701   2.093  14.344 -0.6216  1.0205 -0.0529
 4713SOL     OW25600   2.907   2.435   8.348  0.2968 -0.1218 -0.1915
 4713SOL    HW125601   2.923   2.442   8.443 -1.0007 -3.0899  0.2258
 4713SOL    HW225602   3.002   2.436   8.332  0.7998 -1.0360  2.7610
 4714SOL     OW25603   3.550   3.722   8.165  0.0305 -0.1281 -0.5010
 4714SOL    HW125604   3.535   3.652   8.228  0.4060  0.3586  0.1361
 4714SOL    HW225605   3.618   3.690   8.106 -0.6247  0.6651 -1.7005
 4715SOL     OW25606   0.802   2.003   2.749 -0.1719 -0.0704  0.1990
 4715SOL    HW125607   0.812   1.913   2.778 -1.2267 -1.1248 -2.7246
 4715SOL    HW225608   0.707   2.014   2.748 -0.2850 -1.0694  1.5798
 4716SOL     OW25609   2.754   0.057   7.371 -0.0712  0.2812  0.6927
 4716SOL    HW125610   2.700   0.134   7.392  0.8627  1.1219  0.0579
 4716SOL    HW225611   2.681   4.716   7.370  1.7378 -1.8035 -3.9435
 4717SOL     OW25612   4.694   4.605   5.533 -0.7995  0.0593  0.1856
 4717SOL    HW125613   4.688   4.516   5.568  2.4802  0.0592  0.7062
 4717SOL    HW225614   0.063   4.627   5.560 -0.5521  0.8604 -1.3197
 4718SOL     OW25615   2.068   1.240   3.112  0.2135 -0.7761 -0.1396
 4718SOL    HW125616   2.143   1.277   3.158  1.4074  0.1506 -2.7834
 4718SOL    HW225617   2.041   1.165   3.164  1.5171 -2.7452 -2.2947
 4719SOL     OW25618   1.374   4.498   9.678 -0.6715 -0.1740  0.4863
 4719SOL    HW125619   1.410   4.585   9.658 -0.0624 -0.2055  1.4361
 4719SOL    HW225620   1.426   4.438   9.624 -2.2963 -1.0725 -0.0700
 4720SOL     OW25621   1.573   4.490   1.389  0.3776 -0.2379  0.2130
 4720SOL    HW125622   1.641   4.474   1.454 -0.3547 -1.2591  0.7435
 4720SOL    HW225623   1.566   4.405   1.346  0.5443  0.9774 -2.2055
 4721SOL     OW25624   2.113   2.898   8.209  0.3136  0.0242  0.1954
 4721SOL    HW125625   2.069   2.879   8.126  2.4879  1.0046 -1.1725
 4721SOL    HW225626   2.187   2.955   8.188 -0.5183  0.7407 -0.7864
 4722SOL     OW25627   4.365   3.752   4.249  0.4726  0.3162 -0.0818
 4722SOL    HW125628   4.418   3.806   4.307 -1.1976  0.2867  1.4566
 4722SOL    HW225629   4.282   3.799   4.247  0.0319 -0.4974 -1.1819
 4723SOL     OW25630   2.280   1.320   2.658  0.0593 -0.2301 -0.2915
 4723SOL    HW125631   2.319   1.293   2.574 -0.8511  3.1022 -1.7537
 4723SOL    HW225632   2.236   1.400   2.630 -0.9600 -0.8925 -0.5975
 4724SOL     OW25633   1.193   4.346  16.186 -0.8401 -0.3434  0.4401
 4724SOL    HW125634   1.175   4.366  16.093  2.0022  1.0638  0.2063
 4724SOL    HW225635   1.214   4.431  16.224  1.0927 -0.3724 -0.5397
 4725SOL     OW25636   2.296   1.682   0.231  0.6595  0.2470  0.2048
 4725SOL    HW125637   2.250   1.668   0.314 -0.2284 -3.0922 -0.8664
 4725SOL    HW225638   2.229   1.643   0.175 -0.6695 -0.4810  2.3082
 4726SOL     OW25639   0.597   3.138  16.527 -0.1781  0.1325  0.1224
 4726SOL    HW125640   0.569   3.049  16.548 -0.1456 -0.4460 -2.2899
 4726SOL    HW225641   0.557   3.146  16.440 -0.3870  0.3161  0.2333
 4727SOL     OW25642   1.802   0.693   4.211  0.4882 -0.2313 -0.2675
 4727SOL    HW125643   1.828   0.651   4.129 -0.5342 -1.9623  0.2955
 4727SOL    HW225644   1.885   0.735   4.231  0.4787 -1.0653  1.4790
 4728SOL     OW25645   0.832   0.759  16.799 -0.6739  0.0446  0.7459
 4728SOL    HW125646   0.835   0.798  16.712 -0.0024  1.9534  1.6293
 4728SOL    HW225647   0.768   0.689  16.781  0.1661 -0.7595  0.9122
 4729SOL     OW25648   3.513   1.526   0.128  0.1507  0.4068  0.3579
 4729SOL    HW125649   3.498   1.621   0.127  1.3077  0.5900  1.1670
 4729SOL    HW225650   3.499   1.508   0.220 -0.2345 -0.1790  0.1852
 4730SOL     OW25651   2.228   3.045   4.106  0.2842  0.2700  0.2059
 4730SOL    HW125652   2.158   2.981   4.095 -0.3858  0.9769  0.3999
 4730SOL    HW225653   2.295   2.980   4.129  0.2624 -0.3922 -1.6019
 4731SOL     OW25654   0.520   3.584  15.580 -0.3618 -0.2324  0.3540
 4731SOL    HW125655   0.585   3.582  15.509 -0.3265  0.8702  0.3466
 4731SOL    HW225656   0.568   3.558  15.658  0.5497 -1.2903 -0.5595
 4732SOL     OW25657   3.712   0.896   6.271 -0.2501  0.2211 -0.0361
 4732SOL    HW125658   3.696   0.814   6.318 -1.0580  1.4152  1.7534
 4732SOL    HW225659   3.781   0.943   6.317  1.2537 -1.8265 -0.1947
 4733SOL     OW25660   3.647   0.165   5.837  0.2978  0.1125  0.8266
 4733SOL    HW125661   3.593   0.107   5.785  0.7994 -1.1435  1.6924
 4733SOL    HW225662   3.609   0.253   5.832  2.0687  0.8284 -0.1221
 4734SOL     OW25663   4.038   3.075  12.567  0.5081  0.1372 -0.0240
 4734SOL    HW125664   4.105   3.123  12.518 -1.9861  1.0292 -2.5464
 4734SOL    HW225665   4.003   3.029  12.491 -3.8749  0.8932  1.5529
 4735SOL     OW25666   1.844   3.708   3.034 -0.2085 -0.2207 -0.0031
 4735SOL    HW125667   1.821   3.616   3.018 -1.3595 -0.0764  0.8298
 4735SOL    HW225668   1.931   3.731   3.000  0.1726 -0.9913  0.4507
 4736SOL     OW25669   3.210   3.207   3.227  0.2869 -0.0373  0.2243
 4736SOL    HW125670   3.202   3.186   3.134  1.3996  0.5049  0.0178
 4736SOL    HW225671   3.119   3.223   3.251  0.8348 -0.7664  2.7320
 4737SOL     OW25672   3.135   0.587   7.399 -0.2247 -0.3406  0.6128
 4737SOL    HW125673   3.204   0.652   7.409  0.1125 -0.0838 -3.2079
 4737SOL    HW225674   3.078   0.606   7.474 -0.7176  1.1498 -0.1259
 4738SOL     OW25675   2.775   4.293   5.927  0.0050 -0.4707 -0.5508
 4738SOL    HW125676   2.700   4.307   5.985 -0.0056  0.6489 -0.8268
 4738SOL    HW225677   2.831   4.366   5.953 -0.5843 -0.5245  0.9099
 4739SOL     OW25678   4.015   3.048   5.517  0.2311 -0.1400 -0.2346
 4739SOL    HW125679   4.039   3.007   5.600 -1.7009  0.1065  0.4452
 4739SOL    HW225680   3.941   2.996   5.486 -0.0246  0.5956 -0.8519
 4740SOL     OW25681   3.149   1.314   6.435  0.3264 -0.4424  0.2128
 4740SOL    HW125682   3.143   1.385   6.498 -2.0717 -1.4785  1.1728
 4740SOL    HW225683   3.087   1.247   6.464 -2.3951  1.8072 -0.3649
 4741SOL     OW25684   2.814   1.397   8.449  0.7384  0.3367  0.2255
 4741SOL    HW125685   2.777   1.375   8.363 -1.3340 -1.4809  1.5702
 4741SOL    HW225686   2.907   1.382   8.436  1.1379  1.3895  1.9390
 4742SOL     OW25687   4.440   4.170   3.549  0.3102 -0.3518 -0.5388
 4742SOL    HW125688   4.367   4.165   3.612 -0.2860 -1.2011 -1.3062
 4742SOL    HW225689   4.519   4.166   3.603 -0.2915  1.7632  0.4918
 4743SOL     OW25690   1.495   0.411   7.773  0.3185  0.1778  0.1823
 4743SOL    HW125691   1.410   0.450   7.756 -0.4078 -0.6357  1.9459
 4743SOL    HW225692   1.465   0.321   7.785 -3.8728  1.6027  0.3249
 4744SOL     OW25693   4.168   2.119   4.870 -0.3232 -0.1669  0.1141
 4744SOL    HW125694   4.251   2.146   4.831  0.2774 -1.7742  0.2710
 4744SOL    HW225695   4.115   2.193   4.840 -0.4814  0.5579  2.1577
 4745SOL     OW25696   0.982   0.302   8.585  0.2475  0.0368  0.1659
 4745SOL    HW125697   0.894   0.288   8.550  1.2110 -2.5729 -1.1857
 4745SOL    HW225698   1.021   0.222   8.552  1.8046  0.4557  0.9621
 4746SOL     OW25699   4.555   2.889   7.863 -0.2123 -1.0272  0.0195
 4746SOL    HW125700   4.583   2.980   7.865  0.5144 -1.2296 -0.8431
 4746SOL    HW225701   4.489   2.888   7.932  1.5476 -0.5709  1.6930
 4747SOL     OW25702   2.035   0.552   6.324  0.0868  0.1377  0.1503
 4747SOL    HW125703   2.017   0.635   6.280  0.9698 -0.1308 -0.7265
 4747SOL    HW225704   2.075   0.504   6.251  0.6848  0.2829  0.3806
 4748SOL     OW25705   3.481   3.041   2.981 -0.3571  1.0853 -0.3808
 4748SOL    HW125706   3.394   3.024   2.943 -0.3917  1.7310 -0.5849
 4748SOL    HW225707   3.527   3.079   2.906 -1.8815  0.8461 -1.4365
 4749SOL     OW25708   4.145   2.230  15.547  0.2554  0.3920 -0.3009
 4749SOL    HW125709   4.166   2.300  15.608 -1.1290  1.6985 -1.3221
 4749SOL    HW225710   4.218   2.168  15.545  0.1304  0.1785  2.3756
 4750SOL     OW25711   1.972   3.602   0.278  0.0576  0.8466  0.0369
 4750SOL    HW125712   2.005   3.513   0.285  0.7323  1.1239  0.5022
 4750SOL    HW225713   1.890   3.587   0.325 -0.2727 -0.9739 -1.1315
 4751SOL     OW25714   4.119   3.823  14.927 -0.0514 -0.5197  0.3788
 4751SOL    HW125715   4.080   3.744  14.965 -1.9035 -0.1718 -0.7878
 4751SOL    HW225716   4.037   3.862  14.896  0.2557  1.3170  1.8531
 4752SOL     OW25717   0.842   4.562   8.037  0.3867 -0.3471  0.3072
 4752SOL    HW125718   0.891   4.536   8.115  1.1408  0.0559 -0.0396
 4752SOL    HW225719   0.908   4.574   7.969 -0.6903 -0.1365 -0.6986
 4753SOL     OW25720   1.123   2.557   6.325  0.1148 -0.6078  0.3161
 4753SOL    HW125721   1.092   2.542   6.414  1.6155  0.6088  1.0279
 4753SOL    HW225722   1.123   2.470   6.285 -1.0786 -0.9249  1.0184
 4754SOL     OW25723   1.987   4.044   4.166  0.2653  0.6102 -0.0057
 4754SOL    HW125724   2.082   4.053   4.173  0.3129 -0.7353  1.1402
 4754SOL    HW225725   1.981   3.994   4.084  2.2582  1.4768 -0.6694
 4755SOL     OW25726   2.871   1.790   3.389  0.4865  0.6639  0.3090
 4755SOL    HW125727   2.842   1.845   3.316  2.5807  3.1478  1.3553
 4755SOL    HW225728   2.794   1.733   3.395  1.9067 -1.3482 -0.5290
 4756SOL     OW25729   1.090   1.699   9.377 -0.2370  0.2148 -0.2777
 4756SOL    HW125730   1.168   1.669   9.330  0.8271 -0.7302  2.1140
 4756SOL    HW225731   1.054   1.616   9.408 -2.1195  0.4890 -1.7396
 4757SOL     OW25732   2.075   3.145   5.157 -0.2450 -0.2374 -0.3012
 4757SOL    HW125733   2.018   3.168   5.083 -0.0362  2.5242  0.3897
 4757SOL    HW225734   2.079   3.228   5.204 -2.3764  0.1664 -0.8031
 4758SOL     OW25735   0.987   2.789   3.226 -0.7613 -0.3198 -0.2436
 4758SOL    HW125736   0.908   2.778   3.175 -0.5248  1.1716 -0.9559
 4758SOL    HW225737   0.953   2.824   3.308 -1.0026 -1.0137 -0.0502
 4759SOL     OW25738   2.927   0.749   3.165 -0.3849  0.0723 -0.1015
 4759SOL    HW125739   2.938   0.810   3.092 -2.1267  0.6537  0.1338
 4759SOL    HW225740   2.985   0.779   3.235 -1.4946  0.7658  0.5300
 4760SOL     OW25741   1.633   2.141   3.036 -0.1774 -0.2544  0.0492
 4760SOL    HW125742   1.627   2.162   3.129  0.8667 -2.9884  0.7445
 4760SOL    HW225743   1.543   2.119   3.012  0.1316  0.5275 -1.8110
 4761SOL     OW25744   0.453   4.704   2.819 -0.4369  0.3877  0.3222
 4761SOL    HW125745   0.474   0.076   2.838  1.6391  0.2319 -1.2812
 4761SOL    HW225746   0.358   4.697   2.824 -0.3273  0.8993  3.4408
 4762SOL     OW25747   3.922   2.195   2.317  0.0390  0.0515  0.1022
 4762SOL    HW125748   3.989   2.264   2.321  0.2131 -0.2265  2.2513
 4762SOL    HW225749   3.933   2.164   2.227 -0.5359 -0.3266  0.1589
 4763SOL     OW25750   3.552   3.239  10.537 -0.8087  0.5639 -0.3310
 4763SOL    HW125751   3.529   3.328  10.513  0.7052  1.1546  0.4296
 4763SOL    HW225752   3.644   3.251  10.561 -1.0571 -0.0373  0.9290
 4764SOL     OW25753   3.984   1.741   7.730 -0.1173 -0.4482 -0.4941
 4764SOL    HW125754   3.982   1.673   7.662  0.9899 -0.1923 -0.7799
 4764SOL    HW225755   4.057   1.797   7.704 -0.2106 -1.0601 -2.1082
 4765SOL     OW25756   1.635   3.216   3.267 -0.4716  0.0789 -0.8218
 4765SOL    HW125757   1.651   3.266   3.187  0.3076  0.2793 -0.5427
 4765SOL    HW225758   1.583   3.280   3.316 -0.6862 -0.7621  0.0577
 4766SOL     OW25759   3.324   0.967   3.524  0.1448 -0.3519 -0.1275
 4766SOL    HW125760   3.345   1.027   3.595  1.3150  0.2401 -0.9815
 4766SOL    HW225761   3.395   0.906   3.543  0.9420  1.3189  2.2081
 4767SOL     OW25762   1.664   0.641   7.440 -0.1768 -0.3873 -0.3388
 4767SOL    HW125763   1.738   0.652   7.500 -0.7502  0.5446  0.1984
 4767SOL    HW225764   1.684   0.687   7.359 -0.1123  0.0393 -0.0854
 4768SOL     OW25765   2.505   4.628   3.433 -0.3394  0.1167  0.3720
 4768SOL    HW125766   2.470   4.677   3.359  0.8259 -0.0771 -0.3105
 4768SOL    HW225767   2.592   4.669   3.432 -0.0875 -0.4408 -0.9463
 4769SOL     OW25768   3.096   2.480   8.083 -0.1338 -0.6084  0.0213
 4769SOL    HW125769   3.013   2.479   8.035 -0.4542 -1.7039  0.6025
 4769SOL    HW225770   3.136   2.542   8.021  1.6648 -1.2738  0.5217
 4770SOL     OW25771   1.546   1.625   4.346  0.8596 -0.1205  0.3798
 4770SOL    HW125772   1.574   1.550   4.400  0.8394  1.5765  2.7637
 4770SOL    HW225773   1.590   1.702   4.383 -1.0835  1.4490 -0.5957
 4771SOL     OW25774   2.233   1.849   3.337  0.4591 -0.3662 -0.4465
 4771SOL    HW125775   2.318   1.893   3.338  1.0544 -1.5204 -0.5001
 4771SOL    HW225776   2.256   1.799   3.415 -0.8220  0.5851  0.5454
 4772SOL     OW25777   1.973   0.356   7.631 -0.0511 -0.3625 -0.5058
 4772SOL    HW125778   1.911   0.360   7.703 -0.3918  2.6949 -0.9867
 4772SOL    HW225779   1.922   0.318   7.559  0.6413  1.2944 -1.8575
 4773SOL     OW25780   3.626   0.966   3.362  0.3494  0.2511 -0.3493
 4773SOL    HW125781   3.674   0.891   3.396  1.2890  1.0380  0.0734
 4773SOL    HW225782   3.676   1.039   3.399 -1.5183  0.6194  1.4433
 4774SOL     OW25783   3.446   1.703  10.570 -0.3119 -0.0978 -0.4592
 4774SOL    HW125784   3.516   1.762  10.543 -1.3496  1.4341  0.2087
 4774SOL    HW225785   3.492   1.621  10.589 -0.2179  0.0582 -0.0247
 4775SOL     OW25786   0.748   4.662   1.534  0.5549  0.1229 -1.0674
 4775SOL    HW125787   0.747   0.014   1.471  2.5292  0.0752 -1.1711
 4775SOL    HW225788   0.735   4.586   1.477  0.2392 -1.0051  0.5119
 4776SOL     OW25789   2.618   2.607  11.764 -0.0501  0.0107 -0.3000
 4776SOL    HW125790   2.539   2.584  11.715  0.0721 -1.8949  0.3612
 4776SOL    HW225791   2.671   2.664  11.708 -0.3696 -0.6700 -1.2961
 4777SOL     OW25792   2.507   2.600   9.218  0.3055  0.1517 -0.4466
 4777SOL    HW125793   2.463   2.662   9.275  0.8966  1.5947 -1.5437
 4777SOL    HW225794   2.465   2.519   9.245 -0.6443  1.0638  0.7777
 4778SOL     OW25795   1.122   1.507   2.309 -0.0799  0.5354  0.1733
 4778SOL    HW125796   1.076   1.427   2.285  0.7210 -0.4798  1.9646
 4778SOL    HW225797   1.147   1.547   2.226  1.6959 -1.2071 -0.1456
 4779SOL     OW25798   4.050   2.592   8.928  0.0769  0.0572 -0.1320
 4779SOL    HW125799   4.094   2.666   8.970  2.3637 -0.0775 -2.2533
 4779SOL    HW225800   4.123   2.529   8.927  1.1426  1.2566  2.0801
 4780SOL     OW25801   3.394   3.215   7.866 -0.5331 -0.1261 -0.2821
 4780SOL    HW125802   3.303   3.241   7.853  0.0091  0.8821 -1.9983
 4780SOL    HW225803   3.433   3.286   7.816 -0.4913  0.7621  1.0103
 4781SOL     OW25804   1.329   0.600   4.291 -0.3839  0.2630 -0.0867
 4781SOL    HW125805   1.268   0.670   4.267 -0.9688 -0.2490 -0.0984
 4781SOL    HW225806   1.396   0.651   4.336 -0.7987 -0.0758  0.9025
 4782SOL     OW25807   0.550   3.801   7.666 -0.3026  0.2798 -0.1549
 4782SOL    HW125808   0.587   3.749   7.737 -0.4396  0.1878 -0.1497
 4782SOL    HW225809   0.613   3.873   7.661  0.0378  0.0218  0.3929
 4783SOL     OW25810   1.588   3.410   6.947 -0.6047  0.0133  0.1054
 4783SOL    HW125811   1.611   3.324   6.912  0.1533  0.7553 -1.2198
 4783SOL    HW225812   1.555   3.441   6.862  0.4791  1.8241  0.3553
 4784SOL     OW25813   4.596   4.459   5.020  0.2409  0.6201 -0.3749
 4784SOL    HW125814   4.559   4.372   5.036  2.6451 -0.2175  0.5215
 4784SOL    HW225815   4.674   4.440   4.968  1.4057  1.2655  1.1561
 4785SOL     OW25816   2.429   4.456   3.825 -0.1232  0.4807 -0.3664
 4785SOL    HW125817   2.426   4.551   3.832  1.5958  0.5004  0.1730
 4785SOL    HW225818   2.403   4.451   3.733 -2.7641  0.2333  0.3729
 4786SOL     OW25819   0.298   1.439   3.956 -0.3619 -0.0100  0.3298
 4786SOL    HW125820   0.268   1.512   4.011 -0.2994  0.4609 -0.2475
 4786SOL    HW225821   0.346   1.391   4.023 -2.4812 -0.7342  1.3401
 4787SOL     OW25822   1.767   1.447   7.938 -0.4977  0.2316  0.0449
 4787SOL    HW125823   1.714   1.437   8.018 -1.3809  0.0915 -0.5586
 4787SOL    HW225824   1.767   1.543   7.935 -0.2699  0.3548  3.5602
 4788SOL     OW25825   3.629   0.157  10.777 -0.2085 -0.1840  0.3010
 4788SOL    HW125826   3.540   0.192  10.780 -0.8569 -1.6666 -2.3424
 4788SOL    HW225827   3.629   0.154  10.682 -1.0528 -1.6972  0.3483
 4789SOL     OW25828   2.370   2.197   5.515 -0.0818 -0.2730  0.1580
 4789SOL    HW125829   2.294   2.187   5.573 -0.3328 -0.1934 -0.1572
 4789SOL    HW225830   2.355   2.285   5.482 -0.0020 -0.0141  0.8161
 4790SOL     OW25831   3.957   1.119   2.572  0.8397  0.1530  0.3609
 4790SOL    HW125832   3.928   1.172   2.497 -0.4532 -0.7169  0.2305
 4790SOL    HW225833   4.031   1.164   2.613  1.9893 -0.0045 -1.5307
 4791SOL     OW25834   4.417   1.786   6.960 -0.5207 -0.2956  0.1166
 4791SOL    HW125835   4.392   1.847   6.890 -0.8224  1.9900  2.2094
 4791SOL    HW225836   4.511   1.776   6.945 -0.5426  0.6331 -0.6235
 4792SOL     OW25837   0.761   0.381   2.879 -0.6095  0.3798 -0.0968
 4792SOL    HW125838   0.666   0.366   2.878 -0.6922  0.9213 -0.0970
 4792SOL    HW225839   0.765   0.435   2.800 -0.1625  0.0341 -0.3099
 4793SOL     OW25840   0.796   2.511   4.949  0.8457 -0.4720  0.2965
 4793SOL    HW125841   0.716   2.485   4.902 -0.0330  1.7839  0.5411
 4793SOL    HW225842   0.834   2.562   4.878 -0.1606 -0.4429 -0.2215
 4794SOL     OW25843   3.441   2.465   2.383 -0.0740  0.2238  0.4305
 4794SOL    HW125844   3.517   2.412   2.357 -0.3516 -0.2127  0.5065
 4794SOL    HW225845   3.378   2.461   2.311  3.4131 -0.0924 -2.6207
 4795SOL     OW25846   0.420   3.014   5.985  0.1151  0.5860  0.2957
 4795SOL    HW125847   0.454   3.097   6.018 -0.1245  0.3943  1.0091
 4795SOL    HW225848   0.327   3.021   6.004 -0.2775  1.5144 -1.9685
 4796SOL     OW25849   0.754   0.240   5.758  0.3862  0.2756  0.3263
 4796SOL    HW125850   0.746   0.325   5.716  1.9019 -0.0314 -0.5680
 4796SOL    HW225851   0.760   0.181   5.683 -0.9012 -0.3200  0.6902
 4797SOL     OW25852   4.179   2.944   6.051 -0.3617 -0.6196  0.0255
 4797SOL    HW125853   4.191   2.868   6.108 -0.8195  0.6977  1.8627
 4797SOL    HW225854   4.134   3.008   6.107  2.6975  2.0867 -0.6325
 4798SOL     OW25855   3.372   0.304   2.625 -0.4574  0.9257  0.2039
 4798SOL    HW125856   3.355   0.372   2.560  1.5017 -0.1601 -1.4452
 4798SOL    HW225857   3.440   0.256   2.578 -1.6709  0.3745 -1.0040
 4799SOL     OW25858   1.557   0.464  12.888  0.5856 -0.4835  0.9517
 4799SOL    HW125859   1.607   0.389  12.923  0.9035 -0.1858  1.1398
 4799SOL    HW225860   1.491   0.418  12.837 -2.2489  2.0105  2.3656
 4800SOL     OW25861   2.665   3.715   3.933 -0.5372 -0.1265  0.0632
 4800SOL    HW125862   2.610   3.791   3.917 -0.9022 -0.5858 -0.8863
 4800SOL    HW225863   2.704   3.688   3.849 -0.0476  1.4366 -0.2184
 4801SOL     OW25864   1.183   3.253   2.670  0.8038  0.8569 -0.0633
 4801SOL    HW125865   1.122   3.189   2.706  2.7611 -1.1583 -0.4052
 4801SOL    HW225866   1.207   3.303   2.748 -2.1473  2.6597 -0.2912
 4802SOL     OW25867   4.712   2.033  11.701  0.4284 -0.1218 -0.4841
 4802SOL    HW125868   0.076   2.079  11.711  0.0411 -0.1243  2.5080
 4802SOL    HW225869   4.694   2.068  11.613 -0.1417  0.3759 -0.1628
 4803SOL     OW25870   1.649   0.214  10.850  0.1210 -0.1625  0.0549
 4803SOL    HW125871   1.715   0.282  10.853  0.1142 -0.1790  0.5350
 4803SOL    HW225872   1.692   0.144  10.800  2.2103 -0.2524  1.9810
 4804SOL     OW25873   1.734   0.694   9.282 -0.1531  0.3920 -0.2841
 4804SOL    HW125874   1.761   0.713   9.192 -0.9096 -1.8231 -0.9751
 4804SOL    HW225875   1.648   0.654   9.275 -0.9100  1.6391  1.6520
 4805SOL     OW25876   3.660   0.260   0.508 -0.0894  0.6608  0.1911
 4805SOL    HW125877   3.678   0.341   0.557 -0.4787  0.8746 -0.0207
 4805SOL    HW225878   3.580   0.236   0.556 -0.0202  0.8422  0.4013
 4806SOL     OW25879   4.646   4.105   7.063  0.2230 -0.4311 -0.7471
 4806SOL    HW125880   4.658   4.086   6.970  0.1125 -0.8585 -0.6749
 4806SOL    HW225881   4.701   4.035   7.101 -0.9235 -0.3879  0.9738
 4807SOL     OW25882   2.584   2.111   1.171  0.2273  0.8196 -0.0091
 4807SOL    HW125883   2.527   2.054   1.120  1.7811 -0.1717 -0.6213
 4807SOL    HW225884   2.559   2.195   1.132 -1.1046  0.1051 -0.6999
 4808SOL     OW25885   3.849   4.645   2.670  0.8883  0.1750 -0.5765
 4808SOL    HW125886   3.781   4.706   2.699 -0.1959 -1.1582 -0.3370
 4808SOL    HW225887   3.872   4.677   2.583 -1.5297 -0.0999 -1.3213
 4809SOL     OW25888   1.680   0.981   7.597  0.3527  0.3035  0.4847
 4809SOL    HW125889   1.682   0.998   7.691  0.6893 -0.7290  0.6698
 4809SOL    HW225890   1.591   1.015   7.587 -0.5237 -2.1685 -0.1255
 4810SOL     OW25891   2.938   3.566   4.723  0.2076  0.0149  0.6235
 4810SOL    HW125892   2.919   3.484   4.770 -1.6885  0.0496 -0.0847
 4810SOL    HW225893   2.939   3.529   4.634  3.0517  1.0788  0.2108
 4811SOL     OW25894   3.651   2.486   6.648 -0.3847 -0.4317  0.2244
 4811SOL    HW125895   3.567   2.511   6.686  0.1445  0.5933  0.7138
 4811SOL    HW225896   3.704   2.507   6.725  0.4814  2.9363 -1.2990
 4812SOL     OW25897   1.920   4.048   8.407  0.0643  0.6924 -0.2035
 4812SOL    HW125898   1.872   3.970   8.378 -1.3704  1.4270  0.1636
 4812SOL    HW225899   1.935   4.030   8.500  2.9777  3.6932 -0.1031
 4813SOL     OW25900   2.067   1.187   4.459 -0.0246  0.5786  0.2747
 4813SOL    HW125901   2.051   1.258   4.521 -0.9369 -0.5064  1.2704
 4813SOL    HW225902   2.133   1.142   4.510  0.4346 -0.5292 -1.2912
 4814SOL     OW25903   2.275   4.099  15.550  0.7489  0.0112 -0.3604
 4814SOL    HW125904   2.298   4.114  15.458 -1.0240  1.7762 -0.5254
 4814SOL    HW225905   2.315   4.173  15.595 -3.5918  1.5627  0.9876
 4815SOL     OW25906   3.914   0.095   8.781 -0.1638  0.0696 -0.0416
 4815SOL    HW125907   3.968   0.075   8.704 -0.3380 -2.0794  0.3945
 4815SOL    HW225908   3.953   0.053   8.857  0.0857  0.1981 -0.1009
 4816SOL     OW25909   0.246   4.514   5.604  0.1257 -0.2253 -0.3229
 4816SOL    HW125910   0.264   4.496   5.696  2.0422  1.3825 -0.3983
 4816SOL    HW225911   0.228   4.426   5.570 -0.5845 -0.7198  1.3219
 4817SOL     OW25912   2.264   2.350   3.277  0.1332  0.4666 -0.4536
 4817SOL    HW125913   2.193   2.285   3.280 -0.4931  1.2722  2.5988
 4817SOL    HW225914   2.285   2.338   3.370 -1.0507  0.1340 -0.2307
 4818SOL     OW25915   4.461   1.553  17.447 -0.1562  0.1076 -0.6777
 4818SOL    HW125916   4.450   1.464  17.481 -0.5774  0.2312 -0.4898
 4818SOL    HW225917   4.537   1.586  17.496  1.3330 -1.2820 -2.0596
 4819SOL     OW25918   1.300   3.812  11.068 -0.4163  0.2042 -0.1918
 4819SOL    HW125919   1.353   3.749  11.117 -0.2131  0.5607  0.0529
 4819SOL    HW225920   1.263   3.867  11.137  0.6599  0.3992  0.2332
 4820SOL     OW25921   2.260   0.243   4.826 -0.3619  0.8319  0.6075
 4820SOL    HW125922   2.231   0.328   4.861  0.2346  0.9614  0.7898
 4820SOL    HW225923   2.297   0.204   4.905  2.3313 -0.4032 -1.2717
 4821SOL     OW25924   3.226   3.573  16.016  0.2891  0.0672  0.1558
 4821SOL    HW125925   3.277   3.646  16.051 -1.1960  1.0243  0.2896
 4821SOL    HW225926   3.251   3.507  16.081 -1.2866 -1.9840 -1.3520
 4822SOL     OW25927   1.994   3.654   1.352 -0.1104 -0.0428 -0.1581
 4822SOL    HW125928   1.994   3.654   1.448 -1.8040  0.9561 -0.1720
 4822SOL    HW225929   1.995   3.559   1.338 -3.4597  0.1947 -1.9714
 4823SOL     OW25930   4.310   4.281   8.527  0.1439 -0.3179 -0.0360
 4823SOL    HW125931   4.337   4.194   8.556 -0.4335 -1.2294 -2.2131
 4823SOL    HW225932   4.266   4.267   8.443  0.3182  0.8853 -0.3255
 4824SOL     OW25933   4.001   2.314   8.312 -0.3043  0.5457 -0.0485
 4824SOL    HW125934   3.912   2.292   8.282  0.5588 -1.8741 -0.8527
 4824SOL    HW225935   3.973   2.360   8.391  0.8761  1.8358 -0.3960
 4825SOL     OW25936   0.850   3.098   6.133 -0.1821  0.6215 -0.7080
 4825SOL    HW125937   0.916   3.077   6.199 -2.2287 -2.9382  0.1796
 4825SOL    HW225938   0.780   3.039   6.161  0.4119  0.0950 -0.3347
 4826SOL     OW25939   3.314   4.013   0.173 -0.4446  0.2425 -0.2489
 4826SOL    HW125940   3.232   3.973   0.146 -0.8151 -0.2742  1.5911
 4826SOL    HW225941   3.340   3.945   0.235 -0.1948  1.0122  0.4969
 4827SOL     OW25942   0.894   3.008   4.519  0.2877  0.5763  0.5269
 4827SOL    HW125943   0.864   3.088   4.474 -2.9466 -0.0001  1.6528
 4827SOL    HW225944   0.845   2.941   4.472 -0.1813 -0.5777  2.6882
 4828SOL     OW25945   3.258   1.244   7.885  0.9342 -0.5498 -0.3561
 4828SOL    HW125946   3.253   1.238   7.790  0.9465 -1.1183 -0.3171
 4828SOL    HW225947   3.248   1.151   7.906 -0.4891 -0.1339  0.8644
 4829SOL     OW25948   3.203   1.639   7.982  0.4047 -0.0859 -0.1943
 4829SOL    HW125949   3.116   1.629   8.020 -0.0976  0.3720 -1.2363
 4829SOL    HW225950   3.238   1.551   7.972 -0.5090 -0.5371  0.5762
 4830SOL     OW25951   0.126   1.596   4.154  0.4833 -0.0034 -0.0365
 4830SOL    HW125952   0.080   1.514   4.171 -1.1210  0.8674 -0.1993
 4830SOL    HW225953   0.133   1.621   4.246  1.4584 -0.6633  0.0758
 4831SOL     OW25954   4.426   1.606   6.643  0.0192  0.4331  0.4128
 4831SOL    HW125955   4.478   1.666   6.589 -0.4124  1.4581  1.1253
 4831SOL    HW225956   4.344   1.609   6.595 -0.0667 -1.3813  0.4379
 4832SOL     OW25957   4.657   4.202  14.510  0.4237  0.6322  0.6307
 4832SOL    HW125958   0.006   4.138  14.526 -1.4906 -1.1495  1.6981
 4832SOL    HW225959   4.709   4.282  14.505 -0.6455  1.3572  1.1339
 4833SOL     OW25960   2.386   2.564  11.620 -0.2992  0.1591 -0.1721
 4833SOL    HW125961   2.339   2.638  11.582  0.8672 -0.2644 -2.4707
 4833SOL    HW225962   2.384   2.500  11.548  1.5110  0.6985 -0.7174
 4834SOL     OW25963   0.671   1.705  12.874  0.0686  0.7948 -0.2488
 4834SOL    HW125964   0.594   1.745  12.915 -1.2023  0.3541 -2.2175
 4834SOL    HW225965   0.719   1.784  12.850  3.2163  0.1047  3.6719
 4835SOL     OW25966   3.624   0.471  11.764  0.2576 -0.0827  0.0433
 4835SOL    HW125967   3.578   0.429  11.837 -2.0893  2.1152 -0.1813
 4835SOL    HW225968   3.667   0.547  11.802  1.9911 -0.6529 -0.7575
 4836SOL     OW25969   3.002   1.054  14.459  0.0621 -0.0206  0.4174
 4836SOL    HW125970   2.913   1.025  14.477  0.4594 -1.2042  0.4561
 4836SOL    HW225971   3.044   1.006  14.529 -0.8060 -1.7935 -0.2803
 4837SOL     OW25972   4.524   4.422   7.319 -0.3156  0.3817 -0.0674
 4837SOL    HW125973   4.466   4.497   7.302 -0.8319 -0.9991 -4.4835
 4837SOL    HW225974   4.603   4.452   7.274 -1.4999  1.6216 -1.3163
 4838SOL     OW25975   1.786   2.892  15.636 -0.0644 -0.3235 -0.2008
 4838SOL    HW125976   1.731   2.961  15.671  1.4641  1.9041 -2.2222
 4838SOL    HW225977   1.870   2.918  15.674 -0.8688 -1.9135  2.5969
 4839SOL     OW25978   2.248   1.106   7.034 -0.1421  0.1451 -0.0516
 4839SOL    HW125979   2.185   1.144   7.097 -0.0018 -0.9586  0.7564
 4839SOL    HW225980   2.304   1.049   7.087  1.4552  0.8434 -1.0013
 4840SOL     OW25981   2.460   2.599   5.191 -0.5365 -0.2935 -0.8290
 4840SOL    HW125982   2.543   2.565   5.226  0.0322  2.5010  0.5598
 4840SOL    HW225983   2.491   2.638   5.110 -1.2668  0.3155 -0.8146
 4841SOL     OW25984   3.270   2.988   2.036 -0.3063 -0.0282  0.0342
 4841SOL    HW125985   3.257   2.894   2.024 -1.0059 -0.1479  1.8013
 4841SOL    HW225986   3.360   2.985   2.069 -0.0955 -1.2475 -0.6605
 4842SOL     OW25987   1.145   2.405   8.594  0.0165  0.0483  0.0712
 4842SOL    HW125988   1.219   2.403   8.533  0.8465 -1.4272  1.1351
 4842SOL    HW225989   1.067   2.422   8.541 -1.0189 -1.3212  1.1480
 4843SOL     OW25990   0.406   3.033  16.098 -0.4138 -0.0441 -0.1555
 4843SOL    HW125991   0.339   3.015  16.164  0.6448  0.7509  1.1281
 4843SOL    HW225992   0.355   3.054  16.020 -0.0696  0.6104 -0.2113
 4844SOL     OW25993   0.930   3.671   0.602  0.5031 -0.3208 -0.9573
 4844SOL    HW125994   1.009   3.625   0.628 -0.4239 -1.5327 -0.2641
 4844SOL    HW225995   0.907   3.630   0.519 -1.2282  0.4551 -0.8569
 4845SOL     OW25996   1.237   1.761   6.604 -0.1740  0.2368 -0.9181
 4845SOL    HW125997   1.160   1.704   6.609 -1.0160  1.4270 -0.2695
 4845SOL    HW225998   1.238   1.774   6.509 -0.7140 -2.2030 -1.2434
 4846SOL     OW25999   2.918   2.390   8.619  0.1754 -0.1978 -0.3611
 4846SOL    HW126000   2.869   2.309   8.631 -0.6465  0.7000  2.4257
 4846SOL    HW226001   2.868   2.438   8.685 -0.6079 -0.7709 -0.5381
 4847SOL     OW26002   1.224   1.823  11.592 -0.1178  0.0932  0.2980
 4847SOL    HW126003   1.133   1.832  11.621 -0.1686 -0.9565  0.4360
 4847SOL    HW226004   1.215   1.800  11.500  0.6429  0.8626  0.0281
 4848SOL     OW26005   0.902   3.829   7.930  0.1816 -0.0960  0.6602
 4848SOL    HW126006   0.862   3.761   7.983  1.2681 -0.9392  0.3882
 4848SOL    HW226007   0.835   3.897   7.919  0.7774  0.1498 -1.5990
 4849SOL     OW26008   2.379   0.432  15.567 -0.5060  0.1171 -0.4977
 4849SOL    HW126009   2.309   0.478  15.613 -0.4006  1.0713 -1.2881
 4849SOL    HW226010   2.361   0.449  15.475 -0.3836  1.0587 -0.3533
 4850SOL     OW26011   2.471   0.627   4.811 -0.1965  0.2732 -0.0975
 4850SOL    HW126012   2.563   0.604   4.792 -0.7813 -0.7086 -1.7796
 4850SOL    HW226013   2.427   0.543   4.825  2.0005 -0.8932 -0.0775
 4851SOL     OW26014   2.481   4.257   0.187  0.4640  0.2438 -0.4112
 4851SOL    HW126015   2.474   4.183   0.248 -0.8614 -1.0686 -2.1519
 4851SOL    HW226016   2.416   4.311   0.232 -2.6736 -3.3837 -0.5160
 4852SOL     OW26017   1.801   0.677   0.578 -0.4600 -0.0848 -0.1673
 4852SOL    HW126018   1.888   0.638   0.579  0.3112  1.7349  3.7830
 4852SOL    HW226019   1.761   0.676   0.665  0.6109  0.3122  0.3343
 4853SOL     OW26020   4.511   0.001   2.522 -0.1523 -0.3508  0.1278
 4853SOL    HW126021   4.489   0.018   2.614 -2.2774 -2.1491 -0.0513
 4853SOL    HW226022   4.431   4.674   2.495  0.4659 -0.7734 -0.9699
 4854SOL     OW26023   2.619   3.480   7.158 -0.7841  0.2880 -0.2846
 4854SOL    HW126024   2.669   3.506   7.081 -0.2113  0.7127  0.2349
 4854SOL    HW226025   2.562   3.554   7.178  0.4146  1.9274 -3.0284
 4855SOL     OW26026   1.173   2.781   4.101  0.4121 -0.0205  0.0352
 4855SOL    HW126027   1.233   2.825   4.041  0.2207  0.2259  0.0274
 4855SOL    HW226028   1.178   2.827   4.185  0.5202  0.4879 -0.2485
 4856SOL     OW26029   2.388   1.598  15.625 -0.8321 -0.1896 -0.0243
 4856SOL    HW126030   2.469   1.547  15.625 -0.6420  0.1112  0.6436
 4856SOL    HW226031   2.323   1.528  15.619 -1.1570  0.1887 -0.9157
 4857SOL     OW26032   0.546   2.143  10.627 -0.4216  0.5338 -0.2845
 4857SOL    HW126033   0.607   2.070  10.640 -2.0024 -0.7549 -0.1454
 4857SOL    HW226034   0.467   2.090  10.619 -1.4004  2.2886 -2.4174
 4858SOL     OW26035   2.445   4.226   8.821 -0.0185 -0.3648  0.3350
 4858SOL    HW126036   2.429   4.296   8.885 -0.4633  0.0995 -0.2835
 4858SOL    HW226037   2.488   4.279   8.754 -0.4077 -0.9830 -0.4075
 4859SOL     OW26038   4.264   3.155   3.254 -0.4387  0.5570 -0.2665
 4859SOL    HW126039   4.176   3.124   3.235 -0.6897 -0.1378  2.0576
 4859SOL    HW226040   4.304   3.177   3.170 -0.5639 -2.6864 -1.1891
 4860SOL     OW26041   4.285   4.421   4.329  0.2508 -1.0819  0.6393
 4860SOL    HW126042   4.295   4.515   4.340  2.6908 -1.2843  0.1356
 4860SOL    HW226043   4.303   4.405   4.236 -0.8215  0.9734  0.0896
 4861SOL     OW26044   0.344   0.516   8.695  0.2068 -0.3832 -0.0973
 4861SOL    HW126045   0.371   0.517   8.787  0.5309 -0.8762 -0.1930
 4861SOL    HW226046   0.251   0.539   8.699 -0.4171 -2.9851  0.3587
 4862SOL     OW26047   0.045   1.025   5.586  0.2742  0.5954 -0.2779
 4862SOL    HW126048   4.675   1.041   5.619  0.5417  0.4155  0.5421
 4862SOL    HW226049   0.086   1.087   5.645  1.5861  0.3725 -0.9723
 4863SOL     OW26050   3.386   3.752  16.086 -0.2635  0.1547 -0.4998
 4863SOL    HW126051   3.473   3.775  16.055 -1.1689  0.1656 -3.0576
 4863SOL    HW226052   3.401   3.745  16.180 -0.5081  1.7245 -0.3309
 4864SOL     OW26053   0.700   0.508   1.035  0.1773 -0.1530 -0.2653
 4864SOL    HW126054   0.769   0.570   1.061  0.7351 -1.1376  0.6009
 4864SOL    HW226055   0.753   0.429   1.046  0.3442 -0.1559 -1.0614
 4865SOL     OW26056   3.768   0.258  10.984 -0.3469  0.1139 -0.0605
 4865SOL    HW126057   3.860   0.250  10.960 -0.6322 -0.8088 -0.8232
 4865SOL    HW226058   3.723   0.220  10.909  0.3775 -0.9566  0.0569
 4866SOL     OW26059   4.376   3.526   1.689 -0.8193 -0.3128  0.3115
 4866SOL    HW126060   4.305   3.487   1.638 -1.3617  0.3757  0.5360
 4866SOL    HW226061   4.346   3.615   1.704 -2.3912 -0.8990  0.6224
 4867SOL     OW26062   4.605   0.393   0.886  0.1143 -0.4509 -0.1913
 4867SOL    HW126063   4.572   0.361   0.802 -1.4356 -1.7083  0.8989
 4867SOL    HW226064   4.624   0.483   0.860 -0.2969  0.2001  1.7101
 4868SOL     OW26065   4.556   4.280   3.070  0.8701  0.5339  0.7783
 4868SOL    HW126066   4.491   4.235   3.124  0.1138  0.1234 -0.4723
 4868SOL    HW226067   4.638   4.246   3.106 -1.2697 -3.5142  1.7433
 4869SOL     OW26068   3.158   1.031   2.842  0.0322  0.4031  0.0573
 4869SOL    HW126069   3.250   1.042   2.816  0.6342 -2.3985  1.0167
 4869SOL    HW226070   3.123   1.065   2.760  0.1057 -3.6331 -1.6605
 4870SOL     OW26071   1.196   2.751  11.106  0.3232 -0.1659  0.1339
 4870SOL    HW126072   1.206   2.831  11.055  3.1071 -0.0390  0.8718
 4870SOL    HW226073   1.149   2.698  11.042 -1.3408  0.1116  1.1191
 4871SOL     OW26074   1.192   1.243   9.296 -0.2174 -0.0034  0.2468
 4871SOL    HW126075   1.256   1.274   9.232 -0.7535  0.1965 -0.1912
 4871SOL    HW226076   1.248   1.228   9.372  0.5263  0.4361 -0.2177
 4872SOL     OW26077   4.076   0.520  16.989 -0.5826  0.1535  0.2856
 4872SOL    HW126078   4.081   0.600  17.043 -0.4821 -1.8896  3.3077
 4872SOL    HW226079   3.993   0.534  16.944 -0.8013  1.2765  1.0121
 4873SOL     OW26080   0.085   3.982   3.563 -0.1944 -0.4478 -0.0157
 4873SOL    HW126081   0.122   4.032   3.635  0.7018 -0.3360 -0.5630
 4873SOL    HW226082   0.150   3.914   3.573 -0.5329 -0.4618  2.0643
 4874SOL     OW26083   2.402   0.281  10.186  0.4699  0.3083 -0.0974
 4874SOL    HW126084   2.370   0.254  10.272  2.2351  3.4307  1.5159
 4874SOL    HW226085   2.323   0.302  10.137  0.9826  3.2100  0.3609
 4875SOL     OW26086   2.648   3.626   5.173  0.4087 -0.1430 -0.2007
 4875SOL    HW126087   2.662   3.620   5.268 -1.6774 -1.4310  0.0235
 4875SOL    HW226088   2.593   3.548   5.165  2.4491 -1.6332  0.3092
 4876SOL     OW26089   3.295   0.409   0.513 -0.2520  0.7917 -0.2207
 4876SOL    HW126090   3.226   0.345   0.498  1.1543 -0.8788  0.3468
 4876SOL    HW226091   3.352   0.352   0.565  0.1356  1.1137 -0.2979
 4877SOL     OW26092   4.653   1.023   1.664 -0.5978  0.0131  0.0434
 4877SOL    HW126093   4.675   0.930   1.661  1.4978  0.5245 -0.8068
 4877SOL    HW226094   4.560   1.033   1.644 -0.5147  3.0514  1.1771
 4878SOL     OW26095   3.365   3.460   3.154  0.1264  0.2719 -0.0325
 4878SOL    HW126096   3.322   3.383   3.192  0.1090  0.3458  0.0991
 4878SOL    HW226097   3.300   3.486   3.089 -0.5372 -1.1201  0.0621
 4879SOL     OW26098   2.043   3.356   2.217 -0.4536 -0.0144  0.2295
 4879SOL    HW126099   1.992   3.291   2.170 -1.4488  0.4202  0.7139
 4879SOL    HW226100   1.973   3.411   2.252 -1.3285 -0.0670 -1.4809
 4880SOL     OW26101   0.006   4.340  15.412  0.1002 -0.9447  0.2503
 4880SOL    HW126102   0.067   4.303  15.349  0.2160 -0.2956 -0.0152
 4880SOL    HW226103   4.645   4.316  15.366  0.8454 -1.1557 -0.9189
 4881SOL     OW26104   1.227   1.570   3.520 -0.1161 -0.3320  0.3284
 4881SOL    HW126105   1.223   1.541   3.612  0.6030 -1.1374  0.1084
 4881SOL    HW226106   1.225   1.482   3.481 -0.4336 -0.0238 -0.3380
 4882SOL     OW26107   2.097   0.065   5.184 -0.2355  0.6593  0.1482
 4882SOL    HW126108   2.080   4.690   5.183 -1.7610  0.9003  2.6772
 4882SOL    HW226109   2.070   0.100   5.099  1.9082  0.9444 -0.4240
 4883SOL     OW26110   3.004   0.386   3.876 -0.3898 -0.6211  0.2313
 4883SOL    HW126111   2.996   0.402   3.782  4.0240  0.2259 -0.0210
 4883SOL    HW226112   3.084   0.335   3.885 -1.2260 -2.0473 -0.4395
 4884SOL     OW26113   3.267   2.657   6.628  0.4232  0.7966  0.2616
 4884SOL    HW126114   3.312   2.577   6.655 -0.8543 -0.6442 -1.8767
 4884SOL    HW226115   3.321   2.696   6.559  3.2184 -0.8345  1.5539
 4885SOL     OW26116   0.244   4.418  15.557 -0.5599 -0.6648  0.1095
 4885SOL    HW126117   0.170   4.359  15.541  1.9913 -2.9218 -3.3883
 4885SOL    HW226118   0.311   4.400  15.491 -0.2921  0.3286  0.1166
 4886SOL     OW26119   4.069   2.811   3.159 -0.2361 -0.0190  0.0915
 4886SOL    HW126120   4.009   2.755   3.207 -0.3816 -1.2611 -1.5180
 4886SOL    HW226121   4.016   2.890   3.146  0.5861  1.1480  3.9847
 4887SOL     OW26122   3.287   4.680   0.686 -0.4782 -0.0982 -0.5047
 4887SOL    HW126123   3.210   4.625   0.674 -1.2916  1.1619 -1.1300
 4887SOL    HW226124   3.297   4.678   0.781  1.4796 -2.3677 -0.7732
 4888SOL     OW26125   1.167   2.616   4.575 -0.4330  0.2160  0.0159
 4888SOL    HW126126   1.194   2.534   4.617  0.1457 -0.1147 -0.9987
 4888SOL    HW226127   1.126   2.587   4.494 -0.2981 -1.8394  0.6758
 4889SOL     OW26128   3.736   0.358  16.316 -0.4554 -0.9931  0.0361
 4889SOL    HW126129   3.653   0.353  16.269 -0.5690 -0.0616  0.1269
 4889SOL    HW226130   3.793   0.302  16.263  0.6519 -0.2357  0.4187
 4890SOL     OW26131   4.267   0.367  16.874  0.0529 -0.1261 -0.5524
 4890SOL    HW126132   4.310   0.313  16.940  0.6283 -1.5279 -2.0963
 4890SOL    HW226133   4.192   0.400  16.925  0.2571 -0.8214  0.2006
 4891SOL     OW26134   1.873   2.034   6.156 -0.0548 -0.1072 -0.7484
 4891SOL    HW126135   1.881   1.980   6.078  0.2619 -1.7121  0.3780
 4891SOL    HW226136   1.791   2.077   6.136  0.4260  0.3986 -1.6052
 4892SOL     OW26137   2.219   1.290   8.920 -0.3841 -0.6340 -0.1237
 4892SOL    HW126138   2.175   1.309   9.003 -1.7684 -2.6571 -0.3671
 4892SOL    HW226139   2.286   1.227   8.945  0.3435 -0.7272 -2.3247
 4893SOL     OW26140   0.716   0.016   9.160  0.6594  0.0333  0.1157
 4893SOL    HW126141   0.782   0.069   9.204  0.1370  1.2716 -0.5854
 4893SOL    HW226142   0.714   4.656   9.214  0.5684 -0.3447 -0.4423
 4894SOL     OW26143   2.189   2.512   2.740 -0.0432 -0.1099 -0.1883
 4894SOL    HW126144   2.261   2.509   2.677  0.4478  0.7948  0.3333
 4894SOL    HW226145   2.228   2.544   2.822 -1.6582 -1.0661  0.9676
 4895SOL     OW26146   0.122   4.257   2.722 -0.6985 -0.0342 -0.0962
 4895SOL    HW126147   0.083   4.315   2.657  0.9141  0.1967 -0.8603
 4895SOL    HW226148   0.149   4.315   2.792 -1.1247 -1.3326  1.1494
 4896SOL     OW26149   0.621   3.084  10.522  0.2097  0.1821  0.3228
 4896SOL    HW126150   0.654   3.018  10.461  0.9740  1.4529 -0.6470
 4896SOL    HW226151   0.603   3.037  10.603  1.5616  1.2820  1.2715
 4897SOL     OW26152   3.050   4.099   8.186  0.5331  0.0767  0.7679
 4897SOL    HW126153   3.067   4.186   8.221 -0.4517  1.9346 -3.3326
 4897SOL    HW226154   2.965   4.090   8.229  1.2857 -0.1099  2.2231
 4898SOL     OW26155   1.311   0.011   2.513  0.8874 -0.0598  0.2369
 4898SOL    HW126156   1.407   0.010   2.506  0.8326 -0.8162 -0.3991
 4898SOL    HW226157   1.285   0.063   2.436 -2.2762  0.3403  1.5804
 4899SOL     OW26158   3.074   1.083   3.734 -0.4099 -0.0592  0.2922
 4899SOL    HW126159   3.076   0.990   3.711 -1.9738  0.1908 -0.8510
 4899SOL    HW226160   3.067   1.071   3.828  0.7034 -1.0094  0.2486
 4900SOL     OW26161   0.472   4.347   5.447 -0.3359 -1.0264 -0.3273
 4900SOL    HW126162   0.508   4.334   5.359 -0.1906  1.1602 -0.5850
 4900SOL    HW226163   0.533   4.415   5.475 -1.0250 -1.1536  1.5305
 4901SOL     OW26164   1.765   3.630   6.034  0.3364  0.3717 -0.0672
 4901SOL    HW126165   1.670   3.635   6.025  0.7136  1.6087 -3.2718
 4901SOL    HW226166   1.775   3.566   6.105 -1.2646 -0.1407 -0.3217
 4902SOL     OW26167   1.611   1.277   5.165 -0.0645  0.2541  0.6813
 4902SOL    HW126168   1.557   1.307   5.238  1.0828 -0.1968  1.7199
 4902SOL    HW226169   1.698   1.293   5.202 -1.1650  0.1798  3.3485
 4903SOL     OW26170   2.410   1.957   7.718 -0.1078  0.4001 -1.0300
 4903SOL    HW126171   2.348   1.930   7.786 -0.3764  1.4177 -0.8707
 4903SOL    HW226172   2.374   2.042   7.692 -2.8660 -0.1323  1.0026
 4904SOL     OW26173   0.451   3.981   8.725  0.4245 -0.0090 -0.0464
 4904SOL    HW126174   0.408   4.015   8.803 -0.5606 -0.1912 -0.5146
 4904SOL    HW226175   0.528   3.933   8.756 -0.0405 -0.0087  1.0952
 4905SOL     OW26176   1.695   0.351  15.820  0.4141 -0.3219 -0.2901
 4905SOL    HW126177   1.676   0.334  15.913  0.6085 -1.3407 -0.4330
 4905SOL    HW226178   1.618   0.393  15.783  0.1829  0.3616  0.9780
 4906SOL     OW26179   1.854   3.061  13.540 -0.4267  0.2728 -0.0231
 4906SOL    HW126180   1.805   3.142  13.529  2.2869  2.2844  2.7387
 4906SOL    HW226181   1.815   3.029  13.622  1.5517  0.3767  0.9556
 4907SOL     OW26182   3.092   0.728  11.307  0.2922  0.4759  0.2660
 4907SOL    HW126183   3.072   0.732  11.401  0.0757  2.3573  0.1368
 4907SOL    HW226184   3.184   0.752  11.310  1.2617 -3.2317 -0.3118
 4908SOL     OW26185   0.391   0.107   7.379 -0.3813 -0.3361  0.9528
 4908SOL    HW126186   0.470   0.140   7.420 -0.3470  0.8165 -0.0484
 4908SOL    HW226187   0.382   0.162   7.302  1.3528 -1.8758 -0.3638
 4909SOL     OW26188   2.759   1.946   3.209 -0.1549  0.3613  0.3074
 4909SOL    HW126189   2.681   1.997   3.186 -0.4821 -2.0230 -3.9084
 4909SOL    HW226190   2.809   2.009   3.261 -0.0788 -0.6326  1.4407
 4910SOL     OW26191   3.261   3.408   1.266 -0.5358  0.2177 -0.5554
 4910SOL    HW126192   3.248   3.481   1.327  0.5304  0.3498 -0.4855
 4910SOL    HW226193   3.185   3.350   1.263 -0.3054 -0.0902 -0.4498
 4911SOL     OW26194   0.618   1.930  12.152  0.7507  0.0530 -0.2717
 4911SOL    HW126195   0.590   2.021  12.156 -1.0023 -0.4426 -1.0607
 4911SOL    HW226196   0.557   1.883  12.209  2.5268 -2.0371 -0.0750
 4912SOL     OW26197   2.371   3.951   4.909 -0.1146 -0.6037  0.0844
 4912SOL    HW126198   2.386   4.040   4.877  3.3271 -2.2722 -2.9731
 4912SOL    HW226199   2.276   3.953   4.898  0.1106  0.2100 -1.6872
 4913SOL     OW26200   4.275   2.057  15.293 -0.0258 -0.2570 -0.2842
 4913SOL    HW126201   4.244   2.129  15.238  1.9747  0.9999  0.2215
 4913SOL    HW226202   4.226   1.981  15.262  0.0534 -0.8261  0.9957
 4914SOL     OW26203   0.505   3.667   8.426 -0.1520 -0.7887  0.5164
 4914SOL    HW126204   0.435   3.728   8.450  0.1552 -0.6390  1.0346
 4914SOL    HW226205   0.569   3.725   8.385 -0.2204 -2.2411 -1.6067
 4915SOL     OW26206   1.874   0.004  13.980 -0.5271 -0.5408 -0.4742
 4915SOL    HW126207   1.834   4.696  13.897 -0.1482 -0.9514 -0.5168
 4915SOL    HW226208   1.838   4.659  14.040  2.2915  0.7901  2.6196
 4916SOL     OW26209   0.195   1.497   2.602  0.3707 -0.2660  0.0013
 4916SOL    HW126210   0.193   1.489   2.507  0.5549 -0.3882  0.0084
 4916SOL    HW226211   0.112   1.544   2.607  0.0762 -0.9646  1.7317
 4917SOL     OW26212   2.062   1.709   5.809  0.1690  0.4074  1.0176
 4917SOL    HW126213   2.093   1.698   5.719 -0.8571 -2.4805  1.0084
 4917SOL    HW226214   2.035   1.619   5.827  0.8953 -0.2165 -1.0839
 4918SOL     OW26215   1.446   3.366   9.521  0.3247 -0.5322 -0.0951
 4918SOL    HW126216   1.434   3.424   9.596  0.8296 -1.3960  0.6480
 4918SOL    HW226217   1.472   3.435   9.459 -1.4863  0.6587  0.4661
 4919SOL     OW26218   2.420   3.960  12.099  0.3374  0.3029  0.3368
 4919SOL    HW126219   2.342   4.007  12.068  1.9801  1.9031 -1.3521
 4919SOL    HW226220   2.493   4.020  12.085  1.1102 -0.6793  0.1464
 4920SOL     OW26221   3.167   2.359   2.856 -0.2412 -0.0615  0.0822
 4920SOL    HW126222   3.166   2.392   2.766  0.2822  1.5413  0.6711
 4920SOL    HW226223   3.119   2.276   2.845 -2.3738  1.3225 -0.9664
 4921SOL     OW26224   1.857   2.020  13.096 -0.3607  0.2593 -0.0129
 4921SOL    HW126225   1.897   1.976  13.020 -1.0584 -0.0197 -0.2206
 4921SOL    HW226226   1.884   1.953  13.159 -2.8400 -0.8834 -0.1643
 4922SOL     OW26227   1.580   2.098  10.005  0.3538 -0.0572 -0.3179
 4922SOL    HW126228   1.622   2.076  10.088 -1.1278 -0.6976  0.2696
 4922SOL    HW226229   1.557   2.012   9.971  0.9693  0.2079 -1.4024
 4923SOL     OW26230   1.289   3.872   1.856 -0.2906 -0.2001 -0.0817
 4923SOL    HW126231   1.217   3.877   1.793  0.3029  1.1481 -0.6518
 4923SOL    HW226232   1.290   3.781   1.887 -0.7776 -0.1507  0.0723
 4924SOL     OW26233   3.563   3.868   3.623  0.1483  0.1628  0.2268
 4924SOL    HW126234   3.624   3.900   3.690 -0.6870 -2.2471  2.1069
 4924SOL    HW226235   3.476   3.877   3.660 -0.1241  0.4411 -0.4832
 4925SOL     OW26236   0.540   2.827  16.589 -0.0198 -0.6713  0.9534
 4925SOL    HW126237   0.493   2.746  16.607 -2.7446  0.2229 -2.2770
 4925SOL    HW226238   0.569   2.857  16.675 -1.1002  0.0247  1.0701
 4926SOL     OW26239   4.400   0.222   5.251  0.0919  0.4041  0.1617
 4926SOL    HW126240   4.472   0.186   5.303 -0.3045  2.0834  1.8799
 4926SOL    HW226241   4.376   0.142   5.203 -2.7115  0.8212  0.8437
 4927SOL     OW26242   0.365   4.078   8.959  0.1084  0.0560  0.4742
 4927SOL    HW126243   0.355   4.167   8.993 -1.5802 -0.1754  0.5888
 4927SOL    HW226244   0.286   4.032   8.988 -0.2271  1.4302  1.6900
 4928SOL     OW26245   1.351   2.673   5.996 -0.2238  0.4263  0.3077
 4928SOL    HW126246   1.296   2.751   5.995  1.0978  1.3551  0.9448
 4928SOL    HW226247   1.310   2.620   5.927  0.2880  1.0814 -0.4962
 4929SOL     OW26248   2.191   4.611   8.906  0.0260 -0.1375  0.0928
 4929SOL    HW126249   2.226   4.686   8.953 -1.7500 -0.1887  1.4968
 4929SOL    HW226250   2.238   4.533   8.937 -2.4593 -1.0764  1.4617
 4930SOL     OW26251   3.697   4.313  17.596 -0.1786  0.0827 -0.3963
 4930SOL    HW126252   3.634   4.277  17.658  1.4861 -1.0981  0.6028
 4930SOL    HW226253   3.732   4.382  17.652 -1.5048  0.2574  0.2034
 4931SOL     OW26254   2.812   0.570  13.865 -0.3863  0.1320  0.2595
 4931SOL    HW126255   2.846   0.609  13.946  3.0260  0.6356 -1.4200
 4931SOL    HW226256   2.847   0.636  13.805  2.6763 -0.3845  1.4998
 4932SOL     OW26257   3.225   4.640   6.598 -0.0567 -0.2910 -0.4521
 4932SOL    HW126258   3.270   4.698   6.536 -0.3319 -0.8278 -1.1457
 4932SOL    HW226259   3.245   4.663   6.689  1.1599 -0.1638 -0.7410
 4933SOL     OW26260   1.732   3.851   5.456  0.3177 -0.5870 -0.1591
 4933SOL    HW126261   1.801   3.787   5.471  0.8387 -0.3656 -1.5884
 4933SOL    HW226262   1.730   3.879   5.547 -1.5704 -1.8372  0.2001
 4934SOL     OW26263   1.624   2.382  17.435 -0.3344  0.3993 -0.0060
 4934SOL    HW126264   1.672   2.339  17.506 -0.6788 -0.5177 -0.3260
 4934SOL    HW226265   1.535   2.374  17.470  0.2694  1.0711  1.7106
 4935SOL     OW26266   1.419   2.139   7.440  0.2108 -0.4374 -0.4615
 4935SOL    HW126267   1.341   2.177   7.399  0.2000 -2.3030 -2.1715
 4935SOL    HW226268   1.432   2.065   7.381  1.9752 -1.9584  1.8568
 4936SOL     OW26269   0.031   1.359   7.803 -0.3314 -0.0134  0.6922
 4936SOL    HW126270   0.125   1.356   7.821 -0.0071 -0.1775 -1.0394
 4936SOL    HW226271   4.715   1.405   7.879  1.8187 -1.8009  2.8092
 4937SOL     OW26272   0.262   2.539   2.748  0.2998 -0.9670  0.1998
 4937SOL    HW126273   0.230   2.629   2.746 -0.0779 -1.0846  0.8934
 4937SOL    HW226274   0.336   2.555   2.808 -0.0825  0.0170  0.3943
 4938SOL     OW26275   1.887   0.215   9.305 -0.3235 -0.5939 -0.5780
 4938SOL    HW126276   1.862   0.301   9.338  2.2905  0.8849 -2.4320
 4938SOL    HW226277   1.947   0.239   9.234  0.2744  0.0004  0.1397
 4939SOL     OW26278   0.677   1.967   5.688 -0.4907 -0.0119 -0.2079
 4939SOL    HW126279   0.642   2.051   5.719  0.7523  0.1010  0.8568
 4939SOL    HW226280   0.664   1.976   5.593 -1.2934  2.3827  0.1335
 4940SOL     OW26281   3.290   2.436   0.515 -0.4199 -0.0963 -0.0710
 4940SOL    HW126282   3.385   2.426   0.519 -0.6458 -2.4600 -0.9279
 4940SOL    HW226283   3.293   2.531   0.501  1.3834  0.1809  2.0553
 4941SOL     OW26284   2.405   1.298   7.445 -0.1265  0.6448 -0.1853
 4941SOL    HW126285   2.451   1.272   7.525 -2.6612  0.7981  1.3111
 4941SOL    HW226286   2.482   1.338   7.403  0.1486  0.9089  0.5772
 4942SOL     OW26287   1.682   0.642   6.179 -0.8617 -0.2501 -0.0381
 4942SOL    HW126288   1.765   0.676   6.213  0.1249 -2.1028 -0.5626
 4942SOL    HW226289   1.719   0.582   6.115 -2.8073  0.2186 -1.5837
 4943SOL     OW26290   3.154   1.588   1.640 -0.1734  0.2730 -0.7014
 4943SOL    HW126291   3.102   1.518   1.679 -0.0542 -0.1467 -1.2956
 4943SOL    HW226292   3.112   1.665   1.679  2.2372  0.6867  1.1204
 4944SOL     OW26293   3.999   2.177  17.215 -0.2092 -0.1422  0.9212
 4944SOL    HW126294   3.950   2.239  17.160  0.2581  1.0175  1.8048
 4944SOL    HW226295   4.069   2.221  17.264  1.5268  0.9700 -2.6059
 4945SOL     OW26296   1.552   1.274   3.268 -0.3124 -0.4652  0.5180
 4945SOL    HW126297   1.599   1.352   3.298  1.4175 -0.9089 -1.1046
 4945SOL    HW226298   1.575   1.278   3.175  1.1873  0.3431  0.9249
 4946SOL     OW26299   2.047   2.764  11.843 -0.0023 -0.7015 -0.0236
 4946SOL    HW126300   2.113   2.695  11.848  1.1842  0.2920 -2.0731
 4946SOL    HW226301   1.988   2.743  11.771 -1.4379  0.4194  0.8117
 4947SOL     OW26302   2.737   2.188   7.140  0.0318  0.0027  0.5873
 4947SOL    HW126303   2.700   2.135   7.210  0.1005  2.4574  2.4529
 4947SOL    HW226304   2.769   2.118   7.084  2.0083  0.2354  1.4440
 4948SOL     OW26305   3.295   1.651   3.459 -0.9892  0.0751 -0.0069
 4948SOL    HW126306   3.360   1.622   3.522  0.4616 -0.0017 -1.5554
 4948SOL    HW226307   3.345   1.703   3.396 -1.8220 -1.2205 -1.7262
 4949SOL     OW26308   3.187   3.710   8.095  0.2675 -0.4015 -0.1659
 4949SOL    HW126309   3.268   3.689   8.050 -0.0492  2.2746 -1.9742
 4949SOL    HW226310   3.145   3.785   8.052 -1.9283 -1.2794  0.4290
 4950SOL     OW26311   0.328   3.572   3.312 -0.0277  0.1076 -0.2488
 4950SOL    HW126312   0.331   3.667   3.301  1.2788  0.0285 -0.6482
 4950SOL    HW226313   0.300   3.537   3.227 -1.3931  0.9665 -0.1386
 4951SOL     OW26314   4.436   1.506   5.107  0.2280  0.4897  0.1838
 4951SOL    HW126315   4.493   1.571   5.147 -2.5909  1.9740  1.8227
 4951SOL    HW226316   4.502   1.440   5.085 -1.2052 -0.9712  0.2419
 4952SOL     OW26317   1.260   2.191  16.366 -0.3923 -0.2593 -0.0091
 4952SOL    HW126318   1.194   2.259  16.356  1.2547  1.3715  0.3002
 4952SOL    HW226319   1.334   2.230  16.414  0.1560  1.0334 -1.9381
 4953SOL     OW26320   3.845   4.629  11.419 -0.2495  0.3391  0.1751
 4953SOL    HW126321   3.932   4.589  11.420  0.1607  1.2498  0.7667
 4953SOL    HW226322   3.849   4.676  11.336 -1.1145 -1.0879 -0.6707
 4954SOL     OW26323   3.272   0.113  12.305  0.4496 -0.4580 -0.1442
 4954SOL    HW126324   3.255   0.031  12.351 -1.1362  0.4186  0.8193
 4954SOL    HW226325   3.273   0.086  12.213  1.3042 -2.5925  0.4984
 4955SOL     OW26326   0.499   4.165   3.029  0.3982 -0.2968  0.1991
 4955SOL    HW126327   0.527   4.151   2.938  0.9883  0.9904  0.1860
 4955SOL    HW226328   0.572   4.218   3.059 -0.3992  1.8467 -1.6821
 4956SOL     OW26329   2.080   4.675   1.892  0.2673 -0.3228  0.4820
 4956SOL    HW126330   2.040   4.619   1.959  0.9840 -1.2946  0.0944
 4956SOL    HW226331   2.076   0.040   1.935 -2.5513 -0.8711  1.3218
 4957SOL     OW26332   0.725   4.001   7.697 -0.0178  0.4093 -0.2055
 4957SOL    HW126333   0.800   4.055   7.672  0.1947  0.0579 -0.3385
 4957SOL    HW226334   0.711   4.010   7.791  0.3570 -3.1379  0.1898
 4958SOL     OW26335   4.374   0.897   1.384 -0.5071 -0.2657 -0.9515
 4958SOL    HW126336   4.281   0.910   1.405  0.1505 -0.5066  2.1980
 4958SOL    HW226337   4.401   0.972   1.437  1.8648 -1.7369 -0.0522
 4959SOL     OW26338   1.886   2.641   5.433  0.2843  0.1588 -0.1477
 4959SOL    HW126339   1.945   2.570   5.458 -1.4847 -0.9486  0.9048
 4959SOL    HW226340   1.909   2.704   5.501  0.2995 -1.5440  1.4422
 4960SOL     OW26341   3.186   2.130   6.769  0.0378  0.6047  0.2897
 4960SOL    HW126342   3.223   2.186   6.837 -1.8358  2.3470 -0.1331
 4960SOL    HW226343   3.132   2.191   6.718  0.2268 -0.9984 -1.8315
 4961SOL     OW26344   3.803   4.243   0.260 -0.0722  0.3003  0.5298
 4961SOL    HW126345   3.786   4.268   0.351 -0.1120 -1.1508  0.9190
 4961SOL    HW226346   3.730   4.183   0.246  0.5263  0.0339 -1.3817
 4962SOL     OW26347   3.100   3.607  17.416  0.7533 -0.0726  0.0109
 4962SOL    HW126348   3.153   3.687  17.418 -1.5274  1.4183  1.2497
 4962SOL    HW226349   3.171   3.543  17.409 -0.2766 -1.2290  0.1832
 4963SOL     OW26350   2.654   2.634  16.136 -0.1689 -0.4307  0.1849
 4963SOL    HW126351   2.636   2.727  16.118  1.3408  0.2290  2.0487
 4963SOL    HW226352   2.598   2.622  16.213  0.7645  1.5411  1.1869
 4964SOL     OW26353   4.172   3.016  15.396 -0.2248  0.1972  0.2945
 4964SOL    HW126354   4.176   3.089  15.457 -1.3151  1.9462 -1.7119
 4964SOL    HW226355   4.235   2.965  15.447  1.8543  0.9986 -1.4568
 4965SOL     OW26356   2.041   2.796  12.741 -0.0391  0.0858 -0.5471
 4965SOL    HW126357   1.999   2.803  12.826  1.2413  1.8365 -0.0769
 4965SOL    HW226358   2.095   2.873  12.731 -0.0220 -0.1375 -2.2901
 4966SOL     OW26359   0.179   2.981   6.247  0.4390 -0.1140  0.0133
 4966SOL    HW126360   0.154   2.901   6.293 -1.1237  0.1156 -0.4259
 4966SOL    HW226361   0.256   3.011   6.295  1.4246 -1.3871 -0.7812
 4967SOL     OW26362   2.787   2.446  10.516 -0.5359 -0.3528 -0.0841
 4967SOL    HW126363   2.779   2.354  10.540  0.0010 -0.6774 -1.1406
 4967SOL    HW226364   2.704   2.460  10.471 -1.2006 -0.8228  0.9938
 4968SOL     OW26365   2.095   0.234  15.138 -0.2907 -0.3397 -0.1416
 4968SOL    HW126366   2.012   0.196  15.109 -0.6780  2.0925 -2.2797
 4968SOL    HW226367   2.104   0.183  15.218  0.1305  1.1394  0.7564
 4969SOL     OW26368   0.552   0.486   3.133 -0.0854  0.1273  0.4792
 4969SOL    HW126369   0.539   0.503   3.039  0.3501  0.0015  0.3950
 4969SOL    HW226370   0.629   0.541   3.144 -0.8494  1.2763  0.0771
 4970SOL     OW26371   1.386   2.703   3.399  0.0731  0.0318  0.5392
 4970SOL    HW126372   1.390   2.686   3.493  3.0868  0.3443  0.4614
 4970SOL    HW226373   1.433   2.787   3.395 -0.9910  0.6251  0.4828
 4971SOL     OW26374   3.293   0.927  14.924  0.4905  0.4066  0.7580
 4971SOL    HW126375   3.247   0.871  14.986 -3.4320  1.8406 -0.8428
 4971SOL    HW226376   3.381   0.890  14.931 -0.1390 -1.2805 -0.2374
 4972SOL     OW26377   1.926   2.195   4.672  0.6938 -0.0448  0.6408
 4972SOL    HW126378   1.877   2.272   4.642  0.5014 -0.2319  0.4719
 4972SOL    HW226379   1.855   2.147   4.715  0.5557  1.2126  1.8309
 4973SOL     OW26380   4.478   2.407   7.271  0.1181  0.0336  0.0404
 4973SOL    HW126381   4.402   2.464   7.258  0.2861  0.5096  1.1594
 4973SOL    HW226382   4.450   2.327   7.226 -0.1155  0.7736 -1.1097
 4974SOL     OW26383   2.338   2.288   3.973 -0.2140 -0.0289 -0.2888
 4974SOL    HW126384   2.389   2.219   4.015  0.1618  0.9418  0.8485
 4974SOL    HW226385   2.301   2.235   3.902 -1.0336 -0.8443  0.7479
 4975SOL     OW26386   1.978   0.626   2.815 -0.1107  0.0851  0.1367
 4975SOL    HW126387   1.938   0.560   2.758 -1.9235  0.8513  0.5180
 4975SOL    HW226388   1.914   0.696   2.827 -0.0288  0.5127 -1.9254
 4976SOL     OW26389   4.073   1.055  10.530  1.1417  0.5297  0.3402
 4976SOL    HW126390   4.016   0.979  10.543  0.5127  0.5794 -2.1443
 4976SOL    HW226391   4.006   1.123  10.541  1.8992  0.7177  3.5526
 4977SOL     OW26392   3.179   4.430   6.361  0.0396 -0.3646  0.0187
 4977SOL    HW126393   3.149   4.406   6.449 -0.7014  1.9977  0.4052
 4977SOL    HW226394   3.217   4.515   6.384 -0.2382  0.1969 -1.5705
 4978SOL     OW26395   1.566   2.019  15.223  0.1625  0.3931  0.1933
 4978SOL    HW126396   1.478   2.042  15.194 -0.7766 -0.8401  2.0078
 4978SOL    HW226397   1.608   2.104  15.208 -1.1290  1.0589  0.3077
 4979SOL     OW26398   4.180   1.370   5.106  0.1710 -0.4266 -0.4606
 4979SOL    HW126399   4.265   1.410   5.086  0.1366  0.3229  0.9235
 4979SOL    HW226400   4.216   1.284   5.128  0.0574 -0.0139  1.3034
 4980SOL     OW26401   3.300   3.845   6.702  0.0241 -0.3927  0.2915
 4980SOL    HW126402   3.314   3.753   6.679 -1.4698 -1.3315  3.1497
 4980SOL    HW226403   3.246   3.831   6.780 -0.3756  2.7353  0.5630
 4981SOL     OW26404   3.366   1.556   5.675 -0.3051 -0.6363 -0.0363
 4981SOL    HW126405   3.279   1.514   5.677 -0.3494 -0.4896  1.5381
 4981SOL    HW226406   3.341   1.648   5.671 -0.4812 -0.6920 -0.1941
 4982SOL     OW26407   2.790   3.919   5.597 -0.3671  0.1474  0.8428
 4982SOL    HW126408   2.838   3.844   5.629 -0.0004  0.3403  0.7454
 4982SOL    HW226409   2.787   3.978   5.673  0.0762  3.2161 -1.5061
 4983SOL     OW26410   4.470   0.418   8.245 -0.3741  0.1442  0.3252
 4983SOL    HW126411   4.381   0.453   8.237 -0.4951  0.0283  1.1221
 4983SOL    HW226412   4.492   0.457   8.329  0.5991 -2.0937  1.1278
 4984SOL     OW26413   3.929   3.745   6.648 -0.2630  0.1026 -0.4147
 4984SOL    HW126414   3.947   3.651   6.649  2.2237  0.5567 -1.0694
 4984SOL    HW226415   3.834   3.749   6.645 -0.1337  1.4301 -2.5741
 4985SOL     OW26416   0.697   4.300   6.723  0.2795  0.1600 -0.4582
 4985SOL    HW126417   0.674   4.282   6.814  0.8775  1.4510 -0.0461
 4985SOL    HW226418   0.641   4.371   6.694 -1.9998 -2.0021 -1.3171
 4986SOL     OW26419   0.212   2.612   8.627  0.0570 -0.1307 -0.1595
 4986SOL    HW126420   0.286   2.554   8.645  0.4602  0.0754 -1.1401
 4986SOL    HW226421   0.201   2.594   8.534  0.8355 -0.9191 -0.1000
 4987SOL     OW26422   2.417   0.556  16.477  0.3013  0.4034  0.3847
 4987SOL    HW126423   2.364   0.554  16.558  1.7628 -0.9459  1.2950
 4987SOL    HW226424   2.439   0.649  16.470 -0.0525  0.3722 -1.1099
 4988SOL     OW26425   0.047   1.505   4.654 -0.5683 -0.3021 -0.2936
 4988SOL    HW126426   4.682   1.473   4.685 -1.9427  1.5042 -2.1946
 4988SOL    HW226427   0.089   1.522   4.738  1.9216 -1.9433 -1.1848
 4989SOL     OW26428   1.186   3.897   7.934 -0.2830 -0.3914 -0.8588
 4989SOL    HW126429   1.093   3.904   7.954  0.0034  0.2027  0.2411
 4989SOL    HW226430   1.214   3.858   8.017 -0.9370  0.5033 -0.2224
 4990SOL     OW26431   3.600   1.726   4.323 -0.1820  0.6675 -0.2191
 4990SOL    HW126432   3.595   1.726   4.228 -0.7129  1.1869 -0.1886
 4990SOL    HW226433   3.600   1.821   4.334 -0.4298  0.7142 -0.6419
 4991SOL     OW26434   1.681   0.182  14.148  0.2027 -0.0899  0.0671
 4991SOL    HW126435   1.723   0.117  14.092  0.1576  0.4998 -0.6500
 4991SOL    HW226436   1.708   0.145  14.232  0.4121 -0.2830 -0.0844
 4992SOL     OW26437   0.935   0.117   7.555 -0.1306 -0.2317  0.2197
 4992SOL    HW126438   0.887   0.063   7.493  2.2624 -0.7844 -1.1660
 4992SOL    HW226439   0.884   0.198   7.555  2.2763  1.2635 -1.4475
 4993SOL     OW26440   4.463   0.459   3.054  0.2462 -0.2173  0.1540
 4993SOL    HW126441   4.548   0.472   3.013  0.9283  2.0881  2.2600
 4993SOL    HW226442   4.404   0.480   2.982  0.1272 -2.4661 -0.3948
 4994SOL     OW26443   2.761   2.019   6.845 -0.2432  0.7588 -0.0120
 4994SOL    HW126444   2.669   1.991   6.849 -0.4669  1.4782 -0.1816
 4994SOL    HW226445   2.802   1.943   6.805  1.0569 -0.0941  2.9255
 4995SOL     OW26446   3.789   1.371   3.266 -0.3463 -0.2110  0.5686
 4995SOL    HW126447   3.751   1.288   3.237 -1.3681  0.4768 -0.0594
 4995SOL    HW226448   3.870   1.340   3.306  0.0062  2.3828  1.8626
 4996SOL     OW26449   1.238   3.472   0.973  0.1016  0.6085  0.2424
 4996SOL    HW126450   1.193   3.539   0.921 -0.2742 -0.9063 -1.3590
 4996SOL    HW226451   1.287   3.526   1.036  0.7411 -0.1298  0.3832
 4997SOL     OW26452   0.605   3.193  16.051  0.3203  0.2865 -0.5082
 4997SOL    HW126453   0.606   3.250  16.128  0.7780 -2.0393  1.2067
 4997SOL    HW226454   0.526   3.141  16.067 -0.9897  2.7954  1.2063
 4998SOL     OW26455   3.821   2.782   7.608 -0.5198  0.0211 -0.4407
 4998SOL    HW126456   3.887   2.713   7.618 -0.7662 -0.4286 -1.8573
 4998SOL    HW226457   3.850   2.843   7.676 -0.8883 -2.3988  1.8759
 4999SOL     OW26458   3.995   1.715   5.018  0.0766  0.0413 -0.1590
 4999SOL    HW126459   4.082   1.712   5.058  0.3456 -2.7530 -0.9776
 4999SOL    HW226460   4.008   1.762   4.935 -3.1569  1.1832  0.0075
 5000SOL     OW26461   1.996   0.942  15.144  0.3383 -0.1798 -0.2428
 5000SOL    HW126462   1.922   1.001  15.128 -1.2659 -2.1397 -0.0202
 5000SOL    HW226463   1.954   0.883  15.206 -2.9045  0.9868 -1.3163
 5001SOL     OW26464   2.914   4.002   2.856 -0.2623 -0.0570 -0.2995
 5001SOL    HW126465   2.850   3.995   2.927 -0.9295 -0.2199 -0.9217
 5001SOL    HW226466   2.962   4.079   2.888  2.3695 -0.9892 -2.0453
 5002SOL     OW26467   0.828   1.716   2.744  0.4675 -0.6596 -0.3681
 5002SOL    HW126468   0.762   1.650   2.725  0.4868 -1.1734  1.3634
 5002SOL    HW226469   0.897   1.664   2.785 -0.4445 -1.0450  0.6808
 5003SOL     OW26470   2.344   3.616  14.385 -0.3832 -0.3428  0.2568
 5003SOL    HW126471   2.320   3.560  14.458 -2.8673  2.2958  1.4858
 5003SOL    HW226472   2.403   3.552  14.346  0.1574 -0.6482  1.5774
 5004SOL     OW26473   2.785   3.926   4.684  0.1368  0.1455  0.5550
 5004SOL    HW126474   2.715   3.941   4.620  1.2730  0.5306 -0.5984
 5004SOL    HW226475   2.742   3.875   4.753  0.1905  0.1730  0.6087
 5005SOL     OW26476   3.900   3.179   7.939  0.3083  0.4390  0.4650
 5005SOL    HW126477   3.887   3.095   7.895 -0.5883  0.3108  0.9928
 5005SOL    HW226478   3.816   3.222   7.926  0.7167  0.7554 -1.1355
 5006SOL     OW26479   3.324   1.052   6.191 -0.0569  0.2894 -0.1608
 5006SOL    HW126480   3.264   0.983   6.163 -1.3132  0.8365  1.1939
 5006SOL    HW226481   3.267   1.125   6.168  1.0785  0.6856 -1.7539
 5007SOL     OW26482   2.391   0.815   2.151 -0.6100  0.3449  0.2917
 5007SOL    HW126483   2.457   0.751   2.179 -0.6098  0.1849 -0.0780
 5007SOL    HW226484   2.444   0.893   2.166 -0.9181  0.6545 -0.2315
 5008SOL     OW26485   0.488   2.458  14.781 -0.2176 -0.2635  0.2631
 5008SOL    HW126486   0.416   2.461  14.718 -1.8133 -1.2403  2.0261
 5008SOL    HW226487   0.456   2.397  14.848  0.9876 -0.3818  0.7176
 5009SOL     OW26488   3.720   3.082   3.687 -0.0371 -0.5452  0.7041
 5009SOL    HW126489   3.732   3.167   3.730  1.8371 -0.0889 -0.6860
 5009SOL    HW226490   3.671   3.102   3.607  1.7636  0.0417 -0.2539
 5010SOL     OW26491   4.578   1.673  15.924  0.4542  0.2870  0.2795
 5010SOL    HW126492   4.562   1.728  15.847 -0.8874  1.6287  1.4976
 5010SOL    HW226493   4.492   1.630  15.926  0.6596 -0.1048  0.6116
 5011SOL     OW26494   2.487   0.090   5.680 -0.0448  0.2716  0.1964
 5011SOL    HW126495   2.460   0.042   5.602 -1.2964 -0.2725  0.9716
 5011SOL    HW226496   2.406   0.130   5.710 -0.5813  0.4035 -1.3927
 5012SOL     OW26497   1.768   4.160  11.861 -0.8614  0.5838 -0.5157
 5012SOL    HW126498   1.780   4.253  11.840  0.1857  0.0557 -2.2480
 5012SOL    HW226499   1.856   4.126  11.872 -2.1782 -2.1322  1.3506
 5013SOL     OW26500   2.568   3.430  16.688  0.3521 -0.2007  0.0249
 5013SOL    HW126501   2.519   3.349  16.704 -0.5071 -0.0930 -2.0591
 5013SOL    HW226502   2.500   3.495  16.704 -0.6913 -1.2378 -0.2504
 5014SOL     OW26503   0.788   1.234   7.926  0.2350  0.5932  0.0021
 5014SOL    HW126504   0.720   1.287   7.969 -1.2115 -0.4951 -0.9535
 5014SOL    HW226505   0.853   1.238   7.996  1.0572 -0.2718 -0.7131
 5015SOL     OW26506   0.837   1.605   3.600  0.3183  0.6986 -0.1994
 5015SOL    HW126507   0.842   1.512   3.578  2.5525  1.0721 -1.2031
 5015SOL    HW226508   0.895   1.605   3.675 -0.3804 -0.3988  0.3343
 5016SOL     OW26509   0.852   0.298   1.052  0.1450  0.0582 -0.4135
 5016SOL    HW126510   0.880   0.249   1.130 -0.4318 -2.1674 -1.5895
 5016SOL    HW226511   0.912   0.269   0.984  2.0829  0.6227  1.0501
 5017SOL     OW26512   1.204   2.460   5.771 -0.0527 -0.0813 -0.2244
 5017SOL    HW126513   1.188   2.410   5.691  0.6001  0.6320 -0.7942
 5017SOL    HW226514   1.264   2.529   5.743 -1.4004  0.6206 -1.3998
 5018SOL     OW26515   1.507   2.163  16.888 -0.4657 -0.3703  0.1957
 5018SOL    HW126516   1.463   2.246  16.906 -1.5863 -0.6635 -1.1987
 5018SOL    HW226517   1.508   2.115  16.971 -1.1337  0.5880  0.7631
 5019SOL     OW26518   3.912   4.476   3.999 -0.7940 -0.1058 -0.0804
 5019SOL    HW126519   3.897   4.558   4.047 -0.1849  0.8119 -1.4657
 5019SOL    HW226520   3.832   4.428   4.022  0.2559 -1.4411  0.7735
 5020SOL     OW26521   2.141   0.782   6.454 -0.1730 -0.2106  0.5327
 5020SOL    HW126522   2.145   0.686   6.452 -2.9209 -0.3331  0.5966
 5020SOL    HW226523   2.078   0.789   6.382  0.2103  1.3999  0.3659
 5021SOL     OW26524   3.347   1.023  10.535  0.3631  0.3942 -0.0405
 5021SOL    HW126525   3.320   0.989  10.620  1.0405 -2.2649 -0.8867
 5021SOL    HW226526   3.337   0.944  10.482  2.7976 -0.1447  0.3133
 5022SOL     OW26527   0.275   2.506   7.296  0.0852  0.0484  0.2576
 5022SOL    HW126528   0.200   2.539   7.245 -1.2052 -1.0292  1.4560
 5022SOL    HW226529   0.314   2.455   7.225  1.4988  1.2496  0.1853
 5023SOL     OW26530   4.499   3.271  15.538  0.2457  0.7049  0.0607
 5023SOL    HW126531   4.510   3.331  15.464  0.9797  2.3079  1.4533
 5023SOL    HW226532   4.586   3.276  15.579  0.2186  3.4232 -0.2036
 5024SOL     OW26533   1.141   1.623   9.050  0.3702  0.1984 -0.4760
 5024SOL    HW126534   1.117   1.533   9.071  0.8766  0.0582 -0.4979
 5024SOL    HW226535   1.198   1.611   8.974  2.9124 -0.2244  1.4600
 5025SOL     OW26536   3.796   0.731   1.090 -0.3124  0.2996  0.4996
 5025SOL    HW126537   3.753   0.771   1.015  0.7018 -1.0621 -0.8351
 5025SOL    HW226538   3.885   0.731   1.054 -0.3481 -0.8613  0.3809
 5026SOL     OW26539   0.841   4.368   6.979  0.1051  0.3831 -0.0440
 5026SOL    HW126540   0.922   4.399   7.020  1.3317  0.1250 -2.2269
 5026SOL    HW226541   0.839   4.273   6.986  0.6110  0.6039  2.8999
 5027SOL     OW26542   3.763   2.121   7.717  0.1749 -0.2708 -0.3717
 5027SOL    HW126543   3.762   2.050   7.653  0.7101  1.4798 -2.3466
 5027SOL    HW226544   3.698   2.098   7.783 -0.0445 -0.8378 -0.7867
 5028SOL     OW26545   3.486   4.608   8.815  0.1091  0.0165  0.2196
 5028SOL    HW126546   3.546   4.680   8.800  0.8858 -0.5881  0.4234
 5028SOL    HW226547   3.415   4.648   8.866 -0.1212 -1.4362  1.0540
 5029SOL     OW26548   4.208   3.190   8.660  0.0983  0.0630  0.4718
 5029SOL    HW126549   4.282   3.134   8.640 -2.0832 -2.4813 -0.5061
 5029SOL    HW226550   4.167   3.189   8.573 -0.0063 -0.3473  0.5265
 5030SOL     OW26551   0.053   0.574  12.246 -0.7557  0.1986  0.7077
 5030SOL    HW126552   0.043   0.653  12.194  2.0821 -0.1415 -0.3348
 5030SOL    HW226553   0.079   0.611  12.330 -1.2610 -0.8393  1.3320
 5031SOL     OW26554   1.050   2.767   2.805  0.5194  0.0470 -0.0053
 5031SOL    HW126555   0.992   2.703   2.763 -1.9553  0.7885  2.2301
 5031SOL    HW226556   0.983   2.801   2.865  0.1974 -0.6904  0.0556
 5032SOL     OW26557   1.295   2.685   8.373  0.4589  1.2348  0.1918
 5032SOL    HW126558   1.349   2.722   8.444  0.6477  1.0930  0.1214
 5032SOL    HW226559   1.209   2.725   8.385 -0.4696 -0.9120  0.7857
 5033SOL     OW26560   1.181   4.093   3.240  0.0698 -0.1166 -0.1521
 5033SOL    HW126561   1.259   4.135   3.204  0.4839  1.9240  3.2020
 5033SOL    HW226562   1.228   4.064   3.318  1.1892 -0.0980 -0.8081
 5034SOL     OW26563   1.953   2.633  14.466  0.1796  0.0165  0.3175
 5034SOL    HW126564   1.951   2.657  14.559  3.1155 -2.8864  1.1147
 5034SOL    HW226565   2.036   2.668  14.435  0.4142 -0.2138  0.6802
 5035SOL     OW26566   4.127   3.529  10.322  1.0316  0.0521  0.7449
 5035SOL    HW126567   4.094   3.445  10.356  0.8974  0.0615  0.6408
 5035SOL    HW226568   4.098   3.595  10.385  1.7002  0.8043  0.2523
 5036SOL     OW26569   0.578   2.876  10.760 -0.1256 -0.9106  0.0738
 5036SOL    HW126570   0.487   2.873  10.731 -0.2461 -0.2700  0.3953
 5036SOL    HW226571   0.585   2.782  10.774 -1.8306 -0.7412  1.9800
 5037SOL     OW26572   3.480   1.698   4.080 -0.1008 -0.2104  0.4210
 5037SOL    HW126573   3.465   1.606   4.103 -0.6312  0.0451  1.0942
 5037SOL    HW226574   3.392   1.718   4.050  0.1745 -1.8592 -1.4538
 5038SOL     OW26575   4.411   2.703  12.599  0.6281  0.0231 -0.0713
 5038SOL    HW126576   4.502   2.683  12.618  0.5325 -2.2445 -2.0436
 5038SOL    HW226577   4.364   2.704  12.683  0.8199  0.0757  0.0340
 5039SOL     OW26578   3.061   1.551   5.649 -0.0875 -0.6142 -0.0657
 5039SOL    HW126579   3.013   1.542   5.731  0.5442  2.9423  0.6868
 5039SOL    HW226580   3.090   1.642   5.653  0.3888 -0.8111  0.9525
 5040SOL     OW26581   1.701   1.915   4.043 -0.6310 -0.2517  0.5827
 5040SOL    HW126582   1.738   1.916   3.955 -0.3341  0.4883  0.7107
 5040SOL    HW226583   1.765   1.852   4.077  2.4109  1.5753 -1.7546
 5041SOL     OW26584   0.006   1.498  13.250 -0.1903 -1.0016  0.2914
 5041SOL    HW126585   0.051   1.538  13.324 -1.0049  0.1189  0.1830
 5041SOL    HW226586   4.663   1.568  13.231 -1.2989 -1.8089  1.0154
 5042SOL     OW26587   0.167   1.258   3.232 -0.6165  0.2870  0.0794
 5042SOL    HW126588   0.262   1.261   3.215 -0.1917 -3.7219  1.9145
 5042SOL    HW226589   0.140   1.329   3.174 -0.1458  1.1118  0.8648
 5043SOL     OW26590   2.152   0.724  15.104  0.0926 -0.2339 -0.2919
 5043SOL    HW126591   2.087   0.793  15.124  1.3831  1.0767 -0.6078
 5043SOL    HW226592   2.232   0.773  15.122 -0.0551 -0.1947  0.2743
 5044SOL     OW26593   4.692   1.630  17.596 -0.4229 -0.1704  0.1857
 5044SOL    HW126594   0.050   1.615  17.542  0.2924  3.4802  0.1896
 5044SOL    HW226595   4.696   1.724  17.615  0.2414  0.0865 -1.2624
 5045SOL     OW26596   2.150   0.133   3.798  0.4116 -0.9133 -0.4226
 5045SOL    HW126597   2.217   0.202   3.802 -0.6303  0.0167  1.0548
 5045SOL    HW226598   2.148   0.096   3.886 -0.3081 -4.1582 -1.8211
 5046SOL     OW26599   2.618   3.256   4.962  0.2741 -0.2002  0.0115
 5046SOL    HW126600   2.682   3.196   5.001 -0.1818 -0.4300  0.4011
 5046SOL    HW226601   2.539   3.203   4.958  0.5108 -0.3627 -2.8360
 5047SOL     OW26602   2.181   4.173   1.744 -0.4465 -0.0838 -0.3690
 5047SOL    HW126603   2.226   4.248   1.704 -1.1305  0.7418  0.4124
 5047SOL    HW226604   2.093   4.200   1.768 -0.8998 -2.1066  0.2374
 5048SOL     OW26605   1.964   1.151  17.363  0.7205  0.2270 -0.5941
 5048SOL    HW126606   1.965   1.195  17.278  1.7502 -0.9109 -1.1663
 5048SOL    HW226607   1.883   1.184  17.402  0.7912  0.6736 -0.8277
 5049SOL     OW26608   0.903   0.190   9.269  0.1322  0.5849  0.1407
 5049SOL    HW126609   0.890   0.268   9.216 -1.5952  0.2021 -0.0011
 5049SOL    HW226610   0.996   0.187   9.291  0.3891  2.8144 -0.6724
 5050SOL     OW26611   1.799   3.750  16.280 -0.3950  0.4152 -0.7277
 5050SOL    HW126612   1.833   3.661  16.288 -0.4443  0.2702 -2.2157
 5050SOL    HW226613   1.824   3.787  16.365 -0.5816  0.2342 -0.5929
 5051SOL     OW26614   2.988   2.520   0.043  0.5329 -0.5094  0.2052
 5051SOL    HW126615   3.022   2.466  17.653 -1.6024 -1.2227 -0.2899
 5051SOL    HW226616   2.909   2.469   0.061 -1.1948  1.9103 -0.3683
 5052SOL     OW26617   0.795   1.391  14.519  0.6866 -0.0389 -0.1264
 5052SOL    HW126618   0.883   1.385  14.555  0.2137 -1.1455  0.8517
 5052SOL    HW226619   0.788   1.318  14.458 -1.1031  2.3435 -2.7271
 5053SOL     OW26620   2.719   3.703   6.001  0.0734 -0.1943  0.9527
 5053SOL    HW126621   2.676   3.761   6.064 -1.4012 -0.2499  0.0019
 5053SOL    HW226622   2.742   3.767   5.934  1.0872 -0.0918  1.4017
 5054SOL     OW26623   0.901   1.037   5.459  0.2715  0.3766 -0.0486
 5054SOL    HW126624   0.955   1.100   5.507  0.1123  1.1053 -0.8316
 5054SOL    HW226625   0.903   1.082   5.375  0.0206 -1.8806 -1.2579
 5055SOL     OW26626   2.963   3.660   3.870 -0.7516 -0.1650 -0.4103
 5055SOL    HW126627   2.978   3.656   3.775 -2.4966 -0.3944 -0.6704
 5055SOL    HW226628   3.045   3.696   3.903  0.2798 -2.5824 -0.3321
 5056SOL     OW26629   0.667   4.421   6.155 -0.5063 -0.1195  0.2259
 5056SOL    HW126630   0.720   4.448   6.080  0.8935  1.2170  1.7144
 5056SOL    HW226631   0.731   4.434   6.225 -0.8489 -1.2173  0.7573
 5057SOL     OW26632   3.804   3.643   8.052  0.6210 -0.4756 -0.3312
 5057SOL    HW126633   3.865   3.569   8.044  1.4165  0.1444 -0.0139
 5057SOL    HW226634   3.867   3.699   8.098  1.4212 -0.6728 -1.1988
 5058SOL     OW26635   2.101   4.237   5.366  0.1463 -0.0433  0.2386
 5058SOL    HW126636   2.129   4.191   5.286  1.5942  1.7830 -0.2967
 5058SOL    HW226637   2.027   4.286   5.330  0.3927 -0.1800 -0.4522
 5059SOL     OW26638   1.817   0.188   6.292 -0.2124 -0.4287  0.1712
 5059SOL    HW126639   1.906   0.209   6.322 -0.6203 -0.7739  1.6320
 5059SOL    HW226640   1.766   0.202   6.372  1.0733 -0.7244  1.0411
 5060SOL     OW26641   4.350   2.774   7.639  0.3245  0.3245  0.1979
 5060SOL    HW126642   4.356   2.750   7.731  0.8055  1.7608  0.5367
 5060SOL    HW226643   4.440   2.761   7.609 -0.2560 -2.9943 -0.1370
 5061SOL     OW26644   2.163   4.545  10.088  0.0449  0.4566  0.6357
 5061SOL    HW126645   2.108   4.494  10.149  0.7914  0.1662  1.0614
 5061SOL    HW226646   2.241   4.491  10.098  0.2531  0.6956  0.2686
 5062SOL     OW26647   2.600   2.565   3.387 -0.3353 -0.5337 -0.5370
 5062SOL    HW126648   2.619   2.658   3.379  0.6878 -0.6511  0.6623
 5062SOL    HW226649   2.691   2.542   3.409 -0.6573 -1.4137 -0.1021
 5063SOL     OW26650   3.780   0.477  11.475  0.4812  0.4704  0.2648
 5063SOL    HW126651   3.771   0.425  11.554 -1.0302 -0.8457 -0.7795
 5063SOL    HW226652   3.702   0.451  11.427  1.0231 -0.1333 -0.2876
 5064SOL     OW26653   0.647   1.079   2.660  0.7481 -0.6134  0.3227
 5064SOL    HW126654   0.600   1.082   2.577 -2.8328 -0.4819  2.3667
 5064SOL    HW226655   0.737   1.089   2.631 -0.6293  0.2601 -3.6458
 5065SOL     OW26656   3.652   3.199   5.823  0.2675 -0.0956 -1.1568
 5065SOL    HW126657   3.736   3.243   5.808 -0.2887  0.7213 -1.9070
 5065SOL    HW226658   3.685   3.132   5.883  1.7488  0.3399 -1.4763
 5066SOL     OW26659   2.183   4.289  11.591  0.2002  0.1234  0.7637
 5066SOL    HW126660   2.275   4.300  11.564  0.6201  0.3983  2.2839
 5066SOL    HW226661   2.196   4.241  11.674 -0.3896  0.0314  0.8000
 5067SOL     OW26662   3.846   4.634  12.401  0.3234  0.0877  0.3717
 5067SOL    HW126663   3.751   4.641  12.406  0.2455  1.4286 -2.4769
 5067SOL    HW226664   3.862   4.652  12.493  1.9209  1.9432 -0.2643
 5068SOL     OW26665   3.680   3.428   4.559 -0.1580  0.4270  0.0581
 5068SOL    HW126666   3.760   3.396   4.600 -0.6543  0.2906  0.9258
 5068SOL    HW226667   3.695   3.418   4.465 -0.6311 -0.6207  0.1008
 5069SOL     OW26668   2.145   0.894   2.240  0.1226 -0.4505  0.3407
 5069SOL    HW126669   2.237   0.883   2.218 -0.4228 -0.2307 -1.9732
 5069SOL    HW226670   2.156   0.939   2.324 -0.7923 -0.8697  0.6928
 5070SOL     OW26671   4.589   1.909   3.864  0.1886 -0.0442  0.5190
 5070SOL    HW126672   4.605   1.928   3.956 -0.2611 -1.6836  0.9452
 5070SOL    HW226673   4.633   1.977   3.814  0.5163  0.7159  1.8542
 5071SOL     OW26674   1.669   0.420   3.901 -0.0484 -0.1708  0.1980
 5071SOL    HW126675   1.709   0.460   3.823 -1.8539  0.9366 -0.1600
 5071SOL    HW226676   1.627   0.344   3.861  1.9466 -1.8636  1.4100
 5072SOL     OW26677   1.440   1.097   7.570 -0.5094  0.4449  0.2618
 5072SOL    HW126678   1.380   1.105   7.496  1.0045  2.8000 -0.7167
 5072SOL    HW226679   1.440   1.189   7.597 -0.0905  1.4101 -3.0915
 5073SOL     OW26680   4.009   0.949  14.127 -0.0062  0.1241 -0.1319
 5073SOL    HW126681   4.092   0.992  14.147  1.0486 -1.9118 -0.0670
 5073SOL    HW226682   4.037   0.862  14.098 -2.8825  0.0851 -2.7215
 5074SOL     OW26683   3.786   3.729   8.590  0.4731 -0.1041  0.7712
 5074SOL    HW126684   3.852   3.686   8.536  0.0698  1.2307 -0.7711
 5074SOL    HW226685   3.839   3.763   8.663  2.4780 -2.0726  0.2337
 5075SOL     OW26686   1.207   3.494  16.318 -0.1047 -0.0584  0.7057
 5075SOL    HW126687   1.213   3.503  16.223  0.8944  1.8872  0.9446
 5075SOL    HW226688   1.176   3.580  16.346  0.4506  0.4964 -0.4112
 5076SOL     OW26689   0.831   2.350   5.752  0.4078 -0.0756 -0.3039
 5076SOL    HW126690   0.840   2.408   5.827  2.0451 -1.6822  0.7456
 5076SOL    HW226691   0.876   2.402   5.685  2.6201 -2.1503 -0.4418
 5077SOL     OW26692   2.440   3.898   6.855  0.0169  0.1089  0.5509
 5077SOL    HW126693   2.362   3.893   6.799 -2.0155 -1.1538  3.4607
 5077SOL    HW226694   2.508   3.933   6.799 -0.0115 -0.2425  0.2942
 5078SOL     OW26695   2.785   4.089  13.696  0.1610 -0.2351 -0.0873
 5078SOL    HW126696   2.799   4.127  13.609 -0.9217  0.1835 -0.0777
 5078SOL    HW226697   2.760   4.001  13.669 -1.0724  0.5018 -1.3571
 5079SOL     OW26698   1.682   3.061   8.432  0.9012  0.0448 -0.3853
 5079SOL    HW126699   1.743   3.054   8.506 -1.0622 -0.7189  1.1679
 5079SOL    HW226700   1.673   2.970   8.405  0.1769  0.2739 -0.9268
 5080SOL     OW26701   2.120   1.562   7.518  0.4121 -0.1944 -0.2182
 5080SOL    HW126702   2.145   1.477   7.554 -2.0979 -1.4800 -1.5110
 5080SOL    HW226703   2.195   1.590   7.466 -0.7703  0.8008 -1.3739
 5081SOL     OW26704   4.674   4.156   4.190  0.3565 -0.0421  0.6946
 5081SOL    HW126705   4.682   4.218   4.262  0.6746  0.7637 -0.0259
 5081SOL    HW226706   4.612   4.092   4.224  0.6875 -1.1776 -0.8484
 5082SOL     OW26707   2.448   3.296   9.531  0.7333 -0.1607 -0.3375
 5082SOL    HW126708   2.444   3.355   9.606  3.4148  0.3241 -0.6075
 5082SOL    HW226709   2.413   3.353   9.463 -0.9542 -2.6021 -1.5375
 5083SOL     OW26710   1.717   0.220   4.544 -0.0737 -0.0478  0.2119
 5083SOL    HW126711   1.645   0.157   4.540  0.4613 -0.5746 -0.9844
 5083SOL    HW226712   1.669   0.302   4.540 -0.3502 -0.4703 -4.6849
 5084SOL     OW26713   2.134   0.455   6.825 -0.0686  0.0615 -0.0240
 5084SOL    HW126714   2.060   0.449   6.764 -0.6015  0.6732  0.5710
 5084SOL    HW226715   2.141   0.549   6.838 -1.0321  0.4894 -2.5227
 5085SOL     OW26716   4.264   0.773   3.808 -0.5795  0.0046  0.3085
 5085SOL    HW126717   4.333   0.730   3.859 -0.5053  0.1773  0.3558
 5085SOL    HW226718   4.193   0.730   3.855  1.2780 -1.0458  2.1673
 5086SOL     OW26719   4.116   0.864   8.250 -0.0946 -0.2318 -0.5395
 5086SOL    HW126720   4.166   0.819   8.319 -1.4141  0.9811  1.2288
 5086SOL    HW226721   4.042   0.884   8.307 -0.2734 -1.7958 -0.2222
 5087SOL     OW26722   4.033   2.515   6.529  0.6185 -0.1790  0.3691
 5087SOL    HW126723   3.991   2.430   6.540 -0.4328  0.5073  1.7256
 5087SOL    HW226724   4.022   2.540   6.621 -1.9481  2.2021 -0.5693
 5088SOL     OW26725   4.348   3.028   3.491  0.2732  0.4110 -0.5256
 5088SOL    HW126726   4.327   3.073   3.409 -2.1119 -1.6806 -1.0523
 5088SOL    HW226727   4.336   2.936   3.468  2.3322 -0.0566  0.2603
 5089SOL     OW26728   1.336   4.637   6.520 -0.1525  0.2841 -0.4502
 5089SOL    HW126729   1.283   4.695   6.465  0.0651  0.8796 -0.0202
 5089SOL    HW226730   1.423   4.642   6.479  0.0996 -1.3303 -0.1321
 5090SOL     OW26731   2.070   2.825   1.468 -0.0502  0.0388 -0.0838
 5090SOL    HW126732   2.054   2.908   1.512  0.9106  0.6445 -0.8790
 5090SOL    HW226733   2.015   2.821   1.390 -1.8698 -1.8175  1.3020
 5091SOL     OW26734   4.100   2.240   1.902 -0.1636 -0.2450 -0.3690
 5091SOL    HW126735   4.195   2.238   1.900 -0.1813 -1.2990  0.0371
 5091SOL    HW226736   4.083   2.278   1.816 -0.2927 -1.4341 -0.8689
 5092SOL     OW26737   3.997   2.157  16.602  0.1532 -0.3793 -0.4645
 5092SOL    HW126738   3.965   2.246  16.591  0.8662  0.0522  0.9887
 5092SOL    HW226739   3.986   2.155  16.697  0.3884 -1.2238 -0.4530
 5093SOL     OW26740   3.326   1.647  17.535 -0.1718 -0.0712  0.0112
 5093SOL    HW126741   3.307   1.641  17.441  1.4532 -1.4108 -0.2331
 5093SOL    HW226742   3.421   1.641  17.539 -0.1657 -1.6665 -2.5807
 5094SOL     OW26743   1.560   0.396   9.959 -0.2588  0.8626 -0.2387
 5094SOL    HW126744   1.635   0.452   9.979 -0.0876  0.2020  0.9408
 5094SOL    HW226745   1.576   0.332  10.028 -0.5356 -1.1268 -2.0374
 5095SOL     OW26746   0.894   1.752   5.524 -0.4567  0.2219  0.1167
 5095SOL    HW126747   0.945   1.713   5.453 -3.0166 -1.1843 -0.9540
 5095SOL    HW226748   0.912   1.846   5.515  1.6581 -0.0909  1.0103
 5096SOL     OW26749   0.065   0.312   1.468  0.1003  0.2511  0.1554
 5096SOL    HW126750   0.008   0.377   1.509 -0.8540 -0.8278  0.5527
 5096SOL    HW226751   0.012   0.233   1.456  0.3304  0.1285 -0.0600
 5097SOL     OW26752   2.669   3.584   5.479 -0.4931 -0.4899  0.0730
 5097SOL    HW126753   2.745   3.528   5.465 -1.4082 -1.8204  0.4524
 5097SOL    HW226754   2.648   3.559   5.569  0.7442 -1.0638  0.2016
 5098SOL     OW26755   1.439   3.461   0.694 -0.6758  0.0477 -0.2976
 5098SOL    HW126756   1.411   3.423   0.777 -0.2982 -1.9928 -1.1134
 5098SOL    HW226757   1.528   3.426   0.694  0.2799  2.4600 -0.3751
 5099SOL     OW26758   3.097   3.785   5.412 -0.3850 -0.3547  0.2329
 5099SOL    HW126759   3.034   3.828   5.353  1.4021 -0.0721 -1.4837
 5099SOL    HW226760   3.039   3.748   5.478 -0.2623  1.3059  1.2640
 5100SOL     OW26761   3.709   4.253  16.272 -0.5432 -0.0141 -0.3968
 5100SOL    HW126762   3.651   4.183  16.241  0.5874 -0.9887 -0.2955
 5100SOL    HW226763   3.786   4.197  16.268 -0.8136 -0.4236  0.1662
 5101SOL     OW26764   3.428   0.382   8.978  0.7189  0.3436 -0.4385
 5101SOL    HW126765   3.373   0.460   8.981  0.9074  0.4557  0.0379
 5101SOL    HW226766   3.470   0.385   9.064  4.0795 -0.8693 -2.0245
 5102SOL     OW26767   3.515   4.559   2.652 -0.2423 -0.2641  0.2704
 5102SOL    HW126768   3.567   4.577   2.574  0.1487  1.3150  0.8817
 5102SOL    HW226769   3.527   4.465   2.666  2.2364  0.0111  0.0036
 5103SOL     OW26770   2.445   0.610  11.258 -0.0295  0.0817  0.1736
 5103SOL    HW126771   2.431   0.544  11.191 -0.4429  0.2966  0.0493
 5103SOL    HW226772   2.473   0.553  11.330 -2.6717 -2.2466 -0.6348
 5104SOL     OW26773   1.681   1.300   6.651 -0.1977  0.2618  0.0363
 5104SOL    HW126774   1.661   1.310   6.558 -3.6330  0.4113  0.7632
 5104SOL    HW226775   1.746   1.231   6.662  0.2952  0.6704 -0.3348
 5105SOL     OW26776   0.852   4.703   3.589 -0.5290  0.0107 -0.2954
 5105SOL    HW126777   0.897   4.715   3.506 -0.5025  0.5267 -0.2087
 5105SOL    HW226778   0.794   0.059   3.604  1.2147  1.1420  0.6995
 5106SOL     OW26779   0.773   0.697   1.279 -0.3980  0.7217  0.0793
 5106SOL    HW126780   0.799   0.788   1.291  0.8866  0.0794  2.1646
 5106SOL    HW226781   0.684   0.696   1.314 -0.4484 -0.3169 -0.0776
 5107SOL     OW26782   1.437   1.278   3.685 -0.1260  0.0328  0.2200
 5107SOL    HW126783   1.453   1.184   3.699  0.7176  0.3647  1.3802
 5107SOL    HW226784   1.522   1.318   3.667  0.2442  0.0760  2.1565
 5108SOL     OW26785   3.986   3.656   8.790  0.0798 -0.4233  0.2279
 5108SOL    HW126786   4.024   3.583   8.839  0.9083  1.0650  1.8107
 5108SOL    HW226787   4.053   3.671   8.723 -0.8422 -0.2434 -0.6346
 5109SOL     OW26788   3.626   3.406   8.340 -0.1944 -0.3129  0.0538
 5109SOL    HW126789   3.594   3.495   8.324 -2.6069 -1.0522  0.6660
 5109SOL    HW226790   3.564   3.392   8.412  0.7181  2.4168  1.3828
 5110SOL     OW26791   0.345   2.662  15.410  0.1902  0.0876 -0.8449
 5110SOL    HW126792   0.378   2.575  15.387  2.9012  0.9534 -0.1595
 5110SOL    HW226793   0.337   2.701  15.323  0.3791  2.0776  0.0340
 5111SOL     OW26794   0.916   1.152   9.252  0.0360 -0.4120  0.1290
 5111SOL    HW126795   0.947   1.063   9.233  3.4805  0.9127 -0.5085
 5111SOL    HW226796   0.990   1.181   9.305 -0.0142  0.2174 -0.1483
 5112SOL     OW26797   3.022   4.498   2.128  0.2633  0.7264  0.2372
 5112SOL    HW126798   3.117   4.505   2.142  0.4016 -0.5447 -0.0490
 5112SOL    HW226799   3.002   4.413   2.090 -1.6567  1.3565 -0.1465
 5113SOL     OW26800   0.802   1.266  11.276 -0.2305 -0.7222 -0.2008
 5113SOL    HW126801   0.739   1.211  11.322  0.3817 -0.9419  0.3804
 5113SOL    HW226802   0.744   1.330  11.237  0.5433  0.1178  0.0346
 5114SOL     OW26803   0.692   1.995   3.209 -0.2912  0.0729 -0.2700
 5114SOL    HW126804   0.700   2.024   3.300 -0.1293 -0.9224  0.0309
 5114SOL    HW226805   0.756   1.925   3.205 -0.6546 -0.0979 -3.4313
 5115SOL     OW26806   3.675   3.449   0.603 -0.2210 -0.2260 -0.0323
 5115SOL    HW126807   3.613   3.419   0.670  0.6066 -0.8006  0.4889
 5115SOL    HW226808   3.735   3.374   0.597  1.4851  1.2811 -1.6867
 5116SOL     OW26809   0.224   1.086   4.368 -0.9556  0.5489  0.0163
 5116SOL    HW126810   0.182   1.147   4.429 -2.4251  0.3920 -0.8366
 5116SOL    HW226811   0.285   1.050   4.431  1.0507  2.2672 -0.9616
 5117SOL     OW26812   3.127   3.874   7.149 -0.2841 -0.4913  0.1262
 5117SOL    HW126813   3.034   3.892   7.135 -0.0306  0.6555 -0.0939
 5117SOL    HW226814   3.131   3.848   7.241 -1.0043 -0.9095  0.0446
 5118SOL     OW26815   4.706   3.867   3.336 -0.3019  0.0445 -0.2465
 5118SOL    HW126816   0.003   3.913   3.418 -1.4147 -0.8731  0.4791
 5118SOL    HW226817   0.068   3.894   3.292 -2.1304  2.9926 -1.8223
 5119SOL     OW26818   4.388   4.681   7.299 -0.7401  1.2204  0.4915
 5119SOL    HW126819   4.398   4.665   7.206  2.8647  0.6760  0.9835
 5119SOL    HW226820   4.350   0.049   7.293 -0.0972  1.5539  1.3492
 5120SOL     OW26821   2.926   2.875  15.852 -0.6965 -0.2615  0.5515
 5120SOL    HW126822   2.877   2.906  15.928 -0.5518  2.2764 -0.3965
 5120SOL    HW226823   2.905   2.782  15.855 -0.4799 -0.3305 -0.0022
 5121SOL     OW26824   0.053   0.299  15.481 -0.1358 -0.3633  0.5098
 5121SOL    HW126825   0.012   0.238  15.420  1.5916  0.0116 -1.0149
 5121SOL    HW226826   0.120   0.337  15.425  0.0044 -0.0214  0.9065
 5122SOL     OW26827   0.397   4.582  14.148  0.8241 -0.4994 -0.5392
 5122SOL    HW126828   0.426   4.672  14.167  0.7012 -0.8488  1.2686
 5122SOL    HW226829   0.434   4.541  14.226  1.3733 -0.6371 -0.8688
 5123SOL     OW26830   1.743   3.003  10.320 -0.1274 -0.4286 -0.0944
 5123SOL    HW126831   1.716   2.970  10.406  1.5976  1.5806  1.2575
 5123SOL    HW226832   1.811   3.064  10.350 -0.6938 -0.7258  1.8106
 5124SOL     OW26833   0.658   3.772   0.665 -0.2455 -0.0943  0.2177
 5124SOL    HW126834   0.750   3.745   0.664 -0.0479  0.5595  0.6456
 5124SOL    HW226835   0.624   3.744   0.580  0.7678 -0.4142 -0.0856
 5125SOL     OW26836   4.575   0.919   3.952 -0.3535 -0.0644  0.2836
 5125SOL    HW126837   4.658   0.872   3.944 -0.6688 -0.6144  0.2680
 5125SOL    HW226838   4.509   0.854   3.977 -0.0842 -0.2424  0.5276
 5126SOL     OW26839   4.249   0.767   3.545  0.6340 -0.3137 -0.4752
 5126SOL    HW126840   4.339   0.741   3.528  0.4244 -2.5853  1.9025
 5126SOL    HW226841   4.254   0.786   3.638  1.4469 -3.5589  0.1480
 5127SOL     OW26842   3.460   3.256  12.402 -0.2249  0.0149 -0.3858
 5127SOL    HW126843   3.370   3.245  12.433 -1.3985  2.5428 -2.9508
 5127SOL    HW226844   3.469   3.181  12.343  1.2094  1.3252 -1.7985
 5128SOL     OW26845   2.485   1.189  17.019 -0.8157  0.1553 -0.3570
 5128SOL    HW126846   2.579   1.176  17.031 -1.0657 -0.8814  0.5023
 5128SOL    HW226847   2.442   1.162  17.100  0.0595  0.6857  0.2767
 5129SOL     OW26848   4.534   1.829   5.587 -0.6626 -0.9072 -0.4007
 5129SOL    HW126849   4.481   1.753   5.565 -1.3544 -0.4179 -0.4295
 5129SOL    HW226850   4.576   1.859   5.506 -2.1045  2.9558  0.2685
 5130SOL     OW26851   2.851   1.139  16.126 -0.4427 -0.2182 -0.1038
 5130SOL    HW126852   2.780   1.080  16.153 -0.9583  0.2730 -0.3960
 5130SOL    HW226853   2.915   1.068  16.138 -0.1058 -0.5465 -3.7278
 5131SOL     OW26854   1.245   2.004   5.925  0.3772 -0.1421  0.4552
 5131SOL    HW126855   1.304   1.940   5.887  0.5019 -1.1089  2.2531
 5131SOL    HW226856   1.163   1.979   5.881  0.9169 -0.4468 -0.3584
 5132SOL     OW26857   4.362   4.184   5.989  0.1910  0.3920  0.2320
 5132SOL    HW126858   4.399   4.097   5.998  0.7740  0.6735  0.5617
 5132SOL    HW226859   4.347   4.187   5.894 -0.9641  0.4170  0.4165
 5133SOL     OW26860   4.469   0.783   6.132 -0.1796  0.3637  0.4659
 5133SOL    HW126861   4.504   0.852   6.188  1.1232  0.9808 -1.1125
 5133SOL    HW226862   4.520   0.801   6.053 -1.2384  0.8278 -0.1134
 5134SOL     OW26863   0.509   1.103   5.035  0.1987  0.5784 -0.7387
 5134SOL    HW126864   0.485   1.194   5.052 -1.4635 -0.4408  2.2953
 5134SOL    HW226865   0.565   1.099   5.112 -0.2596  2.7574 -0.3068
 5135SOL     OW26866   1.585   3.560   1.898  0.6072  0.5727 -0.2949
 5135SOL    HW126867   1.518   3.510   1.944  0.4556  2.4742  1.5249
 5135SOL    HW226868   1.546   3.575   1.812  0.1983 -0.6162 -0.3202
 5136SOL     OW26869   4.351   0.021  11.032  0.4084  0.3133 -0.5700
 5136SOL    HW126870   4.361   0.062  10.945 -1.0937  2.7812  0.4202
 5136SOL    HW226871   4.389   0.087  11.089 -0.4415 -1.0404  1.5419
 5137SOL     OW26872   0.374   3.034   5.027 -0.3524 -0.1013  0.0600
 5137SOL    HW126873   0.358   3.001   5.115 -0.0505 -0.3589  0.0176
 5137SOL    HW226874   0.464   3.064   5.033  0.0138 -0.4522 -3.4633
 5138SOL     OW26875   1.798   2.971   1.718  0.0084 -0.2675  0.7341
 5138SOL    HW126876   1.867   3.015   1.669 -0.5833  0.6057  0.6869
 5138SOL    HW226877   1.722   3.021   1.689 -0.4206 -2.5635 -2.0543
 5139SOL     OW26878   4.273   1.645   9.370 -0.2273  0.2635  0.6044
 5139SOL    HW126879   4.188   1.673   9.337  0.0763  1.9048  1.1911
 5139SOL    HW226880   4.278   1.551   9.355  0.8833  0.4381 -0.1197
 5140SOL     OW26881   3.445   1.330   8.847  0.3309 -0.0092  0.1213
 5140SOL    HW126882   3.497   1.398   8.804  1.4118 -1.6421 -1.1497
 5140SOL    HW226883   3.455   1.355   8.939  1.9045 -1.4920  0.3439
 5141SOL     OW26884   1.383   3.359   5.844 -0.0770 -0.2889  0.0604
 5141SOL    HW126885   1.292   3.345   5.816 -1.0928  3.0238  1.7565
 5141SOL    HW226886   1.379   3.327   5.934  1.9156  2.3735  1.0942
 5142SOL     OW26887   0.807   3.756   3.363 -0.4056  0.1818  0.2176
 5142SOL    HW126888   0.815   3.672   3.318 -2.1526  0.3236 -0.3599
 5142SOL    HW226889   0.870   3.808   3.313 -0.2477  0.5801  0.8193
 5143SOL     OW26890   1.049   0.213   4.010 -0.3789  0.2497  0.1685
 5143SOL    HW126891   0.997   0.268   3.952 -2.9420 -2.4300 -0.0417
 5143SOL    HW226892   1.125   0.271   4.016 -0.1836 -0.1529  1.6182
 5144SOL     OW26893   2.131   1.379   9.181 -0.2281  0.5225  0.4189
 5144SOL    HW126894   2.150   1.467   9.212 -1.5165  0.2080  2.0907
 5144SOL    HW226895   2.180   1.329   9.246 -0.0010 -0.2903 -0.3798
 5145SOL     OW26896   0.159   2.645   1.576 -0.0344  0.0391 -0.3216
 5145SOL    HW126897   0.132   2.554   1.584  1.0499 -0.2871 -0.2810
 5145SOL    HW226898   0.253   2.633   1.560  0.2424  0.0368  1.3308
 5146SOL     OW26899   0.167   2.396   6.754 -0.5257  0.0677 -0.3605
 5146SOL    HW126900   0.115   2.359   6.683  0.0158  1.9147 -1.7156
 5146SOL    HW226901   0.097   2.452   6.789  1.1248  2.1946 -0.4488
 5147SOL     OW26902   4.520   3.896  17.644  0.3933 -0.1607  0.5608
 5147SOL    HW126903   4.554   3.809  17.661 -2.6254 -1.6021 -0.8612
 5147SOL    HW226904   4.462   3.891  17.568 -0.6865  2.2266  1.2407
 5148SOL     OW26905   2.032   1.812   9.872 -0.0773  0.4178  0.1451
 5148SOL    HW126906   2.008   1.864   9.949 -1.5001  1.0424 -0.7177
 5148SOL    HW226907   2.091   1.875   9.830  1.2472  0.5149  2.1537
 5149SOL     OW26908   3.864   0.445   9.164 -0.2941 -0.9101  0.5681
 5149SOL    HW126909   3.833   0.394   9.089 -0.3111  0.6802 -0.4936
 5149SOL    HW226910   3.922   0.389   9.216  0.5753  1.0072  1.6387
 5150SOL     OW26911   0.660   1.671   5.658 -0.1808 -0.1329  0.3930
 5150SOL    HW126912   0.658   1.756   5.702 -2.8589  0.4484 -0.7879
 5150SOL    HW226913   0.734   1.676   5.597 -0.5815  3.9548  0.2163
 5151SOL     OW26914   0.218   1.938   7.391  0.6575 -0.2717 -0.0622
 5151SOL    HW126915   0.125   1.964   7.386  0.7837  0.6116  2.2201
 5151SOL    HW226916   0.244   1.968   7.304  2.4376  0.3315  0.6846
 5152SOL     OW26917   2.656   4.466   0.848  0.1551 -0.5638 -0.3700
 5152SOL    HW126918   2.736   4.495   0.890  0.7037  0.6279 -2.2540
 5152SOL    HW226919   2.602   4.429   0.918 -0.2897  2.7686  1.0640
 5153SOL     OW26920   1.529   0.175   5.031  0.4000  0.2163  0.7945
 5153SOL    HW126921   1.612   0.131   5.015  0.8682  0.6836  1.9278
 5153SOL    HW226922   1.532   0.153   5.125  2.2736 -2.0014  0.2282
 5154SOL     OW26923   2.513   2.366   3.748  0.0376  0.3276  0.3257
 5154SOL    HW126924   2.520   2.422   3.826 -1.2236 -0.1173  0.7644
 5154SOL    HW226925   2.435   2.316   3.771  0.7632 -0.8076  0.2905
 5155SOL     OW26926   2.177   2.418   4.419  0.3896  0.0095  0.0529
 5155SOL    HW126927   2.112   2.373   4.472 -1.0905 -0.6937 -2.3814
 5155SOL    HW226928   2.246   2.352   4.430  2.3813  2.0177 -0.3410
 5156SOL     OW26929   4.152   1.481  14.045 -0.1947 -0.1797  0.0336
 5156SOL    HW126930   4.244   1.459  14.035 -0.4243 -0.5045 -1.4330
 5156SOL    HW226931   4.144   1.537  13.967 -1.4856 -1.1135 -0.5116
 5157SOL     OW26932   0.947   0.897  13.958 -0.4418 -0.3778 -0.2448
 5157SOL    HW126933   0.968   0.804  13.962 -0.6735 -0.3239  2.6197
 5157SOL    HW226934   0.988   0.927  14.039  1.4020 -2.0260 -0.5976
 5158SOL     OW26935   0.155   0.824   7.340  0.1147  0.6846 -0.0458
 5158SOL    HW126936   0.101   0.881   7.394  0.6139 -0.7705  1.9466
 5158SOL    HW226937   0.198   0.892   7.287 -0.0053  2.1518  1.7298
 5159SOL     OW26938   3.885   0.861   5.849  0.0448  0.2219 -0.0903
 5159SOL    HW126939   3.934   0.877   5.930 -0.6273 -0.6422  0.4897
 5159SOL    HW226940   3.930   0.783   5.816 -1.7475 -1.8176  2.2204
 5160SOL     OW26941   1.456   3.552   6.602  0.2527 -0.2901 -0.2535
 5160SOL    HW126942   1.431   3.625   6.659  1.4672  0.3354 -0.5370
 5160SOL    HW226943   1.450   3.593   6.516 -0.2136  1.0868  0.4393
 5161SOL     OW26944   3.898   0.488   6.971 -0.4894 -0.2652  0.4670
 5161SOL    HW126945   3.970   0.543   6.939 -0.4308 -0.9171 -0.5204
 5161SOL    HW226946   3.898   0.510   7.064  1.1667  2.1685 -0.1095
 5162SOL     OW26947   2.567   3.876   9.718 -0.3812 -0.3957 -0.1371
 5162SOL    HW126948   2.627   3.803   9.733  0.1468  0.1153  0.2812
 5162SOL    HW226949   2.550   3.892   9.811  2.9210  0.2973  0.3348
 5163SOL     OW26950   4.232   2.330  16.516 -0.3119 -0.3252 -0.1714
 5163SOL    HW126951   4.141   2.315  16.542 -0.5474  0.6929 -0.3875
 5163SOL    HW226952   4.230   2.342  16.421  0.1436 -0.9656 -0.2626
 5164SOL     OW26953   3.131   2.101   2.529 -0.1337  0.0020 -0.3133
 5164SOL    HW126954   3.082   2.018   2.529  1.6565 -1.0400 -1.0429
 5164SOL    HW226955   3.186   2.096   2.607  0.6275  1.0043 -0.7999
 5165SOL     OW26956   2.496   4.181  11.964  0.1029  0.2278 -0.7156
 5165SOL    HW126957   2.528   4.261  11.923  1.5914 -0.1314 -0.2768
 5165SOL    HW226958   2.434   4.230  12.019 -2.7870 -2.0150 -2.0038
 5166SOL     OW26959   1.892   3.278   8.808  0.4129 -0.7746  0.6719
 5166SOL    HW126960   1.905   3.195   8.854  1.1256 -1.8289 -1.4396
 5166SOL    HW226961   1.956   3.334   8.851 -0.8340  0.8571  0.3875
 5167SOL     OW26962   3.621   1.110   4.268  0.9877 -0.4337 -0.1683
 5167SOL    HW126963   3.670   1.149   4.196  1.5197 -0.0781  0.3878
 5167SOL    HW226964   3.608   1.194   4.313  1.2225 -0.3894 -0.1804
 5168SOL     OW26965   3.834   1.068  14.271  0.2136 -0.6342  0.0016
 5168SOL    HW126966   3.890   1.037  14.200 -0.7733 -0.3292 -0.9161
 5168SOL    HW226967   3.886   1.147  14.279 -1.5003  0.4636  0.3509
 5169SOL     OW26968   0.151   3.149   1.983 -0.2632 -0.3968  0.2321
 5169SOL    HW126969   0.084   3.107   1.929 -1.8348  0.7079  1.3526
 5169SOL    HW226970   0.149   3.088   2.056 -1.1330  0.4655  0.9186
 5170SOL     OW26971   2.411   2.134   6.278  0.0547  0.2094  0.6933
 5170SOL    HW126972   2.458   2.214   6.253  1.1393 -0.5306  0.3888
 5170SOL    HW226973   2.326   2.166   6.306  1.1888  2.7957  1.1611
 5171SOL     OW26974   3.406   2.058   2.671 -0.2832  0.3191  0.1513
 5171SOL    HW126975   3.428   2.069   2.579 -0.2572 -0.8432  0.0115
 5171SOL    HW226976   3.399   1.962   2.676  0.6783  0.1897 -1.0242
 5172SOL     OW26977   2.013   2.334  16.123 -0.4112  0.6834  0.0033
 5172SOL    HW126978   2.088   2.392  16.134  1.4354 -1.5855 -0.5195
 5172SOL    HW226979   1.975   2.375  16.045  0.4145  0.7078 -0.3798
 5173SOL     OW26980   0.493   3.968   8.454 -0.2128 -0.2165 -0.2685
 5173SOL    HW126981   0.484   3.973   8.549 -1.3955 -1.9556 -0.2873
 5173SOL    HW226982   0.407   3.936   8.425 -0.8547  2.5062 -1.3399
 5174SOL     OW26983   3.406   4.111  10.890 -0.2361  0.6608 -0.3913
 5174SOL    HW126984   3.432   4.038  10.947  2.2906  1.0565 -1.0626
 5174SOL    HW226985   3.450   4.086  10.810  0.2119  0.0091  0.0619
 5175SOL     OW26986   0.388   0.789   3.049 -0.1787  0.2671  0.2956
 5175SOL    HW126987   0.447   0.775   2.975 -1.2891 -1.3448 -0.2861
 5175SOL    HW226988   0.313   0.840   3.018 -0.1643 -0.5882 -1.1985
 5176SOL     OW26989   3.302   0.101  13.000 -0.1045 -0.1355 -0.3645
 5176SOL    HW126990   3.267   0.012  13.001 -0.5330  0.0394  0.0188
 5176SOL    HW226991   3.382   0.097  13.052 -1.0835  3.0934  1.3676
 5177SOL     OW26992   4.143   3.568   4.342  0.2809 -0.0586 -0.2883
 5177SOL    HW126993   4.096   3.547   4.261 -1.8704 -1.4904  1.3261
 5177SOL    HW226994   4.130   3.662   4.349  0.8848 -0.1198  1.6437
 5178SOL     OW26995   3.686   3.209  10.243 -0.7914  0.1670  0.1687
 5178SOL    HW126996   3.718   3.216  10.153 -0.4503 -0.9946  0.2043
 5178SOL    HW226997   3.596   3.242  10.242 -0.0740  2.2106  2.5328
 5179SOL     OW26998   0.702   2.999   3.214 -0.1388  0.2218  0.1801
 5179SOL    HW126999   0.668   2.916   3.249 -0.4468 -0.5288 -1.9147
 5179SOL    HW227000   0.693   3.053   3.293  0.3386 -2.9270  2.3895
 5180SOL     OW27001   2.388   0.439   5.888 -0.3648  0.3481 -0.0743
 5180SOL    HW127002   2.408   0.477   5.973 -2.4265  0.5199  0.3323
 5180SOL    HW227003   2.398   0.345   5.902  1.0721  0.2957 -1.4728
 5181SOL     OW27004   4.197   0.813  16.086  0.1725  0.0409  0.1564
 5181SOL    HW127005   4.210   0.885  16.025 -0.7175 -0.8444 -1.0878
 5181SOL    HW227006   4.213   0.737  16.030 -1.0004 -1.2829  1.6035
 5182SOL     OW27007   0.039   3.027   0.412 -0.7085 -0.5623 -0.1679
 5182SOL    HW127008   4.694   2.990   0.353  1.2842 -0.1303 -2.6410
 5182SOL    HW227009   0.114   2.967   0.415  0.5341  1.0479  1.3957
 5183SOL     OW27010   0.175   3.381   8.694 -0.1635  0.3541  0.2522
 5183SOL    HW127011   0.223   3.365   8.613  0.4836 -0.3423  0.7753
 5183SOL    HW227012   0.091   3.420   8.670 -0.4466  1.2451  2.6708
 5184SOL     OW27013   3.903   0.535   7.232 -0.2722 -0.5328  0.2582
 5184SOL    HW127014   3.898   0.596   7.306  0.4377 -0.9509  0.6454
 5184SOL    HW227015   3.910   0.452   7.279  0.5872 -1.0004 -0.6910
 5185SOL     OW27016   4.210   2.951   7.919 -0.4026 -0.0949 -0.2525
 5185SOL    HW127017   4.286   2.903   7.952 -1.2722  0.0744  1.9395
 5185SOL    HW227018   4.246   3.002   7.846  2.1522  0.6130  1.5115
 5186SOL     OW27019   0.155   1.462  17.458  0.1119 -0.4592 -0.3063
 5186SOL    HW127020   0.120   1.384  17.501 -0.4857  0.5634  1.0954
 5186SOL    HW227021   0.107   1.456  17.376  1.7732 -1.1564 -1.2430
 5187SOL     OW27022   1.860   1.219   7.336  0.3698 -0.4208 -0.3438
 5187SOL    HW127023   1.792   1.201   7.271 -0.0943 -0.5869  0.1911
 5187SOL    HW227024   1.823   1.303   7.364 -1.9826 -2.0426  1.3915
 5188SOL     OW27025   1.830   1.831   2.296  0.1851 -0.2667 -0.0214
 5188SOL    HW127026   1.916   1.843   2.257  0.5363 -2.2142  0.1312
 5188SOL    HW227027   1.837   1.737   2.317 -2.5345 -0.3962  0.3411
 5189SOL     OW27028   3.811   3.716   2.435  0.3195 -0.0268  0.3669
 5189SOL    HW127029   3.839   3.640   2.385 -1.4024  0.1360 -0.8455
 5189SOL    HW227030   3.862   3.782   2.388 -1.5343  1.3127  0.2120
 5190SOL     OW27031   1.943   4.049  11.210  0.5909  0.2070 -0.6273
 5190SOL    HW127032   1.865   3.998  11.232  1.0758  0.6000  2.1195
 5190SOL    HW227033   2.007   4.005  11.267  1.1837 -1.1694 -2.3603
 5191SOL     OW27034   1.861   0.517   7.264 -0.1213 -0.3475  0.2595
 5191SOL    HW127035   1.789   0.493   7.323 -0.2444  0.9474  0.6409
 5191SOL    HW227036   1.938   0.494   7.315 -0.2686 -0.6755  0.3349
 5192SOL     OW27037   3.641   3.249   7.900  0.1576  0.3794  0.7323
 5192SOL    HW127038   3.549   3.223   7.897  0.2415  0.2031 -0.1461
 5192SOL    HW227039   3.670   3.232   7.810 -1.3410  0.2996  0.2719
 5193SOL     OW27040   3.801   3.114   2.990 -0.7192  0.1657 -0.0153
 5193SOL    HW127041   3.791   3.143   2.899 -0.0951 -2.4716 -0.9206
 5193SOL    HW227042   3.775   3.024   2.969  2.6960 -0.7898 -0.1766
 5194SOL     OW27043   1.892   2.584   4.047  0.8990  0.5576 -0.2541
 5194SOL    HW127044   1.924   2.494   4.034  0.6753  0.3871  0.3868
 5194SOL    HW227045   1.880   2.583   4.142 -0.6612  1.5649 -0.4411
 5195SOL     OW27046   1.427   0.813   6.705 -0.4642 -0.6755 -0.3513
 5195SOL    HW127047   1.355   0.795   6.644  0.7068  1.1024 -2.2616
 5195SOL    HW227048   1.400   0.755   6.776 -2.8227  0.2253 -0.5169
 5196SOL     OW27049   2.862   1.705   8.352  0.4216  0.5171  0.0061
 5196SOL    HW127050   2.825   1.677   8.436  3.0272 -2.7649  0.0380
 5196SOL    HW227051   2.949   1.667   8.365  0.7649  1.8050  1.4535
 5197SOL     OW27052   2.128   3.952   6.856 -0.3388 -0.3230  0.3834
 5197SOL    HW127053   2.093   3.984   6.773  0.8507  0.1279  0.0619
 5197SOL    HW227054   2.060   3.988   6.913 -0.2236  0.7432 -0.1490
 5198SOL     OW27055   3.367   1.050   3.146 -0.6326  0.5547  0.2695
 5198SOL    HW127056   3.417   0.992   3.203 -0.6034  0.6564  0.3481
 5198SOL    HW227057   3.287   1.057   3.199 -1.5125  1.8608 -1.2297
 5199SOL     OW27058   2.218   1.102   2.839 -0.0718  0.2907 -0.0580
 5199SOL    HW127059   2.191   1.166   2.773 -1.8038 -0.5808 -0.1921
 5199SOL    HW227060   2.220   1.152   2.920  0.9165 -0.6209  0.4861
 5200SOL     OW27061   2.223   3.200   9.373  0.4476  0.0687 -0.0091
 5200SOL    HW127062   2.149   3.183   9.314  0.0789 -0.5634  0.6296
 5200SOL    HW227063   2.193   3.283   9.410 -0.6816  0.9353 -2.9098
 5201SOL     OW27064   0.923   2.220   9.839  0.5726  0.2249 -0.0733
 5201SOL    HW127065   0.886   2.303   9.809 -1.5462 -0.5095  0.4874
 5201SOL    HW227066   0.876   2.151   9.791 -1.5520  0.4197  1.7566
 5202SOL     OW27067   4.015   1.270   3.445 -0.2781 -0.3979 -0.1752
 5202SOL    HW127068   4.044   1.355   3.413  0.2394 -0.4281  0.2122
 5202SOL    HW227069   4.088   1.245   3.502 -1.4655 -0.0114  1.5241
 5203SOL     OW27070   3.471   2.931  16.487  0.1714 -0.1388 -0.0433
 5203SOL    HW127071   3.510   2.961  16.405  4.6009  0.0226  2.1028
 5203SOL    HW227072   3.468   2.999  16.555  4.0887 -1.5118  1.5041
 5204SOL     OW27073   1.031   4.362   4.999 -0.0449  0.2284 -0.0585
 5204SOL    HW127074   0.951   4.350   5.051 -0.7404 -0.2397 -1.2401
 5204SOL    HW227075   1.008   4.318   4.917  1.8020 -1.8166  0.5216
 5205SOL     OW27076   0.829   3.898   6.230 -0.4268  0.6190 -0.4964
 5205SOL    HW127077   0.904   3.940   6.273 -1.4026  3.9699 -2.0495
 5205SOL    HW227078   0.765   3.963   6.258 -1.9421 -1.6124  1.2210
 5206SOL     OW27079   4.265   1.435   7.578 -0.3410 -0.4967  0.2315
 5206SOL    HW127080   4.342   1.401   7.624  0.7718  1.9238  0.1505
 5206SOL    HW227081   4.261   1.371   7.507  1.4551 -0.0069 -0.3272
 5207SOL     OW27082   0.352   0.862   6.118  0.6196 -0.1603  0.1840
 5207SOL    HW127083   0.363   0.948   6.076  3.2275  0.7031  2.6099
 5207SOL    HW227084   0.302   0.823   6.046 -1.1934 -3.3877  3.2170
 5208SOL     OW27085   0.200   4.136   3.766 -0.4617 -0.2355 -0.5263
 5208SOL    HW127086   0.233   4.225   3.780  0.2744 -0.4853 -0.6806
 5208SOL    HW227087   0.255   4.086   3.826 -0.8948  1.0982  0.9930
 5209SOL     OW27088   1.110   4.440   2.451  0.0537  0.2127 -0.1451
 5209SOL    HW127089   1.119   4.532   2.476 -1.2862  0.6903 -1.4153
 5209SOL    HW227090   1.150   4.440   2.364 -0.9504 -0.6852 -0.6090
 5210SOL     OW27091   3.975   3.864   8.160 -0.5022  0.8218 -0.3799
 5210SOL    HW127092   3.982   3.917   8.240  2.8649  1.2981 -0.9579
 5210SOL    HW227093   4.061   3.874   8.119 -0.6866  0.8758 -0.7551
 5211SOL     OW27094   3.957   2.343   3.012 -0.3840 -0.1149 -0.3357
 5211SOL    HW127095   3.996   2.411   2.957 -4.1729  0.6777 -1.9968
 5211SOL    HW227096   3.954   2.273   2.947 -0.2808 -0.2168 -0.2305
 5212SOL     OW27097   1.391   2.938   6.144  0.2354  0.1331  0.4311
 5212SOL    HW127098   1.328   2.954   6.074  0.5604  0.4680  0.2202
 5212SOL    HW227099   1.335   2.895   6.209 -0.6432  0.1156 -0.3278
 5213SOL     OW27100   0.229   3.541   9.050 -0.2161 -0.3706 -0.4376
 5213SOL    HW127101   0.259   3.458   9.015  0.3671 -0.0597 -0.6616
 5213SOL    HW227102   0.315   3.577   9.071  0.1004 -0.2595 -1.9310
 5214SOL     OW27103   2.864   1.439  16.341 -0.3181  0.2485 -0.2723
 5214SOL    HW127104   2.801   1.429  16.412  0.7141  2.8173  1.0000
 5214SOL    HW227105   2.811   1.482  16.273 -1.1390  0.3068  0.4037
 5215SOL     OW27106   0.977   2.245   3.199 -0.2051 -0.0255 -0.3032
 5215SOL    HW127107   0.996   2.277   3.287  2.2772  0.7190 -1.1010
 5215SOL    HW227108   1.027   2.163   3.191 -0.5621 -0.0293 -2.5602
 5216SOL     OW27109   3.768   2.209  14.729  1.0721 -0.5952  0.6175
 5216SOL    HW127110   3.699   2.276  14.731  2.6828  1.0516  1.0430
 5216SOL    HW227111   3.760   2.178  14.819  0.4379 -3.0944 -0.2975
 5217SOL     OW27112   0.673   1.062   5.747 -0.0894 -1.3767 -0.1424
 5217SOL    HW127113   0.763   1.067   5.716 -0.3146 -1.4236 -0.8143
 5217SOL    HW227114   0.629   1.107   5.674 -0.1493  1.0581  1.4061
 5218SOL     OW27115   4.246   0.523   1.406  0.4446  0.0266 -0.2327
 5218SOL    HW127116   4.260   0.428   1.399  1.3705  0.1047  0.6177
 5218SOL    HW227117   4.189   0.537   1.330  0.8180  0.2233 -0.4736
 5219SOL     OW27118   0.810   2.259   5.083 -0.6006 -0.2642 -0.6896
 5219SOL    HW127119   0.789   2.341   5.037 -4.1857  0.0798  1.4939
 5219SOL    HW227120   0.719   2.230   5.094 -0.8808  0.2329 -1.6401
 5220SOL     OW27121   1.941   2.890  16.630 -0.8336  0.0115  0.0647
 5220SOL    HW127122   1.940   2.832  16.553 -1.4365  1.2447 -0.8546
 5220SOL    HW227123   2.012   2.848  16.679 -0.8525 -2.1883 -1.7654
 5221SOL     OW27124   4.459   1.772  17.277 -0.4011 -0.2633 -0.3079
 5221SOL    HW127125   4.393   1.770  17.208 -1.0193  0.5644  0.2552
 5221SOL    HW227126   4.459   1.682  17.310 -0.9278 -0.2613 -0.3079
 5222SOL     OW27127   3.576   1.818  11.936  0.0412 -0.0685  0.1658
 5222SOL    HW127128   3.500   1.838  11.991 -1.3384  1.6456 -2.3970
 5222SOL    HW227129   3.557   1.875  11.862 -0.1256 -0.2254  0.0870
 5223SOL     OW27130   2.838   1.224  11.257 -0.1935 -0.0872 -0.5857
 5223SOL    HW127131   2.754   1.266  11.238 -0.3839 -1.0722 -1.9359
 5223SOL    HW227132   2.816   1.189  11.343  2.1737 -2.2550 -0.8569
 5224SOL     OW27133   1.268   3.977   5.663  0.1302  0.4880  0.3094
 5224SOL    HW127134   1.175   3.953   5.663  0.5009 -0.9489  0.1958
 5224SOL    HW227135   1.296   3.918   5.593  1.1668  0.1836  0.9831
 5225SOL     OW27136   0.632   0.683   2.916  0.0764  0.1649 -0.0678
 5225SOL    HW127137   0.651   0.656   2.827 -3.3336  1.0883 -1.0770
 5225SOL    HW227138   0.639   0.778   2.902 -3.2769 -0.0891 -3.6052
 5226SOL     OW27139   4.623   3.523   3.097  0.0544  0.0230 -0.0075
 5226SOL    HW127140   4.630   3.549   3.188  0.4063  0.8402 -0.2715
 5226SOL    HW227141   4.532   3.493   3.088 -0.0578  0.3613 -0.0085
 5227SOL     OW27142   3.773   3.625  10.925  0.4858  0.6304  0.1504
 5227SOL    HW127143   3.839   3.561  10.954  0.3537  0.1178 -0.6901
 5227SOL    HW227144   3.765   3.663  11.013 -2.1132 -0.9919  0.6037
 5228SOL     OW27145   2.094   2.063   1.486 -0.2400  0.2574  0.4972
 5228SOL    HW127146   2.144   2.065   1.567 -0.7285  0.4966  0.7918
 5228SOL    HW227147   2.013   2.014   1.502 -0.7354  0.0862 -2.4116
 5229SOL     OW27148   2.423   1.825  12.659  0.1003 -0.1960  0.0119
 5229SOL    HW127149   2.398   1.743  12.616  0.7035 -0.1454 -0.4349
 5229SOL    HW227150   2.516   1.805  12.655  0.1609 -0.2334  1.7349
 5230SOL     OW27151   4.019   3.082   3.151 -0.5950  0.2080  0.1523
 5230SOL    HW127152   3.970   3.077   3.233  0.0704 -0.7417  0.4907
 5230SOL    HW227153   3.945   3.098   3.092  0.5192  2.5235 -0.6141
 5231SOL     OW27154   3.436   0.076   5.660 -0.3125  0.4853 -0.1199
 5231SOL    HW127155   3.410   0.020   5.587  0.3382 -0.6250  0.5010
 5231SOL    HW227156   3.353   0.117   5.683 -0.2749  1.2216 -1.2662
 5232SOL     OW27157   1.375   1.671   6.836  0.0760 -0.2257 -0.5146
 5232SOL    HW127158   1.412   1.600   6.783 -3.7448 -1.4877 -1.5085
 5232SOL    HW227159   1.349   1.728   6.763 -2.6362 -0.9152 -0.0752
 5233SOL     OW27160   2.893   1.833   7.691  0.0468 -0.4390  0.2251
 5233SOL    HW127161   2.820   1.847   7.751 -0.9488 -1.1953 -0.7913
 5233SOL    HW227162   2.925   1.921   7.672  3.8606 -1.6159  1.2340
 5234SOL     OW27163   3.485   0.437  16.189 -0.3233  0.5194 -0.0996
 5234SOL    HW127164   3.418   0.468  16.250  1.2632  0.7141  1.5295
 5234SOL    HW227165   3.440   0.453  16.106 -1.9110  1.8412  1.0075
 5235SOL     OW27166   1.831   2.039   9.369  0.1950 -0.0453 -0.1526
 5235SOL    HW127167   1.872   2.120   9.336 -1.6088 -0.0484 -2.3799
 5235SOL    HW227168   1.760   2.034   9.305  0.8289  0.7475 -0.9229
 5236SOL     OW27169   1.847   1.544   3.885 -0.3889 -0.1061  0.4849
 5236SOL    HW127170   1.837   1.467   3.941 -2.6164  0.2298  0.5763
 5236SOL    HW227171   1.784   1.529   3.815 -2.3551  0.4590  2.1299
 5237SOL     OW27172   1.650   4.177   5.106 -0.7501  0.0266  0.3141
 5237SOL    HW127173   1.726   4.235   5.116 -1.2456  0.4286  1.7177
 5237SOL    HW227174   1.699   4.099   5.134 -1.1108  0.6789  2.8040
 5238SOL     OW27175   4.065   2.091  10.249 -0.4095  0.4377  0.9666
 5238SOL    HW127176   3.982   2.102  10.295 -0.3391  0.6619  1.0376
 5238SOL    HW227177   4.081   2.181  10.221 -1.0394  0.4154  0.5318
 5239SOL     OW27178   1.702   3.657   4.950 -0.3680  0.4713  0.1224
 5239SOL    HW127179   1.766   3.704   4.897  0.7173  0.5789  1.5491
 5239SOL    HW227180   1.643   3.622   4.882 -1.3966  2.1114  0.1787
 5240SOL     OW27181   0.527   3.799   3.321  0.3424  0.5596 -0.1478
 5240SOL    HW127182   0.619   3.820   3.338 -0.5988  2.4180  2.6676
 5240SOL    HW227183   0.530   3.801   3.226 -1.2230 -1.4439 -0.2454
 5241SOL     OW27184   1.621   4.049   9.184 -0.3466  0.2849 -0.3853
 5241SOL    HW127185   1.677   4.030   9.109 -0.1279 -1.0403  0.1104
 5241SOL    HW227186   1.664   4.123   9.228  0.3867  0.1849 -0.9370
 5242SOL     OW27187   0.579   3.768  11.193 -0.0198  0.1997  0.4914
 5242SOL    HW127188   0.607   3.680  11.217 -0.7561 -0.1547  0.0526
 5242SOL    HW227189   0.597   3.812  11.276  2.2157  0.4858 -0.1439
 5243SOL     OW27190   2.230   2.476  12.102  0.1550  0.0539  0.1196
 5243SOL    HW127191   2.244   2.485  12.008  0.1284 -0.2280  0.0892
 5243SOL    HW227192   2.159   2.412  12.109 -2.0763  2.4430 -0.4769
 5244SOL     OW27193   4.397   2.613   9.138  0.1039 -0.1411 -0.3098
 5244SOL    HW127194   4.363   2.550   9.075 -2.6654  1.8149 -0.7766
 5244SOL    HW227195   4.329   2.677   9.159  0.4650  0.8077 -1.9929
 5245SOL     OW27196   3.972   3.966   6.012 -0.2645  0.6354  0.3435
 5245SOL    HW127197   3.977   4.013   5.929 -0.4248  0.1044  0.0337
 5245SOL    HW227198   3.994   3.879   5.978 -1.5340  0.9583 -1.2759
 5246SOL     OW27199   4.456   2.967   7.318 -0.1714 -0.4206  0.6754
 5246SOL    HW127200   4.441   3.061   7.324 -0.8800 -0.5088  0.2548
 5246SOL    HW227201   4.368   2.937   7.295  0.3814  0.3625 -2.4788
 5247SOL     OW27202   1.445   4.318  14.605  0.8137  0.0326  0.7095
 5247SOL    HW127203   1.482   4.328  14.517  1.8854 -0.0018  1.1551
 5247SOL    HW227204   1.484   4.392  14.652 -2.0999  0.3188  2.6276
 5248SOL     OW27205   3.573   0.986   5.397  0.6402 -0.0628 -0.2604
 5248SOL    HW127206   3.594   0.901   5.360  2.3285  0.5081 -0.5913
 5248SOL    HW227207   3.660   1.025   5.388  1.2266 -1.1260  0.8850
 5249SOL     OW27208   0.304   0.217   4.209 -0.3850 -0.5008 -0.4775
 5249SOL    HW127209   0.299   0.203   4.115  2.0782  2.0048 -0.9481
 5249SOL    HW227210   0.223   0.266   4.223  0.7263  1.8212 -2.3829
 5250SOL     OW27211   3.932   3.837   7.296 -0.6324 -0.6839 -0.2663
 5250SOL    HW127212   4.018   3.816   7.260 -0.5232 -1.6238  0.5440
 5250SOL    HW227213   3.939   3.931   7.310 -0.6324 -0.7704  0.3324
 5251SOL     OW27214   1.348   3.516   3.402 -0.5619 -0.4035  0.1819
 5251SOL    HW127215   1.270   3.512   3.458  0.1707  1.8188  1.3170
 5251SOL    HW227216   1.419   3.466   3.443 -3.0346 -2.2126  2.2726
 5252SOL     OW27217   2.716   4.077   9.575  0.4719  0.6583 -0.2707
 5252SOL    HW127218   2.682   4.011   9.634  0.5590 -0.0000 -0.9506
 5252SOL    HW227219   2.807   4.071   9.604  0.1172 -1.5627  0.3693
 5253SOL     OW27220   3.002   1.774   0.943 -0.3076 -0.3029  0.3112
 5253SOL    HW127221   2.941   1.741   1.008  1.3894  0.1119  2.1228
 5253SOL    HW227222   3.066   1.822   0.995  1.4816  0.4662 -2.6189
 5254SOL     OW27223   3.633   2.182   3.334 -0.1090  0.3332 -0.1288
 5254SOL    HW127224   3.727   2.196   3.344 -0.0451  0.7520 -1.2963
 5254SOL    HW227225   3.612   2.265   3.290 -1.4480 -0.4836 -1.0298
 5255SOL     OW27226   1.211   0.616   3.909  0.4247  0.3502 -0.0414
 5255SOL    HW127227   1.127   0.596   3.952 -0.4069  1.4862 -1.1339
 5255SOL    HW227228   1.187   0.651   3.823  0.9116  0.7756 -0.0028
 5256SOL     OW27229   1.859   3.156   3.021 -0.1934 -0.7816  0.0515
 5256SOL    HW127230   1.939   3.114   2.990 -0.0585  0.4483 -1.2713
 5256SOL    HW227231   1.827   3.086   3.078  0.2223  0.0799  1.3750
 5257SOL     OW27232   0.130   0.316   8.218  0.2964 -0.0633 -0.6775
 5257SOL    HW127233   0.183   0.389   8.247  0.3131  0.2473 -1.4769
 5257SOL    HW227234   0.099   0.296   8.306  0.6295 -0.5048 -0.6575
 5258SOL     OW27235   4.416   1.058   2.377  0.0585 -0.2754 -0.3789
 5258SOL    HW127236   4.413   1.119   2.304 -0.9057  1.2712  0.9385
 5258SOL    HW227237   4.334   1.009   2.372  0.4075 -1.0357  1.3204
 5259SOL     OW27238   1.637   3.282   0.705  0.2124  0.3527  0.0172
 5259SOL    HW127239   1.595   3.197   0.723 -1.7752  1.2251 -0.5571
 5259SOL    HW227240   1.710   3.273   0.767  0.3168 -0.2017 -0.1833
 5260SOL     OW27241   4.302   4.396   3.045  0.3268 -0.3761 -0.0666
 5260SOL    HW127242   4.217   4.433   3.022  1.0846  0.4380 -1.6162
 5260SOL    HW227243   4.290   4.342   3.123 -0.0913  1.1865  0.9340
 5261SOL     OW27244   1.614   3.944   8.605 -0.4525 -0.3320 -0.0084
 5261SOL    HW127245   1.699   3.903   8.621 -0.9054 -0.8543  1.0265
 5261SOL    HW227246   1.553   3.911   8.671  1.1203 -1.2523  0.9656
 5262SOL     OW27247   2.550   0.107  10.394  0.3519  0.1325 -0.8563
 5262SOL    HW127248   2.569   0.149  10.478 -4.7455  0.6327  0.0804
 5262SOL    HW227249   2.637   0.072  10.374  0.0001 -1.0983 -0.2291
 5263SOL     OW27250   0.321   0.823   1.088  0.2463 -0.1054  0.6043
 5263SOL    HW127251   0.327   0.907   1.043  0.9449 -0.7280 -0.4799
 5263SOL    HW227252   0.236   0.839   1.129  0.2156  1.2279  0.0361
 5264SOL     OW27253   0.769   2.167   1.472  0.0057  0.0960  0.5135
 5264SOL    HW127254   0.782   2.208   1.386  3.5091 -1.4306  0.3272
 5264SOL    HW227255   0.787   2.240   1.531  1.0420 -2.3505  3.2433
 5265SOL     OW27256   2.086   4.501   9.288  0.3803  0.0281 -0.4628
 5265SOL    HW127257   2.138   4.427   9.320  1.1962  0.1615 -1.4880
 5265SOL    HW227258   2.114   4.570   9.348 -0.5678  0.2553 -0.2942
 5266SOL     OW27259   3.270   0.353  16.923 -0.3112  0.4128  0.3384
 5266SOL    HW127260   3.347   0.380  16.971  0.9067 -2.1541 -0.1552
 5266SOL    HW227261   3.252   0.273  16.973 -0.0230 -2.0986 -3.5152
 5267SOL     OW27262   1.389   3.507  16.602  0.1414 -0.2885  0.4226
 5267SOL    HW127263   1.380   3.429  16.656 -2.9836 -1.1391 -1.2773
 5267SOL    HW227264   1.346   3.465  16.527 -2.0187  0.9187  0.9691
 5268SOL     OW27265   3.966   0.279   4.724 -0.4982  0.3224 -0.4450
 5268SOL    HW127266   3.895   0.260   4.663 -0.8599 -2.3783  0.8253
 5268SOL    HW227267   3.944   0.201   4.774  0.6829  0.7063  0.6853
 5269SOL     OW27268   4.121   2.327   5.652  0.6459 -0.2695 -0.3759
 5269SOL    HW127269   4.056   2.262   5.625 -0.6895  1.4738 -1.4022
 5269SOL    HW227270   4.194   2.273   5.681 -0.4372 -1.7243 -0.3628
 5270SOL     OW27271   4.397   1.282  10.603 -0.0706 -0.1103 -0.2488
 5270SOL    HW127272   4.466   1.221  10.629  0.7901  1.0386  0.1947
 5270SOL    HW227273   4.452   1.360  10.601  0.8286 -0.7085  1.1663
 5271SOL     OW27274   0.901   1.402   3.303  0.3627  0.2345 -0.2438
 5271SOL    HW127275   0.993   1.380   3.290  0.1610  0.7375 -2.6696
 5271SOL    HW227276   0.882   1.359   3.386  2.7024  0.9700  0.6815
 5272SOL     OW27277   3.805   4.481   0.113  0.5966 -0.3234 -0.3423
 5272SOL    HW127278   3.828   4.398   0.153  1.8758 -0.2166 -0.8557
 5272SOL    HW227279   3.793   4.536   0.191  1.0420 -0.6218 -0.0607
 5273SOL     OW27280   1.939   1.202   2.270  0.6795  0.6435 -0.1254
 5273SOL    HW127281   1.966   1.117   2.236 -1.9077 -0.1029 -0.3231
 5273SOL    HW227282   1.894   1.241   2.195  0.4544  1.9886  0.6981
 5274SOL     OW27283   4.330   3.830   1.454  0.5643  0.1382  0.5201
 5274SOL    HW127284   4.324   3.749   1.403  1.8940  0.3305  0.0630
 5274SOL    HW227285   4.319   3.799   1.544  0.1032  0.1978  0.4851
 5275SOL     OW27286   3.716   3.525   6.819 -0.6744  0.1439 -0.0219
 5275SOL    HW127287   3.775   3.579   6.871  0.4329 -0.4865 -0.6169
 5275SOL    HW227288   3.666   3.591   6.771 -1.7852 -0.2922  0.5566
 5276SOL     OW27289   0.493   0.590   2.223 -0.0108  0.3798  0.4081
 5276SOL    HW127290   0.502   0.595   2.128 -0.1136  0.6967  0.4138
 5276SOL    HW227291   0.400   0.569   2.231 -0.2566  0.8990 -1.1360
 5277SOL     OW27292   1.734   1.044   0.363 -0.2378 -0.2610 -0.2916
 5277SOL    HW127293   1.792   1.109   0.324 -3.6868  1.8173 -1.9432
 5277SOL    HW227294   1.773   1.040   0.450  0.8231 -0.7900 -0.7921
 5278SOL     OW27295   3.996   0.159   3.889  0.3114 -0.3655 -0.6073
 5278SOL    HW127296   3.992   0.097   3.816  2.5403  0.0197 -1.0713
 5278SOL    HW227297   3.908   0.164   3.925  1.0210  0.7246  0.9983
 5279SOL     OW27298   3.627   4.697   8.530 -0.8738 -0.9448  0.4334
 5279SOL    HW127299   3.662   0.042   8.591  0.8433  2.1185 -3.8012
 5279SOL    HW227300   3.653   4.614   8.570  0.0706  0.6211  3.0889
 5280SOL     OW27301   2.896   4.085   4.031  0.4572 -0.2760 -0.3162
 5280SOL    HW127302   2.827   4.130   3.982  1.7086  0.7495 -1.1176
 5280SOL    HW227303   2.871   4.111   4.120 -1.0341 -0.0846 -0.7972
 5281SOL     OW27304   0.191   2.721   6.677  0.6092  0.5232 -0.0456
 5281SOL    HW127305   0.264   2.661   6.690  0.4971  0.2678 -0.6343
 5281SOL    HW227306   0.132   2.688   6.610  0.2837  0.4804  0.2619
 5282SOL     OW27307   3.646   1.718   1.788 -0.6496 -0.1172  0.7253
 5282SOL    HW127308   3.699   1.754   1.860  0.0307 -0.9254  0.6289
 5282SOL    HW227309   3.634   1.800   1.741 -0.1558 -0.1046  0.6144
 5283SOL     OW27310   2.135   2.949  13.157  0.2313 -0.0646  0.1554
 5283SOL    HW127311   2.166   2.966  13.068  0.2249  5.1777  1.1696
 5283SOL    HW227312   2.155   3.034  13.196 -1.1404 -1.3295  3.5875
 5284SOL     OW27313   2.481   3.213   1.012 -0.1926  0.6775  0.1602
 5284SOL    HW127314   2.503   3.137   0.958  1.7790  0.3166  1.4761
 5284SOL    HW227315   2.509   3.180   1.097 -2.0041 -2.1752 -0.3570
 5285SOL     OW27316   1.856   3.461  12.904 -0.0043  0.0762 -0.1984
 5285SOL    HW127317   1.941   3.437  12.867 -0.3258  1.9339 -2.1288
 5285SOL    HW227318   1.798   3.449  12.829 -0.7661 -1.3109  0.6221
 5286SOL     OW27319   3.632   4.625   2.413 -0.4646 -0.2615 -0.1138
 5286SOL    HW127320   3.623   4.606   2.319 -2.2701  1.1709 -0.2126
 5286SOL    HW227321   3.725   4.647   2.425 -0.0200 -1.2791 -1.7369
 5287SOL     OW27322   0.973   0.197   6.400  0.5169  0.4589  0.5295
 5287SOL    HW127323   1.010   0.168   6.317 -0.3249 -0.2393  0.3932
 5287SOL    HW227324   0.879   0.177   6.393  0.9311 -1.4792  0.4417
 5288SOL     OW27325   2.174   4.706   1.388  0.0546  0.4376 -0.2810
 5288SOL    HW127326   2.222   4.686   1.308  0.2070 -1.2598  0.2344
 5288SOL    HW227327   2.147   0.074   1.360  0.0266  1.1315  1.9454
 5289SOL     OW27328   2.356   2.149  14.486  0.0176 -0.1091  0.0352
 5289SOL    HW127329   2.382   2.163  14.577  1.3057  1.0079 -0.5058
 5289SOL    HW227330   2.271   2.194  14.489  0.4106  0.6863 -0.7132
 5290SOL     OW27331   1.309   1.288   2.332 -0.0520  0.3605 -0.0120
 5290SOL    HW127332   1.388   1.326   2.369  0.9508  1.2442 -3.0732
 5290SOL    HW227333   1.250   1.363   2.338  0.2506  0.6931 -1.2386
 5291SOL     OW27334   0.245   3.943  10.663 -0.5614 -0.1849  0.1161
 5291SOL    HW127335   0.154   3.928  10.687 -0.6444 -0.0153 -0.1013
 5291SOL    HW227336   0.292   3.876  10.714 -0.9213 -0.3122  0.2836
 5292SOL     OW27337   1.070   3.594   5.363  0.1706 -0.6995  0.4339
 5292SOL    HW127338   1.002   3.605   5.297 -0.6810  1.7231  1.7131
 5292SOL    HW227339   1.133   3.664   5.345  1.7338 -2.1425  0.2436
 5293SOL     OW27340   2.772   0.523   8.836 -0.2999  0.0458  0.1876
 5293SOL    HW127341   2.831   0.592   8.805 -1.6642  0.3754 -1.6518
 5293SOL    HW227342   2.815   0.485   8.912 -0.0563 -0.0879 -0.0164
 5294SOL     OW27343   2.750   0.925  16.615  0.3291  0.0791 -0.0160
 5294SOL    HW127344   2.827   0.869  16.627  0.1319 -0.9506 -3.6644
 5294SOL    HW227345   2.778   1.013  16.591  0.7869 -0.4959 -1.5621
 5295SOL     OW27346   0.611   2.074   6.034  0.4146  0.0753 -0.0511
 5295SOL    HW127347   0.643   2.122   5.958  1.9632 -1.8792 -0.6283
 5295SOL    HW227348   0.516   2.071   6.021  0.7366 -0.4822 -2.2369
 5296SOL     OW27349   4.005   0.231   3.531 -0.0085 -0.4899 -0.2943
 5296SOL    HW127350   3.966   0.155   3.574 -0.2911  0.5208  1.2464
 5296SOL    HW227351   3.960   0.216   3.448  0.5321 -2.1190 -0.2853
 5297SOL     OW27352   1.965   4.488   5.473 -0.2763 -0.1014 -0.1278
 5297SOL    HW127353   2.058   4.473   5.487 -0.8118 -2.1928  1.1321
 5297SOL    HW227354   1.935   4.484   5.564 -0.0313 -2.9342 -0.1781
 5298SOL     OW27355   4.121   1.175   7.781  0.3468 -0.0939 -0.3456
 5298SOL    HW127356   4.078   1.256   7.809 -1.4330 -0.9943 -0.4707
 5298SOL    HW227357   4.206   1.176   7.826  0.2445 -2.1853 -0.1206
 5299SOL     OW27358   2.738   2.945   4.123  0.3653  0.1933  0.3192
 5299SOL    HW127359   2.684   2.924   4.047 -0.0042 -0.2456  0.7078
 5299SOL    HW227360   2.791   3.019   4.092  3.5500 -2.1210  0.2311
 5300SOL     OW27361   2.380   3.834   7.861  0.2459  0.3541 -0.1676
 5300SOL    HW127362   2.402   3.927   7.865 -0.0794  0.3945  0.6730
 5300SOL    HW227363   2.313   3.833   7.792 -1.1084  0.3114  1.1380
 5301SOL     OW27364   2.947   3.854   0.817 -0.2333  0.4378 -0.2002
 5301SOL    HW127365   3.023   3.908   0.794  0.4750 -0.2316  0.5422
 5301SOL    HW227366   2.924   3.813   0.734  0.0585  0.3103 -0.2173
 5302SOL     OW27367   2.905   0.444   7.331 -0.1384  0.2562  0.0750
 5302SOL    HW127368   2.991   0.466   7.368  0.2389 -0.4193 -0.4002
 5302SOL    HW227369   2.906   0.493   7.249  0.7158  2.2612  1.2606
 5303SOL     OW27370   2.608   4.181  10.232  0.4708  0.0520 -0.3090
 5303SOL    HW127371   2.520   4.165  10.265  0.5365  0.7328  0.1953
 5303SOL    HW227372   2.617   4.272  10.259  0.8489 -0.0855  0.0324
 5304SOL     OW27373   1.107   1.173   5.576  0.2337 -0.3686  0.2792
 5304SOL    HW127374   1.147   1.214   5.499 -2.8742 -0.4510 -1.3776
 5304SOL    HW227375   1.172   1.106   5.601 -1.4857 -2.4280 -0.7443
 5305SOL     OW27376   2.430   3.267   6.622  0.5299 -0.1318 -0.1486
 5305SOL    HW127377   2.343   3.238   6.649 -0.0444  1.0970 -0.6802
 5305SOL    HW227378   2.481   3.186   6.623  0.7733  0.0217  0.2964
 5306SOL     OW27379   2.405   0.607   6.595 -0.6691 -0.2792 -0.3829
 5306SOL    HW127380   2.495   0.605   6.563 -0.8880 -1.0234 -0.9575
 5306SOL    HW227381   2.407   0.688   6.646  1.1319 -1.8192  2.0189
 5307SOL     OW27382   3.191   2.767   8.436  0.5392  0.2845 -0.5656
 5307SOL    HW127383   3.211   2.695   8.496  0.6570  0.8236  0.0370
 5307SOL    HW227384   3.135   2.734   8.365 -1.0921  0.9069  0.4314
 5308SOL     OW27385   0.785   4.231   4.048 -0.1137 -0.2738 -0.1567
 5308SOL    HW127386   0.874   4.245   4.015 -0.2982  1.2398 -0.0338
 5308SOL    HW227387   0.735   4.255   3.970 -1.5461  0.3306  0.9528
 5309SOL     OW27388   2.569   2.430  15.954 -0.0798 -0.3208  0.5211
 5309SOL    HW127389   2.594   2.481  16.031 -1.2468  1.4988 -0.3196
 5309SOL    HW227390   2.501   2.492  15.929  0.9305  0.1942 -0.9128
 5310SOL     OW27391   0.434   0.512   5.265 -0.1325  0.8358  0.3192
 5310SOL    HW127392   0.341   0.532   5.274 -0.3930  0.3572 -1.3344
 5310SOL    HW227393   0.429   0.427   5.222 -1.5839  1.7595 -1.3383
 5311SOL     OW27394   1.620   1.326   5.853  0.2828  0.3922  0.1003
 5311SOL    HW127395   1.525   1.316   5.863  0.6186 -2.1339  0.8857
 5311SOL    HW227396   1.632   1.357   5.763 -0.6038 -1.0837 -0.5420
 5312SOL     OW27397   2.004   1.649   9.346  0.7991 -0.3450 -0.3210
 5312SOL    HW127398   1.987   1.718   9.410 -2.3318  0.8703 -2.4223
 5312SOL    HW227399   1.917   1.609   9.342  0.0632  1.0826  1.3886
 5313SOL     OW27400   0.602   0.483   7.778 -0.0590  0.4844  0.3475
 5313SOL    HW127401   0.669   0.469   7.844  1.2134 -2.0275 -1.4319
 5313SOL    HW227402   0.519   0.451   7.812 -0.8373  0.5567 -1.4674
 5314SOL     OW27403   1.268   3.497   9.137  0.0178  0.3584  0.0801
 5314SOL    HW127404   1.176   3.474   9.150 -0.3606  0.9567 -1.5320
 5314SOL    HW227405   1.313   3.444   9.203 -1.4111  0.1485  0.9080
 5315SOL     OW27406   1.259   4.696   3.448  0.1627  0.0016  0.6184
 5315SOL    HW127407   1.246   4.603   3.462 -1.8152  0.6364  2.9452
 5315SOL    HW227408   1.176   0.002   3.408  0.8395  1.5335  0.1697
 5316SOL     OW27409   0.802   3.384   3.046 -0.1806 -0.1278  0.0836
 5316SOL    HW127410   0.729   3.346   2.997  0.3101 -1.5339  0.4356
 5316SOL    HW227411   0.869   3.317   3.032 -0.3433 -0.8413  2.6708
 5317SOL     OW27412   3.217   3.552   2.959  0.1137  0.0568  0.4330
 5317SOL    HW127413   3.219   3.496   2.882  1.6302  1.4795 -0.5731
 5317SOL    HW227414   3.145   3.610   2.935 -0.3373 -0.4356  0.6091
 5318SOL     OW27415   2.621   0.027   3.924  0.2208  0.3039 -0.2107
 5318SOL    HW127416   2.702   0.004   3.878  1.0463 -0.1185  1.4548
 5318SOL    HW227417   2.560   0.065   3.861  0.0537 -0.2508 -0.3811
 5319SOL     OW27418   3.570   0.646   4.505  0.7174 -0.1902  0.6079
 5319SOL    HW127419   3.476   0.642   4.486  1.5652 -1.8711 -3.1966
 5319SOL    HW227420   3.598   0.737   4.495  1.3780 -0.6904 -1.9487
 5320SOL     OW27421   2.721   0.619   1.217  0.1503 -0.6672  0.6141
 5320SOL    HW127422   2.700   0.676   1.291  1.6366  1.3598 -0.5276
 5320SOL    HW227423   2.720   0.690   1.153  0.4230 -0.1866  1.1401
 5321SOL     OW27424   3.373   0.679   7.786  0.1437  0.6708 -0.3543
 5321SOL    HW127425   3.352   0.602   7.734  2.8962 -0.6966  0.5780
 5321SOL    HW227426   3.353   0.653   7.876  0.5796 -0.8735 -0.7075
 5322SOL     OW27427   1.783   2.233  16.935  0.0268 -0.0585 -0.8442
 5322SOL    HW127428   1.702   2.199  16.897  0.0442 -0.7357 -0.2866
 5322SOL    HW227429   1.747   2.301  16.992 -2.1950 -2.1886  0.2734
 5323SOL     OW27430   2.178   0.242   2.236 -0.2993 -0.2134 -0.3900
 5323SOL    HW127431   2.131   0.322   2.260  0.8567  0.6514 -1.0027
 5323SOL    HW227432   2.127   0.215   2.160 -0.5288 -1.2176  0.1202
 5324SOL     OW27433   3.367   4.040   2.988 -0.5683  0.1746  0.5458
 5324SOL    HW127434   3.363   4.090   3.069 -1.3796  1.7531 -0.4543
 5324SOL    HW227435   3.350   3.949   3.013 -1.7674  0.0402 -0.7201
 5325SOL     OW27436   3.636   3.450  10.025 -0.0345 -0.3476 -0.0180
 5325SOL    HW127437   3.717   3.492  10.053 -0.3855  0.5361 -0.3197
 5325SOL    HW227438   3.577   3.456  10.100 -1.2361  1.2567 -1.0766
 5326SOL     OW27439   2.958   2.725   6.095  0.3899  0.9487 -0.1740
 5326SOL    HW127440   3.019   2.718   6.169 -0.3403  2.2817  0.5628
 5326SOL    HW227441   3.008   2.792   6.049 -1.4694  0.5237 -2.7542
 5327SOL     OW27442   0.311   1.308   6.250 -0.3495 -0.1363 -0.5304
 5327SOL    HW127443   0.368   1.241   6.287 -0.8580 -0.2112  0.1307
 5327SOL    HW227444   0.367   1.385   6.246  0.6837 -0.8042  0.9205
 5328SOL     OW27445   1.587   3.797   6.385  0.9850  0.0651  0.4738
 5328SOL    HW127446   1.549   3.852   6.454 -0.5501  1.2152 -1.3004
 5328SOL    HW227447   1.678   3.774   6.404  0.2708 -3.0495  0.1166
 5329SOL     OW27448   2.405   3.500   7.464  0.3943 -0.3916  0.3560
 5329SOL    HW127449   2.362   3.447   7.396  1.7127  0.4258 -1.1092
 5329SOL    HW227450   2.463   3.554   7.410 -1.7632  1.9187  0.3319
 5330SOL     OW27451   0.763   3.304   0.216  0.0171  0.0039 -0.2279
 5330SOL    HW127452   0.725   3.332   0.300  1.6670 -3.0248  1.5274
 5330SOL    HW227453   0.680   3.278   0.177  0.4881  0.8209 -1.7662
 5331SOL     OW27454   2.601   3.985   2.986 -0.1775  0.2833  0.2181
 5331SOL    HW127455   2.612   4.076   3.012  0.0853  0.1948  0.4153
 5331SOL    HW227456   2.624   3.945   3.070  0.6522  2.3570  0.9598
 5332SOL     OW27457   1.696   4.052  10.233 -0.6601  0.2907 -0.0214
 5332SOL    HW127458   1.740   4.134  10.255 -0.3160  0.0723  0.1057
 5332SOL    HW227459   1.621   4.080  10.286  0.2977  0.2091  1.3743
 5333SOL     OW27460   2.440   3.924   9.265  0.4645  0.9306  0.7546
 5333SOL    HW127461   2.441   3.989   9.194  2.6846  1.0218  0.8843
 5333SOL    HW227462   2.530   3.894   9.270 -0.0326 -1.1609 -2.3807
 5334SOL     OW27463   0.116   3.311   2.622  0.0662  0.1921 -0.1889
 5334SOL    HW127464   0.101   3.406   2.618 -0.6844  0.1218  0.9821
 5334SOL    HW227465   0.176   3.301   2.548  2.1136  3.7432  0.9631
 5335SOL     OW27466   1.418   4.360  17.636 -0.1004  0.1045  0.2330
 5335SOL    HW127467   1.444   4.449  17.658 -2.6617  1.1922 -1.0712
 5335SOL    HW227468   1.341   4.350   0.012  1.1239  0.2697  1.9135
 5336SOL     OW27469   0.762   3.205  13.070  0.2941 -0.4380 -0.4982
 5336SOL    HW127470   0.710   3.130  13.043  2.9427 -2.1730 -0.8665
 5336SOL    HW227471   0.703   3.250  13.130  0.2065 -2.7760  1.1785
 5337SOL     OW27472   4.653   0.821   5.049 -0.3002 -0.5535  0.3850
 5337SOL    HW127473   4.717   0.882   5.014 -1.8516  0.8048 -0.0707
 5337SOL    HW227474   4.661   0.742   4.995 -1.1563 -0.4082  0.0421
 5338SOL     OW27475   4.036   3.354  11.481  0.6518  0.2228  0.0147
 5338SOL    HW127476   4.083   3.418  11.427 -0.9002 -0.4932 -2.1825
 5338SOL    HW227477   3.961   3.335  11.424 -0.9629  1.1387  1.8315
 5339SOL     OW27478   1.104   0.171   0.186  0.5442  0.1192  0.2175
 5339SOL    HW127479   1.061   0.104   0.133 -0.2418 -0.3699  1.4876
 5339SOL    HW227480   1.059   0.249   0.157  0.7420 -0.4854 -1.7030
 5340SOL     OW27481   0.773   0.287   2.136  0.1148 -0.4371 -0.1354
 5340SOL    HW127482   0.854   0.284   2.085  0.5857  1.6375  0.5092
 5340SOL    HW227483   0.799   0.278   2.228  2.0298 -2.1549 -0.8431
 5341SOL     OW27484   4.594   0.335   2.526 -0.4007 -0.4424  0.8260
 5341SOL    HW127485   4.557   0.325   2.614 -0.4648 -1.2146  0.7101
 5341SOL    HW227486   4.649   0.258   2.514 -0.2925 -0.3947  1.0243
 5342SOL     OW27487   3.794   3.849  13.863  0.1502  0.4605 -0.3491
 5342SOL    HW127488   3.807   3.757  13.885 -0.8071  0.3575 -0.2053
 5342SOL    HW227489   3.865   3.895  13.906  0.8822 -0.5964 -0.4292
 5343SOL     OW27490   2.229   2.518   3.866 -0.6929 -0.4252 -0.1500
 5343SOL    HW127491   2.252   2.453   3.932  0.4014  1.9992  1.8472
 5343SOL    HW227492   2.310   2.569   3.868 -0.3399 -0.8956 -2.1377
 5344SOL     OW27493   1.286   1.424   3.209  1.1368  0.0625 -0.1898
 5344SOL    HW127494   1.239   1.372   3.273 -1.3756 -0.7014 -2.6715
 5344SOL    HW227495   1.378   1.413   3.232  1.2269  1.7613  0.2780
 5345SOL     OW27496   4.255   2.325   4.315  0.0024 -0.3635 -0.5070
 5345SOL    HW127497   4.301   2.386   4.257  0.9569  0.5090  1.1718
 5345SOL    HW227498   4.191   2.380   4.359  1.6193  2.1906 -1.3461
 5346SOL     OW27499   4.588   2.199   8.519  0.2628  0.2658 -0.1162
 5346SOL    HW127500   4.657   2.138   8.493 -0.1434 -0.6291  0.8986
 5346SOL    HW227501   4.584   2.168   8.610  0.6326  0.4083 -0.0510
 5347SOL     OW27502   3.282   3.493   0.435 -0.3841  0.6828  0.1103
 5347SOL    HW127503   3.348   3.502   0.366 -1.7520 -2.5427 -1.6075
 5347SOL    HW227504   3.203   3.479   0.383 -1.0628  1.1481  1.0171
 5348SOL     OW27505   1.823   1.381   3.419 -0.3151 -0.1523 -0.2734
 5348SOL    HW127506   1.874   1.301   3.429  0.5228  0.6593  2.0352
 5348SOL    HW227507   1.891   1.439   3.384 -1.1521  0.9936 -0.0334
 5349SOL     OW27508   2.703   0.413   6.732  0.5298 -0.1643 -0.0886
 5349SOL    HW127509   2.681   0.444   6.644 -2.0844 -2.8646 -0.3724
 5349SOL    HW227510   2.766   0.482   6.751  0.0400  0.4653 -0.7897
 5350SOL     OW27511   2.265   4.638  10.926 -0.4717 -0.1408  0.4134
 5350SOL    HW127512   2.216   4.636  10.844  3.0917 -0.4897 -1.6992
 5350SOL    HW227513   2.327   4.567  10.908 -1.7395 -1.4548  1.1952
 5351SOL     OW27514   1.797   0.687  11.520  0.1301  0.3861 -0.4922
 5351SOL    HW127515   1.720   0.637  11.545 -0.6660  2.1906  0.6829
 5351SOL    HW227516   1.862   0.627  11.557 -2.0126 -1.6224 -0.0039
 5352SOL     OW27517   0.590   2.552   9.293 -0.2969 -0.0706  0.3567
 5352SOL    HW127518   0.549   2.611   9.356 -0.3615  0.3670 -0.0977
 5352SOL    HW227519   0.660   2.517   9.348  0.9101  1.6006 -0.1322
 5353SOL     OW27520   3.991   3.729  17.003  0.3113 -0.0769  0.5963
 5353SOL    HW127521   4.068   3.673  16.995  0.4503  0.4353 -1.6432
 5353SOL    HW227522   4.016   3.785  17.076  1.7618 -1.2829  1.0319
 5354SOL     OW27523   3.815   2.151  10.344  0.4178  0.3224  0.2368
 5354SOL    HW127524   3.733   2.114  10.311  0.7584  0.8576 -1.2180
 5354SOL    HW227525   3.774   2.224  10.390  0.1207 -0.2426  0.8584
 5355SOL     OW27526   0.164   0.025   2.516  0.5543 -0.0394  0.2236
 5355SOL    HW127527   0.110   0.047   2.441  1.6112 -0.8375 -0.7634
 5355SOL    HW227528   0.249   0.012   2.474  0.7275  0.9036  0.2862
 5356SOL     OW27529   1.246   4.452  11.645 -0.9245 -0.4789 -0.6032
 5356SOL    HW127530   1.303   4.406  11.706 -0.2501  0.8531 -0.2359
 5356SOL    HW227531   1.247   4.540  11.683  1.8218 -0.9042  0.3069
 5357SOL     OW27532   1.130   0.596   3.418  0.8565  0.3883 -0.5835
 5357SOL    HW127533   1.202   0.634   3.366  1.4509 -1.5440 -1.1567
 5357SOL    HW227534   1.174   0.525   3.465 -1.1950 -0.6541 -0.2744
 5358SOL     OW27535   4.231   3.185  15.601 -0.4304 -0.2747  0.1151
 5358SOL    HW127536   4.317   3.215  15.574 -0.1518 -1.6897 -0.5832
 5358SOL    HW227537   4.261   3.143  15.681 -0.2098 -1.0895 -0.3865
 5359SOL     OW27538   1.029   0.348   2.636  0.4525  0.3095 -0.3587
 5359SOL    HW127539   1.077   0.382   2.712  0.4830  2.3268 -1.2689
 5359SOL    HW227540   1.025   0.423   2.577  2.1653  0.0376 -0.8051
 5360SOL     OW27541   3.815   0.870   3.958  0.1403  0.1779 -0.5461
 5360SOL    HW127542   3.835   0.845   3.868 -2.5070  1.8617 -1.6074
 5360SOL    HW227543   3.884   0.936   3.967 -0.5638  0.7844  0.4083
 5361SOL     OW27544   1.901   3.507   5.813  0.0185  0.1878 -0.1948
 5361SOL    HW127545   1.852   3.545   5.886  0.3133 -1.0945  0.6708
 5361SOL    HW227546   1.894   3.565   5.737  0.0991 -0.4476 -0.6832
 5362SOL     OW27547   2.443   3.803   2.666 -0.2650 -0.4637  0.4843
 5362SOL    HW127548   2.460   3.744   2.593 -1.6468  0.8348 -0.8828
 5362SOL    HW227549   2.427   3.883   2.615 -1.3996 -1.5694 -0.8902
 5363SOL     OW27550   3.676   4.009   6.863  0.2376  0.1212 -0.0161
 5363SOL    HW127551   3.712   4.034   6.948 -0.6586  3.1344 -0.5390
 5363SOL    HW227552   3.680   4.088   6.810  0.1951  1.0562  1.3790
 5364SOL     OW27553   3.908   2.604   3.365 -0.4368  0.3630 -0.1363
 5364SOL    HW127554   3.821   2.622   3.330 -0.4603 -0.6590 -0.5943
 5364SOL    HW227555   3.891   2.614   3.459 -0.2270  0.8671 -0.1499
 5365SOL     OW27556   2.753   1.667  10.614  0.8444  0.2878  0.6981
 5365SOL    HW127557   2.797   1.583  10.628  0.9175  0.2553  0.2532
 5365SOL    HW227558   2.810   1.721  10.670  2.0303 -0.4056  0.1366
 5366SOL     OW27559   2.961   3.054  10.143  0.1221 -0.1416 -0.4091
 5366SOL    HW127560   2.960   3.017  10.055  0.9993  2.8581 -1.6958
 5366SOL    HW227561   2.916   2.984  10.190 -2.1681  1.1113 -0.7318
 5367SOL     OW27562   0.434   1.030   4.525 -0.1444 -0.2098  0.6644
 5367SOL    HW127563   0.457   1.122   4.516 -1.4241  0.2615  2.2727
 5367SOL    HW227564   0.477   1.022   4.610  0.2382  2.6316  0.7257
 5368SOL     OW27565   1.854   1.852   1.314  0.1535  0.2153  0.2193
 5368SOL    HW127566   1.805   1.780   1.273  2.8238 -0.9249 -0.9586
 5368SOL    HW227567   1.787   1.907   1.354  1.4401  1.6358  0.3894
 5369SOL     OW27568   3.762   0.075   6.779 -0.1705  0.1002 -0.2787
 5369SOL    HW127569   3.820   4.718   6.776  0.4144  0.4830  1.4680
 5369SOL    HW227570   3.800   0.126   6.850 -1.7030  0.4572  0.2924
 5370SOL     OW27571   0.080   4.657   7.778  0.3332 -0.1047  0.3243
 5370SOL    HW127572   0.142   4.657   7.705 -0.5741  0.7172 -0.4491
 5370SOL    HW227573   0.068   0.032   7.790 -1.0271 -0.3222  0.6620
 5371SOL     OW27574   3.096   1.116  12.581  0.3745 -0.0729 -0.1383
 5371SOL    HW127575   3.076   1.155  12.496  1.4722 -0.6968 -0.6734
 5371SOL    HW227576   3.020   1.150  12.628  0.4012  0.2790 -0.3491
 5372SOL     OW27577   3.785   2.034  13.155  0.0236 -0.3639 -0.1545
 5372SOL    HW127578   3.744   2.074  13.232 -1.2589 -1.3832 -0.3076
 5372SOL    HW227579   3.724   1.961  13.148  2.0629 -1.9900 -0.9215
 5373SOL     OW27580   3.951   3.175   1.381  0.0824 -0.2467  0.1633
 5373SOL    HW127581   3.888   3.246   1.395  2.0247  1.3518  0.8761
 5373SOL    HW227582   3.895   3.128   1.319  1.2791 -0.4888 -0.7293
 5374SOL     OW27583   1.247   0.289   0.670 -0.1174 -0.2132  0.0397
 5374SOL    HW127584   1.220   0.258   0.756  1.4874  0.8795  0.9477
 5374SOL    HW227585   1.173   0.266   0.615  0.1647  1.8073 -1.2133
 5375SOL     OW27586   2.931   2.548   9.694  0.0214 -0.4354  0.5037
 5375SOL    HW127587   2.983   2.473   9.667 -2.7470 -2.5998  1.1843
 5375SOL    HW227588   2.853   2.541   9.639  1.0353  0.3356 -1.0526
 5376SOL     OW27589   3.109   4.214   5.076 -0.5540 -0.3164 -0.3847
 5376SOL    HW127590   3.195   4.211   5.035  0.9625  2.2748  2.5777
 5376SOL    HW227591   3.042   4.220   5.008 -0.0238  1.7369 -0.7319
 5377SOL     OW27592   0.954   0.395   6.570  0.1751 -0.1927  0.3856
 5377SOL    HW127593   0.966   0.323   6.509  0.8203  0.4785 -0.2840
 5377SOL    HW227594   0.905   0.449   6.508  0.1545  0.2359  0.7696
 5378SOL     OW27595   2.329   2.249   3.514 -0.2448  0.1437  0.5356
 5378SOL    HW127596   2.397   2.187   3.490 -0.3404 -0.9206  3.0515
 5378SOL    HW227597   2.271   2.192   3.565  0.9728 -1.5413  0.0177
 5379SOL     OW27598   0.718   1.708  17.558  0.2397 -0.6469 -0.3403
 5379SOL    HW127599   0.767   1.771  17.611 -0.2812  0.2560 -0.9271
 5379SOL    HW227600   0.706   1.635  17.619  2.6504 -0.6857  0.0943
 5380SOL     OW27601   1.654   4.111  16.557  0.9761 -0.6099 -0.0883
 5380SOL    HW127602   1.737   4.159  16.552  1.4697 -1.2523  1.9823
 5380SOL    HW227603   1.657   4.087  16.650  2.1174 -2.7901 -0.6921
 5381SOL     OW27604   0.630   0.923   2.075 -0.9057  0.1489  0.0473
 5381SOL    HW127605   0.585   0.866   2.013  0.5260 -0.9430  0.0187
 5381SOL    HW227606   0.630   0.885   2.163 -1.2590  0.5020  0.1988
 5382SOL     OW27607   3.008   1.800  10.165 -0.0329 -0.8659  0.3701
 5382SOL    HW127608   3.058   1.718  10.157  0.3497 -0.6005  0.0411
 5382SOL    HW227609   2.947   1.769  10.231  0.7512 -2.7466  0.2181
 5383SOL     OW27610   1.862   3.395   5.524  0.3342  0.8148  0.5040
 5383SOL    HW127611   1.855   3.326   5.458  1.3229  1.8926 -0.7471
 5383SOL    HW227612   1.784   3.374   5.576  0.0145  1.7754  0.4093
 5384SOL     OW27613   1.586   1.102  12.122  0.5682 -0.7036 -0.1961
 5384SOL    HW127614   1.497   1.138  12.119  0.6624 -0.3621  1.1506
 5384SOL    HW227615   1.590   1.055  12.206 -1.1959  0.2880  0.4531
 5385SOL     OW27616   3.801   4.546   3.044  0.3267 -0.3630 -0.4060
 5385SOL    HW127617   3.827   4.499   3.124 -0.9282  0.3979  0.4527
 5385SOL    HW227618   3.730   4.491   3.011 -1.2963  1.3885  0.1252
 5386SOL     OW27619   4.325   3.391   7.800  0.3334 -0.2839  0.0656
 5386SOL    HW127620   4.233   3.369   7.786  0.1788 -0.4113  1.2296
 5386SOL    HW227621   4.360   3.303   7.818 -1.8505 -0.5927  2.7501
 5387SOL     OW27622   3.763   2.655   5.236  0.5102 -0.4829  0.7671
 5387SOL    HW127623   3.839   2.708   5.260  0.1294 -0.1056  1.1482
 5387SOL    HW227624   3.789   2.633   5.147 -0.7555 -0.9069  0.5071
 5388SOL     OW27625   0.037   0.899  11.039  0.5149 -0.1231  0.2528
 5388SOL    HW127626   0.127   0.872  11.059  0.7487  0.9631  0.6790
 5388SOL    HW227627   0.021   0.852  10.957 -0.5520  0.6531  0.0234
 5389SOL     OW27628   0.176   0.351  11.031  0.2403 -0.0530  0.7965
 5389SOL    HW127629   0.154   0.383  10.943 -0.0039 -0.1409  0.8262
 5389SOL    HW227630   0.137   0.264  11.039 -2.3143  0.8889 -1.2278
 5390SOL     OW27631   1.972   3.165  13.940  0.0424  0.0022 -0.4201
 5390SOL    HW127632   1.879   3.158  13.963  0.1660 -1.6039 -0.4256
 5390SOL    HW227633   2.011   3.201  14.020 -0.1863 -3.3014  1.1603
 5391SOL     OW27634   3.107   1.989  17.230 -0.0807 -0.1672  0.5138
 5391SOL    HW127635   3.155   1.918  17.273 -0.8239  0.3511  2.2058
 5391SOL    HW227636   3.022   1.952  17.254 -0.1942 -0.6296 -0.6462
 5392SOL     OW27637   4.232   1.478  12.632 -0.5648  0.0021  0.2934
 5392SOL    HW127638   4.194   1.550  12.683 -1.9739 -1.7464  1.7125
 5392SOL    HW227639   4.300   1.448  12.693 -2.3775 -3.8032  0.4491
 5393SOL     OW27640   2.197   0.181  10.366  0.1581  0.0501  0.5048
 5393SOL    HW127641   2.126   0.208  10.425  1.3658 -2.4056  3.1257
 5393SOL    HW227642   2.201   0.089  10.394  0.0114 -0.6545 -1.8364
 5394SOL     OW27643   4.487   0.218   7.077 -0.1140 -0.7348  0.4536
 5394SOL    HW127644   4.516   0.126   7.082  0.0561 -0.8136 -1.8683
 5394SOL    HW227645   4.494   0.243   7.169 -1.8001 -1.1750  0.7027
 5395SOL     OW27646   2.775   1.090   2.313  0.6057  0.0283 -0.5095
 5395SOL    HW127647   2.806   1.164   2.364 -0.5982  0.3995 -0.3153
 5395SOL    HW227648   2.812   1.119   2.230  0.0450  0.4560 -0.6079
 5396SOL     OW27649   0.078   3.617   4.495  0.2751  0.0051 -0.0759
 5396SOL    HW127650   0.025   3.674   4.439 -1.5570 -1.0635  0.5439
 5396SOL    HW227651   0.169   3.644   4.485  0.0001  0.9085 -0.1501
 5397SOL     OW27652   1.953   2.882   5.292 -0.0679  0.0935  0.3927
 5397SOL    HW127653   1.961   2.795   5.330 -0.3845 -0.3257 -0.5048
 5397SOL    HW227654   2.041   2.919   5.305 -0.0250  0.6388 -1.4543
 5398SOL     OW27655   2.670   3.031   3.730  0.3183 -0.1356  0.2673
 5398SOL    HW127656   2.648   3.110   3.681  1.4561 -1.4906 -2.4626
 5398SOL    HW227657   2.587   3.004   3.769  0.2163  1.8923  1.4392
 5399SOL     OW27658   2.215   0.634   5.741  0.3566 -0.4314  0.4665
 5399SOL    HW127659   2.239   0.610   5.651 -0.0077  1.3432 -0.1030
 5399SOL    HW227660   2.287   0.597   5.793  1.1767 -1.0579 -1.0825
 5400SOL     OW27661   2.173   2.283   5.931 -0.1378  0.8234 -0.9493
 5400SOL    HW127662   2.244   2.243   5.981 -1.4129  0.5040  0.5813
 5400SOL    HW227663   2.129   2.344   5.990  0.6196 -0.2680  0.7415
 5401SOL     OW27664   0.383   4.050   6.644  0.0610 -0.2226 -0.1532
 5401SOL    HW127665   0.332   3.971   6.626  0.3611 -0.6878  1.0518
 5401SOL    HW227666   0.334   4.074   6.723  1.3902 -0.5707  0.7619
 5402SOL     OW27667   1.632   0.929   8.721 -0.0093  0.9441 -0.5975
 5402SOL    HW127668   1.608   0.837   8.706  1.5027  0.7272 -1.6770
 5402SOL    HW227669   1.727   0.933   8.729 -0.0707 -0.4089  0.8350
 5403SOL     OW27670   2.284   3.725   9.840 -0.0329  0.6332  0.0912
 5403SOL    HW127671   2.219   3.662   9.809 -0.6378  0.4646  1.6718
 5403SOL    HW227672   2.331   3.754   9.762 -3.2123  2.0642 -1.2624
 5404SOL     OW27673   0.178   4.012   5.057 -0.6005 -0.5133  0.8401
 5404SOL    HW127674   0.110   4.044   5.116 -1.3538  0.9886 -0.8328
 5404SOL    HW227675   0.228   3.956   5.117 -0.0254  1.1843  1.9528
 5405SOL     OW27676   2.342   1.445   3.015 -0.2452  0.1296  0.2031
 5405SOL    HW127677   2.401   1.446   2.939 -1.0437  0.2051 -0.4189
 5405SOL    HW227678   2.271   1.504   2.991 -0.2133  0.3345  0.6194
 5406SOL     OW27679   2.404   1.927   2.943 -0.3755  0.1751 -0.1896
 5406SOL    HW127680   2.383   1.926   3.036 -1.2778 -1.6420 -0.4085
 5406SOL    HW227681   2.389   2.021   2.938  2.1840  0.5597 -0.6400
 5407SOL     OW27682   2.607   4.245   3.066  0.0899  0.1744 -0.8532
 5407SOL    HW127683   2.676   4.299   3.107 -2.5198  2.0022  1.1148
 5407SOL    HW227684   2.535   4.286   3.113 -0.0835  0.2779 -1.2083
 5408SOL     OW27685   0.393   1.533   3.730 -0.1338  0.3168  0.4629
 5408SOL    HW127686   0.351   1.497   3.808  0.9140  0.4733  1.1058
 5408SOL    HW227687   0.345   1.615   3.717 -1.0307  0.6093  5.5948
 5409SOL     OW27688   2.326   3.769   5.855  0.5185  0.1717  0.0575
 5409SOL    HW127689   2.410   3.802   5.822  1.2792 -2.0420 -0.2449
 5409SOL    HW227690   2.356   3.685   5.890 -0.8549 -0.3436  0.0100
 5410SOL     OW27691   0.603   4.580   8.959  0.2325 -0.5286  0.8661
 5410SOL    HW127692   0.634   4.622   9.039 -1.8327  1.0989  0.8285
 5410SOL    HW227693   0.585   4.660   8.909  0.9637  0.6645  2.5263
 5411SOL     OW27694   3.766   4.477   3.681  0.4917 -0.1089 -0.1247
 5411SOL    HW127695   3.709   4.402   3.666  1.6113 -1.0659  0.4140
 5411SOL    HW227696   3.844   4.450   3.634 -0.2707 -0.2142 -1.3139
 5412SOL     OW27697   2.972   0.000   2.933 -0.4222  0.7954 -0.2827
 5412SOL    HW127698   2.992   4.669   2.854  1.2124  2.2792 -0.8219
 5412SOL    HW227699   2.877   0.006   2.934 -0.3819  1.2545  0.8676
 5413SOL     OW27700   2.753   1.090  17.102  0.0507  0.4017 -0.7627
 5413SOL    HW127701   2.762   1.147  17.179  2.9019  2.3169 -2.5268
 5413SOL    HW227702   2.789   1.005  17.127 -1.7895 -1.0381 -3.0521
 5414SOL     OW27703   0.649   1.876   4.624 -0.4658  0.1771 -0.2752
 5414SOL    HW127704   0.697   1.840   4.550  0.1379  3.7425 -1.6333
 5414SOL    HW227705   0.576   1.815   4.616 -0.7105  0.7017 -2.0336
 5415SOL     OW27706   1.498   3.347  11.589  0.0865 -0.2302 -0.1441
 5415SOL    HW127707   1.460   3.427  11.552  0.7912  0.4901  0.7304
 5415SOL    HW227708   1.419   3.294  11.603  0.7005 -1.3019 -0.6772
 5416SOL     OW27709   4.561   4.439   0.450  0.0537 -0.5892 -0.1072
 5416SOL    HW127710   4.546   4.412   0.540 -1.5066  0.8801  0.0752
 5416SOL    HW227711   4.543   4.353   0.412 -0.7448 -0.0445 -0.9713
 5417SOL     OW27712   2.765   2.882   7.138  0.0549 -0.2523  0.4730
 5417SOL    HW127713   2.845   2.932   7.123 -0.1722 -0.1401 -0.3833
 5417SOL    HW227714   2.728   2.935   7.208  1.1014 -0.8038  1.4439
 5418SOL     OW27715   2.997   1.266   8.099  0.2739  0.1421  0.2775
 5418SOL    HW127716   2.977   1.205   8.028  1.1969 -0.4562  0.5428
 5418SOL    HW227717   2.910   1.297   8.126 -0.7640 -2.2212 -0.3096
 5419SOL     OW27718   1.432   2.953   0.475 -0.0493 -0.0855 -0.4249
 5419SOL    HW127719   1.482   2.998   0.407  0.8837 -0.3515  0.0934
 5419SOL    HW227720   1.453   3.013   0.547 -1.9594  1.2680 -1.0047
 5420SOL     OW27721   2.829   0.490   3.399 -0.0926 -0.2179  0.1745
 5420SOL    HW127722   2.744   0.472   3.438 -0.1945  0.0157  0.0548
 5420SOL    HW227723   2.818   0.502   3.305  0.8986  2.7493  0.4540
 5421SOL     OW27724   0.104   3.714   8.638  0.2629 -0.2749  0.5284
 5421SOL    HW127725   0.107   3.715   8.734 -1.7611 -0.6065  0.5935
 5421SOL    HW227726   0.043   3.640   8.636 -0.2136  0.1108  0.9089
 5422SOL     OW27727   2.778   1.813   4.070 -0.2674  0.0842 -0.4568
 5422SOL    HW127728   2.728   1.861   4.004 -3.2508 -1.1106  0.9365
 5422SOL    HW227729   2.703   1.777   4.118  0.1451 -1.9882 -1.3638
 5423SOL     OW27730   2.111   2.056   8.192  0.4452  0.5906 -0.3791
 5423SOL    HW127731   2.107   2.140   8.236 -1.7804  0.9544 -1.2578
 5423SOL    HW227732   2.120   1.998   8.268 -1.0735  1.5863  0.5690
 5424SOL     OW27733   3.521   1.146  16.880 -0.0298 -0.1633 -0.5412
 5424SOL    HW127734   3.450   1.168  16.821 -0.1277 -0.5040 -0.5507
 5424SOL    HW227735   3.548   1.060  16.847 -0.2798 -0.2423 -0.5353
 5425SOL     OW27736   2.222   0.984   1.172  0.6515  0.0983 -0.6630
 5425SOL    HW127737   2.192   1.069   1.139  0.0493 -0.6739 -2.0940
 5425SOL    HW227738   2.183   0.920   1.112 -0.3399  0.7733 -0.7395
 5426SOL     OW27739   0.301   2.012   4.654  0.0558  0.1757  0.2888
 5426SOL    HW127740   0.243   2.075   4.610  0.7648  1.0391  0.5812
 5426SOL    HW227741   0.251   1.938   4.688  2.4323 -0.3547  2.6556
 5427SOL     OW27742   0.632   4.543   7.656 -0.1533  0.5665 -0.1722
 5427SOL    HW127743   0.559   4.482   7.646 -0.6712  0.6604  2.9624
 5427SOL    HW227744   0.615   4.567   7.748 -0.8404  0.3404 -0.2375
 5428SOL     OW27745   0.316   0.579   2.726 -0.1106  0.0101 -0.2989
 5428SOL    HW127746   0.350   0.668   2.726 -1.7852  0.6517  1.2356
 5428SOL    HW227747   0.266   0.584   2.644 -0.9075 -0.3728  0.1631
 5429SOL     OW27748   1.253   2.046  10.235 -0.2631 -0.5466  0.3269
 5429SOL    HW127749   1.321   2.107  10.265  0.6728 -1.0926 -0.7143
 5429SOL    HW227750   1.228   2.069  10.146 -0.9291  0.8682  0.8784
 5430SOL     OW27751   4.615   2.455  13.065 -0.1988 -0.0852  0.5617
 5430SOL    HW127752   4.621   2.522  13.132 -0.6271 -0.0558  0.5681
 5430SOL    HW227753   4.535   2.485  13.022  0.5677  0.1451 -0.7034
 5431SOL     OW27754   2.721   0.832  11.278 -0.0794  0.3532 -0.5478
 5431SOL    HW127755   2.790   0.877  11.229  0.8152  1.1147  1.4420
 5431SOL    HW227756   2.654   0.830  11.210 -1.1788 -1.1259  0.5888
 5432SOL     OW27757   2.808   0.762  13.647 -0.1364  0.3495  0.4863
 5432SOL    HW127758   2.758   0.838  13.675  0.1640  0.4865  0.6480
 5432SOL    HW227759   2.895   0.788  13.678  1.0170 -2.7812 -0.0884
 5433SOL     OW27760   3.019   2.536  12.790 -0.2771  0.1476 -0.0349
 5433SOL    HW127761   3.029   2.603  12.858 -2.7990 -0.2954  0.7927
 5433SOL    HW227762   3.114   2.520  12.792 -0.4123 -0.6326  0.4666
 5434SOL     OW27763   1.398   0.098  14.108  0.1940 -0.0233 -0.5170
 5434SOL    HW127764   1.413   0.083  14.014  1.5099  1.9596 -0.6052
 5434SOL    HW227765   1.477   0.146  14.131 -0.0815  0.1050  0.1377
 5435SOL     OW27766   4.076   3.249   2.082  0.1073  0.8688 -0.0492
 5435SOL    HW127767   4.123   3.325   2.049 -3.1076  3.0815  0.4308
 5435SOL    HW227768   4.106   3.183   2.019 -0.3378  1.3821 -0.8016
 5436SOL     OW27769   3.452   0.341   8.301 -0.0484 -0.4517  0.2723
 5436SOL    HW127770   3.407   0.287   8.366 -0.0158  0.5462  1.1430
 5436SOL    HW227771   3.426   0.301   8.219 -0.4101  0.6655 -0.1568
 5437SOL     OW27772   3.358   2.454  15.067  0.3368  0.2425  0.1038
 5437SOL    HW127773   3.411   2.374  15.069  0.1299  0.1450  1.5035
 5437SOL    HW227774   3.290   2.422  15.009 -0.4413  1.4808  0.3343
 5438SOL     OW27775   3.171   3.593   1.440  0.1125 -0.2863 -0.7322
 5438SOL    HW127776   3.141   3.684   1.432 -0.9090 -0.6593 -1.1287
 5438SOL    HW227777   3.093   3.552   1.478 -0.4942 -0.5028 -2.2365
 5439SOL     OW27778   1.226   0.386   3.579 -0.4629 -0.1333  0.1837
 5439SOL    HW127779   1.226   0.304   3.529 -0.9438  0.0676 -0.1464
 5439SOL    HW227780   1.160   0.359   3.643  0.4147 -1.4285  0.5431
 5440SOL     OW27781   1.431   4.009   6.139 -0.4305 -0.0046 -0.1176
 5440SOL    HW127782   1.402   4.062   6.213 -3.6056 -0.9800 -0.6825
 5440SOL    HW227783   1.369   4.039   6.072 -1.2612  0.1238  0.7076
 5441SOL     OW27784   3.040   2.318  16.562  0.5617  0.3188  0.2516
 5441SOL    HW127785   3.088   2.309  16.644  0.2060 -4.6319 -0.0907
 5441SOL    HW227786   2.972   2.375  16.598  1.5353  0.5002  1.8102
 5442SOL     OW27787   3.940   1.324   5.235  0.5331 -0.4101  0.0757
 5442SOL    HW127788   3.961   1.231   5.230  1.1162 -0.0709 -3.2492
 5442SOL    HW227789   4.010   1.371   5.189  1.0398 -1.8903 -0.6492
 5443SOL     OW27790   3.992   3.417   4.179 -0.3461  0.2847 -0.0009
 5443SOL    HW127791   4.013   3.366   4.101 -0.4445  0.7106 -0.3031
 5443SOL    HW227792   4.021   3.358   4.249  0.7422  0.6979 -0.0990
 5444SOL     OW27793   3.215   1.639   1.940  0.1736  0.0144  0.5962
 5444SOL    HW127794   3.199   1.641   2.035 -1.7632 -1.7574  0.3119
 5444SOL    HW227795   3.127   1.639   1.903  0.2651  0.7980  0.3768
 5445SOL     OW27796   1.020   1.607   3.794 -0.3561  0.6872 -0.2667
 5445SOL    HW127797   0.999   1.595   3.887 -1.5574 -1.1074 -0.7464
 5445SOL    HW227798   1.084   1.536   3.785  0.6589  1.6898 -0.8623
 5446SOL     OW27799   4.469   2.673   6.853  0.2536 -0.2181  0.5976
 5446SOL    HW127800   4.492   2.765   6.840  0.7876 -0.3871  0.3566
 5446SOL    HW227801   4.410   2.658   6.779  1.7540  1.8627 -1.0003
 5447SOL     OW27802   1.295   4.423   8.990  0.4410 -0.0163 -0.3446
 5447SOL    HW127803   1.384   4.401   9.020  0.1097  1.3548  1.6093
 5447SOL    HW227804   1.254   4.433   9.076  1.8272 -0.9860  0.4388
 5448SOL     OW27805   2.174   2.642  13.507  0.2526  0.7426 -0.1058
 5448SOL    HW127806   2.126   2.620  13.428  1.1522  2.7788 -1.2136
 5448SOL    HW227807   2.179   2.737  13.500  0.1577  0.8169  0.8171
 5449SOL     OW27808   3.375   3.163   8.498 -0.4452 -0.1420 -0.1487
 5449SOL    HW127809   3.359   3.240   8.552  0.6864  0.4465 -0.6297
 5449SOL    HW227810   3.456   3.122   8.529 -0.8701 -0.9670 -0.1318
 5450SOL     OW27811   3.313   3.848   5.239 -0.5701  0.3884  0.1092
 5450SOL    HW127812   3.321   3.759   5.274 -0.7372  1.4291  2.7807
 5450SOL    HW227813   3.228   3.834   5.198 -0.6577 -0.2195  0.5058
 5451SOL     OW27814   4.610   4.309   8.621  0.1598 -0.1714 -0.3247
 5451SOL    HW127815   4.518   4.323   8.643  0.8921 -0.7603  3.1379
 5451SOL    HW227816   4.655   4.317   8.706 -0.0232  1.4657 -0.3946
 5452SOL     OW27817   3.306   2.233   9.244  0.2971 -0.4072  0.1458
 5452SOL    HW127818   3.290   2.223   9.338 -2.5305 -0.8498 -0.3931
 5452SOL    HW227819   3.357   2.157   9.215  0.5424  0.4798 -1.7178
 5453SOL     OW27820   2.563   3.875  13.055 -0.6718  0.3861 -0.4563
 5453SOL    HW127821   2.583   3.902  12.965  1.2016  0.9191  0.1213
 5453SOL    HW227822   2.471   3.901  13.058 -0.5173  0.9578 -0.7232
 5454SOL     OW27823   3.796   4.525  13.704  0.1482  0.5633 -0.3747
 5454SOL    HW127824   3.734   4.597  13.697 -1.8011 -1.1261 -0.3450
 5454SOL    HW227825   3.763   4.482  13.783  2.5058 -0.4315  0.0818
 5455SOL     OW27826   0.567   1.649   8.425 -0.2130 -0.1214 -0.6902
 5455SOL    HW127827   0.519   1.624   8.504 -1.6169  0.5050 -1.3498
 5455SOL    HW227828   0.631   1.710   8.463 -1.0984  0.4180 -0.0644
 5456SOL     OW27829   2.541   4.582  14.858 -0.0563 -0.1518  0.9388
 5456SOL    HW127830   2.492   4.555  14.936  0.9690 -0.5446  1.4496
 5456SOL    HW227831   2.579   4.666  14.884  3.5709 -0.7281 -2.5739
 5457SOL     OW27832   0.530   2.594  17.631 -0.2004  0.2542 -0.2949
 5457SOL    HW127833   0.601   2.529  17.627 -0.6646 -0.3634  1.4204
 5457SOL    HW227834   0.547   2.656  17.560 -0.5341  0.8062  0.1146
 5458SOL     OW27835   2.880   0.428   9.059 -0.1500 -0.3839 -0.2546
 5458SOL    HW127836   2.845   0.351   9.105 -0.0818 -0.3284 -0.1097
 5458SOL    HW227837   2.930   0.472   9.128  0.3483 -0.8397 -0.3243
 5459SOL     OW27838   3.166   3.137   8.936 -0.4642 -0.2018 -0.1397
 5459SOL    HW127839   3.128   3.085   8.865 -1.4548 -0.2273  0.3980
 5459SOL    HW227840   3.099   3.134   9.005 -1.3771  0.1749 -0.9982
 5460SOL     OW27841   2.277   3.143   9.060  0.4234  0.2996  0.3142
 5460SOL    HW127842   2.194   3.177   9.095  0.2146 -0.4280  0.5150
 5460SOL    HW227843   2.287   3.201   8.984 -0.1197  0.7752  0.6063
 5461SOL     OW27844   2.023   0.897   1.712  0.3413 -0.5158  0.7371
 5461SOL    HW127845   1.985   0.974   1.754 -0.1150 -1.4539  2.0197
 5461SOL    HW227846   1.962   0.825   1.725 -0.4693 -0.1158 -0.8807
 5462SOL     OW27847   3.103   2.685   1.527  0.5256  0.7512 -0.4809
 5462SOL    HW127848   3.039   2.618   1.505  0.7670  0.2182  0.4370
 5462SOL    HW227849   3.047   2.749   1.572 -1.5993 -0.7704 -0.9619
 5463SOL     OW27850   2.998   3.401   6.102 -0.1012 -0.1852  0.4521
 5463SOL    HW127851   2.971   3.337   6.037  2.1993  0.3333 -1.0025
 5463SOL    HW227852   3.030   3.349   6.175  2.2692  2.0013  0.9810
 5464SOL     OW27853   1.721   2.781   4.017  0.2848  0.5542 -0.2279
 5464SOL    HW127854   1.683   2.736   4.093  0.6551  1.3707  0.4540
 5464SOL    HW227855   1.774   2.704   3.998 -0.8723 -0.5050  0.8391
 5465SOL     OW27856   1.048   0.491  12.447 -0.0033 -0.2047  0.1850
 5465SOL    HW127857   1.123   0.434  12.465 -0.3852 -0.9123 -0.4536
 5465SOL    HW227858   0.972   0.434  12.461 -0.6196  0.8081  0.9835
 5466SOL     OW27859   0.748   4.190  16.826  0.3620  0.2669  0.6637
 5466SOL    HW127860   0.839   4.171  16.850  0.7026 -0.5301 -1.2940
 5466SOL    HW227861   0.718   4.110  16.784  0.0948  0.4159  0.5725
 5467SOL     OW27862   0.204   3.373  11.553  1.0311 -0.2454 -0.2001
 5467SOL    HW127863   0.251   3.378  11.470 -1.2022  2.8797 -1.2698
 5467SOL    HW227864   0.122   3.345  11.513  0.8960  0.5213 -0.4470
 5468SOL     OW27865   0.864   3.273   5.232 -0.0205 -0.1061  0.0086
 5468SOL    HW127866   0.872   3.330   5.156 -1.6851  2.4732  1.7801
 5468SOL    HW227867   0.956   3.274   5.260 -0.8811  0.1391  2.7581
 5469SOL     OW27868   1.509   3.989   8.344 -0.3548 -0.2056 -1.1593
 5469SOL    HW127869   1.448   4.054   8.379 -0.4986 -0.5775 -0.7282
 5469SOL    HW227870   1.521   3.934   8.421 -2.1171  2.9808  1.4036
 5470SOL     OW27871   2.887   2.745   4.915 -0.0570 -0.0536  0.3092
 5470SOL    HW127872   2.972   2.755   4.959 -1.7465  2.5134  2.9527
 5470SOL    HW227873   2.893   2.804   4.840 -2.0521 -1.2850 -0.8259
 5471SOL     OW27874   3.755   3.133  13.035  0.3782  0.0289 -0.2217
 5471SOL    HW127875   3.836   3.087  13.055  0.2577  0.7065  1.8598
 5471SOL    HW227876   3.783   3.216  13.073 -0.4485 -0.3388  1.2134
 5472SOL     OW27877   1.407   3.007   5.616 -0.3415  0.2922 -0.2695
 5472SOL    HW127878   1.458   3.068   5.563  1.4509  1.6557  3.0449
 5472SOL    HW227879   1.372   2.945   5.552 -2.4172 -0.9382  2.0405
 5473SOL     OW27880   2.879   1.029   6.851  0.0295  0.4290 -0.1283
 5473SOL    HW127881   2.937   0.979   6.793  1.7420 -0.3798  2.3017
 5473SOL    HW227882   2.842   1.090   6.786 -1.0527  2.4181  2.3728
 5474SOL     OW27883   3.413   1.196   6.430  0.1963 -0.4282  0.1041
 5474SOL    HW127884   3.331   1.238   6.456 -0.0490 -0.4914 -0.5789
 5474SOL    HW227885   3.371   1.124   6.385 -0.4707 -0.5899  0.9961
 5475SOL     OW27886   3.543   2.495   8.271 -0.0484  0.2981 -0.1291
 5475SOL    HW127887   3.521   2.492   8.178 -1.3155  2.6083  0.0964
 5475SOL    HW227888   3.553   2.590   8.283 -2.4907  0.4673  0.4808
 5476SOL     OW27889   0.249   2.176   7.797  0.3826  0.0827 -0.0043
 5476SOL    HW127890   0.190   2.215   7.732 -0.8038 -0.6107  0.6409
 5476SOL    HW227891   0.200   2.212   7.871 -2.0366 -1.1907 -0.9847
 5477SOL     OW27892   3.603   3.030   8.627  0.2476  0.0689 -0.2178
 5477SOL    HW127893   3.567   3.021   8.716  0.6025  0.3605 -0.0438
 5477SOL    HW227894   3.697   3.025   8.646  0.2899  0.2024 -0.4008
 5478SOL     OW27895   0.097   0.446   6.622 -0.0486  0.7144 -0.3550
 5478SOL    HW127896   0.147   0.524   6.601  1.8731 -0.1552  0.9067
 5478SOL    HW227897   0.041   0.490   6.686  1.6920  0.9899  0.9748
 5479SOL     OW27898   4.512   1.971   8.055 -0.2429 -0.3242  0.0789
 5479SOL    HW127899   4.601   2.008   8.050 -0.2532 -0.4297 -0.8737
 5479SOL    HW227900   4.501   1.980   8.150  2.5727 -2.0656  0.5723
 5480SOL     OW27901   0.888   3.538   0.371 -0.1136 -0.1111  0.2205
 5480SOL    HW127902   0.967   3.486   0.354  0.8018  0.9084  1.3895
 5480SOL    HW227903   0.820   3.472   0.380 -0.9711  0.5646 -1.1892
 5481SOL     OW27904   4.286   3.210   4.409 -0.3365  0.1807  0.1682
 5481SOL    HW127905   4.338   3.202   4.329 -0.3787  1.7099 -0.0117
 5481SOL    HW227906   4.205   3.163   4.389  0.6116 -1.1572 -0.5391
 5482SOL     OW27907   0.986   2.757   3.733  0.0873  0.2899  0.2398
 5482SOL    HW127908   0.939   2.796   3.659  1.7983  0.7668 -0.6112
 5482SOL    HW227909   0.943   2.801   3.807  0.5784  1.1238  0.0357
 5483SOL     OW27910   2.128   2.334   2.037 -0.0165  0.1351  0.1136
 5483SOL    HW127911   2.096   2.388   2.110  1.3607 -0.6028  1.2764
 5483SOL    HW227912   2.209   2.384   2.025 -0.3722  0.2188 -1.8759
 5484SOL     OW27913   3.637   0.267  11.243 -0.5186  0.2139  0.0690
 5484SOL    HW127914   3.703   0.278  11.174  1.2032  3.2824  2.1870
 5484SOL    HW227915   3.567   0.257  11.179 -1.0548 -1.9614  1.0039
 5485SOL     OW27916   0.684   2.031  15.164  0.1760 -0.3813 -0.1850
 5485SOL    HW127917   0.601   2.052  15.121 -1.2034  0.0619  2.6976
 5485SOL    HW227918   0.662   1.981  15.242  1.5591  2.0156  1.7579
 5486SOL     OW27919   3.027   1.122   2.618 -0.0816 -0.0740  0.7424
 5486SOL    HW127920   2.933   1.121   2.599 -0.0283 -0.1558  0.4729
 5486SOL    HW227921   3.044   1.215   2.633 -0.2023  0.2863 -1.2989
 5487SOL     OW27922   0.173   4.428   5.136  0.3266 -0.0809 -0.0088
 5487SOL    HW127923   0.156   4.345   5.181 -1.2685  0.1915 -0.1086
 5487SOL    HW227924   0.266   4.426   5.110  0.3501  1.6371 -0.0847
 5488SOL     OW27925   3.190   3.381   4.140 -0.2748 -0.5167 -0.1819
 5488SOL    HW127926   3.244   3.434   4.198  0.3462 -1.7119  0.3374
 5488SOL    HW227927   3.251   3.310   4.122  0.3263 -0.8062  3.0438
 5489SOL     OW27928   3.537   3.028   6.636  0.0662  0.0867 -0.1874
 5489SOL    HW127929   3.611   2.986   6.681 -0.2376  0.7686  0.9354
 5489SOL    HW227930   3.503   3.092   6.698 -0.3621  0.4953 -0.8506
 5490SOL     OW27931   0.153   4.156  13.883  0.2097  0.0924 -0.5396
 5490SOL    HW127932   0.137   4.153  13.789  1.1031  2.1236 -0.7538
 5490SOL    HW227933   0.094   4.225  13.912  0.2136  0.2061 -0.8042
 5491SOL     OW27934   3.276   0.080  10.090  0.2740 -0.1382 -0.1792
 5491SOL    HW127935   3.310   4.719  10.128  1.1578  0.2552 -0.1244
 5491SOL    HW227936   3.355   0.131  10.071  0.6151 -0.9155 -0.8342
 5492SOL     OW27937   2.991   2.407   5.387 -0.3503  0.2645 -0.0843
 5492SOL    HW127938   3.058   2.339   5.375 -0.3507  0.3600 -0.5954
 5492SOL    HW227939   3.036   2.440   5.465 -1.0209 -1.2207  0.9469
 5493SOL     OW27940   0.606   3.562  12.047  0.0713  0.0351  0.7541
 5493SOL    HW127941   0.606   3.657  12.064  1.5428  0.0844  0.4965
 5493SOL    HW227942   0.514   3.552  12.021  0.6241 -1.6097 -0.5575
 5494SOL     OW27943   0.093   2.101   5.193  0.4923  0.1831  0.0135
 5494SOL    HW127944   0.186   2.122   5.189  0.6680 -0.6625 -0.3397
 5494SOL    HW227945   0.079   2.064   5.280 -0.7719 -0.4875 -0.4739
 5495SOL     OW27946   1.989   2.413   6.073 -0.5582  0.1840 -0.2174
 5495SOL    HW127947   1.937   2.448   6.001 -1.4933 -0.7193  0.0345
 5495SOL    HW227948   1.921   2.381   6.132  0.7858  2.0542  2.3710
 5496SOL     OW27949   2.345   2.465   5.469  0.4312  0.7441  0.1123
 5496SOL    HW127950   2.253   2.458   5.490  0.1985 -0.9131 -1.4805
 5496SOL    HW227951   2.340   2.514   5.387 -2.0658 -1.7041 -1.1839
 5497SOL     OW27952   0.099   4.450  14.879  0.0719  0.0386 -0.2236
 5497SOL    HW127953   0.019   4.458  14.930  0.7810  0.8425  0.7362
 5497SOL    HW227954   0.118   4.361  14.910  1.7057  0.4219 -0.1669
 5498SOL     OW27955   0.925   1.990   6.675 -0.3668 -0.4105  0.4088
 5498SOL    HW127956   0.898   2.012   6.585 -1.2145 -1.6440  0.3536
 5498SOL    HW227957   1.019   2.006   6.677 -0.4055 -0.4274  1.8073
 5499SOL     OW27958   0.596   2.459   7.180  0.2433 -0.1543  0.6321
 5499SOL    HW127959   0.671   2.401   7.165 -0.5995 -1.4108  1.2259
 5499SOL    HW227960   0.588   2.449   7.275  2.9698  0.0868  0.8873
 5500SOL     OW27961   1.294   1.210   2.695 -0.0605 -0.1095 -0.1256
 5500SOL    HW127962   1.312   1.128   2.649 -0.1609 -0.9992  1.4084
 5500SOL    HW227963   1.202   1.223   2.671  0.1390  1.6567  0.0892
 5501SOL     OW27964   1.203   4.083   7.128 -0.4587 -0.1766 -0.0560
 5501SOL    HW127965   1.107   4.090   7.122 -0.4608 -0.6389 -0.5911
 5501SOL    HW227966   1.221   4.121   7.042 -0.4570 -0.3154 -0.1167
 5502SOL     OW27967   3.835   2.630  15.131  0.2473  0.5333 -0.2390
 5502SOL    HW127968   3.898   2.673  15.190  1.4337 -1.5082 -0.0002
 5502SOL    HW227969   3.753   2.672  15.155  1.3180  2.2773  0.4380
 5503SOL     OW27970   2.578   3.809   0.468 -0.4354 -0.3983 -0.0928
 5503SOL    HW127971   2.519   3.883   0.449  2.6366  1.9649 -0.3762
 5503SOL    HW227972   2.617   3.838   0.550 -1.3858  3.9324 -1.1570
 5504SOL     OW27973   3.881   3.513   3.812 -0.1307 -0.3860  0.2799
 5504SOL    HW127974   3.964   3.464   3.814  1.6385  2.5465 -2.9791
 5504SOL    HW227975   3.835   3.452   3.754 -2.6814  2.0958 -0.2815
 5505SOL     OW27976   3.481   2.405   8.012 -0.3604 -0.4029  0.3508
 5505SOL    HW127977   3.563   2.439   7.978 -1.2316  1.0302 -0.3384
 5505SOL    HW227978   3.438   2.388   7.928 -1.0997 -0.5361  0.7510
 5506SOL     OW27979   3.210   0.664   0.521  0.2561 -0.8814  0.5828
 5506SOL    HW127980   3.251   0.578   0.505  2.3680  0.1271  0.5999
 5506SOL    HW227981   3.116   0.645   0.527  0.2153 -1.0878 -0.7113
 5507SOL     OW27982   4.067   3.118   6.247  0.0043 -0.0283  0.1624
 5507SOL    HW127983   3.978   3.150   6.233 -0.4025 -0.7935  0.9814
 5507SOL    HW227984   4.086   3.147   6.337 -2.3129  0.3510  0.5166
 5508SOL     OW27985   1.844   0.847   7.965 -0.0485 -0.3363  0.0936
 5508SOL    HW127986   1.781   0.812   7.903  1.3290  0.9767 -2.0284
 5508SOL    HW227987   1.903   0.894   7.906 -1.6546  0.8543 -0.5459
 5509SOL     OW27988   2.792   2.490   6.106  0.4732  0.3363  0.0845
 5509SOL    HW127989   2.747   2.543   6.172  0.8357 -0.6046  1.1059
 5509SOL    HW227990   2.877   2.475   6.147  0.6062  1.0192  0.0545
 5510SOL     OW27991   2.258   3.705   5.327 -0.0183  0.6058  0.2441
 5510SOL    HW127992   2.313   3.740   5.397  2.4715  0.8484 -1.8024
 5510SOL    HW227993   2.323   3.707   5.256  1.7274 -0.7590  1.8209
 5511SOL     OW27994   3.400   2.574  11.441 -0.4221 -0.2864  0.7031
 5511SOL    HW127995   3.459   2.541  11.374 -1.3373 -1.2174  0.3724
 5511SOL    HW227996   3.460   2.579  11.516 -0.7006 -2.8431  1.0813
 5512SOL     OW27997   1.972   3.105   7.791  0.1480 -0.7111 -0.2137
 5512SOL    HW127998   1.939   3.133   7.877  0.1312 -1.8988  0.1694
 5512SOL    HW227999   1.934   3.171   7.734  3.7096  3.0711  1.8402
 5513SOL     OW28000   1.795   3.297   9.251 -0.6150 -0.1608  0.4247
 5513SOL    HW128001   1.768   3.249   9.329  0.7449 -2.9809 -0.8139
 5513SOL    HW228002   1.717   3.287   9.197  0.2812 -2.4405 -0.4519
 5514SOL     OW28003   2.542   4.184  10.750 -0.1431  0.0986 -0.3887
 5514SOL    HW128004   2.613   4.222  10.699 -0.2512  0.7052 -0.0846
 5514SOL    HW228005   2.568   4.092  10.756 -0.8998 -0.1963 -1.6014
 5515SOL     OW28006   0.526   1.021   3.122  0.2425  0.3892  0.9119
 5515SOL    HW128007   0.503   1.105   3.161 -1.1010  1.0668 -1.3628
 5515SOL    HW228008   0.479   1.026   3.039 -0.4985 -0.0012  1.3069
 5516SOL     OW28009   0.565   1.005  13.141 -0.2903  0.6485 -0.1847
 5516SOL    HW128010   0.629   1.076  13.147  0.5906 -0.2372  0.8083
 5516SOL    HW228011   0.492   1.062  13.162 -0.2699  0.6247 -0.0512
 5517SOL     OW28012   3.159   4.402   3.126 -0.2856 -0.0088  0.4833
 5517SOL    HW128013   3.109   4.463   3.180  0.2298  0.6186  0.2567
 5517SOL    HW228014   3.183   4.470   3.063 -0.4213  1.4864  2.0453
 5518SOL     OW28015   3.149   2.809   6.257  0.6652  0.0601  0.2353
 5518SOL    HW128016   3.208   2.734   6.259  2.9729  1.8247 -1.9332
 5518SOL    HW228017   3.163   2.841   6.346 -0.9287  2.7955 -0.5298
 5519SOL     OW28018   3.549   2.768   5.867 -0.0377  0.7042 -0.0573
 5519SOL    HW128019   3.487   2.789   5.937 -1.1273  0.1849 -0.8747
 5519SOL    HW228020   3.508   2.789   5.784  1.3579  2.6879 -0.2538
 5520SOL     OW28021   0.038   4.659   5.120 -0.1393  0.2948  0.2538
 5520SOL    HW128022   4.671   4.631   5.090  0.3281 -0.1137 -0.7181
 5520SOL    HW228023   0.080   4.576   5.099 -0.2125 -0.4358  3.1040
 5521SOL     OW28024   0.102   1.363   5.436 -0.1703  0.0357 -0.0726
 5521SOL    HW128025   0.009   1.347   5.449  0.3695 -2.0089  1.1505
 5521SOL    HW228026   0.127   1.398   5.521 -2.6658 -2.8729  1.8295
 5522SOL     OW28027   2.480   3.836   8.224 -0.1209 -0.4377  0.4681
 5522SOL    HW128028   2.447   3.918   8.188 -2.5811 -1.0433  1.3313
 5522SOL    HW228029   2.572   3.861   8.224 -0.5551  1.1577  1.2235
 5523SOL     OW28030   2.811   3.449   2.661 -0.2161  0.4070  0.1083
 5523SOL    HW128031   2.794   3.420   2.750  0.6389  0.7960  0.3984
 5523SOL    HW228032   2.885   3.510   2.665  1.1805 -1.4769  2.6067
 5524SOL     OW28033   2.033   0.313   9.060 -0.5706  0.5687 -0.3234
 5524SOL    HW128034   1.979   0.279   8.988 -1.3602 -3.4507  2.1449
 5524SOL    HW228035   2.032   0.406   9.037 -1.3652  1.3436  2.7893
 5525SOL     OW28036   4.187   2.863   6.442 -0.5590 -0.4786  0.5170
 5525SOL    HW128037   4.160   2.877   6.532 -0.6086 -0.6612  0.5304
 5525SOL    HW228038   4.162   2.947   6.404 -1.3598 -1.9130 -2.1423
 5526SOL     OW28039   0.307   2.604   4.942 -0.5908  0.0856 -0.2414
 5526SOL    HW128040   0.305   2.648   5.027  0.0821  2.8351 -1.6447
 5526SOL    HW228041   0.393   2.624   4.906 -0.7129 -0.9695 -1.1267
 5527SOL     OW28042   4.525   4.000   4.364  0.3244 -0.4832 -0.0915
 5527SOL    HW128043   4.573   4.065   4.415 -1.8768  0.7903  0.3479
 5527SOL    HW228044   4.438   4.018   4.399  1.0540 -1.3451  2.1676
 5528SOL     OW28045   1.807   1.860   0.331  0.8440  0.9366  0.6334
 5528SOL    HW128046   1.853   1.853   0.248  1.8279 -0.7898  1.3331
 5528SOL    HW228047   1.795   1.768   0.356 -0.8487  0.7134 -0.9681
 5529SOL     OW28048   4.689   3.168  15.816 -0.3341  0.6806  1.0027
 5529SOL    HW128049   0.002   3.225  15.747 -3.1509  1.4253  0.2725
 5529SOL    HW228050   0.053   3.146  15.856  1.1366  2.9279 -0.8475
 5530SOL     OW28051   3.170   4.664   3.915 -0.3755 -0.1674  0.2546
 5530SOL    HW128052   3.080   4.678   3.943 -0.5532  1.3988 -1.0711
 5530SOL    HW228053   3.171   4.699   3.826  1.9698 -2.0149 -0.4494
 5531SOL     OW28054   3.477   1.976   7.171 -0.3394 -0.3492 -1.1869
 5531SOL    HW128055   3.385   2.001   7.182 -0.7405 -2.0067 -0.7047
 5531SOL    HW228056   3.480   1.884   7.196 -0.5624 -0.4996 -1.7085
 5532SOL     OW28057   1.277   0.732   0.969 -0.6445  0.3839  0.6565
 5532SOL    HW128058   1.327   0.813   0.961  0.1711 -0.2792 -0.9459
 5532SOL    HW228059   1.332   0.674   1.022  0.2706 -0.7191 -1.5288
 5533SOL     OW28060   4.541   4.196  14.858  0.2390 -0.0451  0.3199
 5533SOL    HW128061   4.526   4.286  14.829 -1.5403 -0.7076 -0.8262
 5533SOL    HW228062   4.502   4.144  14.788  2.5255  0.8575 -1.6269
 5534SOL     OW28063   0.371   3.421   8.438 -0.0162  0.3049 -0.3997
 5534SOL    HW128064   0.413   3.507   8.433 -1.2419  0.8725 -1.0326
 5534SOL    HW228065   0.406   3.376   8.362 -0.0292 -0.3279 -0.0291
 5535SOL     OW28066   2.592   4.347   3.435  0.8469  0.0277 -0.2793
 5535SOL    HW128067   2.652   4.353   3.360 -1.5072  0.3727 -2.1439
 5535SOL    HW228068   2.556   4.436   3.434 -0.5642 -0.5231  1.3709
 5536SOL     OW28069   3.202   3.279  10.535  0.7678 -0.0382 -0.0831
 5536SOL    HW128070   3.288   3.236  10.536  1.0823  0.5653 -0.6596
 5536SOL    HW228071   3.152   3.207  10.498 -1.2429  1.3370 -0.0266
 5537SOL     OW28072   3.478   0.555  16.691  0.6741  0.5574 -0.0692
 5537SOL    HW128073   3.560   0.545  16.642  1.0970 -0.1917  0.7928
 5537SOL    HW228074   3.511   0.586  16.775 -1.4428 -1.0043  1.3124
 5538SOL     OW28075   1.775   1.220   1.652 -0.0382 -0.2666  0.5511
 5538SOL    HW128076   1.746   1.137   1.615 -0.6206  0.6745 -1.1083
 5538SOL    HW228077   1.807   1.197   1.739 -1.0557 -1.8507  0.4986
 5539SOL     OW28078   1.843   0.668   7.657 -0.6290  0.2268 -1.0983
 5539SOL    HW128079   1.847   0.573   7.670 -0.3405  0.1019 -2.1173
 5539SOL    HW228080   1.753   0.687   7.682  0.3290 -0.3092  2.8156
 5540SOL     OW28081   1.564   2.903   4.880 -0.3645  0.0618  0.2409
 5540SOL    HW128082   1.473   2.905   4.910 -0.8189 -1.2437 -1.0268
 5540SOL    HW228083   1.610   2.878   4.960  0.1015  2.5782  0.7586
 5541SOL     OW28084   0.361   1.002  17.638 -0.3042  0.4836 -0.8113
 5541SOL    HW128085   0.288   0.975  17.583 -0.8949  0.1458  0.1547
 5541SOL    HW228086   0.435   0.943  17.623 -2.1020 -1.7436 -0.9054
 5542SOL     OW28087   3.633   1.898   5.419 -0.0579  0.1103  0.3525
 5542SOL    HW128088   3.667   1.826   5.367 -0.5911  0.1096 -0.0014
 5542SOL    HW228089   3.600   1.845   5.492  0.1151  0.6665  0.8328
 5543SOL     OW28090   0.464   1.283   3.291  0.5716  0.3409  0.1599
 5543SOL    HW128091   0.462   1.279   3.386 -2.3316  0.7775  0.1217
 5543SOL    HW228092   0.508   1.366   3.270  0.0266  0.6259  0.1391
 5544SOL     OW28093   1.082   2.009   2.846  0.0747 -0.0119  0.8431
 5544SOL    HW128094   1.106   2.093   2.886 -0.9998 -0.2219  1.9265
 5544SOL    HW228095   0.998   2.035   2.808  0.3762 -0.4470 -0.1121
 5545SOL     OW28096   3.331   2.888  10.161 -0.0636  0.2670  0.1598
 5545SOL    HW128097   3.286   2.959  10.116 -1.5689  0.4728  1.9869
 5545SOL    HW228098   3.350   2.925  10.247 -1.2150 -0.0093  0.5349
 5546SOL     OW28099   2.882   0.985  11.113  0.1637 -0.1550  0.2159
 5546SOL    HW128100   2.855   1.018  11.027 -0.0250  0.6259  0.5690
 5546SOL    HW228101   2.872   1.064  11.166 -0.2046 -0.7766  1.0741
 5547SOL     OW28102   0.673   1.979   6.814 -0.2567  0.1233  0.3526
 5547SOL    HW128103   0.754   2.027   6.799  0.2925 -0.5400  1.1764
 5547SOL    HW228104   0.650   1.937   6.732  3.7551  1.0100 -1.2286
 5548SOL     OW28105   2.555   1.643   9.324 -0.1907  0.4874  0.5910
 5548SOL    HW128106   2.478   1.586   9.328 -1.6257  2.2390 -1.3328
 5548SOL    HW228107   2.617   1.580   9.288 -1.3738 -0.0926 -0.4453
 5549SOL     OW28108   2.735   0.638   5.390  0.2487 -0.3648  0.4554
 5549SOL    HW128109   2.812   0.658   5.443  0.8423 -1.6441  0.0821
 5549SOL    HW228110   2.697   0.724   5.374  0.4283 -0.3843 -0.0688
 5550SOL     OW28111   1.788   4.024   2.741 -0.2691 -0.3059 -0.0180
 5550SOL    HW128112   1.877   3.995   2.719  0.0161  0.6119 -0.0671
 5550SOL    HW228113   1.777   4.077   2.662  0.3002  0.9489  0.7467
 5551SOL     OW28114   1.834   3.151  12.874 -0.4353  0.0108 -0.1464
 5551SOL    HW128115   1.770   3.132  12.943 -0.4573  0.5400 -0.0189
 5551SOL    HW228116   1.777   3.206  12.821 -0.3243  1.2136  0.9878
 5552SOL     OW28117   2.594   2.171   7.549 -0.2625  0.7295  0.2326
 5552SOL    HW128118   2.552   2.170   7.636  0.2691 -4.4554  0.4566
 5552SOL    HW228119   2.625   2.261   7.555  1.2585  0.1247  1.5689
 5553SOL     OW28120   3.941   3.451   3.119  0.3577  0.0980 -0.5249
 5553SOL    HW128121   3.994   3.418   3.047  1.6339 -0.9212  0.8680
 5553SOL    HW228122   4.004   3.444   3.191  1.5086  0.6782 -1.4900
 5554SOL     OW28123   1.964   0.366   5.146  0.3115  0.2411 -0.1349
 5554SOL    HW128124   1.998   0.303   5.082  1.7249  0.8147  0.0590
 5554SOL    HW228125   1.899   0.407   5.090 -1.1081  0.8348  1.9258
 5555SOL     OW28126   0.129   4.597   1.699  0.2433  0.6848  0.1786
 5555SOL    HW128127   0.189   4.641   1.759  1.6869  1.4171 -1.8018
 5555SOL    HW228128   0.199   4.554   1.649 -0.4834 -1.0346  0.6386
 5556SOL     OW28129   4.083   2.794   5.312  0.2935  0.1554  0.6515
 5556SOL    HW128130   4.113   2.717   5.264  2.0938  1.9723 -1.1586
 5556SOL    HW228131   4.076   2.755   5.399 -2.5457  0.7066  0.6706
 5557SOL     OW28132   1.605   4.467  14.745 -0.4682  0.5995  0.3153
 5557SOL    HW128133   1.689   4.421  14.749  0.5304  2.3046 -0.7240
 5557SOL    HW228134   1.581   4.438  14.832 -3.2059 -0.7040 -0.8974
 5558SOL     OW28135   3.319   0.613   9.047  0.1453 -0.0396 -0.4045
 5558SOL    HW128136   3.281   0.688   9.001 -0.8720  1.1476  2.3894
 5558SOL    HW228137   3.398   0.651   9.083  0.0824 -0.7357  0.4710
 5559SOL     OW28138   3.023   0.807   9.839  0.0635 -0.2848  0.0456
 5559SOL    HW128139   2.980   0.843   9.760 -0.4323  2.0634  1.3863
 5559SOL    HW228140   2.973   0.727   9.854 -0.7567  0.2419  0.1600
 5560SOL     OW28141   3.250   3.598   0.065  0.3209  0.0416  0.2514
 5560SOL    HW128142   3.225   3.645  17.667  1.0327 -1.4715 -0.8785
 5560SOL    HW228143   3.261   3.678   0.116  0.7913 -0.3773  0.8082
 5561SOL     OW28144   4.132   3.267  13.809  0.3933 -0.1841 -0.2839
 5561SOL    HW128145   4.142   3.282  13.903 -1.3305 -0.1453 -0.1019
 5561SOL    HW228146   4.205   3.211  13.784 -0.6907 -1.0835 -1.3868
 5562SOL     OW28147   2.798   0.636   9.421  0.1243  0.0749 -0.2981
 5562SOL    HW128148   2.795   0.701   9.490 -0.6775 -0.4351  0.1474
 5562SOL    HW228149   2.855   0.675   9.355  0.0167 -1.0784 -1.0753
 5563SOL     OW28150   0.977   1.573   4.888 -0.2170 -0.3525 -0.3439
 5563SOL    HW128151   1.061   1.551   4.848  0.5291  1.4275  0.2173
 5563SOL    HW228152   0.921   1.598   4.815  1.0771  2.1401 -0.4860
 5564SOL     OW28153   1.900   1.866   4.805 -0.2636  0.6122  0.2775
 5564SOL    HW128154   1.853   1.892   4.884 -0.0616 -2.3808  1.3775
 5564SOL    HW228155   1.975   1.815   4.835 -1.4084 -1.0514  0.2714
 5565SOL     OW28156   0.986   3.732   5.879  0.2623  0.0877 -0.1396
 5565SOL    HW128157   0.955   3.708   5.791  1.2773  1.3572 -0.8559
 5565SOL    HW228158   0.905   3.755   5.924 -0.8698  0.0818 -2.1579
 5566SOL     OW28159   0.461   2.531   8.298  0.4543 -0.0308 -0.5944
 5566SOL    HW128160   0.525   2.551   8.230 -1.8568 -0.3742 -2.8962
 5566SOL    HW228161   0.403   2.465   8.260 -1.0899  2.0344 -1.7979
 5567SOL     OW28162   0.883   0.136   2.972  0.6581  0.0726 -0.4574
 5567SOL    HW128163   0.913   0.130   2.881  3.1805 -1.7887  0.4912
 5567SOL    HW228164   0.829   0.215   2.966 -0.5842 -0.7139  0.2256
 5568SOL     OW28165   0.773   2.932   9.578  0.7079  0.1751  0.0802
 5568SOL    HW128166   0.829   3.009   9.565 -1.9986  2.0281 -0.7136
 5568SOL    HW228167   0.695   2.960   9.626 -0.1398 -0.2478 -1.0648
 5569SOL     OW28168   2.847   1.769   6.252 -0.8272  0.8787 -0.1415
 5569SOL    HW128169   2.800   1.844   6.288  3.2239  2.8373  1.0450
 5569SOL    HW228170   2.794   1.740   6.177  0.1559  0.9557 -0.8816
 5570SOL     OW28171   3.728   0.699   6.451 -0.7286  0.4456  0.2067
 5570SOL    HW128172   3.683   0.753   6.516 -0.4163  0.9720 -0.0140
 5570SOL    HW228173   3.795   0.658   6.506 -0.2542  0.6152 -0.2430
 5571SOL     OW28174   1.764   2.975   7.261  0.2295  0.1751  0.2662
 5571SOL    HW128175   1.795   3.066   7.266 -0.5368  0.3329  2.1976
 5571SOL    HW228176   1.842   2.936   7.223  0.3240 -1.2063  1.8959
 5572SOL     OW28177   4.098   3.973   5.432 -0.3232 -0.3847  0.0458
 5572SOL    HW128178   4.093   3.996   5.525  2.1205 -0.1652  0.1097
 5572SOL    HW228179   4.173   3.914   5.426 -1.6187 -1.9209 -0.9185
 5573SOL     OW28180   3.458   3.123   3.846 -0.1232 -0.0348  0.0118
 5573SOL    HW128181   3.551   3.130   3.825 -0.1961  1.7334  0.3181
 5573SOL    HW228182   3.426   3.114   3.757  2.1697 -2.8705 -0.5507
 5574SOL     OW28183   0.276   0.890  11.953  0.0762 -0.3926  0.4750
 5574SOL    HW128184   0.332   0.869  11.878 -0.5872 -1.2620  0.2296
 5574SOL    HW228185   0.340   0.858  12.017  1.6591  1.3683 -0.2195
 5575SOL     OW28186   0.281   1.184   6.821  0.3584  0.2438 -0.4215
 5575SOL    HW128187   0.335   1.231   6.885  0.8700  0.6221 -1.1287
 5575SOL    HW228188   0.223   1.254   6.790  2.6225  2.9358  1.3994
 5576SOL     OW28189   4.678   1.650   2.652  0.4583  0.5851  0.1177
 5576SOL    HW128190   4.617   1.662   2.579  0.4752 -0.1338 -0.0146
 5576SOL    HW228191   4.638   1.568   2.683  0.8112 -0.0588 -1.1449
 5577SOL     OW28192   0.003   1.672   3.797  0.2861  0.4505 -0.1314
 5577SOL    HW128193   0.054   1.711   3.868 -1.3002  0.7230  0.8522
 5577SOL    HW228194   4.643   1.722   3.780  1.4102  1.8213 -1.3182
 5578SOL     OW28195   0.250   4.075  12.891  0.0460  0.0158  0.6692
 5578SOL    HW128196   0.271   4.149  12.948  0.6644  1.9130 -2.0156
 5578SOL    HW228197   0.194   4.029  12.953  1.0710 -0.7551  1.0139
 5579SOL     OW28198   3.137   0.434   6.166 -0.0263  0.3388 -0.8119
 5579SOL    HW128199   3.061   0.390   6.128  0.3504 -1.0366  0.0368
 5579SOL    HW228200   3.123   0.430   6.260  1.0760 -1.4562 -0.7228
 5580SOL     OW28201   0.268   1.523  13.772 -0.1705 -0.0475  0.6826
 5580SOL    HW128202   0.317   1.442  13.760 -1.0094 -0.0387 -2.8570
 5580SOL    HW228203   0.206   1.493  13.839  2.1128 -0.7128  2.4737
 5581SOL     OW28204   1.812   1.110  10.436 -0.5396 -0.6921 -0.4957
 5581SOL    HW128205   1.775   1.022  10.442 -3.3628  0.5697  0.4388
 5581SOL    HW228206   1.846   1.096  10.347  0.5640 -3.3322  0.3362
 5582SOL     OW28207   3.801   1.231   8.301 -0.0668  0.1612 -0.3499
 5582SOL    HW128208   3.766   1.228   8.211 -0.2198 -0.5712 -0.2665
 5582SOL    HW228209   3.895   1.218   8.293  0.1340  0.5442  1.5444
 5583SOL     OW28210   2.768   1.035   8.598 -0.1196 -0.2091  0.2383
 5583SOL    HW128211   2.749   0.942   8.586 -0.1067  0.0474 -1.8418
 5583SOL    HW228212   2.834   1.024   8.667 -0.7867  0.6567  1.0167
 5584SOL     OW28213   0.595   0.098   8.597 -0.5472 -0.0729  0.3169
 5584SOL    HW128214   0.647   0.154   8.539 -0.9185  0.1114  0.1590
 5584SOL    HW228215   0.635   0.112   8.682 -1.7249  1.3402  0.6417
 5585SOL     OW28216   3.548   0.256  10.045  0.2494  0.3341  0.4998
 5585SOL    HW128217   3.594   0.309   9.981 -0.8692  0.1266 -0.4828
 5585SOL    HW228218   3.623   0.209  10.081 -0.6867 -1.1127  0.5845
 5586SOL     OW28219   3.563   0.800   8.548 -0.4407  0.9240 -0.1137
 5586SOL    HW128220   3.484   0.796   8.494 -1.7070 -1.1052  1.8798
 5586SOL    HW228221   3.612   0.876   8.516 -1.9737  1.3639 -1.4107
 5587SOL     OW28222   2.643   3.920  10.728  0.4184 -0.0195  0.3121
 5587SOL    HW128223   2.575   3.912  10.661 -0.4207  0.5131  1.0985
 5587SOL    HW228224   2.635   3.842  10.782  0.2757 -0.6067 -0.5606
 5588SOL     OW28225   3.943   2.660  11.598 -0.0788 -0.5139 -0.5739
 5588SOL    HW128226   3.935   2.675  11.504 -3.0228 -2.0323 -0.5606
 5588SOL    HW228227   3.861   2.699  11.627  0.3323 -2.0777  2.7673
 5589SOL     OW28228   3.713   3.404   4.285 -0.1254  0.0896  0.6078
 5589SOL    HW128229   3.691   3.464   4.214 -0.9583 -1.5992 -0.5655
 5589SOL    HW228230   3.808   3.413   4.284 -0.1751  0.5130 -0.8761
 5590SOL     OW28231   0.430   2.924   1.792  0.6653 -0.4806  0.4741
 5590SOL    HW128232   0.482   2.994   1.830  0.1679  1.3845 -2.2793
 5590SOL    HW228233   0.423   2.960   1.704  0.7168 -1.1341  0.1979
 5591SOL     OW28234   0.414   3.765  10.818  0.1258 -0.2163  0.0872
 5591SOL    HW128235   0.504   3.796  10.809  0.7129 -3.0338 -4.0335
 5591SOL    HW228236   0.418   3.674  10.848  1.4020  0.5932  2.3811
 5592SOL     OW28237   2.642   2.738   7.939 -0.2912  0.1055  0.0012
 5592SOL    HW128238   2.714   2.757   8.000  0.1048  0.1529 -0.4822
 5592SOL    HW228239   2.692   2.696   7.869 -0.4424  0.1894 -0.1566
 5593SOL     OW28240   4.012   1.520   2.622  0.8719 -0.3213  0.5066
 5593SOL    HW128241   4.017   1.575   2.544 -2.7096 -2.1970 -1.0392
 5593SOL    HW228242   3.919   1.503   2.631  0.5772  0.8290 -0.3169
 5594SOL     OW28243   1.888   1.091   1.873  0.5518 -0.5226  0.2178
 5594SOL    HW128244   1.832   1.021   1.905  0.0904 -0.2549  0.0020
 5594SOL    HW228245   1.968   1.075   1.923  0.1263 -1.4913  0.5803
 5595SOL     OW28246   1.731   2.162   1.347 -0.0174 -0.0234 -0.0230
 5595SOL    HW128247   1.675   2.203   1.282  0.9462 -0.1343 -0.9184
 5595SOL    HW228248   1.817   2.185   1.311 -0.0745  1.2703  0.6819
 5596SOL     OW28249   1.711   3.915   5.730 -0.7192  0.6614 -0.2917
 5596SOL    HW128250   1.652   3.878   5.796 -0.5455  0.4129 -0.2745
 5596SOL    HW228251   1.683   4.006   5.743  0.1793  1.1910 -2.0932
 5597SOL     OW28252   4.506   0.930  15.128 -0.2415  0.2191  0.0143
 5597SOL    HW128253   4.439   0.936  15.196 -0.8335  2.3987 -0.7387
 5597SOL    HW228254   4.502   1.016  15.086 -0.1364 -0.0896 -0.6278
 5598SOL     OW28255   0.338   1.050   3.469  0.7353  0.7175  0.4820
 5598SOL    HW128256   0.266   1.010   3.518 -0.4203 -0.1455 -1.8789
 5598SOL    HW228257   0.368   0.985   3.406  0.3755 -2.1993  3.3654
 5599SOL     OW28258   0.413   1.790  12.241 -0.6033  0.1609  0.6477
 5599SOL    HW128259   0.334   1.775  12.294  0.2166 -1.7162  1.3538
 5599SOL    HW228260   0.392   1.745  12.159  0.2871 -0.0398  0.5332
 5600SOL     OW28261   0.589   2.273   9.445 -0.0480 -0.5452 -0.3942
 5600SOL    HW128262   0.509   2.220   9.442  0.0506 -0.7893  1.4796
 5600SOL    HW228263   0.659   2.209   9.435  0.9704  0.7852 -1.7695
 5601SOL     OW28264   2.253   0.723   4.080  0.3110  0.4212  0.1636
 5601SOL    HW128265   2.239   0.683   3.994  4.1980 -0.5599  0.0088
 5601SOL    HW228266   2.292   0.653   4.132  0.5977 -0.8465 -1.7750
 5602SOL     OW28267   1.841   2.451   5.853  0.7117  0.2407  0.0383
 5602SOL    HW128268   1.909   2.508   5.818 -0.2834  2.1126  1.1381
 5602SOL    HW228269   1.772   2.516   5.866  1.2014  0.7977 -0.1345
 5603SOL     OW28270   3.978   0.249   2.341 -0.1958 -0.2695 -0.2098
 5603SOL    HW128271   3.994   0.289   2.256  0.2155 -0.1827 -0.0921
 5603SOL    HW228272   4.066   0.249   2.379 -0.5544 -0.2639  0.6261
 5604SOL     OW28273   3.135   0.950  14.693  0.1966  0.0553  0.3365
 5604SOL    HW128274   3.052   0.934  14.738  0.3097 -1.8881 -0.1747
 5604SOL    HW228275   3.201   0.950  14.763 -0.2762 -1.0025  0.7752
 5605SOL     OW28276   4.099   0.611   3.975  0.3144  0.0444 -0.2018
 5605SOL    HW128277   4.029   0.594   3.912 -1.0374  1.1179  0.9781
 5605SOL    HW228278   4.116   0.528   4.019  0.7652  0.8287  1.1031
 5606SOL     OW28279   2.335   0.083   7.476  0.0448  0.2820 -0.1626
 5606SOL    HW128280   2.323   0.067   7.570  2.7277 -1.1279 -0.0619
 5606SOL    HW228281   2.315   0.177   7.474  0.3778  0.3527 -0.1930
 5607SOL     OW28282   3.689   0.083   6.107  0.3716 -0.3411  0.0498
 5607SOL    HW128283   3.654   0.099   6.020  1.2546 -0.2313 -0.2811
 5607SOL    HW228284   3.612   0.069   6.163  1.4827 -1.3200  1.3529
 5608SOL     OW28285   0.446   0.147  14.157  0.4047 -0.4548  0.7364
 5608SOL    HW128286   0.425   0.202  14.233 -0.8561 -0.0615  0.1133
 5608SOL    HW228287   0.364   0.157  14.108  0.1509 -0.4764  1.1541
 5609SOL     OW28288   2.821   1.794   7.430 -0.4096  0.4935 -0.3963
 5609SOL    HW128289   2.835   1.701   7.411 -1.2311  0.4796 -0.9472
 5609SOL    HW228290   2.849   1.801   7.521  1.2309  3.2321 -1.1282
 5610SOL     OW28291   2.867   3.174  15.066 -0.0940  0.1876  0.1416
 5610SOL    HW128292   2.810   3.179  15.143 -0.3738  0.6174 -0.0967
 5610SOL    HW228293   2.858   3.260  15.026 -0.6453 -0.6027 -1.4223
 5611SOL     OW28294   2.122   1.030   1.980 -0.1616 -0.0508 -0.0718
 5611SOL    HW128295   2.212   1.049   1.956  0.2365 -0.5295  1.0422
 5611SOL    HW228296   2.136   0.972   2.055 -1.1857  0.7663  0.7440
 5612SOL     OW28297   2.111   0.808  14.332 -0.2989  0.1057  0.1130
 5612SOL    HW128298   2.160   0.875  14.283  1.4350 -0.8875  0.5018
 5612SOL    HW228299   2.076   0.750  14.264 -0.7949 -0.0717  0.5159
 5613SOL     OW28300   3.347   3.823  10.452 -0.0443  0.3381  0.4451
 5613SOL    HW128301   3.337   3.803  10.359  0.8516 -1.9165  0.8375
 5613SOL    HW228302   3.422   3.883  10.452  0.7628 -0.6763 -0.6372
 5614SOL     OW28303   0.968   3.490  16.520 -0.2499  0.2176 -0.5243
 5614SOL    HW128304   0.949   3.435  16.444 -0.4450 -0.2244 -0.1516
 5614SOL    HW228305   1.016   3.426  16.572 -0.3977  0.4720 -0.0744
 5615SOL     OW28306   3.575   4.353   9.454 -0.0187 -0.1119  0.0556
 5615SOL    HW128307   3.554   4.446   9.456 -1.8336 -0.5185 -0.4642
 5615SOL    HW228308   3.603   4.335   9.544  0.6701 -0.1119 -0.1558
 5616SOL     OW28309   2.512   0.503   6.883  0.2601 -0.4228  0.9702
 5616SOL    HW128310   2.575   0.450   6.835  2.0034  0.3148  2.4178
 5616SOL    HW228311   2.471   0.565   6.823  0.6156 -2.1303 -1.0243
 5617SOL     OW28312   2.319   0.078   5.924  0.1063 -0.0027  0.0082
 5617SOL    HW128313   2.344   0.061   6.015  0.3483  0.1837 -0.0247
 5617SOL    HW228314   2.273   4.717   5.902  1.6864 -0.5850 -1.1412
 5618SOL     OW28315   1.674   3.534   7.550  0.0234 -0.7470 -0.0838
 5618SOL    HW128316   1.653   3.460   7.493 -0.5689  0.1533 -1.0458
 5618SOL    HW228317   1.728   3.486   7.612 -0.3214  0.0271  0.8224
 5619SOL     OW28318   2.194   3.093   7.350 -0.3840 -0.0480  0.5987
 5619SOL    HW128319   2.186   3.096   7.446 -0.3569  1.4111  0.5626
 5619SOL    HW228320   2.236   3.008   7.340  0.0652  0.1158  1.0500
 5620SOL     OW28321   0.295   1.305   8.680 -0.1303  0.2013  0.1162
 5620SOL    HW128322   0.332   1.216   8.675  1.8969  1.1199 -1.0813
 5620SOL    HW228323   0.225   1.297   8.615 -0.7736 -2.1692  1.0788
 5621SOL     OW28324   4.254   2.418   8.961  0.3048  0.0200  0.0827
 5621SOL    HW128325   4.329   2.393   8.907  1.5770  0.7511  1.4860
 5621SOL    HW228326   4.260   2.343   9.019 -1.4480  0.5846  0.9661
 5622SOL     OW28327   3.360   0.038  17.611  0.0325 -0.4360  0.1140
 5622SOL    HW128328   3.348   4.683  17.669 -0.5146 -1.9944 -1.9716
 5622SOL    HW228329   3.382   0.107  17.674 -0.6510  1.5260 -1.7581
 5623SOL     OW28330   3.609   1.616   4.692 -0.3578  0.0163 -0.2505
 5623SOL    HW128331   3.580   1.570   4.613 -1.4473 -0.9299  0.7068
 5623SOL    HW228332   3.658   1.546   4.735 -1.9386 -1.3618 -0.6925
 5624SOL     OW28333   3.471   1.101   8.130 -0.1900  0.3993 -0.4048
 5624SOL    HW128334   3.382   1.106   8.163  0.0551 -0.2905  0.3606
 5624SOL    HW228335   3.494   1.008   8.133 -4.1277 -0.5304  0.1015
 5625SOL     OW28336   0.524   1.824   6.977 -0.2213 -0.1389  0.3050
 5625SOL    HW128337   0.519   1.733   6.949 -0.0954 -0.2973  0.7973
 5625SOL    HW228338   0.580   1.860   6.908  0.7758  0.6489  1.5239
 5626SOL     OW28339   4.496   2.170   2.553  0.6451 -1.0124 -0.0915
 5626SOL    HW128340   4.538   2.241   2.602 -1.5117  0.4688 -0.4020
 5626SOL    HW228341   4.456   2.210   2.476  2.8465 -0.2260 -0.8212
 5627SOL     OW28342   0.041   1.217   8.242 -0.1763  0.1591 -0.4458
 5627SOL    HW128343   4.702   1.142   8.233 -0.6408  0.5199 -0.4357
 5627SOL    HW228344   0.070   1.235   8.152 -0.3453  0.2315 -0.4860
 5628SOL     OW28345   0.118   4.042  15.303 -0.5679 -0.4481  0.3888
 5628SOL    HW128346   0.119   3.978  15.233 -0.4634 -0.8427  0.7530
 5628SOL    HW228347   0.032   4.026  15.342 -1.5646 -2.0461 -2.4629
 5629SOL     OW28348   2.066   3.150   1.256 -0.5249  0.1082 -0.2450
 5629SOL    HW128349   2.153   3.119   1.279 -0.5852  2.0534  2.5955
 5629SOL    HW228350   2.035   3.065   1.224  0.4588 -0.0417 -0.8101
 5630SOL     OW28351   1.957   4.351   2.401  0.6594 -0.3546  0.0708
 5630SOL    HW128352   1.913   4.390   2.326  3.1150  2.4289  0.0407
 5630SOL    HW228353   1.987   4.429   2.448  1.6038  0.0919 -1.2446
 5631SOL     OW28354   0.179   0.194  16.559 -0.2999 -0.1701 -0.4702
 5631SOL    HW128355   0.166   0.256  16.487  2.3974 -1.3079 -1.9505
 5631SOL    HW228356   0.275   0.194  16.564 -0.3225  2.4921 -0.1886
 5632SOL     OW28357   0.762   3.781   2.918 -0.4999  0.2604  0.0284
 5632SOL    HW128358   0.761   3.798   2.824 -0.1810 -0.5390 -0.1154
 5632SOL    HW228359   0.783   3.688   2.912 -0.5250  0.3265 -1.0999
 5633SOL     OW28360   4.290   0.968   5.602  0.3373  0.2183 -0.6732
 5633SOL    HW128361   4.300   0.879   5.637  1.2930  0.1049 -1.2221
 5633SOL    HW228362   4.197   0.987   5.611  0.0019 -2.4221  1.3459
 5634SOL     OW28363   2.619   2.108   4.608  0.4234 -0.7616  0.0026
 5634SOL    HW128364   2.662   2.194   4.606 -0.9478 -0.0517  1.4332
 5634SOL    HW228365   2.612   2.087   4.701  3.0037 -1.8207 -0.0322
 5635SOL     OW28366   1.030   4.178   0.807 -0.7426  0.1486 -0.0470
 5635SOL    HW128367   1.001   4.087   0.798  2.4023 -0.6653 -1.6663
 5635SOL    HW228368   1.029   4.177   0.903  0.5485  2.7937 -0.0147
 5636SOL     OW28369   4.215   1.285   7.363  0.3766 -0.0235 -0.4628
 5636SOL    HW128370   4.266   1.218   7.318 -2.3883 -1.6658 -1.1451
 5636SOL    HW228371   4.128   1.246   7.371  0.9605 -1.3956 -0.8901
 5637SOL     OW28372   1.394   3.766   6.743 -0.0710 -0.7532 -0.1156
 5637SOL    HW128373   1.317   3.822   6.735 -0.3368 -0.9180  1.2446
 5637SOL    HW228374   1.425   3.806   6.825  1.6489 -1.2942 -0.5093
 5638SOL     OW28375   3.608   2.841  13.765  0.0822  0.2729  0.2532
 5638SOL    HW128376   3.586   2.759  13.810 -1.1270  1.4549  1.7950
 5638SOL    HW228377   3.704   2.837  13.761  0.0365 -0.1818 -0.3945
 5639SOL     OW28378   1.363   1.726   7.210  0.3381  0.2098  0.0311
 5639SOL    HW128379   1.408   1.667   7.149 -0.0152 -0.2664  0.2360
 5639SOL    HW228380   1.299   1.769   7.154 -0.5437 -0.2883  0.6646
 5640SOL     OW28381   1.271   0.191   8.695  0.2462  0.5438  0.3554
 5640SOL    HW128382   1.211   0.185   8.768  0.0156 -0.1493  0.1092
 5640SOL    HW228383   1.247   0.110   8.650 -1.3986  2.1264 -1.6205
 5641SOL     OW28384   0.069   1.266   6.138  0.1240 -0.6847  0.7527
 5641SOL    HW128385   0.055   1.175   6.164  2.1624 -1.1446  0.2650
 5641SOL    HW228386   0.163   1.268   6.157  0.6982 -0.3772 -2.1420
 5642SOL     OW28387   2.274   1.722   1.316 -0.1519 -0.2941  0.1186
 5642SOL    HW128388   2.313   1.807   1.334 -1.8449  0.2088  1.4457
 5642SOL    HW228389   2.193   1.732   1.365  0.4660  0.9370  0.8705
 5643SOL     OW28390   2.476   4.469  10.575  0.1055 -0.0737  0.5748
 5643SOL    HW128391   2.478   4.382  10.535  1.6426  1.1648 -2.1216
 5643SOL    HW228392   2.425   4.514  10.507 -0.5456 -0.8769  0.5337
 5644SOL     OW28393   0.632   2.423  17.378  0.2166 -0.4204  0.6493
 5644SOL    HW128394   0.548   2.465  17.393  0.5316  0.7882 -1.0204
 5644SOL    HW228395   0.663   2.459  17.295  0.8172 -0.1139  1.0087
 5645SOL     OW28396   2.507   3.338   2.616 -0.3908  0.1129  0.5236
 5645SOL    HW128397   2.544   3.426   2.611 -0.5785  0.0575 -1.7966
 5645SOL    HW228398   2.427   3.355   2.567  0.5953  2.1573 -0.3419
 5646SOL     OW28399   1.000   1.782   4.580  0.1754 -0.0213  0.5035
 5646SOL    HW128400   1.002   1.853   4.645 -0.6008  0.0717  0.4321
 5646SOL    HW228401   1.067   1.730   4.624  1.1411  0.2116 -0.6997
 5647SOL     OW28402   2.797   1.526   4.050  0.6330 -0.2395 -0.7610
 5647SOL    HW128403   2.832   1.564   3.970  1.6039 -0.6211 -0.5201
 5647SOL    HW228404   2.853   1.568   4.116 -0.1499  1.3104 -1.0914
 5648SOL     OW28405   3.349   2.849   5.620  0.2469  0.1026  0.4881
 5648SOL    HW128406   3.401   2.825   5.544 -2.0152 -1.0525 -0.7024
 5648SOL    HW228407   3.383   2.936   5.640  0.1494  0.3777 -0.5395
 5649SOL     OW28408   0.509   3.779   3.058  0.3395 -0.0519 -0.1437
 5649SOL    HW128409   0.603   3.769   3.043  0.3466  0.5625 -0.5127
 5649SOL    HW228410   0.474   3.809   2.974  0.8747  1.9869  0.3732
 5650SOL     OW28411   3.934   4.378  15.535 -0.4896  0.4221  0.5638
 5650SOL    HW128412   3.972   4.369  15.448 -0.6450 -1.1209  0.6564
 5650SOL    HW228413   3.948   4.472  15.544 -0.9015  0.4026  1.4236
 5651SOL     OW28414   0.254   0.376   4.502  0.0845  0.0623 -0.0476
 5651SOL    HW128415   0.270   0.386   4.408  0.8643 -2.5603 -0.1942
 5651SOL    HW228416   0.341   0.350   4.533  0.0070  1.1322  1.0390
 5652SOL     OW28417   4.405   3.379   8.753 -0.1537  0.7218 -0.3386
 5652SOL    HW128418   4.416   3.308   8.816  1.5027  2.1182  0.9704
 5652SOL    HW228419   4.361   3.327   8.686  1.1989 -0.7555 -0.0725
 5653SOL     OW28420   1.511   0.910   5.935 -0.0385  0.1336 -0.0118
 5653SOL    HW128421   1.498   0.815   5.935  2.5456 -0.1867 -3.1472
 5653SOL    HW228422   1.458   0.944   6.008 -1.3790 -0.2214 -0.8110
 5654SOL     OW28423   3.467   1.501   6.357  0.3402  0.0327 -0.2304
 5654SOL    HW128424   3.468   1.522   6.264  0.2429  0.5008 -0.1246
 5654SOL    HW228425   3.416   1.420   6.358  0.7920 -0.2290  1.6871
 5655SOL     OW28426   2.590   2.248   9.629 -0.5954 -0.2075 -0.3806
 5655SOL    HW128427   2.659   2.276   9.569 -0.6864 -2.4349 -1.5403
 5655SOL    HW228428   2.546   2.328   9.658  0.1336  0.1805 -0.3684
 5656SOL     OW28429   1.831   4.385   0.840  0.0463 -0.1658  0.4439
 5656SOL    HW128430   1.804   4.477   0.847  0.6399 -0.0094  0.7430
 5656SOL    HW228431   1.756   4.335   0.809  0.3811 -0.9735  0.9389
 5657SOL     OW28432   4.494   2.325  13.281 -0.0759 -0.5388 -0.1795
 5657SOL    HW128433   4.494   2.232  13.256  1.2996 -0.7649  0.6564
 5657SOL    HW228434   4.535   2.361  13.202  0.6921 -1.2816 -0.1215
 5658SOL     OW28435   3.012   2.129   7.365 -0.2784  0.0621 -0.4986
 5658SOL    HW128436   2.989   2.215   7.330  3.3251  1.6179  0.9511
 5658SOL    HW228437   2.956   2.124   7.443  2.3847  1.5602  1.4961
 5659SOL     OW28438   3.014   4.589   0.384  0.4670  0.3544 -0.2282
 5659SOL    HW128439   2.932   4.540   0.386 -1.5966  3.8774  1.7190
 5659SOL    HW228440   3.009   4.641   0.304  0.6901 -1.6527 -1.5680
 5660SOL     OW28441   0.060   4.491  15.816 -0.0105  0.3413  0.3995
 5660SOL    HW128442   0.148   4.475  15.784  1.1572  1.5300  2.9712
 5660SOL    HW228443   0.006   4.509  15.740 -0.2030  0.3118  0.5288
 5661SOL     OW28444   4.216   3.662  15.544 -0.2029  0.3140  0.1158
 5661SOL    HW128445   4.215   3.635  15.452 -0.2209  0.5687  0.0426
 5661SOL    HW228446   4.296   3.620  15.577  1.4005  0.6753 -3.3263
 5662SOL     OW28447   3.927   2.148   2.826  0.0159 -0.6954 -0.5643
 5662SOL    HW128448   3.837   2.166   2.798 -0.0037  0.4436  0.2046
 5662SOL    HW228449   3.975   2.153   2.744  0.4933  1.4617 -0.1542
 5663SOL     OW28450   1.045   0.079  16.477 -0.3290  0.2243 -0.0777
 5663SOL    HW128451   1.052   4.709  16.442  1.5594  0.2580  0.2166
 5663SOL    HW228452   0.995   0.067  16.557 -0.8581  0.8060 -0.3271
 5664SOL     OW28453   0.324   3.537   6.661  0.5341  0.2314  0.0116
 5664SOL    HW128454   0.410   3.568   6.691  0.4661 -0.2822  0.7342
 5664SOL    HW228455   0.313   3.451   6.702  1.1637  0.7143  1.1947
 5665SOL     OW28456   4.643   4.287   2.234 -0.1599 -0.8259  0.2961
 5665SOL    HW128457   4.679   4.200   2.251  1.7177  0.1664  1.3934
 5665SOL    HW228458   4.593   4.265   2.155 -0.0547 -0.6292  0.1721
 5666SOL     OW28459   1.267   1.543   2.671  0.0278  0.2763  0.5361
 5666SOL    HW128460   1.195   1.606   2.677 -0.9253 -0.7969  0.2082
 5666SOL    HW228461   1.222   1.464   2.642 -0.2777  1.5773 -2.4895
 5667SOL     OW28462   4.589   4.068   1.747 -0.4359 -0.4386  0.0688
 5667SOL    HW128463   4.577   4.157   1.713 -1.5216  0.0860  1.8272
 5667SOL    HW228464   4.677   4.073   1.783 -0.9234 -0.8946  1.2973
 5668SOL     OW28465   2.238   1.508   8.723  0.0339  0.3451  0.3619
 5668SOL    HW128466   2.205   1.558   8.798 -0.5788 -0.2617  0.4974
 5668SOL    HW228467   2.228   1.419   8.757  2.0617 -0.6892 -1.6970
 5669SOL     OW28468   0.798   4.607   3.071  0.3534  0.3433  0.5754
 5669SOL    HW128469   0.867   4.560   3.116 -0.0428  1.1128  1.9701
 5669SOL    HW228470   0.843   4.686   3.040  0.3165  0.4576  0.8109
 5670SOL     OW28471   2.156   2.935   2.176 -0.2119  0.4602  0.1100
 5670SOL    HW128472   2.147   3.015   2.124  2.5586 -0.2423 -1.4301
 5670SOL    HW228473   2.062   2.935   2.197 -0.3221  0.7692 -0.3699
 5671SOL     OW28474   1.907   4.205   1.776  0.6873 -0.3516  0.1207
 5671SOL    HW128475   1.870   4.130   1.824  1.2258 -0.8412 -0.2213
 5671SOL    HW228476   1.851   4.275   1.808 -1.0891 -0.6622 -2.2858
 5672SOL     OW28477   2.388   2.585   2.473 -0.7251  0.5746  0.0779
 5672SOL    HW128478   2.303   2.613   2.440 -0.5829  0.0541 -0.7187
 5672SOL    HW228479   2.432   2.665   2.503  0.2323  1.0940 -2.7099
 5673SOL     OW28480   0.286   1.119  17.285  0.0896  0.3906  0.3263
 5673SOL    HW128481   0.368   1.149  17.247  0.4369 -1.0294 -0.0387
 5673SOL    HW228482   0.322   1.061  17.352  2.3147  1.8087  0.3752
 5674SOL     OW28483   0.717   4.137   8.934  0.2675 -0.3741  0.0088
 5674SOL    HW128484   0.808   4.146   8.908 -0.3987  1.2057 -1.7307
 5674SOL    HW228485   0.672   4.187   8.867 -0.5277 -2.0566 -0.7247
 5675SOL     OW28486   1.824   2.013  13.788  0.2448 -0.3145  0.7293
 5675SOL    HW128487   1.881   2.029  13.863  0.8785  0.3677  0.0963
 5675SOL    HW228488   1.885   1.991  13.716  0.5349  3.3656 -0.1673
 5676SOL     OW28489   0.361   2.911  10.606  1.1030  0.6031 -0.1125
 5676SOL    HW128490   0.325   2.850  10.541  2.7519  1.2908 -1.6657
 5676SOL    HW228491   0.330   2.996  10.575 -1.9409 -0.1974  0.7316
 5677SOL     OW28492   4.145   1.594   2.884  0.4868 -0.7032 -0.4755
 5677SOL    HW128493   4.116   1.587   2.793  1.7426 -0.1332 -0.9063
 5677SOL    HW228494   4.063   1.569   2.927  0.1382 -0.0491 -0.7567
 5678SOL     OW28495   0.144   4.554  17.157 -0.5603 -0.0420 -0.3950
 5678SOL    HW128496   0.182   4.606  17.228  0.3858 -4.2392  2.1923
 5678SOL    HW228497   0.121   4.625  17.097  1.7922  2.4336  1.6094
 5679SOL     OW28498   0.483   2.760   2.411 -0.2320  0.0523  0.5418
 5679SOL    HW128499   0.538   2.829   2.375 -1.2905  1.4276  1.5805
 5679SOL    HW228500   0.562   2.714   2.441  1.0950  0.7121 -1.9272
 5680SOL     OW28501   1.904   1.459   4.498 -0.4979  0.0246 -0.1892
 5680SOL    HW128502   1.844   1.491   4.566 -1.0236 -0.9953 -0.1620
 5680SOL    HW228503   1.956   1.534   4.470 -1.1524 -0.6894 -3.3292
 5681SOL     OW28504   0.136   3.006  14.829  0.1525  0.2037 -0.3721
 5681SOL    HW128505   0.079   3.059  14.773  0.5519  0.2455 -0.7398
 5681SOL    HW228506   0.206   3.071  14.827  0.8535 -0.4908  2.2345
 5682SOL     OW28507   2.926   4.566   4.493 -0.0390  0.0191 -0.2755
 5682SOL    HW128508   2.937   4.586   4.400 -1.4350  0.8326 -0.2792
 5682SOL    HW228509   3.002   4.608   4.532 -0.1137 -0.1801  0.0893
 5683SOL     OW28510   0.122   1.784   5.580  0.5126 -0.6193 -0.0286
 5683SOL    HW128511   0.202   1.790   5.527  1.4099  0.9427  1.4802
 5683SOL    HW228512   0.121   1.690   5.596 -2.2831 -0.4749  0.5710
 5684SOL     OW28513   2.764   0.629  16.427  0.5421  0.1869 -0.0637
 5684SOL    HW128514   2.685   0.683  16.427  0.4334  0.0350  0.3688
 5684SOL    HW228515   2.728   0.545  16.400 -2.7924  1.6308 -0.0864
 5685SOL     OW28516   4.207   3.393   4.976 -0.3239  0.0720 -0.3662
 5685SOL    HW128517   4.273   3.432   4.920  1.0463 -1.3328  0.2982
 5685SOL    HW228518   4.176   3.472   5.022 -0.4802  0.2466 -0.7678
 5686SOL     OW28519   1.140   2.231   6.253  0.1193  0.0802 -0.4052
 5686SOL    HW128520   1.216   2.190   6.211  0.0450  1.6082 -1.9807
 5686SOL    HW228521   1.104   2.284   6.183 -0.4419 -0.1178 -0.2643
 5687SOL     OW28522   4.139   4.381   7.816  0.3743 -0.1386 -0.0781
 5687SOL    HW128523   4.154   4.471   7.788 -3.2433  0.3590 -0.4315
 5687SOL    HW228524   4.101   4.401   7.902 -0.3377 -0.2290 -0.3762
 5688SOL     OW28525   4.337   1.720   3.683 -0.4940  0.3239 -0.2920
 5688SOL    HW128526   4.334   1.701   3.589 -2.1787 -2.1687  0.2674
 5688SOL    HW228527   4.293   1.803   3.701  0.7327  0.3584  2.4994
 5689SOL     OW28528   0.403   2.618   4.171  0.3761  0.3847  0.3260
 5689SOL    HW128529   0.340   2.588   4.237  1.8356 -1.9368  0.6446
 5689SOL    HW228530   0.414   2.703   4.213  2.6549  0.0164  0.4607
 5690SOL     OW28531   4.005   4.659  10.972  0.4483 -0.1355 -0.4707
 5690SOL    HW128532   3.920   4.656  10.927  0.7345 -1.2332 -0.9216
 5690SOL    HW228533   4.034   0.031  10.964  0.8666 -0.0835  1.8571
 5691SOL     OW28534   3.815   3.802   0.741 -0.2314  0.3979  0.5149
 5691SOL    HW128535   3.817   3.740   0.814 -0.8808 -2.6824 -2.0907
 5691SOL    HW228536   3.740   3.772   0.690 -1.3949  0.3512  2.2552
 5692SOL     OW28537   3.196   3.773   0.564  0.2163 -0.0391 -0.8445
 5692SOL    HW128538   3.194   3.836   0.636  1.0124 -1.0237  0.0425
 5692SOL    HW228539   3.256   3.711   0.606 -1.7038 -0.8694  0.7462
 5693SOL     OW28540   4.348   3.474   4.497 -0.2305 -0.1317  0.2940
 5693SOL    HW128541   4.289   3.518   4.435 -0.4532 -0.5618  0.2025
 5693SOL    HW228542   4.306   3.388   4.497 -0.5322  0.0090 -0.1473
 5694SOL     OW28543   0.987   0.621  14.016 -0.1685 -0.2315 -0.0936
 5694SOL    HW128544   0.939   0.560  13.960  0.2726 -1.1248  0.5056
 5694SOL    HW228545   1.011   0.557  14.083 -1.1792  0.8151  1.2748
 5695SOL     OW28546   0.110   3.368   7.416  0.4920  0.0035  0.8242
 5695SOL    HW128547   0.116   3.459   7.386 -1.1049  0.7648  2.7726
 5695SOL    HW228548   0.191   3.332   7.382  0.9232  0.4317  1.3961
 5696SOL     OW28549   3.055   4.281   6.114 -0.0865 -0.3599  0.0370
 5696SOL    HW128550   3.069   4.321   6.200  4.0583  0.5583 -1.0402
 5696SOL    HW228551   3.145   4.252   6.099 -0.3810 -1.1827 -0.1531
 5697SOL     OW28552   1.009   4.490   8.645  0.0251 -0.4562 -0.1036
 5697SOL    HW128553   0.923   4.465   8.680  0.0867 -1.7457 -0.8783
 5697SOL    HW228554   0.981   4.500   8.554 -1.6715  1.1338  0.6099
 5698SOL     OW28555   4.142   0.171   5.339  0.5214  0.0978 -0.4500
 5698SOL    HW128556   4.217   0.133   5.386 -0.2842  0.8207  1.3886
 5698SOL    HW228557   4.136   0.114   5.262 -2.5391 -1.7197  1.1254
 5699SOL     OW28558   0.206   2.363   5.993  0.5313  0.2198 -0.6452
 5699SOL    HW128559   0.163   2.317   6.065  3.7530 -1.5307  0.2118
 5699SOL    HW228560   0.139   2.409   5.943  0.8904  2.4770  0.9815
 5700SOL     OW28561   0.111   3.368  11.822 -0.3646  0.3155  0.0945
 5700SOL    HW128562   0.019   3.385  11.803 -0.5033 -0.9495 -0.3569
 5700SOL    HW228563   0.103   3.335  11.911  1.9396  1.6617  0.8198
 5701SOL     OW28564   1.374   0.378   2.704 -0.2015  0.3342 -0.0454
 5701SOL    HW128565   1.304   0.380   2.770 -0.8538  0.9959 -0.7658
 5701SOL    HW228566   1.334   0.315   2.644  0.3741  2.1776 -2.3416
 5702SOL     OW28567   2.700   4.439  10.290  0.1154 -0.0450 -0.1297
 5702SOL    HW128568   2.710   4.530  10.316 -1.1197 -0.0799  0.4511
 5702SOL    HW228569   2.777   4.430  10.233  0.1644 -1.0854  0.1066
 5703SOL     OW28570   4.490   0.808   0.671 -0.0090  0.1712 -0.6394
 5703SOL    HW128571   4.481   0.894   0.713  0.2830 -1.5821  3.0025
 5703SOL    HW228572   4.447   0.834   0.590 -1.1761 -0.9601 -0.3795
 5704SOL     OW28573   4.345   1.553  15.964  0.0542  0.2351  0.3887
 5704SOL    HW128574   4.301   1.499  16.029 -2.8311 -0.2625 -1.9521
 5704SOL    HW228575   4.270   1.597  15.924  0.3977 -1.1137 -1.7675
 5705SOL     OW28576   4.029   4.421  11.146  0.8086 -0.1412  0.0421
 5705SOL    HW128577   3.945   4.413  11.102  0.8310 -0.4388  0.0551
 5705SOL    HW228578   4.075   4.351  11.101 -0.1313 -0.9413  0.3283
 5706SOL     OW28579   2.917   3.273   3.214  0.5618 -0.4801 -0.1877
 5706SOL    HW128580   2.923   3.264   3.309  0.0778  1.0209 -0.0218
 5706SOL    HW228581   2.907   3.368   3.211 -0.5378 -0.6152 -0.5824
 5707SOL     OW28582   2.521   1.256   3.271  0.3618 -0.2163 -0.0496
 5707SOL    HW128583   2.616   1.253   3.283  0.5607  0.2837 -1.4364
 5707SOL    HW228584   2.518   1.304   3.188  1.6082 -0.5057 -0.2613
 5708SOL     OW28585   2.910   1.389  13.198  0.0069  0.2601 -0.2353
 5708SOL    HW128586   2.911   1.449  13.124  2.8758  1.2707  0.6292
 5708SOL    HW228587   2.956   1.314  13.159  2.5760  0.9238  1.5642
 5709SOL     OW28588   3.294   3.260   6.170 -0.5561 -0.1367 -0.2610
 5709SOL    HW128589   3.302   3.177   6.123 -1.1885  0.7357 -1.9092
 5709SOL    HW228590   3.324   3.226   6.254  0.2274  0.3054 -0.3645
 5710SOL     OW28591   1.824   3.807   8.337  0.4104  0.4930 -0.1722
 5710SOL    HW128592   1.779   3.794   8.254  0.2588 -0.1488  0.0096
 5710SOL    HW228593   1.821   3.719   8.375  0.0811 -0.2258 -1.8841
 5711SOL     OW28594   0.672   3.162   8.094 -0.0369  0.1033  0.2870
 5711SOL    HW128595   0.638   3.171   8.005 -1.8944  1.3712  1.1329
 5711SOL    HW228596   0.748   3.105   8.090  1.6441  2.3885 -0.0014
 5712SOL     OW28597   2.607   1.613   3.745  0.6095 -0.3411 -0.2925
 5712SOL    HW128598   2.583   1.545   3.683  1.1496 -1.3943  0.6533
 5712SOL    HW228599   2.699   1.590   3.757  0.3276 -1.0633  0.4609
 5713SOL     OW28600   1.581   4.684   1.690  0.3167 -0.4694  0.4626
 5713SOL    HW128601   1.668   4.654   1.715  0.0014  0.2108  2.3623
 5713SOL    HW228602   1.531   4.642   1.760  1.7251 -1.3285  0.9458
 5714SOL     OW28603   3.822   2.495   6.861  0.2954  0.1208  0.5585
 5714SOL    HW128604   3.821   2.426   6.928  1.1932 -0.1679  0.2915
 5714SOL    HW228605   3.916   2.504   6.844  1.0384 -2.0390  3.5750
 5715SOL     OW28606   1.940   4.049   1.536  0.1908  0.6898 -0.6262
 5715SOL    HW128607   1.966   4.114   1.601 -0.4842  0.0181  0.3227
 5715SOL    HW228608   1.856   4.020   1.571 -0.5497  1.7780 -1.4996
 5716SOL     OW28609   0.229   3.674   2.892 -0.2576 -0.6298  0.0874
 5716SOL    HW128610   0.140   3.700   2.870 -0.1007 -0.3035 -0.1741
 5716SOL    HW228611   0.216   3.608   2.960  0.7411 -0.5630  0.3471
 5717SOL     OW28612   3.553   0.305   6.379  0.2668 -0.7732  0.5580
 5717SOL    HW128613   3.619   0.274   6.441  1.2265 -0.9093 -0.5314
 5717SOL    HW228614   3.594   0.382   6.339  0.7835 -1.0711  0.5194
 5718SOL     OW28615   0.155   2.761   4.161  0.5175  0.6884 -0.0083
 5718SOL    HW128616   0.151   2.673   4.198 -0.7668  1.2420  1.1917
 5718SOL    HW228617   0.156   2.808   4.244 -0.6890 -0.0130  0.4131
 5719SOL     OW28618   1.638   3.818   2.848 -0.1863  0.6629  0.1619
 5719SOL    HW128619   1.668   3.889   2.791 -2.5287  0.6519 -1.0736
 5719SOL    HW228620   1.723   3.787   2.880 -0.5053 -0.0330  0.3560
 5720SOL     OW28621   1.272   3.013   9.655  0.7544 -0.3963  0.4478
 5720SOL    HW128622   1.297   3.023   9.747 -0.5978 -1.0642  0.8949
 5720SOL    HW228623   1.349   3.048   9.610  1.2517 -3.0949 -0.8676
 5721SOL     OW28624   0.896   2.914   3.912  0.1851  0.0129  0.0780
 5721SOL    HW128625   0.887   2.932   4.005  0.3008  0.1093  0.0714
 5721SOL    HW228626   0.958   2.981   3.880 -0.8419  0.8681 -0.1172
 5722SOL     OW28627   2.597   0.834   8.371  0.1100 -0.0807 -0.4573
 5722SOL    HW128628   2.528   0.900   8.363  0.5328 -0.0562 -3.8744
 5722SOL    HW228629   2.650   0.856   8.295 -0.2850  1.6205 -0.2530
 5723SOL     OW28630   0.575   2.484   6.381 -0.3471 -0.1177  0.2864
 5723SOL    HW128631   0.505   2.425   6.354 -0.3462  0.0502 -0.0920
 5723SOL    HW228632   0.649   2.425   6.392 -1.0889 -0.6610  2.2508
 5724SOL     OW28633   1.976   0.176   2.061  0.2312 -0.2081  0.2544
 5724SOL    HW128634   1.899   0.180   2.118  1.4711 -0.3108  1.9382
 5724SOL    HW228635   1.933   0.209   1.982 -0.2483 -1.1553  0.1196
 5725SOL     OW28636   1.500   3.706  16.325  0.3499  0.2686 -0.1401
 5725SOL    HW128637   1.423   3.729  16.376 -0.0063 -2.1783  0.4269
 5725SOL    HW228638   1.504   3.611  16.335  1.5470  0.4814  1.2820
 5726SOL     OW28639   3.859   0.737   4.777 -0.7596 -0.3495  0.2372
 5726SOL    HW128640   3.768   0.710   4.761 -0.8668  0.9417 -1.4426
 5726SOL    HW228641   3.884   0.743   4.684  0.3142 -1.9987  0.4240
 5727SOL     OW28642   1.774   4.327  12.708  0.3213  0.8366 -0.5202
 5727SOL    HW128643   1.852   4.305  12.758  1.1713  2.3152 -1.2185
 5727SOL    HW228644   1.800   4.410  12.670  0.9838  0.7952 -0.1387
 5728SOL     OW28645   3.378   1.553   7.035  0.1916 -0.5719  0.1773
 5728SOL    HW128646   3.294   1.597   7.019  1.7649  1.2433 -3.1323
 5728SOL    HW228647   3.429   1.625   7.071 -1.7517  0.9411 -0.0904
 5729SOL     OW28648   0.654   3.855  16.946  0.6846 -0.5982  0.0042
 5729SOL    HW128649   0.572   3.896  16.973  0.5551  0.4830 -2.0317
 5729SOL    HW228650   0.716   3.914  16.990  1.6830 -0.9520 -0.9433
 5730SOL     OW28651   2.943   1.076   6.022 -0.4193 -0.1432  0.8860
 5730SOL    HW128652   3.039   1.077   6.026 -0.3620 -0.0694 -0.6109
 5730SOL    HW228653   2.936   1.169   6.001 -2.8282 -1.0336 -2.1489
 5731SOL     OW28654   1.413   2.736   4.510 -0.2241  0.2280  0.7054
 5731SOL    HW128655   1.395   2.823   4.474  0.6444  0.0993 -0.0125
 5731SOL    HW228656   1.323   2.703   4.516 -0.4224  0.8851  1.3506
 5732SOL     OW28657   1.989   2.855   5.627  0.2724  0.0717 -0.0301
 5732SOL    HW128658   1.929   2.907   5.680 -0.5417 -0.4437 -0.4539
 5732SOL    HW228659   2.070   2.905   5.633 -0.3027  0.9873  0.0707
 5733SOL     OW28660   2.782   3.996   5.869  0.3680 -0.1560 -0.1110
 5733SOL    HW128661   2.853   3.948   5.911 -0.5822  0.3040  2.0466
 5733SOL    HW228662   2.788   4.078   5.919  0.8919 -0.5488  0.4648
 5734SOL     OW28663   2.021   2.526  11.643  0.2431 -0.1590 -0.0870
 5734SOL    HW128664   1.949   2.584  11.618  0.0349 -0.4196 -0.0878
 5734SOL    HW228665   2.071   2.508  11.563  0.9253  0.4517  0.2037
 5735SOL     OW28666   1.079   0.382   5.242  0.2004 -0.2306  0.0261
 5735SOL    HW128667   1.173   0.393   5.248 -0.0296  0.1741  2.7615
 5735SOL    HW228668   1.074   0.286   5.241  0.2650 -0.2424  0.7365
 5736SOL     OW28669   4.404   0.985  16.258 -0.3349  0.3979 -0.0279
 5736SOL    HW128670   4.421   1.011  16.348  2.5043 -0.8115 -0.2240
 5736SOL    HW228671   4.355   1.065  16.239 -0.3207  0.8124  1.7130
 5737SOL     OW28672   2.304   2.842   2.690 -0.0230  0.5114 -0.0731
 5737SOL    HW128673   2.283   2.806   2.776  1.3157 -1.8103 -0.6924
 5737SOL    HW228674   2.243   2.915   2.683  0.1209  0.3835 -2.7998
 5738SOL     OW28675   0.600   1.990   7.325 -0.1190  0.0318 -0.1527
 5738SOL    HW128676   0.635   2.032   7.247 -0.5243  0.7708  0.0683
 5738SOL    HW228677   0.659   2.020   7.394  0.6484 -1.8564  0.0359
 5739SOL     OW28678   1.191   1.825   4.174 -0.3845 -0.4219  0.1918
 5739SOL    HW128679   1.284   1.822   4.152  0.0920  2.9971  1.7527
 5739SOL    HW228680   1.158   1.902   4.128 -3.5302 -1.5736  0.5076
 5740SOL     OW28681   1.381   1.157  15.276  0.2720 -0.5582 -0.4507
 5740SOL    HW128682   1.285   1.160  15.278  0.3665  1.4616  1.6529
 5740SOL    HW228683   1.392   1.166  15.371  2.3692  1.1976 -0.8430
 5741SOL     OW28684   3.007   2.863   7.761 -0.5502 -0.1887 -0.4250
 5741SOL    HW128685   3.043   2.952   7.756 -0.1925 -0.3562 -0.8392
 5741SOL    HW228686   2.976   2.868   7.851 -0.9997  1.2193 -0.6666
 5742SOL     OW28687   2.100   2.315   8.352 -0.0064 -0.2245  0.7072
 5742SOL    HW128688   2.147   2.327   8.434  1.8214  3.5332 -0.8726
 5742SOL    HW228689   2.149   2.372   8.293 -1.2835 -0.1420 -0.2911
 5743SOL     OW28690   0.501   1.141   2.188 -0.2328  0.6526 -0.0973
 5743SOL    HW128691   0.452   1.176   2.114 -0.8251 -1.8868 -0.9142
 5743SOL    HW228692   0.548   1.070   2.144  1.6723  1.6540  0.2947
 5744SOL     OW28693   4.315   1.150   0.421  0.0763 -0.6496  0.2819
 5744SOL    HW128694   4.320   1.186   0.332  2.5838 -1.9405 -0.1182
 5744SOL    HW228695   4.289   1.229   0.468 -0.5244  1.0338 -2.8324
 5745SOL     OW28696   0.364   3.219   0.443  0.1521  0.3265 -0.0494
 5745SOL    HW128697   0.311   3.201   0.520 -0.9203 -0.0905 -0.8792
 5745SOL    HW228698   0.393   3.308   0.463  1.6922 -0.8424  2.8969
 5746SOL     OW28699   4.176   2.787  17.316  0.4589 -0.3817  0.5804
 5746SOL    HW128700   4.155   2.727  17.244 -0.7671  0.5679  0.1476
 5746SOL    HW228701   4.095   2.834  17.333  0.5989 -1.0222  3.0798
 5747SOL     OW28702   3.687   2.914  10.036 -0.2659 -0.0705  0.0849
 5747SOL    HW128703   3.749   2.986  10.042 -0.2372 -0.0010 -1.1004
 5747SOL    HW228704   3.616   2.962  10.079  0.5495  1.0602  0.1457
 5748SOL     OW28705   1.265   4.300  10.343  0.1535 -0.3517  0.9316
 5748SOL    HW128706   1.312   4.241  10.283  0.4813  0.9307 -0.0744
 5748SOL    HW228707   1.308   4.277  10.425 -1.4113 -1.5937  1.3967
 5749SOL     OW28708   3.448   1.573   6.089  0.2883 -0.0079 -0.2682
 5749SOL    HW128709   3.480   1.488   6.059  0.8727 -0.1412  0.7435
 5749SOL    HW228710   3.361   1.579   6.049 -0.2326  0.4300  0.9154
 5750SOL     OW28711   0.358   1.724  13.639 -0.1458  0.9104  0.1386
 5750SOL    HW128712   0.313   1.644  13.666 -2.3713  2.2358  0.3733
 5750SOL    HW228713   0.286   1.764  13.590 -0.4849  0.9680  0.6941
 5751SOL     OW28714   4.709   3.920  10.743  0.2052 -0.3861 -0.6407
 5751SOL    HW128715   4.679   3.989  10.803 -1.3595 -2.0900  0.5707
 5751SOL    HW228716   4.666   3.845  10.786  0.2315 -0.3584 -0.5650
 5752SOL     OW28717   0.313   3.679  17.119  0.0445 -0.1353 -0.0339
 5752SOL    HW128718   0.284   3.762  17.080  1.0662 -0.3731 -1.3141
 5752SOL    HW228719   0.258   3.669  17.196  0.8649 -4.4395 -0.0006
 5753SOL     OW28720   4.316   1.612   4.256  0.3184  0.6886 -0.4478
 5753SOL    HW128721   4.369   1.587   4.181 -2.1114  0.2691 -2.0352
 5753SOL    HW228722   4.286   1.702   4.240 -2.1828 -0.0912 -0.1364
 5754SOL     OW28723   4.138   1.147   2.068  0.4258  0.0202  0.8612
 5754SOL    HW128724   4.118   1.230   2.111  1.4886 -0.0336  1.4688
 5754SOL    HW228725   4.233   1.144   2.078  0.6175 -1.7327 -1.5608
 5755SOL     OW28726   2.111   3.365   0.636  0.1520 -0.2401 -0.1303
 5755SOL    HW128727   2.162   3.446   0.629  1.1001 -0.9625 -1.6583
 5755SOL    HW228728   2.169   3.312   0.581 -2.2531 -2.1587 -0.8112
 5756SOL     OW28729   2.499   4.509   3.152  0.0700  0.6100 -0.1157
 5756SOL    HW128730   2.442   4.564   3.097  0.4801  1.5696  0.4113
 5756SOL    HW228731   2.439   4.499   3.226 -0.6365  1.3582 -0.5728
 5757SOL     OW28732   2.987   0.671   7.874 -0.0002  0.1783  0.3199
 5757SOL    HW128733   2.979   0.588   7.920 -2.0725  1.3389  2.0230
 5757SOL    HW228734   3.036   0.708   7.948 -2.8529  2.4096  1.0566
 5758SOL     OW28735   1.016   0.977   7.220 -0.4635 -0.2813 -0.1999
 5758SOL    HW128736   0.999   0.883   7.227  2.0220 -0.6892  0.2623
 5758SOL    HW228737   1.014   1.000   7.312  2.2920 -0.1448 -0.1873
 5759SOL     OW28738   1.030   2.252  13.520  0.5886  0.0913 -0.3894
 5759SOL    HW128739   1.017   2.195  13.596 -1.2828 -0.8777 -1.4404
 5759SOL    HW228740   1.122   2.274  13.537  0.1514  0.0028  2.1179
 5760SOL     OW28741   2.074   0.781   5.456  0.1605 -0.3858  0.7287
 5760SOL    HW128742   2.073   0.786   5.552 -0.9932 -1.3973  0.7708
 5760SOL    HW228743   2.022   0.705   5.429  2.2043 -1.2933 -0.6827
 5761SOL     OW28744   1.392   0.569   1.159 -0.0852  0.0248 -0.2595
 5761SOL    HW128745   1.479   0.530   1.164 -1.2073 -2.2474  1.4445
 5761SOL    HW228746   1.342   0.542   1.236  1.8079 -0.6794  0.7235
 5762SOL     OW28747   1.140   3.169   7.190  0.7056 -0.0977 -0.4227
 5762SOL    HW128748   1.207   3.193   7.128  0.1038 -1.6161 -1.6762
 5762SOL    HW228749   1.120   3.255   7.227 -0.8694 -0.5549 -0.1636
 5763SOL     OW28750   0.491   2.544   5.568 -0.0337  0.3930 -0.4063
 5763SOL    HW128751   0.398   2.567   5.558  0.3649  1.6021 -1.4541
 5763SOL    HW228752   0.505   2.559   5.661  1.2616 -1.8902 -0.2433
 5764SOL     OW28753   1.443   1.578   2.224 -0.3159 -0.2421 -0.1730
 5764SOL    HW128754   1.375   1.511   2.219  0.2666 -0.9085  0.7095
 5764SOL    HW228755   1.511   1.514   2.204 -0.5869 -0.4365 -0.4769
 5765SOL     OW28756   2.846   1.959   5.497  1.0751  0.1389  0.3615
 5765SOL    HW128757   2.895   1.977   5.577 -1.0983  0.2080  1.6609
 5765SOL    HW228758   2.894   2.013   5.435 -1.0139 -2.0761 -3.2024
 5766SOL     OW28759   0.912   3.332   2.073 -0.0087  0.3900 -0.5941
 5766SOL    HW128760   0.836   3.296   2.119 -1.6838  3.2679 -1.0186
 5766SOL    HW228761   0.918   3.416   2.120 -2.0092  0.2203 -0.0361
 5767SOL     OW28762   2.938   1.669   2.886 -0.4226  0.0066 -0.1334
 5767SOL    HW128763   2.975   1.709   2.965  0.1539  0.8176 -0.8144
 5767SOL    HW228764   2.906   1.583   2.915  0.3275 -0.3220 -0.2655
 5768SOL     OW28765   2.087   4.517  12.679 -0.1706  0.2982  0.2583
 5768SOL    HW128766   2.004   4.561  12.695 -0.4777 -0.0724 -0.3130
 5768SOL    HW228767   2.131   4.560  12.605  0.2649 -0.6744 -0.0497
 5769SOL     OW28768   1.499   3.420   7.334 -0.2733  0.1613  0.3151
 5769SOL    HW128769   1.448   3.347   7.370 -2.0768  0.3125 -1.9181
 5769SOL    HW228770   1.585   3.378   7.325  0.0580  1.2660 -1.6475
 5770SOL     OW28771   1.746   0.106   7.837 -0.3572 -0.1531 -0.4761
 5770SOL    HW128772   1.694   0.143   7.766  1.7969 -1.6052 -2.7884
 5770SOL    HW228773   1.743   0.175   7.903 -2.9374 -0.7336  0.0235
 5771SOL     OW28774   2.664   2.711  12.040  0.0007 -0.7921 -0.2629
 5771SOL    HW128775   2.576   2.716  12.077  0.6489  0.7894  1.0932
 5771SOL    HW228776   2.658   2.674  11.953  1.8829 -1.9552  0.1117
 5772SOL     OW28777   2.971   2.151   0.561  0.1561  0.4541  0.3690
 5772SOL    HW128778   2.984   2.232   0.512  0.2006 -0.1381 -0.5891
 5772SOL    HW228779   2.914   2.108   0.497  0.1768 -0.8593  1.2285
 5773SOL     OW28780   4.449   4.168   7.237  0.2750 -0.4997  0.3757
 5773SOL    HW128781   4.528   4.150   7.187  0.2970 -1.4911  0.7677
 5773SOL    HW228782   4.458   4.262   7.254  1.3549 -0.3300 -1.1748
 5774SOL     OW28783   2.698   0.201   6.104  0.0539  0.5977  0.1374
 5774SOL    HW128784   2.613   0.245   6.110 -1.0028 -1.3601 -0.5868
 5774SOL    HW228785   2.662   0.113   6.105 -0.2147  0.6976 -0.4388
 5775SOL     OW28786   3.364   0.357   4.635  0.4989 -0.2592 -0.0975
 5775SOL    HW128787   3.424   0.372   4.708  0.6314 -1.2813 -0.0023
 5775SOL    HW228788   3.359   0.449   4.610 -0.2038 -0.5804 -1.1446
 5776SOL     OW28789   4.076   1.722   8.767 -0.2199  0.4525 -0.0313
 5776SOL    HW128790   4.088   1.628   8.775  0.9500  0.8608  2.8060
 5776SOL    HW228791   4.117   1.740   8.851 -2.9072 -0.5450  1.4664
 5777SOL     OW28792   2.832   1.415   4.313  0.1106  0.2302  0.6195
 5777SOL    HW128793   2.783   1.382   4.237 -1.7687  2.2929  0.9256
 5777SOL    HW228794   2.924   1.399   4.293 -0.0877  0.6466 -0.6775
 5778SOL     OW28795   2.505   3.773  12.314  0.4996 -0.0551 -0.1491
 5778SOL    HW128796   2.517   3.846  12.374 -2.1766  0.2403  0.0336
 5778SOL    HW228797   2.453   3.813  12.244  1.2407  1.9673  0.4796
 5779SOL     OW28798   0.877   4.354   6.358 -0.3672 -0.2538 -0.0482
 5779SOL    HW128799   0.821   4.277   6.364  0.5671 -0.7641  2.1430
 5779SOL    HW228800   0.950   4.321   6.306 -0.8784 -0.6745 -0.4948
 5780SOL     OW28801   2.403   1.083   1.965  0.4149  0.6891 -0.4409
 5780SOL    HW128802   2.394   1.084   1.870  0.8676 -2.1158 -0.5165
 5780SOL    HW228803   2.497   1.071   1.974  0.6794  0.6930 -3.1467
 5781SOL     OW28804   0.608   0.525  14.745  0.1206 -0.1773  0.3853
 5781SOL    HW128805   0.552   0.560  14.814 -1.8153 -1.2896 -0.6003
 5781SOL    HW228806   0.536   0.489  14.693  0.7900 -0.2082 -0.5193
 5782SOL     OW28807   2.001   2.815   3.429  0.3519  0.1463 -0.2175
 5782SOL    HW128808   2.015   2.878   3.358 -0.0082  1.9583  1.3208
 5782SOL    HW228809   2.088   2.798   3.467 -0.7855 -2.7183  1.1088
 5783SOL     OW28810   4.495   4.022   5.640 -0.0790 -0.5648  0.1054
 5783SOL    HW128811   4.501   3.991   5.550  2.8216 -3.2054  1.1869
 5783SOL    HW228812   4.583   4.003   5.673 -1.1023 -0.4176  2.9617
 5784SOL     OW28813   3.510   3.948   6.378  0.1008 -0.2718  0.0132
 5784SOL    HW128814   3.469   3.866   6.349 -1.1331  1.2634 -2.6291
 5784SOL    HW228815   3.438   3.989   6.425  1.3136  2.2152 -0.3087
 5785SOL     OW28816   0.832   4.649   4.382 -0.5983 -0.0369  0.6119
 5785SOL    HW128817   0.755   4.612   4.339 -0.0760  1.2277 -1.4188
 5785SOL    HW228818   0.864   4.705   4.311  0.8017  0.9189  1.9793
 5786SOL     OW28819   1.739   2.790   4.460  0.6294 -0.2681  0.3494
 5786SOL    HW128820   1.785   2.870   4.485  0.4724  0.3496 -1.3303
 5786SOL    HW228821   1.682   2.770   4.535 -0.0756 -0.8745 -0.3482
 5787SOL     OW28822   1.055   3.622   7.779 -0.1817  0.3947 -0.1682
 5787SOL    HW128823   1.008   3.545   7.812 -0.0152  0.9672  1.3634
 5787SOL    HW228824   1.023   3.695   7.831  0.8316 -0.1102  1.1626
 5788SOL     OW28825   1.525   1.255   2.485  0.1597  0.2310 -0.3173
 5788SOL    HW128826   1.614   1.272   2.517  0.6229 -0.9240 -1.0281
 5788SOL    HW228827   1.489   1.272   2.572  2.6829 -2.0168  1.1713
 5789SOL     OW28828   4.541   3.406   2.809  0.4886 -0.0827  0.5338
 5789SOL    HW128829   4.454   3.444   2.823  0.7725  1.1422 -1.0798
 5789SOL    HW228830   4.558   3.377   2.899  2.8557 -0.9122 -0.2027
 5790SOL     OW28831   1.504   2.613   0.059  0.3699 -0.1699 -0.5928
 5790SOL    HW128832   1.558   2.552   0.009  2.0125  1.3153 -0.6355
 5790SOL    HW228833   1.510   2.577   0.148  1.1448  0.8277 -0.2304
 5791SOL     OW28834   3.219   4.692   8.153 -0.2101  0.3398 -0.5006
 5791SOL    HW128835   3.278   4.677   8.227 -2.7888  0.9163  1.7056
 5791SOL    HW228836   3.202   4.602   8.123  1.1808 -0.4499  1.0537
 5792SOL     OW28837   2.333   1.198  13.772 -0.3137  0.3343 -0.2195
 5792SOL    HW128838   2.283   1.269  13.734  0.8815  1.6251  0.6104
 5792SOL    HW228839   2.347   1.140  13.697 -0.2630  0.3123 -0.1938
 5793SOL     OW28840   3.509   3.556  13.395 -0.2261  0.5319  0.1916
 5793SOL    HW128841   3.465   3.626  13.346 -1.0922 -1.6352 -2.1138
 5793SOL    HW228842   3.583   3.599  13.438  1.4745 -1.4753 -0.7205
 5794SOL     OW28843   0.011   0.147   3.209 -0.4620  0.0181  0.0493
 5794SOL    HW128844   0.000   0.071   3.266  1.4761  0.3288  0.8231
 5794SOL    HW228845   4.649   0.193   3.228 -0.0642  0.8669 -0.3018
 5795SOL     OW28846   1.163   4.132   2.370  0.1877  0.3144  0.1915
 5795SOL    HW128847   1.238   4.085   2.404  0.4950  0.2393 -0.6047
 5795SOL    HW228848   1.196   4.215   2.405  4.4903 -1.8642  1.1601
 5796SOL     OW28849   1.541   1.459   8.742 -0.1542 -0.0806 -0.0275
 5796SOL    HW128850   1.549   1.381   8.687 -1.4146 -0.2041 -0.0417
 5796SOL    HW228851   1.583   1.524   8.685  0.3038 -1.8930 -1.7882
 5797SOL     OW28852   0.418   0.633  17.428  0.3930 -0.5530 -0.0316
 5797SOL    HW128853   0.454   0.714  17.392  0.2889 -0.7446 -0.5698
 5797SOL    HW228854   0.488   0.570  17.409  0.3706 -0.6749  0.2839
 5798SOL     OW28855   0.015   0.563   2.956  0.3534  0.4285  0.1718
 5798SOL    HW128856   0.013   0.554   2.861 -2.3576 -1.1863  0.3660
 5798SOL    HW228857   0.025   0.658   2.962  0.9049  0.4378 -0.8510
 5799SOL     OW28858   1.168   1.325   6.135  0.1777 -0.4449 -0.3508
 5799SOL    HW128859   1.148   1.380   6.211 -0.0544 -2.5858  1.1232
 5799SOL    HW228860   1.087   1.356   6.095 -0.7632 -1.6147  0.6456
 5800SOL     OW28861   0.832   2.960   5.640 -0.3259 -0.2565  0.9369
 5800SOL    HW128862   0.853   2.932   5.729  0.3221  0.4216  1.0021
 5800SOL    HW228863   0.744   2.995   5.649 -1.0867 -2.1228  0.6907
 5801SOL     OW28864   0.660   0.487   1.929 -0.0895 -0.9360  0.1520
 5801SOL    HW128865   0.590   0.445   1.980  0.0368 -0.1120  1.0077
 5801SOL    HW228866   0.694   0.407   1.889  0.6558 -0.0353 -1.0008
 5802SOL     OW28867   1.201   3.188   4.133  0.4886  0.5942  0.3185
 5802SOL    HW128868   1.264   3.252   4.101 -0.9462  1.7876 -0.1033
 5802SOL    HW228869   1.250   3.105   4.134 -1.1704 -0.4052 -2.7161
 5803SOL     OW28870   0.865   2.092   7.923  0.3102 -0.1278 -0.4640
 5803SOL    HW128871   0.924   2.018   7.906 -0.3342 -1.3381  2.5616
 5803SOL    HW228872   0.865   2.146   7.844  0.5472  0.2781 -0.1915
 5804SOL     OW28873   2.129   3.859  10.575  0.2707 -0.0166 -0.0479
 5804SOL    HW128874   2.083   3.776  10.560  2.0460 -0.6490 -2.0113
 5804SOL    HW228875   2.096   3.918  10.508  1.3839 -0.1838 -0.7477
 5805SOL     OW28876   2.966   1.032  13.233 -0.2577 -0.3739  0.1748
 5805SOL    HW128877   2.994   1.101  13.173 -1.4739  1.8370  2.1459
 5805SOL    HW228878   2.986   0.956  13.178  1.4345  0.3049 -0.1519
 5806SOL     OW28879   1.917   4.275   5.017  0.0264  0.2080  0.5282
 5806SOL    HW128880   1.991   4.225   5.051  0.5670 -0.2302 -1.2829
 5806SOL    HW228881   1.912   4.344   5.083  2.7966  1.2529 -0.3470
 5807SOL     OW28882   3.789   1.139   3.526  0.1647  0.5053  0.2331
 5807SOL    HW128883   3.856   1.199   3.494  0.6105  0.4719  1.1135
 5807SOL    HW228884   3.837   1.087   3.590  2.1699  0.6369 -1.1822
 5808SOL     OW28885   2.465   1.029   8.735 -0.2461  0.0898  0.5883
 5808SOL    HW128886   2.541   0.974   8.752 -0.9663 -1.4783 -1.2793
 5808SOL    HW228887   2.437   1.044   8.825 -3.6471  0.2799 -0.4847
 5809SOL     OW28888   4.199   4.653   7.718  0.2013 -0.3133  0.2731
 5809SOL    HW128889   4.281   4.607   7.701  0.5158 -0.2673  1.6754
 5809SOL    HW228890   4.146   4.613   7.649  1.8315 -1.6980 -0.1778
 5810SOL     OW28891   4.473   3.063   6.144 -0.1358  0.5501  0.5064
 5810SOL    HW128892   4.505   2.973   6.133  0.9028  0.8558  1.0934
 5810SOL    HW228893   4.528   3.099   6.213 -0.4728  0.9832  0.5537
 5811SOL     OW28894   4.660   2.838   2.901 -0.3485 -0.3743  0.2063
 5811SOL    HW128895   4.592   2.866   2.963 -1.4565 -2.9069  0.1179
 5811SOL    HW228896   4.714   2.917   2.911 -1.0800  0.3376 -1.5923
 5812SOL     OW28897   0.878   0.942  12.739 -0.0057  0.3504 -0.1022
 5812SOL    HW128898   0.969   0.964  12.758  0.3340 -0.1244 -1.1865
 5812SOL    HW228899   0.890   0.877  12.670 -1.0610  0.2530 -0.2044
 5813SOL     OW28900   0.901   1.835   7.257 -0.1069 -0.1164 -0.1302
 5813SOL    HW128901   0.808   1.857   7.260 -0.6719 -2.5239  0.4564
 5813SOL    HW228902   0.917   1.846   7.163 -1.9925 -0.7837 -0.5402
 5814SOL     OW28903   0.599   4.110   2.781  0.4739 -0.8572  0.1123
 5814SOL    HW128904   0.599   4.166   2.703  1.0194  2.3925  2.4507
 5814SOL    HW228905   0.564   4.034   2.735 -0.1702  1.5637 -3.4686
 5815SOL     OW28906   3.540   1.232  14.679  0.4367  0.5150 -0.0531
 5815SOL    HW128907   3.460   1.231  14.628 -0.1063 -1.6659  0.8394
 5815SOL    HW228908   3.607   1.227  14.610  0.0997  2.2176 -0.4935
 5816SOL     OW28909   1.942   1.991  10.069 -0.4170 -0.3902 -0.5060
 5816SOL    HW128910   1.899   2.077  10.073 -0.8440 -0.6676  0.7866
 5816SOL    HW228911   2.009   1.996  10.137  0.6372  0.3900 -1.5952
 5817SOL     OW28912   4.278   1.573   7.314 -0.0447 -0.2994  0.0294
 5817SOL    HW128913   4.316   1.585   7.401 -2.1909  0.4410  0.8699
 5817SOL    HW228914   4.262   1.480   7.327  0.6370 -0.2300  1.3572
 5818SOL     OW28915   2.734   0.890  13.092 -0.1493  0.3353  0.4632
 5818SOL    HW128916   2.763   0.814  13.144 -0.1151 -1.1942 -1.7813
 5818SOL    HW228917   2.713   0.955  13.159  1.4440 -0.3648  1.6625
 5819SOL     OW28918   1.980   3.106   1.531 -0.3373 -0.6556  0.4425
 5819SOL    HW128919   2.035   3.165   1.479 -0.3657 -1.2056 -0.2062
 5819SOL    HW228920   1.898   3.155   1.522  1.6341  2.6496  0.7698
 5820SOL     OW28921   2.178   0.399  13.976 -0.0442 -0.3166  0.7085
 5820SOL    HW128922   2.208   0.457  13.906  2.0773 -0.9219  1.1115
 5820SOL    HW228923   2.172   0.312  13.937 -0.2538  0.9937 -2.1783
 5821SOL     OW28924   1.699   4.018   6.164 -0.1743  0.5958 -0.1309
 5821SOL    HW128925   1.611   3.981   6.168 -0.6581  1.8287  0.4906
 5821SOL    HW228926   1.692   4.078   6.238 -1.1036 -0.8030  0.8941
 5822SOL     OW28927   1.648   2.900  16.994  0.1214 -0.2222 -0.3561
 5822SOL    HW128928   1.700   2.907  17.074 -1.1968  0.0494  0.4847
 5822SOL    HW228929   1.570   2.952  17.017  0.8863  1.3741 -1.3491
 5823SOL     OW28930   3.430   4.153  13.744 -0.1739 -0.4916  0.0183
 5823SOL    HW128931   3.473   4.118  13.665  0.1282 -1.5841  0.6690
 5823SOL    HW228932   3.446   4.075  13.796  0.1204  0.4814  1.3786
 5824SOL     OW28933   3.111   3.468  15.259  0.8520  0.4611 -0.1130
 5824SOL    HW128934   3.066   3.476  15.175  0.2824  1.6147  0.2887
 5824SOL    HW228935   3.067   3.539  15.306  1.2994  1.7520 -1.6410
 5825SOL     OW28936   2.945   3.008   3.765  0.1844  0.2201  0.4702
 5825SOL    HW128937   2.938   2.930   3.710  1.0056 -0.5449  1.4645
 5825SOL    HW228938   2.855   3.041   3.759 -0.6373 -2.1375 -0.3949
 5826SOL     OW28939   0.721   4.150   1.060  0.1002  0.1122  0.5701
 5826SOL    HW128940   0.680   4.108   0.986 -1.0039  1.3243  0.4841
 5826SOL    HW228941   0.650   4.211   1.083  1.3983  1.3469  1.3709
 5827SOL     OW28942   0.879   3.909  16.760  0.1702 -0.6661  0.5916
 5827SOL    HW128943   0.795   3.920  16.715  1.0945  2.1484 -0.4287
 5827SOL    HW228944   0.878   3.821  16.799  3.0704 -0.7575  0.4775
 5828SOL     OW28945   3.081   2.495   9.942  0.2726  0.5348 -0.3374
 5828SOL    HW128946   2.996   2.500   9.897  0.5065 -0.5453 -0.9073
 5828SOL    HW228947   3.139   2.500   9.866  0.9647 -0.8751  0.1130
 5829SOL     OW28948   0.352   0.060   2.330 -0.3137  0.9583  0.3593
 5829SOL    HW128949   0.348   0.147   2.369  2.0697  2.4278 -2.6837
 5829SOL    HW228950   0.353   0.084   2.237 -0.2479  1.7012  0.5492
 5830SOL     OW28951   3.892   2.149   5.617 -0.4232 -0.6749  0.0361
 5830SOL    HW128952   3.876   2.128   5.709 -0.5218 -1.2030 -0.1013
 5830SOL    HW228953   3.947   2.080   5.580 -0.7488  1.1724 -3.8925
 5831SOL     OW28954   3.594   1.985   4.383  0.0175 -0.7861 -0.1594
 5831SOL    HW128955   3.529   2.018   4.321  0.2798  0.2807  0.1307
 5831SOL    HW228956   3.554   2.009   4.467 -1.2365 -0.8564 -0.7356
 5832SOL     OW28957   0.545   1.104   3.830  0.1602 -0.1405  0.2741
 5832SOL    HW128958   0.577   1.117   3.919  0.3291  1.6380 -0.0443
 5832SOL    HW228959   0.457   1.070   3.844 -0.1721  1.5932  2.3177
 5833SOL     OW28960   0.484   4.110   6.267  0.0992  0.6113  0.0936
 5833SOL    HW128961   0.476   4.052   6.191 -1.7942  2.4018 -1.0734
 5833SOL    HW228962   0.394   4.133   6.287  0.0828  1.6436 -1.1593
 5834SOL     OW28963   2.406   3.563   6.841 -0.1453 -0.2547  0.4669
 5834SOL    HW128964   2.452   3.587   6.760  1.4627 -1.6730  0.9664
 5834SOL    HW228965   2.316   3.586   6.815 -0.1373 -2.0559 -1.1200
 5835SOL     OW28966   0.664   3.418  17.297 -0.0023  0.0874  0.1162
 5835SOL    HW128967   0.716   3.348  17.258 -0.1658 -1.1729  2.1743
 5835SOL    HW228968   0.728   3.457  17.357  2.3964 -2.4987 -0.8072
 5836SOL     OW28969   1.935   0.508   4.775  0.2863  0.4215  0.0669
 5836SOL    HW128970   1.846   0.474   4.771  0.1505  0.7413  0.3780
 5836SOL    HW228971   1.935   0.576   4.708 -1.6428  0.4269  0.0717
 5837SOL     OW28972   0.518   3.995  11.777 -1.1298 -0.2350 -0.2288
 5837SOL    HW128973   0.446   4.047  11.813  0.9211  3.5070 -1.5056
 5837SOL    HW228974   0.546   4.049  11.702  0.0383 -0.5381 -0.0127
 5838SOL     OW28975   2.275   4.316   8.389 -0.2399  0.0163  0.4207
 5838SOL    HW128976   2.204   4.380   8.381  0.5108  0.9069  0.8745
 5838SOL    HW228977   2.247   4.280   8.474 -1.0242 -1.6466 -0.5438
 5839SOL     OW28978   2.459   0.891   7.141  0.0124 -0.1718 -0.1208
 5839SOL    HW128979   2.374   0.851   7.155 -0.9868  1.6653 -0.9284
 5839SOL    HW228980   2.495   0.898   7.230 -1.1488  1.7008  0.2120
 5840SOL     OW28981   3.312   1.007  13.272 -0.2982 -0.1544 -0.3273
 5840SOL    HW128982   3.372   0.991  13.200 -0.0531 -1.0429  0.0748
 5840SOL    HW228983   3.280   0.919  13.291 -1.6073  0.3060 -0.3202
 5841SOL     OW28984   1.044   2.092  14.331  0.0280 -0.0071 -0.6370
 5841SOL    HW128985   1.026   2.062  14.242  1.5405 -3.5622  0.2247
 5841SOL    HW228986   1.017   2.020  14.388  1.0308 -0.1125 -0.3023
 5842SOL     OW28987   2.656   2.011   7.347  0.5775 -0.0114 -0.3521
 5842SOL    HW128988   2.739   1.982   7.383 -0.7224 -0.5387  2.2056
 5842SOL    HW228989   2.611   2.056   7.418  0.4654 -0.4531 -0.1417
 5843SOL     OW28990   1.343   0.736   1.997 -0.8183  0.0932  0.1726
 5843SOL    HW128991   1.259   0.735   1.952 -0.3806 -0.9792 -0.5960
 5843SOL    HW228992   1.392   0.802   1.948  3.4353 -1.5558  2.1931
 5844SOL     OW28993   3.446   3.099   4.715  0.5796  0.2098  0.4750
 5844SOL    HW128994   3.443   3.074   4.623 -0.0030 -0.2692  0.6239
 5844SOL    HW228995   3.536   3.083   4.742  0.5210  1.4061  1.4059
 5845SOL     OW28996   0.309   1.748   5.391 -0.2782  0.0613 -0.7674
 5845SOL    HW128997   0.231   1.745   5.335  0.7539  0.6684 -2.2446
 5845SOL    HW228998   0.375   1.714   5.330  0.3122  0.6334 -0.4479
 5846SOL     OW28999   1.799   3.795   3.315  0.3126  0.0533 -0.0407
 5846SOL    HW129000   1.760   3.708   3.327 -0.7090  0.2465 -1.9990
 5846SOL    HW229001   1.833   3.788   3.226  3.3605  0.4933  1.0851
 5847SOL     OW29002   2.667   2.987   1.495  0.3006  0.1230  0.2045
 5847SOL    HW129003   2.620   2.922   1.443  0.2560  0.1734  0.1816
 5847SOL    HW229004   2.650   2.952   1.582 -1.7571  1.0610  0.1713
 5848SOL     OW29005   2.237   3.702  10.106 -0.4665  0.1251  0.7045
 5848SOL    HW129006   2.195   3.617  10.097 -1.3568  0.6692 -0.4592
 5848SOL    HW229007   2.246   3.726  10.013  2.1443 -0.5258  0.7854
 5849SOL     OW29008   3.583   3.622   6.008  0.0519  0.3489 -0.5561
 5849SOL    HW129009   3.641   3.567   6.060 -1.0986 -0.1811  0.1866
 5849SOL    HW229010   3.547   3.555   5.950 -1.7141  0.0443  0.8688
 5850SOL     OW29011   3.717   0.017   7.485  0.1297 -0.3280 -0.1232
 5850SOL    HW129012   3.810   4.711   7.482  0.2250 -0.0562  0.3965
 5850SOL    HW229013   3.701   4.717   7.578  0.6240 -0.1285  0.0076
 5851SOL     OW29014   3.111   0.451   6.455 -0.1284  0.3836 -0.2826
 5851SOL    HW129015   3.111   0.355   6.451  0.7581  0.4024 -0.8687
 5851SOL    HW229016   3.195   0.460   6.501  1.7481 -0.7688 -3.4807
 5852SOL     OW29017   0.460   0.008   4.270  0.2966  0.3586 -0.1043
 5852SOL    HW129018   0.524   0.064   4.315  0.0267 -0.1785  0.9460
 5852SOL    HW229019   0.405   0.082   4.244  2.6311  2.4252  0.8147
 5853SOL     OW29020   4.223   3.277  14.374  0.4003 -0.1508 -0.2634
 5853SOL    HW129021   4.257   3.233  14.452  0.3662  1.7517  0.8284
 5853SOL    HW229022   4.142   3.320  14.400 -0.7120 -2.1952 -0.3517
 5854SOL     OW29023   3.275   4.599  17.174 -0.1046 -0.4343 -0.0018
 5854SOL    HW129024   3.237   4.578  17.259  0.4191 -1.2075  0.0409
 5854SOL    HW229025   3.367   4.614  17.196 -0.3891  1.6071 -0.2135
 5855SOL     OW29026   1.205   0.310   2.428  0.5541  0.0719 -0.3828
 5855SOL    HW129027   1.263   0.386   2.418  0.2112  0.2295 -1.2332
 5855SOL    HW229028   1.174   0.330   2.516  2.1092 -1.6884  0.5480
 5856SOL     OW29029   2.307   3.386   2.188 -0.6141  0.2563 -0.6066
 5856SOL    HW129030   2.373   3.450   2.214 -2.2867  2.1930 -1.1388
 5856SOL    HW229031   2.222   3.405   2.228 -0.5362  0.8208 -0.7199
 5857SOL     OW29032   1.101   3.422   7.285  0.2375 -0.3632  0.0130
 5857SOL    HW129033   1.135   3.492   7.341  0.5998 -0.0793 -0.5557
 5857SOL    HW229034   1.012   3.452   7.267  1.2047  1.5550 -1.5499
 5858SOL     OW29035   1.342   3.297   3.064 -0.0479  0.7961 -0.1965
 5858SOL    HW129036   1.420   3.242   3.065 -1.7381 -1.5469  1.3863
 5858SOL    HW229037   1.283   3.223   3.061 -0.5001  1.0254  2.9899
 5859SOL     OW29038   2.628   2.141  11.960 -0.2590 -0.3095  0.4863
 5859SOL    HW129039   2.633   2.228  12.001 -3.1396  0.1136 -0.0922
 5859SOL    HW229040   2.550   2.144  11.905  1.1767 -1.8195 -1.6538
 5860SOL     OW29041   1.315   4.033   5.095 -0.4462  0.1905 -0.1958
 5860SOL    HW129042   1.347   3.950   5.059 -0.7522  0.4074 -0.9540
 5860SOL    HW229043   1.367   4.102   5.054 -1.7562  1.5853  0.4916
 5861SOL     OW29044   2.865   3.370  13.903  0.3808 -0.2633 -0.0891
 5861SOL    HW129045   2.818   3.410  13.829 -0.7616  0.2482  0.9121
 5861SOL    HW229046   2.866   3.279  13.874  1.0244  0.0770 -1.1600
 5862SOL     OW29047   3.799   1.256   4.122  0.2202  0.1591 -0.4374
 5862SOL    HW129048   3.875   1.307   4.094  0.3434  1.2184  1.7884
 5862SOL    HW229049   3.787   1.296   4.208 -2.2094 -1.2661 -0.1128
 5863SOL     OW29050   2.166   1.452   8.102  0.2626 -0.1665 -0.2338
 5863SOL    HW129051   2.188   1.510   8.029 -0.0509 -0.1587 -0.3224
 5863SOL    HW229052   2.253   1.422   8.128 -1.3032 -1.7994  3.1210
 5864SOL     OW29053   3.620   2.491   3.669  0.2509  0.2990 -0.1616
 5864SOL    HW129054   3.685   2.560   3.659 -1.3403  1.7223 -0.8579
 5864SOL    HW229055   3.550   2.530   3.722 -0.7399 -2.3232  0.4500
 5865SOL     OW29056   2.250   0.536   0.141 -0.1490 -0.7430  0.2314
 5865SOL    HW129057   2.173   0.528   0.085 -0.1560  0.1255  0.1144
 5865SOL    HW229058   2.297   0.608   0.098 -1.6677 -1.2187 -2.2597
 5866SOL     OW29059   2.887   3.156   4.043  0.0248 -0.1970  0.4524
 5866SOL    HW129060   2.964   3.120   3.998  0.4217  0.2357  0.7901
 5866SOL    HW229061   2.903   3.250   4.036 -0.3228 -0.2984 -1.7069
 5867SOL     OW29062   0.639   3.538   6.996 -0.2695 -0.0471  0.4906
 5867SOL    HW129063   0.596   3.453   7.001 -2.9532  1.4595  3.0689
 5867SOL    HW229064   0.599   3.571   6.916 -1.3033 -0.8128  0.6996
 5868SOL     OW29065   1.512   1.558   2.835  0.2028 -0.0915 -0.1258
 5868SOL    HW129066   1.443   1.574   2.770  0.0336 -0.4214 -0.0256
 5868SOL    HW229067   1.575   1.537   2.766  0.5729 -2.8135  1.0355
 5869SOL     OW29068   4.277   1.366   1.640  0.0773 -0.3725 -0.0446
 5869SOL    HW129069   4.357   1.395   1.684 -0.3597  1.2020 -0.2872
 5869SOL    HW229070   4.260   1.437   1.579  1.9051 -0.2058 -0.3578
 5870SOL     OW29071   4.127   2.754   3.868  0.2432 -0.3029 -0.0856
 5870SOL    HW129072   4.159   2.679   3.918 -1.5923 -1.5030 -0.7000
 5870SOL    HW229073   4.036   2.726   3.855 -0.4127  1.8430 -0.1205
 5871SOL     OW29074   0.874   3.371   6.092 -0.0099  0.0201 -0.3575
 5871SOL    HW129075   0.797   3.368   6.149  0.4630  1.8992  0.3809
 5871SOL    HW229076   0.934   3.309   6.135 -0.6885  0.4861  1.2231
 5872SOL     OW29077   1.428   0.651  11.449  0.2431 -0.1304 -0.0246
 5872SOL    HW129078   1.512   0.633  11.407  0.7839  1.4224  0.4016
 5872SOL    HW229079   1.371   0.691  11.383 -2.5947 -0.7581  2.0577
 5873SOL     OW29080   1.932   1.217   5.709  0.4144 -0.0924 -0.3214
 5873SOL    HW129081   1.951   1.220   5.803 -0.3660 -1.6545 -0.1237
 5873SOL    HW229082   2.016   1.246   5.673 -0.1384  0.4315 -1.1938
 5874SOL     OW29083   0.312   0.387   7.507  0.0842  0.2024 -0.7015
 5874SOL    HW129084   0.283   0.443   7.436  0.3796  0.8249 -0.3280
 5874SOL    HW229085   0.396   0.352   7.477  0.4911 -0.2290  0.9577
 5875SOL     OW29086   3.127   0.748   8.099 -0.0405 -0.2514  0.1808
 5875SOL    HW129087   3.162   0.683   8.161  1.9366  1.5170  0.9233
 5875SOL    HW229088   3.062   0.787   8.158  0.0667 -0.4281  0.4178
 5876SOL     OW29089   3.296   0.793   8.422 -0.0194 -0.8387  0.5673
 5876SOL    HW129090   3.282   0.708   8.379 -1.6819  0.7171 -1.9292
 5876SOL    HW229091   3.312   0.845   8.344 -2.0943 -0.8471  0.1486
 5877SOL     OW29092   0.885   2.194  15.145  0.3040  0.1245  0.4187
 5877SOL    HW129093   0.833   2.254  15.092  2.0682  0.1510 -1.2865
 5877SOL    HW229094   0.821   2.125  15.162  0.9004 -0.6214 -0.3518
 5878SOL     OW29095   3.034   1.764   8.788  0.1442  0.5613  0.0256
 5878SOL    HW129096   2.961   1.819   8.816  1.5794  3.2492 -1.5196
 5878SOL    HW229097   2.985   1.700   8.737  1.5445 -0.2128 -0.3767
 5879SOL     OW29098   4.003   3.695   4.023  0.3527  0.1335 -0.2254
 5879SOL    HW129099   3.985   3.616   4.076 -0.8501 -1.9374 -3.7624
 5879SOL    HW229100   3.981   3.661   3.937 -2.0470 -1.2255  0.9189
 5880SOL     OW29101   3.295   0.587   4.503 -0.6154  0.2004  0.4884
 5880SOL    HW129102   3.244   0.564   4.425  0.0633 -2.0892  0.7172
 5880SOL    HW229103   3.229   0.618   4.564 -0.7738  1.5290 -0.3450
 5881SOL     OW29104   1.726   2.237   0.006 -0.2048 -0.4902 -0.4601
 5881SOL    HW129105   1.701   2.151  17.654 -1.4962 -0.4691  0.4388
 5881SOL    HW229106   1.727   2.225   0.101 -1.1344 -1.5968 -0.5957
 5882SOL     OW29107   1.630   3.947  11.912 -0.2406  0.4346 -0.2329
 5882SOL    HW129108   1.694   3.920  11.979  0.0336 -1.3856 -1.2386
 5882SOL    HW229109   1.667   4.028  11.877 -0.2915 -0.7159 -2.9178
 5883SOL     OW29110   1.824   3.280  17.450 -0.3013  0.6359  0.3265
 5883SOL    HW129111   1.780   3.209  17.498  2.5000 -1.0102  0.4790
 5883SOL    HW229112   1.897   3.300  17.509 -1.7262  0.2789  2.2429
 5884SOL     OW29113   3.810   2.673   3.607 -0.3577 -0.2291  0.1713
 5884SOL    HW129114   3.739   2.724   3.568 -0.2264  0.1577  0.4446
 5884SOL    HW229115   3.834   2.748   3.661  0.6633 -0.7527  0.4364
 5885SOL     OW29116   4.146   3.035   1.033  0.2937  0.1944  0.2566
 5885SOL    HW129117   4.109   2.978   1.101  1.5173 -0.4779  0.3775
 5885SOL    HW229118   4.205   3.090   1.084  1.6440  0.8588 -2.0136
 5886SOL     OW29119   1.245   4.461   2.199  0.3642 -0.0196 -0.2877
 5886SOL    HW129120   1.329   4.431   2.165  0.2795 -3.3933  2.5518
 5886SOL    HW229121   1.255   4.556   2.195 -1.7789  0.2232  0.1588
 5887SOL     OW29122   4.236   2.214   9.745 -0.2664 -0.0803 -0.5350
 5887SOL    HW129123   4.271   2.237   9.659 -0.0792  0.4497 -0.3193
 5887SOL    HW229124   4.296   2.271   9.794 -0.1164 -0.2094 -0.5694
 5888SOL     OW29125   3.538   2.746   4.640 -0.8779  0.0568 -0.0153
 5888SOL    HW129126   3.522   2.745   4.735  1.1800  0.0483  0.3268
 5888SOL    HW229127   3.631   2.764   4.648 -0.2660 -3.5792  0.9685
 5889SOL     OW29128   3.493   2.293   8.499 -0.0254  0.5616 -0.2042
 5889SOL    HW129129   3.404   2.261   8.485  0.2638 -0.2202 -0.2906
 5889SOL    HW229130   3.507   2.334   8.414  0.8244 -0.3230 -0.5005
 5890SOL     OW29131   1.003   4.198   0.477  0.4888 -0.9021  0.0924
 5890SOL    HW129132   0.991   4.107   0.449  0.3489 -0.9392  0.2693
 5890SOL    HW229133   0.991   4.191   0.572 -2.6565  1.3997 -0.1318
 5891SOL     OW29134   4.138   1.937   2.491 -0.3029 -0.2305  0.0914
 5891SOL    HW129135   4.153   1.959   2.399 -1.8037 -5.2889 -1.3865
 5891SOL    HW229136   4.106   1.847   2.481 -0.1126 -0.0707 -1.8863
 5892SOL     OW29137   1.517   1.046  17.418  0.3150  0.2610 -0.2248
 5892SOL    HW129138   1.592   1.091  17.457 -1.9594  2.1978  1.8804
 5892SOL    HW229139   1.513   1.100  17.339  1.0006 -0.1631 -0.5437
 5893SOL     OW29140   3.149   2.555   4.091  0.0267  0.1205  0.2300
 5893SOL    HW129141   3.146   2.576   3.997 -0.0560 -1.8689 -0.2258
 5893SOL    HW229142   3.092   2.623   4.124 -1.3463 -0.6835 -0.4802
 5894SOL     OW29143   2.550   1.038  14.617 -0.1083  0.4578 -0.4779
 5894SOL    HW129144   2.473   1.024  14.563 -0.3580  1.1029 -0.2880
 5894SOL    HW229145   2.558   1.131  14.599 -1.9409  0.5663 -0.7469
 5895SOL     OW29146   0.680   1.483   5.268  0.5720  0.1609 -0.1085
 5895SOL    HW129147   0.615   1.530   5.320 -1.3105 -1.0995 -1.3032
 5895SOL    HW229148   0.705   1.541   5.196 -2.1891  1.4199 -0.0795
 5896SOL     OW29149   2.897   2.477  16.744 -0.3088  0.3612 -1.0999
 5896SOL    HW129150   2.864   2.417  16.811  1.1929  1.5346  0.7042
 5896SOL    HW229151   2.930   2.550  16.797 -0.8823 -2.0682  2.6372
 5897SOL     OW29152   1.830   4.617   5.933 -0.0531  0.7557 -0.1986
 5897SOL    HW129153   1.793   4.537   5.897  1.5536 -0.1431  0.1732
 5897SOL    HW229154   1.853   4.659   5.851  0.6464 -3.8865 -2.3612
 5898SOL     OW29155   1.007   1.463   5.184  0.5214 -0.5610 -0.4577
 5898SOL    HW129156   1.009   1.457   5.089 -3.4191  1.6204 -0.6778
 5898SOL    HW229157   1.096   1.494   5.202  0.5124 -1.0105  0.3801
 5899SOL     OW29158   0.822   4.397   2.404 -0.6390 -0.4590 -0.1275
 5899SOL    HW129159   0.796   4.486   2.425  0.9068  0.1031 -0.5987
 5899SOL    HW229160   0.915   4.398   2.429 -0.7135  2.9687 -0.0195
 5900SOL     OW29161   1.780   2.772   1.336  0.1707  0.8315  0.2917
 5900SOL    HW129162   1.730   2.692   1.321 -0.3475  1.0988  0.5777
 5900SOL    HW229163   1.719   2.818   1.394  0.2656  2.2063 -0.6920
 5901SOL     OW29164   0.502   4.609   5.839  0.1857 -0.1014 -0.5239
 5901SOL    HW129165   0.527   4.665   5.912  2.0799 -1.6797  0.0362
 5901SOL    HW229166   0.449   4.679   5.800  0.2709  1.1491  1.6591
 5902SOL     OW29167   0.877   2.714   1.834  0.2579 -0.3956 -0.2588
 5902SOL    HW129168   0.854   2.689   1.923  0.5828  0.6164  0.1080
 5902SOL    HW229169   0.948   2.651   1.822 -0.4617 -1.6947  2.4359
 5903SOL     OW29170   0.441   3.073  13.953 -0.0120  0.2380  0.5175
 5903SOL    HW129171   0.350   3.099  13.940 -0.9462 -2.7594  1.1629
 5903SOL    HW229172   0.441   3.101  14.045  0.6152 -1.2029  0.9508
 5904SOL     OW29173   2.782   2.188  15.958 -0.4779 -0.1878 -0.1260
 5904SOL    HW129174   2.717   2.258  15.958  0.6373  0.8561 -0.5823
 5904SOL    HW229175   2.791   2.166  16.050  0.4107  1.5309  0.2083
 5905SOL     OW29176   4.441   3.196   8.379  0.2835  0.1281  0.4437
 5905SOL    HW129177   4.452   3.150   8.462 -0.0202  0.4478  0.6629
 5905SOL    HW229178   4.532   3.222   8.365  0.5073  0.2856  2.2769
 5906SOL     OW29179   1.179   2.919  15.102 -0.5321  0.0810  0.9231
 5906SOL    HW129180   1.195   2.952  15.013 -1.3713  1.9159  1.4559
 5906SOL    HW229181   1.121   2.989  15.130  0.1044 -0.9296  4.6965
 5907SOL     OW29182   3.357   4.513   8.598  0.2974  0.2006 -0.1349
 5907SOL    HW129183   3.264   4.530   8.617  0.3032 -1.5083  1.4669
 5907SOL    HW229184   3.398   4.523   8.684  3.7218 -1.0174 -1.6705
 5908SOL     OW29185   4.497   0.340   3.748 -0.1613  0.2869 -0.2379
 5908SOL    HW129186   4.475   0.286   3.823  0.9407  2.3904  1.5982
 5908SOL    HW229187   4.413   0.351   3.703 -0.3411  1.5100  0.3950
 5909SOL     OW29188   0.040   0.575  14.325  0.4296 -0.1760  0.3628
 5909SOL    HW129189   0.039   0.580  14.421 -0.3724 -1.4851  0.4322
 5909SOL    HW229190   4.678   0.527  14.306  0.2177 -0.4705  1.9905
 5910SOL     OW29191   0.721   0.077  17.459 -0.0491 -0.1270  0.2746
 5910SOL    HW129192   0.670   0.099  17.380 -0.4802  2.0440  1.1480
 5910SOL    HW229193   0.656   0.065  17.528  0.3323  0.3965  0.7205
 5911SOL     OW29194   1.714   3.545   3.290 -0.1066  0.4330 -0.0187
 5911SOL    HW129195   1.763   3.486   3.347 -0.2962  0.3890  0.1013
 5911SOL    HW229196   1.702   3.495   3.210  0.9649 -0.2627  0.2620
 5912SOL     OW29197   3.803   2.490   9.123 -0.2687  0.4303 -0.2711
 5912SOL    HW129198   3.726   2.446   9.159  0.8949 -0.2062  1.4568
 5912SOL    HW229199   3.779   2.508   9.032  0.2466 -0.8305 -0.6623
 5913SOL     OW29200   2.948   4.382   4.163  0.5546 -0.3964  0.3843
 5913SOL    HW129201   2.882   4.399   4.095  0.3569 -0.8015  0.4720
 5913SOL    HW229202   2.981   4.471   4.167 -2.9944  1.1165 -3.2004
 5914SOL     OW29203   2.439   4.700  12.080  0.0176  0.1548 -0.0623
 5914SOL    HW129204   2.411   4.634  12.017  0.0018  0.5662 -0.4842
 5914SOL    HW229205   2.363   0.039  12.090  0.5008  0.3903  2.1851
 5915SOL     OW29206   4.178   0.216  14.220 -0.7523 -0.0122  0.0092
 5915SOL    HW129207   4.121   0.165  14.163 -0.1221 -0.9141  0.1815
 5915SOL    HW229208   4.171   0.160  14.297  2.8024  1.3665  1.3261
 5916SOL     OW29209   2.091   3.869  16.700 -0.0592  0.4907  0.0220
 5916SOL    HW129210   2.183   3.895  16.693  0.1761  0.0372  1.4895
 5916SOL    HW229211   2.103   3.799  16.764 -0.6128  1.8187  1.6027
 5917SOL     OW29212   1.110   1.895   2.141 -0.3034 -0.0957  0.3675
 5917SOL    HW129213   1.093   1.858   2.228 -0.1293  2.6000  1.5381
 5917SOL    HW229214   1.176   1.958   2.169  1.1266 -0.9059 -1.1923
 5918SOL     OW29215   0.722   2.507   5.394 -0.3238 -0.1337  0.1465
 5918SOL    HW129216   0.734   2.581   5.335  0.1549  0.1243  0.5676
 5918SOL    HW229217   0.628   2.504   5.415 -0.2473 -0.0821  0.5008
 5919SOL     OW29218   0.842   1.244   8.830 -0.0442 -0.6187 -0.1625
 5919SOL    HW129219   0.764   1.294   8.807 -0.2562 -0.8573  0.0497
 5919SOL    HW229220   0.814   1.153   8.839 -0.0015 -0.6156  0.0094
 5920SOL     OW29221   4.609   4.010  13.401 -0.2514 -0.3168  0.2780
 5920SOL    HW129222   4.552   3.993  13.476  0.1836 -0.3745  0.5948
 5920SOL    HW229223   4.583   3.932  13.353  1.7041  1.0650 -3.0412
 5921SOL     OW29224   0.340   1.996   4.245 -0.4832  0.5342 -0.3692
 5921SOL    HW129225   0.248   1.971   4.254 -0.7042  1.4573 -0.0725
 5921SOL    HW229226   0.380   1.925   4.195  1.3608  1.3460 -0.0635
 5922SOL     OW29227   1.269   0.006   7.135 -0.1608 -0.2674  0.3119
 5922SOL    HW129228   1.324   0.074   7.176  0.9196  0.2007 -1.9227
 5922SOL    HW229229   1.288   4.651   7.192 -0.4763 -1.3040 -0.9463
 5923SOL     OW29230   0.391   0.263  17.295 -0.4861 -0.2025  0.0654
 5923SOL    HW129231   0.341   0.287  17.217 -2.5968 -3.3217  0.4816
 5923SOL    HW229232   0.463   0.208  17.263  0.1577  0.2571  0.7032
 5924SOL     OW29233   1.920   2.968   4.222 -0.6287 -0.9378  0.1452
 5924SOL    HW129234   1.934   2.926   4.307  1.3562 -1.8053 -0.6015
 5924SOL    HW229235   1.965   2.915   4.156  1.1077  0.3563  0.2779
 5925SOL     OW29236   1.625   3.232   5.013 -0.0456 -0.0096 -0.0398
 5925SOL    HW129237   1.569   3.172   5.063 -0.0157 -0.7206 -0.8483
 5925SOL    HW229238   1.567   3.262   4.943 -0.4652 -2.7190 -0.8821
 5926SOL     OW29239   3.308   3.488   4.707 -0.4609  0.5592  0.2695
 5926SOL    HW129240   3.216   3.510   4.721 -0.8891 -0.5639 -0.7518
 5926SOL    HW229241   3.313   3.438   4.625  0.7008  0.2338  0.5387
 5927SOL     OW29242   0.415   2.280  11.301  0.0003  0.5496 -0.1816
 5927SOL    HW129243   0.471   2.279  11.379 -1.6236  0.2246  1.0043
 5927SOL    HW229244   0.467   2.326  11.236  2.2890 -3.4175 -1.1200
 5928SOL     OW29245   2.726   1.148   9.084  0.1782 -0.1807  0.0834
 5928SOL    HW129246   2.801   1.208   9.091 -2.2866  2.9438 -0.2044
 5928SOL    HW229247   2.708   1.130   9.176  0.0357 -0.2280  0.0447
 5929SOL     OW29248   0.884   2.226   2.614 -0.0397 -0.0156 -0.1348
 5929SOL    HW129249   0.867   2.140   2.651  0.7082 -0.6683 -1.3173
 5929SOL    HW229250   0.839   2.215   2.530 -0.3589 -0.0040  0.0357
 5930SOL     OW29251   4.201   0.369  13.983 -0.1351  0.3557 -0.0147
 5930SOL    HW129252   4.284   0.373  13.935 -0.2949  0.8531 -0.2414
 5930SOL    HW229253   4.231   0.330  14.066 -0.8739 -1.7670 -0.7469
 5931SOL     OW29254   2.822   3.915  12.399  0.0756  0.4614 -0.3474
 5931SOL    HW129255   2.730   3.934  12.416 -0.5678 -2.1240 -1.0239
 5931SOL    HW229256   2.863   3.926  12.485 -0.8326 -0.6040  0.2179
 5932SOL     OW29257   4.588   2.311   9.676 -0.1172  0.3482 -0.2144
 5932SOL    HW129258   4.558   2.231   9.632  0.4271 -0.4281  0.8222
 5932SOL    HW229259   4.550   2.311   9.763 -0.5928 -0.3187 -0.4217
 5933SOL     OW29260   2.287   3.437   3.723 -0.2999 -0.1007 -0.2427
 5933SOL    HW129261   2.279   3.344   3.740  2.7233 -0.8702 -3.0720
 5933SOL    HW229262   2.251   3.475   3.803 -1.1175 -1.2840 -0.0505
 5934SOL     OW29263   1.048   4.369  11.460 -0.0596 -0.0050 -0.5830
 5934SOL    HW129264   1.088   4.416  11.533 -0.5934 -2.9641  1.6054
 5934SOL    HW229265   1.129   4.350  11.412  0.5541 -0.6399  0.7032
 5935SOL     OW29266   1.367   0.991   6.157  0.2615 -0.5673 -0.5114
 5935SOL    HW129267   1.446   0.956   6.197 -0.9436  0.5022  2.8313
 5935SOL    HW229268   1.322   0.909   6.135 -1.7204  0.2728  0.4346
 5936SOL     OW29269   0.907   3.999   7.384  0.3269 -0.1574 -0.2798
 5936SOL    HW129270   0.899   4.069   7.448 -0.9909 -0.5261 -0.0260
 5936SOL    HW229271   0.814   3.993   7.360  0.1911  0.3777  0.1263
 5937SOL     OW29272   4.071   0.502  13.792  0.7229  0.0404 -0.5228
 5937SOL    HW129273   4.080   0.597  13.801 -0.7160 -0.1168  2.8770
 5937SOL    HW229274   4.131   0.462  13.855  0.5837 -0.4010 -0.6667
 5938SOL     OW29275   0.493   0.160   9.249  0.0934  0.1772  0.0333
 5938SOL    HW129276   0.469   0.214   9.174 -0.8729  0.3043  0.4240
 5938SOL    HW229277   0.571   0.119   9.214  1.2127  0.4251  2.2185
 5939SOL     OW29278   3.782   1.998  16.483  0.5620 -0.4729 -0.1565
 5939SOL    HW129279   3.789   2.055  16.406 -1.4092 -1.1678 -0.8716
 5939SOL    HW229280   3.842   2.051  16.535 -1.1519  1.0248  0.2966
 5940SOL     OW29281   3.239   3.676   0.941  0.2481 -0.2703 -0.2493
 5940SOL    HW129282   3.245   3.598   0.886 -2.2816  0.3384 -1.3879
 5940SOL    HW229283   3.184   3.735   0.890  1.5800  0.8440 -0.4103
 5941SOL     OW29284   2.069   2.640   6.170 -0.5382  0.1158 -0.0377
 5941SOL    HW129285   2.027   2.556   6.157 -1.4269  1.0444 -3.1897
 5941SOL    HW229286   2.158   2.612   6.148  0.5685  0.9838  3.2421
 5942SOL     OW29287   3.366   0.415   6.582  0.4518 -0.1181 -0.4574
 5942SOL    HW129288   3.404   0.380   6.501 -0.5513 -0.7087 -0.6734
 5942SOL    HW229289   3.403   0.363   6.653 -0.3808  0.8475  0.6809
 5943SOL     OW29290   1.692   0.970   4.002  0.1619 -0.3407 -0.3661
 5943SOL    HW129291   1.738   1.004   4.079 -0.5339  0.5689 -0.3472
 5943SOL    HW229292   1.674   0.877   4.017  3.7568 -1.0738 -0.7091
 5944SOL     OW29293   4.526   1.539   6.342  0.1043  0.2930  0.0156
 5944SOL    HW129294   4.445   1.553   6.392 -0.5860  1.7207 -1.5315
 5944SOL    HW229295   4.567   1.618   6.377 -0.3956  0.7873 -0.5209
 5945SOL     OW29296   4.680   1.984   4.103 -0.2992 -0.2991  0.5966
 5945SOL    HW129297   4.699   1.953   4.192  0.5061  0.9753  0.8695
 5945SOL    HW229298   4.690   2.075   4.131  0.9698 -0.7180  1.4860
 5946SOL     OW29299   4.401   3.018  12.264 -0.1152 -0.2164  0.3430
 5946SOL    HW129300   4.393   2.923  12.258 -1.1094 -0.0673 -0.6156
 5946SOL    HW229301   4.384   3.027  12.358 -0.1972  1.1108  0.1982
 5947SOL     OW29302   3.370   4.407   9.076 -0.4389 -0.1030 -0.1219
 5947SOL    HW129303   3.386   4.480   9.136 -1.7708  1.6909 -1.9295
 5947SOL    HW229304   3.427   4.423   9.001 -0.9197 -1.1047 -0.6934
 5948SOL     OW29305   4.654   2.164   6.914 -0.5567  0.3564  0.4250
 5948SOL    HW129306   4.676   2.258   6.918  0.7373 -0.0090  1.8370
 5948SOL    HW229307   4.690   2.152   7.002  0.7486  0.5507 -0.0777
 5949SOL     OW29308   2.398   2.257  10.682  0.4839  0.4846 -0.6126
 5949SOL    HW129309   2.364   2.169  10.663  1.1381  0.2163 -0.5488
 5949SOL    HW229310   2.376   2.300  10.599 -1.8343  2.0961  0.8358
 5950SOL     OW29311   2.051   1.868   2.919  0.9215  0.5883  0.1971
 5950SOL    HW129312   1.981   1.934   2.915  0.0224 -0.5083 -2.0469
 5950SOL    HW229313   2.108   1.888   2.845  1.1581  1.5494  0.6367
 5951SOL     OW29314   0.828   3.445   7.218  0.1161 -0.1259 -0.2956
 5951SOL    HW129315   0.762   3.433   7.150 -0.9659  0.9437  0.5447
 5951SOL    HW229316   0.826   3.541   7.227  1.3962 -0.0042 -1.2348
 5952SOL     OW29317   0.920   4.233   5.996 -0.2690  0.0015 -0.7977
 5952SOL    HW129318   0.967   4.219   6.079 -0.9425 -0.9236 -0.5725
 5952SOL    HW229319   0.945   4.153   5.950  0.4245 -1.2513  1.7223
 5953SOL     OW29320   2.725   2.311   1.342  0.3936 -0.0362  0.3480
 5953SOL    HW129321   2.704   2.307   1.249  0.2005 -2.6384  0.5181
 5953SOL    HW229322   2.751   2.223   1.368  1.3768  0.4806  1.1255
 5954SOL     OW29323   1.114   0.048   8.234  0.0043 -0.0348  0.0432
 5954SOL    HW129324   1.142   4.704   8.167 -0.3490  1.0720 -1.1591
 5954SOL    HW229325   1.177   0.120   8.227 -0.5788  0.4426 -0.2683
 5955SOL     OW29326   4.168   4.678  11.258  0.2647 -0.0455 -0.3220
 5955SOL    HW129327   4.217   0.030  11.297  0.7550 -0.1408 -0.7741
 5955SOL    HW229328   4.122   4.646  11.336 -1.5525  1.0881 -0.9370
 5956SOL     OW29329   1.262   0.972   5.713  0.7148 -0.0922  0.0992
 5956SOL    HW129330   1.350   0.934   5.714 -0.9576 -3.9360 -1.5721
 5956SOL    HW229331   1.198   0.904   5.731 -1.9817  1.6859 -2.8014
 5957SOL     OW29332   1.253   1.092   1.678  0.0615 -0.1989 -0.1909
 5957SOL    HW129333   1.326   1.151   1.660  0.3175  0.0091  1.5003
 5957SOL    HW229334   1.175   1.139   1.648 -0.2023  0.3016  1.2698
 5958SOL     OW29335   4.570   0.427   4.857 -0.5267  0.2457  0.4048
 5958SOL    HW129336   4.477   0.449   4.862 -0.2644  1.5218 -0.1178
 5958SOL    HW229337   4.584   0.400   4.766 -0.4152 -1.4871  0.9358
 5959SOL     OW29338   0.042   1.228   3.483  0.4513  0.2921 -0.0183
 5959SOL    HW129339   4.709   1.309   3.481  0.3830  0.2264 -0.9261
 5959SOL    HW229340   0.086   1.233   3.398  0.2466 -1.5800 -0.2387
 5960SOL     OW29341   0.983   4.134   8.831 -0.6706 -0.0517 -0.1817
 5960SOL    HW129342   1.015   4.222   8.813 -0.9354 -0.5090 -2.8155
 5960SOL    HW229343   1.060   4.088   8.866  1.2721  2.2260 -1.5201
 5961SOL     OW29344   0.602   2.906   3.593 -0.0920  0.5418  0.3350
 5961SOL    HW129345   0.514   2.938   3.571  0.2025 -0.9566 -3.0119
 5961SOL    HW229346   0.602   2.921   3.687  0.0281  0.1501  0.3970
 5962SOL     OW29347   4.091   0.792  17.134 -0.3796  0.0679 -0.1021
 5962SOL    HW129348   4.127   0.880  17.122 -1.8780  0.7450  0.4529
 5962SOL    HW229349   4.015   0.800  17.191 -1.9121 -2.9945 -1.7450
 5963SOL     OW29350   1.992   4.453   9.033 -0.2194  0.1332  0.2757
 5963SOL    HW129351   2.020   4.470   9.123 -0.4418 -1.1513  0.5885
 5963SOL    HW229352   2.045   4.518   8.988  0.6153 -0.7341  0.0271
 5964SOL     OW29353   0.445   1.819   1.042 -0.2630 -0.3758  0.5130
 5964SOL    HW129354   0.500   1.857   0.974  0.5044 -0.8412  0.8722
 5964SOL    HW229355   0.443   1.730   1.007  0.3249 -0.6087  1.0711
 5965SOL     OW29356   1.168   1.926  16.309 -0.5835  0.4282 -0.2221
 5965SOL    HW129357   1.251   1.884  16.286 -0.9531  0.2582 -1.2589
 5965SOL    HW229358   1.196   2.016  16.324 -1.6732  0.6374  0.5742
 5966SOL     OW29359   2.989   3.733   5.673 -0.1106 -0.2336  0.2934
 5966SOL    HW129360   3.041   3.667   5.718 -0.9166 -0.2233  1.2374
 5966SOL    HW229361   2.986   3.799   5.742 -0.9124 -0.3831  0.3986
 5967SOL     OW29362   4.441   2.971   9.102  0.0421 -0.3648  0.0380
 5967SOL    HW129363   4.351   2.945   9.119 -0.6169  1.1314 -1.1606
 5967SOL    HW229364   4.470   2.886   9.069  2.5567  0.2101  0.7066
 5968SOL     OW29365   1.466   1.911  11.394  0.2527 -0.1538  0.1056
 5968SOL    HW129366   1.460   1.840  11.330  0.0552  1.6460 -1.8726
 5968SOL    HW229367   1.516   1.873  11.466 -1.1277 -0.2641  1.0163
 5969SOL     OW29368   4.363   1.272   7.913 -0.1840 -0.2036 -0.0716
 5969SOL    HW129369   4.360   1.220   7.994  3.1141 -1.3018 -0.6616
 5969SOL    HW229370   4.327   1.357   7.939  0.8687  0.2516 -0.1151
 5970SOL     OW29371   1.225   3.810   5.251 -0.1543  0.1042  0.1190
 5970SOL    HW129372   1.184   3.897   5.252  1.8228  1.0611 -2.2136
 5970SOL    HW229373   1.229   3.803   5.156  1.4737 -1.0351  0.2797
 5971SOL     OW29374   1.029   2.307   4.211  0.0085 -0.0117  0.0881
 5971SOL    HW129375   1.034   2.346   4.298 -0.1317 -1.9710  0.9882
 5971SOL    HW229376   0.984   2.380   4.169 -0.0854 -0.1985 -0.1320
 5972SOL     OW29377   0.711   3.766   8.188  0.2493 -0.1947 -0.6897
 5972SOL    HW129378   0.743   3.677   8.203 -0.4896 -0.6103 -1.5735
 5972SOL    HW229379   0.790   3.820   8.190  0.1077  0.0084 -0.5405
 5973SOL     OW29380   4.042   3.691   7.782  0.0165  0.0685  0.3506
 5973SOL    HW129381   4.008   3.697   7.693  2.2239  0.0642 -0.4853
 5973SOL    HW229382   3.957   3.690   7.827 -2.4865  1.0751 -4.3421
 5974SOL     OW29383   0.207   4.268   9.104  0.2295 -0.2645  0.1593
 5974SOL    HW129384   0.266   4.341   9.084  1.2728 -0.6499  1.8641
 5974SOL    HW229385   0.145   4.262   9.031  1.6828 -2.7841 -0.8708
 5975SOL     OW29386   2.726   2.867   3.131  0.7846 -0.0374  0.0039
 5975SOL    HW129387   2.689   2.822   3.055  2.5152 -1.1489 -0.1728
 5975SOL    HW229388   2.713   2.961   3.120 -0.8570 -0.1962  0.5228
 5976SOL     OW29389   1.589   0.784   7.142  0.2825 -0.0373 -0.3794
 5976SOL    HW129390   1.512   0.833   7.115  2.0335  1.9108 -1.8853
 5976SOL    HW229391   1.627   0.853   7.197 -0.2632  1.4061 -1.8162
 5977SOL     OW29392   4.419   1.539   5.890 -0.9536  0.8618 -0.7207
 5977SOL    HW129393   4.409   1.463   5.832  0.9681  0.5652 -0.6682
 5977SOL    HW229394   4.488   1.507   5.948  1.3932  0.6416 -3.5980
 5978SOL     OW29395   0.849   3.348   6.710  0.0331 -0.0417 -0.0976
 5978SOL    HW129396   0.821   3.259   6.728 -2.0537  0.4223 -0.9433
 5978SOL    HW229397   0.863   3.380   6.799  0.5579  1.0775 -0.5845
 5979SOL     OW29398   2.340   0.772   8.891  0.1361  0.3180  0.2041
 5979SOL    HW129399   2.295   0.840   8.841 -3.1403 -1.6145  0.4772
 5979SOL    HW229400   2.433   0.783   8.871 -0.3384  1.5536 -1.2449
 5980SOL     OW29401   2.941   3.690   0.607 -0.0085  0.1660 -0.3836
 5980SOL    HW129402   2.892   3.649   0.536  1.7583 -2.5866 -0.0094
 5980SOL    HW229403   3.018   3.724   0.563 -0.4166  0.4866 -0.8555
 5981SOL     OW29404   2.619   1.336   4.787  0.1328  0.3834 -0.0874
 5981SOL    HW129405   2.688   1.384   4.833  0.4018  2.6248 -2.7786
 5981SOL    HW229406   2.644   1.359   4.697  0.4289  2.8245  0.6124
 5982SOL     OW29407   3.936   3.963  11.125  0.5551  0.0195 -0.1127
 5982SOL    HW129408   3.990   4.031  11.085  0.2886 -0.9049 -2.0433
 5982SOL    HW229409   3.989   3.885  11.112  1.5811  0.8124 -0.6651
 5983SOL     OW29410   1.092   1.354   2.568  0.5623 -0.4300 -0.4084
 5983SOL    HW129411   1.003   1.348   2.604  0.4609  0.2952 -0.5191
 5983SOL    HW229412   1.065   1.386   2.482  0.5356  1.1447  0.1796
 5984SOL     OW29413   4.560   2.073   2.103  0.5495 -0.0026 -0.4684
 5984SOL    HW129414   4.640   2.021   2.097  0.2702 -0.7024  1.8830
 5984SOL    HW229415   4.574   2.146   2.043 -0.9489  3.1553  3.0381
 5985SOL     OW29416   0.190   2.213   6.481 -0.5156 -0.1446  0.1796
 5985SOL    HW129417   0.256   2.231   6.548  0.8236 -1.3182 -0.8230
 5985SOL    HW229418   0.146   2.149   6.537  0.0468 -1.1187 -0.4927
 5986SOL     OW29419   0.214   3.225   3.368 -0.2339 -0.3499  0.1010
 5986SOL    HW129420   0.132   3.182   3.345 -0.3971  0.3243 -0.6074
 5986SOL    HW229421   0.190   3.288   3.436 -0.8964 -1.4304  0.8707
 5987SOL     OW29422   3.323   3.938   4.055  0.7212 -0.0902 -0.1505
 5987SOL    HW129423   3.357   4.023   4.085 -0.1739  0.5516 -0.9525
 5987SOL    HW229424   3.257   3.927   4.124 -0.2267 -2.5040 -1.4307
 5988SOL     OW29425   3.766   4.256   0.519  0.0971 -0.4866 -0.3312
 5988SOL    HW129426   3.850   4.271   0.563  0.5236  0.2517 -1.4180
 5988SOL    HW229427   3.713   4.216   0.589 -0.4650  0.2942 -0.3156
 5989SOL     OW29428   2.925   4.378   2.421 -0.1292 -0.1836  0.2427
 5989SOL    HW129429   2.976   4.434   2.362 -0.6388 -0.3220 -0.3261
 5989SOL    HW229430   2.922   4.295   2.373  0.6637  0.2905 -0.6503
 5990SOL     OW29431   0.943   0.536   5.562 -0.6148  0.6734 -0.1635
 5990SOL    HW129432   0.885   0.471   5.522 -0.0726 -0.3159  0.6656
 5990SOL    HW229433   0.883   0.610   5.572 -0.1295  0.5759  3.2538
 5991SOL     OW29434   4.128   2.351  11.299 -0.9086 -0.5827  0.4491
 5991SOL    HW129435   4.217   2.365  11.267 -0.9839 -2.9035 -0.7619
 5991SOL    HW229436   4.123   2.383  11.389 -1.8468 -1.5557  0.7411
 5992SOL     OW29437   4.626   1.827   7.684  0.4739 -0.0611 -0.2597
 5992SOL    HW129438   4.593   1.917   7.689  0.9588  0.1222 -0.3177
 5992SOL    HW229439   4.550   1.774   7.706  0.2566  0.0169 -0.8214
 5993SOL     OW29440   1.912   4.401  14.259  0.3065  1.0496 -0.6969
 5993SOL    HW129441   1.846   4.357  14.313 -0.2811  0.6266 -1.7493
 5993SOL    HW229442   1.990   4.358  14.295 -1.7261 -0.6043  1.7749
 5994SOL     OW29443   2.093   0.316   0.928 -0.5059 -0.6887 -0.1841
 5994SOL    HW129444   2.045   0.258   0.869  1.9023 -2.5513 -0.3528
 5994SOL    HW229445   2.105   0.256   1.002  1.9940  1.4593  1.1505
 5995SOL     OW29446   1.213   3.960   6.726  0.3872 -0.1852 -0.2451
 5995SOL    HW129447   1.232   4.042   6.771 -0.6740  0.1863 -0.4812
 5995SOL    HW229448   1.122   3.963   6.696  0.3046 -0.7131 -0.0521
 5996SOL     OW29449   1.819   4.594   4.432  0.4217  0.3171  0.0225
 5996SOL    HW129450   1.868   4.642   4.365  0.3973 -0.0878 -0.2927
 5996SOL    HW229451   1.730   4.593   4.397 -0.1723 -0.6493  1.6154
 5997SOL     OW29452   1.142   0.686   2.546 -0.3329  0.5912  0.3296
 5997SOL    HW129453   1.076   0.624   2.514 -1.1754  0.7662  1.7434
 5997SOL    HW229454   1.219   0.678   2.490 -0.6678 -1.3416  0.1390
 5998SOL     OW29455   0.902   1.635  15.379 -0.1071 -0.2207 -1.1570
 5998SOL    HW129456   0.819   1.682  15.383  0.4654  0.7845 -1.3593
 5998SOL    HW229457   0.871   1.574  15.311 -3.3889  0.0115  0.1070
 5999SOL     OW29458   3.608   1.411  17.294  0.1654 -0.0669 -0.6535
 5999SOL    HW129459   3.692   1.439  17.259 -0.5658  0.1600 -2.2266
 5999SOL    HW229460   3.595   1.466  17.372 -1.7545  0.4705 -1.3447
 6000SOL     OW29461   3.781   0.425   0.068 -0.4439 -0.3129 -0.1236
 6000SOL    HW129462   3.786   0.428  17.653  0.8408 -4.0320 -0.1502
 6000SOL    HW229463   3.710   0.482   0.099 -1.3782 -1.1317 -0.7734
 6001SOL     OW29464   0.047   0.758   5.548 -0.6595 -0.3557  0.1702
 6001SOL    HW129465   4.709   0.770   5.473 -2.5270 -1.4722  1.4036
 6001SOL    HW229466   0.069   0.849   5.568 -2.7945 -0.2044  1.8382
 6002SOL     OW29467   0.249   4.609   3.529  0.2047 -0.0808  0.3025
 6002SOL    HW129468   0.162   4.616   3.489  1.7661  2.4811 -2.6701
 6002SOL    HW229469   0.272   4.699   3.551  3.3486 -0.5379 -1.1870
 6003SOL     OW29470   3.421   4.262   5.334  0.6415 -0.7808 -0.3134
 6003SOL    HW129471   3.358   4.328   5.305 -1.1752 -3.1289 -1.6627
 6003SOL    HW229472   3.358   4.199   5.369 -0.9819  1.2919  0.5078
 6004SOL     OW29473   0.643   4.388   1.864 -0.6325 -0.0617  0.0389
 6004SOL    HW129474   0.735   4.368   1.846 -0.4358  0.4858  0.4237
 6004SOL    HW229475   0.653   4.483   1.874  0.4799  0.0332 -1.9041
 6005SOL     OW29476   1.363   0.352   8.129 -0.5638  0.5649  0.3414
 6005SOL    HW129477   1.318   0.407   8.192 -1.0270  0.6460 -0.0646
 6005SOL    HW229478   1.328   0.390   8.048  0.1576 -0.8428 -0.6382
 6006SOL     OW29479   3.662   2.686   6.950  0.3511  0.1697  0.5793
 6006SOL    HW129480   3.655   2.758   6.887 -0.9226  0.2360  0.7937
 6006SOL    HW229481   3.705   2.618   6.898 -1.5497 -0.4703 -0.1707
 6007SOL     OW29482   2.208   1.674  17.002 -0.3058 -0.2474 -0.1771
 6007SOL    HW129483   2.144   1.686  16.932  1.4129  2.0002 -1.3785
 6007SOL    HW229484   2.287   1.639  16.960 -0.9279  0.3370 -1.8477
 6008SOL     OW29485   3.755   0.675   8.080  0.0064 -0.4265 -0.3536
 6008SOL    HW129486   3.797   0.636   8.157  0.9916  0.6051 -0.3740
 6008SOL    HW229487   3.827   0.708   8.027 -1.0229  0.4646 -1.1955
 6009SOL     OW29488   0.585   2.517   1.894  0.2815  0.2387  0.4098
 6009SOL    HW129489   0.503   2.499   1.848  0.6674 -1.7915  0.5227
 6009SOL    HW229490   0.587   2.610   1.917 -0.8867  0.2773  0.3517
 6010SOL     OW29491   3.665   2.776   9.045  0.0012 -0.2325  0.2285
 6010SOL    HW129492   3.710   2.703   9.001 -3.8342 -1.5449 -1.5238
 6010SOL    HW229493   3.581   2.738   9.072  0.3132 -0.2106  1.2536
 6011SOL     OW29494   3.122   3.243   7.864 -0.4415 -0.0103 -0.0171
 6011SOL    HW129495   3.056   3.270   7.928 -0.7069  0.9237 -0.6861
 6011SOL    HW229496   3.077   3.281   7.788 -0.1250 -1.1436 -0.7747
 6012SOL     OW29497   3.681   2.510   6.067  0.4515 -0.4097 -0.3220
 6012SOL    HW129498   3.715   2.422   6.047  0.9103 -0.6462  1.5187
 6012SOL    HW229499   3.672   2.539   5.976 -1.8819  0.9719  0.3371
 6013SOL     OW29500   3.800   1.985   5.083 -0.9789 -0.8448 -0.3330
 6013SOL    HW129501   3.784   1.895   5.110  0.5059 -0.9590  0.1522
 6013SOL    HW229502   3.778   2.024   5.167 -0.3111  0.8657 -0.9492
 6014SOL     OW29503   1.897   2.360   9.802 -0.4745  0.4564  0.1408
 6014SOL    HW129504   1.809   2.358   9.840  0.7418  1.6649  2.9800
 6014SOL    HW229505   1.940   2.418   9.864 -1.9981 -0.3639  1.9448
 6015SOL     OW29506   0.847   3.705   7.262 -0.3946 -0.2817  0.2290
 6015SOL    HW129507   0.794   3.725   7.339 -0.4101  0.5438  0.0084
 6015SOL    HW229508   0.922   3.764   7.274 -2.0859  2.3635 -2.1136
 6016SOL     OW29509   1.790   0.943  11.396  0.2240 -0.8318  0.1083
 6016SOL    HW129510   1.880   0.944  11.364 -0.3519  2.0328 -1.4853
 6016SOL    HW229511   1.795   0.868  11.454  0.0919 -1.4960 -0.7487
 6017SOL     OW29512   2.754   3.511   2.954  0.2034  0.5461 -0.0068
 6017SOL    HW129513   2.712   3.596   2.944  0.5197  1.1383  3.8332
 6017SOL    HW229514   2.819   3.546   3.015 -0.3011  1.3042  0.1013
 6018SOL     OW29515   1.949   1.998   8.662 -0.5851  0.2104  0.3317
 6018SOL    HW129516   1.874   1.943   8.684  0.1578 -1.3012 -0.9013
 6018SOL    HW229517   2.012   1.933   8.629  1.3743  0.8832  2.7221
 6019SOL     OW29518   0.995   1.468   4.459  0.3894  0.4329  0.0968
 6019SOL    HW129519   1.031   1.497   4.375 -0.8955 -2.6613 -1.5193
 6019SOL    HW229520   1.062   1.491   4.523 -0.1031  0.3301  0.6412
 6020SOL     OW29521   3.133   2.001   9.531 -0.5974  0.8972 -0.0482
 6020SOL    HW129522   3.192   2.069   9.497  0.5445  0.3629  0.8878
 6020SOL    HW229523   3.059   2.057   9.555 -0.9642  0.4226 -0.0810
 6021SOL     OW29524   4.061   1.439   7.903  0.6615 -0.1376 -0.2762
 6021SOL    HW129525   4.113   1.515   7.929  0.4918  0.4758 -1.7477
 6021SOL    HW229526   3.980   1.489   7.894  0.7299 -0.1406 -0.8626
 6022SOL     OW29527   0.472   3.455  14.393  0.2212  0.0137 -0.0499
 6022SOL    HW129528   0.446   3.504  14.470 -1.1951 -0.7790 -0.0142
 6022SOL    HW229529   0.416   3.490  14.324  2.6852  2.0412 -1.0138
 6023SOL     OW29530   0.350   3.752   4.157 -0.4998 -0.5234  0.2842
 6023SOL    HW129531   0.416   3.699   4.112  0.2624  0.4202  0.2925
 6023SOL    HW229532   0.280   3.748   4.093 -0.8385 -1.1049  0.6883
 6024SOL     OW29533   1.106   3.614   6.778 -0.2837 -0.1148 -0.4210
 6024SOL    HW129534   1.183   3.616   6.835 -0.2404 -2.8762 -0.3703
 6024SOL    HW229535   1.032   3.612   6.839  1.1725  0.9279  1.3760
 6025SOL     OW29536   0.716   4.482   5.620 -0.6379 -0.1525 -0.1476
 6025SOL    HW129537   0.686   4.494   5.710 -1.3212  1.9804 -0.6675
 6025SOL    HW229538   0.716   4.388   5.604  0.5456 -0.3658  1.0663
 6026SOL     OW29539   1.797   1.102   8.927 -0.0931 -0.2809  0.1185
 6026SOL    HW129540   1.871   1.155   8.898 -0.0636 -0.0482  0.6342
 6026SOL    HW229541   1.764   1.071   8.842 -2.3141  2.5170 -0.0548
 6027SOL     OW29542   0.194   3.698  11.765 -0.2603 -0.2166  0.3173
 6027SOL    HW129543   0.191   3.780  11.814 -0.2112  0.4589 -0.8089
 6027SOL    HW229544   0.111   3.666  11.801 -1.3980  0.0253 -2.1534
 6028SOL     OW29545   3.243   1.000  17.672 -1.1987  0.2889  0.0061
 6028SOL    HW129546   3.297   0.981  17.595 -0.0389  2.0677  0.3616
 6028SOL    HW229547   3.191   1.073  17.638  2.8288  1.7691 -3.0533
 6029SOL     OW29548   1.893   3.946   9.334 -0.1213  0.4426 -0.3977
 6029SOL    HW129549   1.860   3.867   9.292 -1.9336  1.4527 -0.8717
 6029SOL    HW229550   1.855   3.935   9.422  1.1838  0.8915  0.2176
 6030SOL     OW29551   2.830   1.125   7.177  0.9047  0.2500 -0.2116
 6030SOL    HW129552   2.810   1.032   7.165 -1.6298  1.0635 -2.3001
 6030SOL    HW229553   2.889   1.134   7.102  1.2382  0.9920  0.1460
 6031SOL     OW29554   2.291   2.771   5.951  0.0874 -0.1489  0.2574
 6031SOL    HW129555   2.341   2.697   5.985 -0.8682 -0.6460  0.5666
 6031SOL    HW229556   2.326   2.764   5.862  0.4744 -2.2630  0.5846
 6032SOL     OW29557   0.473   2.516   8.672  0.4329  0.1154 -0.1583
 6032SOL    HW129558   0.514   2.431   8.691 -1.1548 -1.1021 -2.0838
 6032SOL    HW229559   0.510   2.531   8.584 -1.6089 -1.5204 -1.2989
 6033SOL     OW29560   1.185   4.300   1.892  0.4515  0.1870 -0.0287
 6033SOL    HW129561   1.239   4.319   1.816 -1.6223  2.7485 -0.8817
 6033SOL    HW229562   1.237   4.244   1.949  0.4239 -0.7300 -0.8995
 6034SOL     OW29563   3.354   2.515   9.407 -0.2316 -0.4462 -0.7181
 6034SOL    HW129564   3.269   2.559   9.417  1.2168  1.4935  3.1717
 6034SOL    HW229565   3.393   2.556   9.485  1.3557  0.5033 -2.0247
 6035SOL     OW29566   2.720   4.007  14.393  0.0744 -0.0463  0.7564
 6035SOL    HW129567   2.774   3.947  14.341 -0.8935 -0.2519 -0.0104
 6035SOL    HW229568   2.774   4.029  14.469 -0.5311  2.1017  0.5658
 6036SOL     OW29569   3.382   4.373  16.249  0.3349  0.5096 -0.7571
 6036SOL    HW129570   3.466   4.358  16.293  0.4407  1.0622 -0.7785
 6036SOL    HW229571   3.322   4.409  16.314  1.9100  0.6958  0.6137
 6037SOL     OW29572   1.769   0.106   8.447 -0.1393 -0.2629  0.1520
 6037SOL    HW129573   1.740   0.094   8.537 -0.5169 -2.8439 -0.3180
 6037SOL    HW229574   1.861   0.083   8.453  0.1470  0.6414 -0.7073
 6038SOL     OW29575   2.927   2.705   4.185  0.6334  0.1125 -0.2940
 6038SOL    HW129576   2.834   2.682   4.185  1.0698 -1.6421 -0.4576
 6038SOL    HW229577   2.909   2.798   4.172 -0.0874 -0.2334 -1.7523
 6039SOL     OW29578   3.479   3.139   9.966  0.2589 -0.2376 -0.3512
 6039SOL    HW129579   3.394   3.127   9.924  0.5326  0.4740 -1.1056
 6039SOL    HW229580   3.541   3.160   9.896 -0.6749  0.5360 -0.9438
 6040SOL     OW29581   0.936   0.609  12.159 -0.1292  0.2052  0.1707
 6040SOL    HW129582   0.944   0.603  12.254  1.1407  0.8130  0.1030
 6040SOL    HW229583   1.027   0.592  12.135 -0.3736 -0.2214 -0.4421
 6041SOL     OW29584   1.692   1.135   5.595  0.1408 -0.0625 -0.5200
 6041SOL    HW129585   1.769   1.142   5.651 -0.1896  2.2967 -0.3849
 6041SOL    HW229586   1.646   1.217   5.610  1.0212 -0.0131  1.8773
 6042SOL     OW29587   4.001   3.440   5.889 -0.9499  0.0385  0.1414
 6042SOL    HW129588   3.950   3.440   5.970  0.3273  0.8100  0.9405
 6042SOL    HW229589   3.936   3.439   5.819 -1.5385 -2.5727  0.7168
 6043SOL     OW29590   1.273   4.024   2.598 -0.0772  0.2855 -0.2403
 6043SOL    HW129591   1.303   4.018   2.689  0.0750 -1.0017 -0.3738
 6043SOL    HW229592   1.180   4.040   2.616 -0.5195 -1.9743 -0.5348
 6044SOL     OW29593   3.142   3.889   6.356 -0.2476  0.0017 -0.3484
 6044SOL    HW129594   3.221   3.846   6.324  0.3596 -0.4853  1.8125
 6044SOL    HW229595   3.170   3.971   6.397 -0.1830  0.6358 -1.6753
 6045SOL     OW29596   1.890   1.707  11.690  0.1304 -0.0784 -0.4723
 6045SOL    HW129597   1.885   1.612  11.701  1.0284  0.0319  0.9034
 6045SOL    HW229598   1.868   1.714  11.598  0.5745  0.0230 -0.5713
 6046SOL     OW29599   4.047   0.832   0.721 -0.4009 -0.3162  0.2618
 6046SOL    HW129600   4.034   0.869   0.633  1.2113  0.4547  0.3359
 6046SOL    HW229601   4.010   0.903   0.772  0.6880  1.1987 -1.0395
 6047SOL     OW29602   3.886   0.797   4.463  0.0154 -0.1235  0.0926
 6047SOL    HW129603   3.930   0.870   4.419 -0.2776 -0.4035 -0.6773
 6047SOL    HW229604   3.799   0.835   4.455  0.7066  1.5718  0.6208
 6048SOL     OW29605   2.048   1.024  14.849 -1.0027  0.2920  0.1475
 6048SOL    HW129606   2.049   0.973  14.768  0.8086 -1.2412  1.1417
 6048SOL    HW229607   1.962   1.066  14.840 -1.4790 -0.5810  0.6476
 6049SOL     OW29608   2.046   4.327   2.036  0.6613  0.2827  0.0035
 6049SOL    HW129609   2.025   4.236   2.057  0.1934  0.2766 -0.4922
 6049SOL    HW229610   2.138   4.323   2.013  1.1788 -1.1286  2.2872
 6050SOL     OW29611   1.558   4.380   2.867  0.1649  0.3240  1.3376
 6050SOL    HW129612   1.476   4.351   2.907  2.1283 -3.1823  2.8398
 6050SOL    HW229613   1.541   4.357   2.776  0.2459  1.1302  1.1261
 6051SOL     OW29614   4.079   2.755  16.182  0.1103 -0.6682 -0.2828
 6051SOL    HW129615   4.165   2.712  16.180 -0.4234 -1.7444 -0.1073
 6051SOL    HW229616   4.029   2.676  16.162 -1.6712  0.3618  0.1106
 6052SOL     OW29617   1.009   4.228   1.666  0.1408 -0.6021  0.2965
 6052SOL    HW129618   1.091   4.184   1.645  0.7104 -0.0931  1.4411
 6052SOL    HW229619   1.033   4.249   1.756 -1.8290  2.3229  0.1274
 6053SOL     OW29620   0.347   0.858   2.719  0.5705  0.2433 -0.2532
 6053SOL    HW129621   0.359   0.905   2.637 -1.1315 -0.2825 -0.8206
 6053SOL    HW229622   0.261   0.892   2.745  1.5053  0.9646  1.8784
 6054SOL     OW29623   3.424   3.838   5.924 -0.1659 -0.2099 -0.5024
 6054SOL    HW129624   3.425   3.829   5.829 -0.0142  0.1444 -0.5350
 6054SOL    HW229625   3.488   3.775   5.955 -1.6217 -1.2531  0.3949
 6055SOL     OW29626   3.807   0.058   4.818 -0.1060  0.2980  0.3744
 6055SOL    HW129627   3.838   4.688   4.832  1.3108  0.6105 -0.6863
 6055SOL    HW229628   3.736   0.036   4.758  0.6405 -1.8046  0.2575
 6056SOL     OW29629   3.051   1.577  16.573  0.3811  0.8572 -0.6183
 6056SOL    HW129630   3.038   1.491  16.533  2.0919  0.5181 -0.4652
 6056SOL    HW229631   3.096   1.624  16.503  1.9578  3.0586  1.8676
 6057SOL     OW29632   3.442   2.532   4.188 -0.3886  0.2199 -0.3564
 6057SOL    HW129633   3.348   2.542   4.178 -0.7692 -2.4653  0.6208
 6057SOL    HW229634   3.454   2.601   4.253  1.8770 -0.5285  0.0391
 6058SOL     OW29635   3.379   3.912   7.035  0.1610 -0.3663 -0.1805
 6058SOL    HW129636   3.285   3.920   7.048  0.1173 -1.9306  0.5528
 6058SOL    HW229637   3.395   3.996   6.993 -0.7732 -0.3494 -0.4891
 6059SOL     OW29638   0.490   0.753  17.670 -0.2028  0.3923  0.4735
 6059SOL    HW129639   0.440   0.747  17.589  0.5309  0.4057  0.0202
 6059SOL    HW229640   0.418   0.723   0.045 -0.6228  0.1207 -0.2148
 6060SOL     OW29641   2.707   2.861  12.811 -0.6546 -0.4137 -0.0404
 6060SOL    HW129642   2.660   2.788  12.853 -0.5488  0.7217  2.0663
 6060SOL    HW229643   2.638   2.917  12.776 -0.2055  0.1404 -0.0315
 6061SOL     OW29644   3.638   4.331   2.333 -0.2154  0.5627 -0.0331
 6061SOL    HW129645   3.593   4.373   2.407 -1.5986 -1.2712  0.1823
 6061SOL    HW229646   3.713   4.383   2.306  0.1904  0.2234  0.4367
 6062SOL     OW29647   4.477   1.431  14.686 -0.5515  0.4847  0.0968
 6062SOL    HW129648   4.515   1.362  14.632 -2.1872 -0.8539  0.6803
 6062SOL    HW229649   4.555   1.485  14.705  1.3300 -1.8313 -1.0921
 6063SOL     OW29650   2.401   3.753   5.074 -0.2937 -0.3532  0.2750
 6063SOL    HW129651   2.481   3.788   5.113 -2.4014  3.2442  1.3613
 6063SOL    HW229652   2.381   3.817   5.006  0.1207 -0.1404  0.3486
 6064SOL     OW29653   4.381   0.776  14.936  0.2672 -0.3337 -0.2750
 6064SOL    HW129654   4.295   0.744  14.962 -0.2364  1.0790 -0.1598
 6064SOL    HW229655   4.411   0.801  15.023 -3.1523 -0.7837  1.0478
 6065SOL     OW29656   2.398   0.142   3.291 -0.0302  0.1027  0.4487
 6065SOL    HW129657   2.369   0.156   3.381  0.4943  0.3905  0.5674
 6065SOL    HW229658   2.309   0.137   3.254  0.4478  0.7427 -0.8117
 6066SOL     OW29659   4.667   1.669   7.184 -0.1693  0.1149 -0.0777
 6066SOL    HW129660   4.667   1.715   7.268 -0.0293  1.3960 -0.7796
 6066SOL    HW229661   4.686   1.577   7.203 -1.4151  0.2159  1.6522
 6067SOL     OW29662   3.988   1.387  15.998 -0.7558 -0.4286 -0.1939
 6067SOL    HW129663   3.996   1.480  15.976  1.0085 -0.8559 -1.3661
 6067SOL    HW229664   3.975   1.399  16.092  2.8077 -2.9632  0.6466
 6068SOL     OW29665   0.369   4.030   3.965  0.4863 -0.8527  0.4762
 6068SOL    HW129666   0.398   4.120   3.979  0.6845 -0.6523 -1.1529
 6068SOL    HW229667   0.444   3.994   4.011  1.3445  1.4324  0.8652
 6069SOL     OW29668   3.495   0.633   9.831 -0.1455  0.3052 -0.0324
 6069SOL    HW129669   3.500   0.720   9.790  0.6668  0.7713  1.0685
 6069SOL    HW229670   3.584   0.612   9.857 -1.2731 -1.4442  2.4396
 6070SOL     OW29671   1.068   0.080   6.974  0.1863  0.2827 -0.6497
 6070SOL    HW129672   1.069   0.018   6.901 -1.9507 -1.4297  0.7987
 6070SOL    HW229673   1.148   0.056   7.021 -1.6039 -1.1830  1.6070
 6071SOL     OW29674   3.831   1.740   9.003 -0.4817  0.2834 -0.4448
 6071SOL    HW129675   3.867   1.701   8.923 -1.1134 -2.0436  0.4290
 6071SOL    HW229676   3.845   1.834   8.988  1.3399  0.0895 -0.0205
 6072SOL     OW29677   2.920   0.723   8.270  0.0272  0.4462  0.2604
 6072SOL    HW129678   2.892   0.672   8.346 -0.9438 -1.3911 -1.3229
 6072SOL    HW229679   2.849   0.704   8.208  2.2918  0.8051 -2.4626
 6073SOL     OW29680   2.530   1.445   2.799  0.1587  0.2107  0.3159
 6073SOL    HW129681   2.602   1.473   2.743  0.4488 -0.6555  0.2541
 6073SOL    HW229682   2.471   1.417   2.728  2.8962 -3.9580 -0.2812
 6074SOL     OW29683   2.602   2.689   2.099 -0.3418 -0.1710  0.2234
 6074SOL    HW129684   2.666   2.720   2.164 -0.4554  1.8045 -0.5918
 6074SOL    HW229685   2.580   2.603   2.135  2.4504 -1.0994 -0.2966
 6075SOL     OW29686   0.741   0.996   8.854 -0.0936 -0.2303 -0.3906
 6075SOL    HW129687   0.709   0.960   8.936  1.0261 -0.1906  0.0636
 6075SOL    HW229688   0.767   0.920   8.802  4.9718  0.1126  1.6867
 6076SOL     OW29689   3.275   1.685   8.706  0.0567  0.3054 -0.3427
 6076SOL    HW129690   3.185   1.705   8.732  0.2100  2.1672 -1.2440
 6076SOL    HW229691   3.322   1.689   8.789  0.3543  1.8803 -0.5843
 6077SOL     OW29692   0.490   3.591   9.380  0.1975 -0.7301  0.2719
 6077SOL    HW129693   0.416   3.639   9.417 -0.0669 -0.2997 -0.8024
 6077SOL    HW229694   0.564   3.634   9.423 -1.0441  1.4666  0.2297
 6078SOL     OW29695   2.017   0.121   4.685 -0.0533 -0.3846  0.0250
 6078SOL    HW129696   2.102   0.076   4.679 -0.8993 -2.1508  1.6394
 6078SOL    HW229697   2.030   0.194   4.624 -1.2389 -0.6340 -0.5230
 6079SOL     OW29698   4.524   1.287  10.043  0.0352 -0.0088  0.5867
 6079SOL    HW129699   4.576   1.358  10.005 -0.3683  0.4224  0.8482
 6079SOL    HW229700   4.524   1.300  10.138 -2.3805  2.4040  0.2326
 6080SOL     OW29701   3.384   2.371   6.369  0.0689  0.1772 -0.1393
 6080SOL    HW129702   3.339   2.354   6.452  0.8585  2.2283  0.6946
 6080SOL    HW229703   3.466   2.325   6.387 -0.3165 -1.0830 -1.5791
 6081SOL     OW29704   3.810   1.173   6.958 -0.0070  0.3393  0.0935
 6081SOL    HW129705   3.886   1.117   6.978 -0.4038 -0.3172 -0.2344
 6081SOL    HW229706   3.864   1.251   6.972  1.3107 -0.7832  1.3156
 6082SOL     OW29707   4.435   4.130   9.322 -0.0521 -0.0048 -0.9011
 6082SOL    HW129708   4.526   4.101   9.315  0.1097  0.9914 -3.0106
 6082SOL    HW229709   4.399   4.079   9.394 -0.7200  1.5842 -0.0881
 6083SOL     OW29710   2.347   2.080  15.624  0.0317  0.6480 -0.3961
 6083SOL    HW129711   2.404   2.098  15.699 -0.1913 -0.3691  0.0186
 6083SOL    HW229712   2.266   2.059  15.670 -1.6159  0.1226 -3.4958
 6084SOL     OW29713   0.392   0.035   7.774 -0.3189 -0.8452 -0.2848
 6084SOL    HW129714   0.329   0.085   7.827 -1.1270  0.8665 -2.8335
 6084SOL    HW229715   0.357   0.037   7.685 -0.5708  0.1301 -0.1654
 6085SOL     OW29716   2.194   1.998   6.453 -0.6078  0.1179 -0.2296
 6085SOL    HW129717   2.161   2.077   6.496  0.7863  0.4826  0.1554
 6085SOL    HW229718   2.179   2.020   6.361 -2.3556 -0.4864 -0.1027
 6086SOL     OW29719   1.540   2.155  11.326  0.6842  0.1840 -0.2819
 6086SOL    HW129720   1.495   2.071  11.335  4.2842 -1.8043 -0.7002
 6086SOL    HW229721   1.477   2.220  11.357  0.8037  0.8724 -1.4560
 6087SOL     OW29722   2.793   4.572  10.041  0.0816 -0.0941 -0.5818
 6087SOL    HW129723   2.866   4.632  10.058  0.1346  0.1012 -1.4959
 6087SOL    HW229724   2.839   4.522   9.973  2.3967 -1.1922  1.7548
 6088SOL     OW29725   3.037   2.829   4.408  0.2782 -0.2979  0.3977
 6088SOL    HW129726   3.032   2.757   4.345  3.2570  0.7064 -1.0148
 6088SOL    HW229727   3.125   2.809   4.442 -0.4184 -0.9017  1.8110
 6089SOL     OW29728   4.135   0.854   9.129 -0.0859  0.2448  0.4682
 6089SOL    HW129729   4.096   0.936   9.160  0.4648  0.5770  0.2928
 6089SOL    HW229730   4.211   0.886   9.079  0.1987  0.3195  0.9463
 6090SOL     OW29731   2.203   1.328   5.680  0.0102 -0.5351  0.4121
 6090SOL    HW129732   2.273   1.330   5.745  0.3753  2.2857 -0.0496
 6090SOL    HW229733   2.251   1.347   5.599 -1.6213  1.4325 -0.1065
 6091SOL     OW29734   3.135   2.114   1.686 -0.2680  0.3992  0.0516
 6091SOL    HW129735   3.150   2.194   1.635 -2.7395  1.2246  0.6555
 6091SOL    HW229736   3.041   2.101   1.672 -0.0797  0.4609 -1.2949
 6092SOL     OW29737   3.849   4.462   7.175 -0.2088 -0.3619  0.0659
 6092SOL    HW129738   3.822   4.430   7.089  0.8227  2.4421 -1.2761
 6092SOL    HW229739   3.933   4.502   7.150  1.8551 -3.4008  2.0398
 6093SOL     OW29740   0.354   3.231  14.165 -0.3350 -0.1578 -0.3124
 6093SOL    HW129741   0.423   3.196  14.221 -0.4745 -1.7423 -1.1312
 6093SOL    HW229742   0.367   3.325  14.156  0.5035 -0.5377 -3.2778
 6094SOL     OW29743   2.605   2.168   5.392 -0.0664  0.6737 -0.1380
 6094SOL    HW129744   2.518   2.196   5.421  0.3240  0.0318  1.6865
 6094SOL    HW229745   2.659   2.193   5.467 -1.1678  1.6600  0.3330
 6095SOL     OW29746   4.321   3.580   2.821 -0.1368  0.3277 -0.1816
 6095SOL    HW129747   4.315   3.620   2.734 -1.2749 -2.3336 -1.3209
 6095SOL    HW229748   4.304   3.664   2.864  2.2950  1.7183 -1.9126
 6096SOL     OW29749   0.098   0.315  15.981 -0.7583 -0.2192  1.3394
 6096SOL    HW129750   0.062   0.307  15.893  2.3697  0.4216  0.0114
 6096SOL    HW229751   0.174   0.256  15.974 -0.3469  0.3160  1.3158
 6097SOL     OW29752   1.868   4.311   8.351  0.2937  0.0979  0.2447
 6097SOL    HW129753   1.889   4.220   8.372 -1.5008 -0.5221 -0.6520
 6097SOL    HW229754   1.794   4.317   8.291  1.5431 -1.5049 -1.4645
 6098SOL     OW29755   3.948   4.609   0.470  0.5357  0.4471  0.1694
 6098SOL    HW129756   3.905   4.667   0.407 -1.4227 -3.2082 -1.8529
 6098SOL    HW229757   3.868   4.573   0.509  0.3218  0.6961 -0.0364
 6099SOL     OW29758   1.172   1.398   6.774  0.4562  0.4918  0.0983
 6099SOL    HW129759   1.116   1.324   6.797 -0.7117  0.9706 -1.2366
 6099SOL    HW229760   1.213   1.376   6.691  3.4824  0.1016  1.6897
 6100SOL     OW29761   0.488   3.698  13.992 -0.3306  0.0142 -0.0204
 6100SOL    HW129762   0.519   3.788  14.000  1.7555 -0.7982  1.0149
 6100SOL    HW229763   0.467   3.692  13.899  0.1355  1.9941 -0.2657
 6101SOL     OW29764   4.313   3.785   3.581  0.8131  0.0047 -1.0683
 6101SOL    HW129765   4.399   3.816   3.610 -0.2046  2.5899 -0.8409
 6101SOL    HW229766   4.291   3.710   3.636  0.3806  2.9712  2.7911
 6102SOL     OW29767   0.823   0.940   7.535  0.3610 -0.1704 -0.2738
 6102SOL    HW129768   0.904   0.991   7.528 -1.3052  2.4962 -0.1662
 6102SOL    HW229769   0.786   0.991   7.608 -1.5041 -1.9343  0.0292
 6103SOL     OW29770   1.195   0.760   9.711 -0.1731  0.4804  0.1334
 6103SOL    HW129771   1.113   0.740   9.755  1.1163 -0.9036  1.9261
 6103SOL    HW229772   1.238   0.674   9.709  0.6323  0.9301 -1.4590
 6104SOL     OW29773   4.058   2.739   4.799 -0.4476 -0.5712 -0.0423
 6104SOL    HW129774   4.132   2.700   4.846 -1.6370  0.4647  2.6371
 6104SOL    HW229775   3.989   2.697   4.849  0.6946 -1.5622  0.6974
 6105SOL     OW29776   0.419   0.575   6.839  0.0026  0.1285  0.1741
 6105SOL    HW129777   0.392   0.606   6.753  1.0114 -0.9919 -0.5464
 6105SOL    HW229778   0.507   0.547   6.817 -0.0679 -0.0572  0.1260
 6106SOL     OW29779   1.009   2.657  10.110 -0.3866 -0.3676 -0.2727
 6106SOL    HW129780   1.005   2.725  10.043 -1.2773  0.5298  0.6801
 6106SOL    HW229781   1.015   2.712  10.188  1.9550 -1.9752  0.6719
 6107SOL     OW29782   2.947   1.651   8.070 -0.8479 -0.3928  0.4534
 6107SOL    HW129783   2.880   1.599   8.025  0.5059 -3.1073  1.5916
 6107SOL    HW229784   2.903   1.687   8.148 -0.9340  1.0873 -0.2812
 6108SOL     OW29785   3.546   4.215   0.716  0.1987  0.1710  0.2799
 6108SOL    HW129786   3.558   4.140   0.774 -1.2601 -3.1811 -3.7537
 6108SOL    HW229787   3.452   4.230   0.726  0.5290  1.3299  1.6852
 6109SOL     OW29788   4.384   0.943   5.360  0.1832 -0.2178 -0.1012
 6109SOL    HW129789   4.334   0.951   5.441 -0.9879  0.6000 -0.9012
 6109SOL    HW229790   4.324   0.900   5.299  1.3134  0.5206 -1.7172
 6110SOL     OW29791   2.836   1.529   6.868 -0.5735 -0.6213 -0.9512
 6110SOL    HW129792   2.918   1.512   6.915 -0.2857 -3.1656 -2.3280
 6110SOL    HW229793   2.797   1.589   6.931  0.3644 -0.4443 -0.5294
 6111SOL     OW29794   2.582   2.333   6.229 -0.3930  0.0184  0.6973
 6111SOL    HW129795   2.615   2.405   6.283 -0.0252 -0.3856  1.0136
 6111SOL    HW229796   2.637   2.348   6.152  0.1605 -0.2880  1.0337
 6112SOL     OW29797   4.491   1.147   5.627 -1.0303  0.0305  0.1635
 6112SOL    HW129798   4.506   1.147   5.722 -0.3955  1.0771  0.0609
 6112SOL    HW229799   4.410   1.097   5.614 -1.4201  0.6743  0.0648
 6113SOL     OW29800   0.417   3.414  13.830  0.0870  0.2017  0.0015
 6113SOL    HW129801   0.324   3.415  13.807  0.7245 -0.1058 -2.5759
 6113SOL    HW229802   0.418   3.395  13.924 -0.3000  1.1785  0.2016
 6114SOL     OW29803   4.448   3.809   6.285  0.3306  0.6613  0.0938
 6114SOL    HW129804   4.396   3.729   6.296 -0.5149  1.0116 -1.4342
 6114SOL    HW229805   4.532   3.764   6.284  0.2515  0.4741  1.6878
 6115SOL     OW29806   3.322   1.926  16.983 -0.3427  0.0433 -0.3887
 6115SOL    HW129807   3.313   2.021  16.995  0.3118  0.0882 -0.2895
 6115SOL    HW229808   3.234   1.901  16.956 -0.8187 -0.6274  1.8023
 6116SOL     OW29809   2.486   2.628   3.869  0.3093 -0.7372 -0.1675
 6116SOL    HW129810   2.540   2.604   3.793 -0.2288 -1.8165 -0.2063
 6116SOL    HW229811   2.540   2.587   3.936 -0.8539 -0.0469  1.1800
 6117SOL     OW29812   2.950   2.165   8.894  0.4340 -0.1210 -0.1637
 6117SOL    HW129813   2.891   2.103   8.938  0.8787 -0.7817 -0.4908
 6117SOL    HW229814   2.904   2.203   8.819  1.2329  0.9467 -0.1006
 6118SOL     OW29815   1.848   0.577   8.087 -0.0650 -0.0937  0.6858
 6118SOL    HW129816   1.927   0.563   8.139 -0.8186 -1.2855  1.5371
 6118SOL    HW229817   1.867   0.659   8.042  1.6026 -0.2483  1.1208
 6119SOL     OW29818   3.914   1.864   3.435  0.0056 -0.2295  0.7471
 6119SOL    HW129819   3.943   1.856   3.344 -2.7960 -1.5107 -0.0397
 6119SOL    HW229820   3.926   1.958   3.442  0.2394 -0.1625 -0.5203
 6120SOL     OW29821   2.334   1.560   3.480  0.2623 -0.0413 -0.4884
 6120SOL    HW129822   2.295   1.489   3.429 -0.1987  1.5205 -2.2905
 6120SOL    HW229823   2.417   1.516   3.496 -0.3170 -1.1947 -0.6224
 6121SOL     OW29824   2.700   2.825  15.624 -0.0278  0.1620 -0.0887
 6121SOL    HW129825   2.662   2.839  15.537 -2.4290 -0.6185  0.8391
 6121SOL    HW229826   2.790   2.835  15.593  1.3285 -0.8388  3.5133
 6122SOL     OW29827   1.859   0.824   4.700 -0.9039  0.2670 -0.4459
 6122SOL    HW129828   1.836   0.917   4.698  2.1739  0.9947 -1.6126
 6122SOL    HW229829   1.795   0.797   4.766 -2.2878 -0.8982 -2.2625
 6123SOL     OW29830   2.829   4.209   9.326  0.6512  0.4232 -0.4506
 6123SOL    HW129831   2.813   4.146   9.396  1.3458  0.5329 -0.2000
 6123SOL    HW229832   2.860   4.158   9.252 -0.7062 -0.4680 -0.4061
 6124SOL     OW29833   3.782   1.583   6.722 -0.2172 -0.5373 -0.0560
 6124SOL    HW129834   3.701   1.540   6.748 -0.5712 -0.1841 -0.5840
 6124SOL    HW229835   3.744   1.664   6.688 -1.1875 -1.0141 -0.1052
 6125SOL     OW29836   0.639   1.193   6.952  0.2372 -0.3001  0.6074
 6125SOL    HW129837   0.563   1.251   6.943  1.2481  0.4668 -2.8944
 6125SOL    HW229838   0.613   1.101   6.944  0.2730 -0.4185  1.8529
 6126SOL     OW29839   1.011   1.875   6.164  0.2715 -0.2161  0.1319
 6126SOL    HW129840   0.921   1.873   6.132  0.3470 -1.3875  0.0128
 6126SOL    HW229841   1.051   1.927   6.094  2.2564 -2.2197 -0.2381
 6127SOL     OW29842   0.062   3.435   7.936  0.4252  0.3816 -0.4849
 6127SOL    HW129843   0.043   3.396   7.850 -0.1138 -2.2866  0.8356
 6127SOL    HW229844   0.095   3.524   7.925  0.6370  0.3682  0.0713
 6128SOL     OW29845   3.032   2.378   0.435  0.3693 -0.0391 -0.0439
 6128SOL    HW129846   3.056   2.337   0.352 -2.3665  0.5861 -1.1507
 6128SOL    HW229847   3.118   2.412   0.460  1.2926 -0.9929 -1.9426
 6129SOL     OW29848   2.011   4.180   3.743 -0.4776 -0.2962 -0.0255
 6129SOL    HW129849   1.947   4.245   3.771 -2.2042 -0.9499 -2.5578
 6129SOL    HW229850   1.966   4.141   3.668  0.0565 -0.7194 -0.1249
 6130SOL     OW29851   3.538   3.643   3.786 -1.1086  0.0472 -0.5352
 6130SOL    HW129852   3.582   3.695   3.719  0.7966  1.9759  2.2069
 6130SOL    HW229853   3.557   3.708   3.854 -1.1255  0.4781 -0.9424
 6131SOL     OW29854   2.743   1.932   4.369  0.1141 -0.7620  0.7525
 6131SOL    HW129855   2.649   1.913   4.369  0.1237 -0.8597 -3.5677
 6131SOL    HW229856   2.753   1.974   4.455 -3.4259 -0.5896  1.0818
 6132SOL     OW29857   3.386   2.589   2.829  0.8545  0.5187 -0.1469
 6132SOL    HW129858   3.314   2.594   2.766  0.6758 -1.7431 -0.1277
 6132SOL    HW229859   3.429   2.504   2.817  0.0029 -0.3618  3.1520
 6133SOL     OW29860   3.519   0.916   3.883  0.1331 -0.3352  0.1435
 6133SOL    HW129861   3.518   0.874   3.797  1.4591 -1.2553  0.5668
 6133SOL    HW229862   3.612   0.902   3.903  0.8159 -0.2084 -2.9051
 6134SOL     OW29863   3.577   1.810  15.508 -0.2529  0.0715 -1.0935
 6134SOL    HW129864   3.491   1.850  15.494 -1.3039 -1.7637  0.1030
 6134SOL    HW229865   3.597   1.848  15.593 -1.3878 -0.5359 -0.5582
 6135SOL     OW29866   4.642   1.495   8.423 -0.3657 -0.0943  0.3655
 6135SOL    HW129867   4.597   1.579   8.409  1.4968  0.9645  0.6217
 6135SOL    HW229868   0.010   1.512   8.388 -0.2168  1.0069  1.2739
 6136SOL     OW29869   0.324   3.327   8.921 -0.2709  0.5762 -0.2453
 6136SOL    HW129870   0.302   3.333   8.828 -1.3511  2.4512  0.1322
 6136SOL    HW229871   0.250   3.269   8.943 -0.7434  1.3328  0.1614
 6137SOL     OW29872   1.753   1.282   3.965  0.0239  0.4696 -0.7607
 6137SOL    HW129873   1.774   1.244   4.050 -1.1929  0.2270 -0.5732
 6137SOL    HW229874   1.763   1.208   3.905  1.0309 -0.9446  1.1268
 6138SOL     OW29875   4.110   3.153   8.110  0.2655  0.1096 -0.0162
 6138SOL    HW129876   4.032   3.190   8.068 -0.7495 -2.0567 -0.0248
 6138SOL    HW229877   4.118   3.073   8.059  0.2817  1.0386 -1.4806
 6139SOL     OW29878   4.291   2.593   6.043  0.3968 -0.0314  0.2710
 6139SOL    HW129879   4.219   2.532   6.060  0.0913 -0.4379 -2.4421
 6139SOL    HW229880   4.257   2.650   5.974  2.3273  1.2078  0.3475
 6140SOL     OW29881   2.754   1.972   8.521 -0.2879  0.0750 -0.1242
 6140SOL    HW129882   2.693   2.000   8.452 -1.7842  1.2315  1.6357
 6140SOL    HW229883   2.695   1.911   8.566  2.1068 -1.0805  1.3964
 6141SOL     OW29884   0.830   2.939   4.920 -0.4997  0.0338 -0.2020
 6141SOL    HW129885   0.828   2.845   4.899 -1.1699 -0.1473  0.6619
 6141SOL    HW229886   0.902   2.975   4.868  1.0260 -0.0551  1.8568
 6142SOL     OW29887   2.435   1.608   2.481 -0.2326  0.1575  0.2902
 6142SOL    HW129888   2.439   1.634   2.573  0.8507 -0.4718  0.4240
 6142SOL    HW229889   2.528   1.590   2.465  0.0069  1.1326  0.6319
 6143SOL     OW29890   3.104   1.202   9.462 -0.4438 -0.5454 -0.3198
 6143SOL    HW129891   3.049   1.139   9.415 -0.9020 -1.1419  1.0172
 6143SOL    HW229892   3.122   1.166   9.549  0.3862  2.1165  0.6071
 6144SOL     OW29893   4.118   1.332   6.418 -0.0954 -0.5844  0.2433
 6144SOL    HW129894   4.147   1.294   6.501 -0.4977  0.8613  1.0551
 6144SOL    HW229895   4.029   1.358   6.444 -0.8757 -1.6245 -1.3781
 6145SOL     OW29896   3.721   1.918  15.701  0.2933  0.2584 -0.3151
 6145SOL    HW129897   3.786   1.966  15.648 -0.3831  1.2055 -0.2850
 6145SOL    HW229898   3.738   1.971  15.779  0.4773 -0.6026  0.2334
 6146SOL     OW29899   0.403   3.543   2.201  0.4124 -0.5804 -0.1763
 6146SOL    HW129900   0.418   3.585   2.116  1.7375 -1.7669 -0.5258
 6146SOL    HW229901   0.313   3.573   2.217  0.2184 -0.9550 -0.5819
 6147SOL     OW29902   1.308   4.693   0.184  0.5544 -0.3094  0.2720
 6147SOL    HW129903   1.243   0.044   0.179  0.3940 -0.5089 -0.4444
 6147SOL    HW229904   1.390   0.015   0.209  0.1745 -0.2168  1.3506
 6148SOL     OW29905   1.525   1.070   2.271  0.6978 -0.3534  0.3035
 6148SOL    HW129906   1.536   1.122   2.351 -0.5951  1.5464 -0.7471
 6148SOL    HW229907   1.604   1.018   2.284  2.0037  1.7966  1.0015
 6149SOL     OW29908   3.584   4.480   7.422  0.2354  0.6505  0.1145
 6149SOL    HW129909   3.628   4.564   7.412  0.3756  0.3003 -2.1247
 6149SOL    HW229910   3.533   4.500   7.501 -1.1022 -1.5688 -0.1960
 6150SOL     OW29911   2.698   1.035   5.596  0.2609  0.0840  0.5207
 6150SOL    HW129912   2.749   1.002   5.670  0.8344 -0.9010 -0.3167
 6150SOL    HW229913   2.631   1.087   5.640  1.5305  1.3691  0.9167
 6151SOL     OW29914   2.436   4.167  12.748  0.2972 -0.2345  0.1354
 6151SOL    HW129915   2.412   4.256  12.722 -0.2014 -1.0880 -2.4167
 6151SOL    HW229916   2.348   4.137  12.771  0.0172 -0.0342 -0.6731
 6152SOL     OW29917   3.128   0.748  17.031 -0.1974  0.3999  0.2886
 6152SOL    HW129918   3.047   0.799  17.022  1.6843  3.0000 -1.6662
 6152SOL    HW229919   3.101   0.666  16.991  1.5252  0.9916 -2.0490
 6153SOL     OW29920   3.297   2.518   2.580 -0.1096 -0.0814  0.3296
 6153SOL    HW129921   3.353   2.468   2.520  0.3092 -1.5480  1.9557
 6153SOL    HW229922   3.224   2.537   2.520 -0.1159  1.8706  0.9393
 6154SOL     OW29923   0.176   3.738   4.792 -0.3070  0.2544 -0.0982
 6154SOL    HW129924   0.257   3.703   4.830 -0.7564 -1.6882 -0.9435
 6154SOL    HW229925   0.207   3.786   4.715  0.4797 -0.0165  0.0467
 6155SOL     OW29926   2.951   2.098   5.265 -0.3533 -0.1671  0.1996
 6155SOL    HW129927   2.894   2.174   5.277 -1.5708 -1.2404  1.1865
 6155SOL    HW229928   3.032   2.142   5.241 -0.6812  0.9370  1.1078
 6156SOL     OW29929   3.662   0.520  14.024  0.6206 -0.1753  0.3477
 6156SOL    HW129930   3.587   0.501  14.081  0.5143  0.2874  0.3617
 6156SOL    HW229931   3.658   0.443  13.968  1.7380 -0.5666  0.8097
 6157SOL     OW29932   1.586   4.039  15.256 -0.2490  0.5576  0.4626
 6157SOL    HW129933   1.527   4.115  15.256 -1.6246 -0.5148 -0.0230
 6157SOL    HW229934   1.665   4.068  15.211 -2.1223  2.6450 -1.5194
 6158SOL     OW29935   3.861   2.690   7.149 -0.4230  0.2490 -0.1714
 6158SOL    HW129936   3.772   2.699   7.115  0.3281  0.2865 -2.1335
 6158SOL    HW229937   3.848   2.740   7.230  0.5240  1.3811 -0.7207
 6159SOL     OW29938   2.627   1.004   2.946 -0.3600  0.2722 -0.7481
 6159SOL    HW129939   2.723   0.996   2.954 -0.7082 -2.4585  0.6597
 6159SOL    HW229940   2.612   1.097   2.963  0.3404  0.7544 -2.7964
 6160SOL     OW29941   4.666   1.828   7.406 -0.0893  0.1344 -0.1693
 6160SOL    HW129942   4.677   1.823   7.501  0.6926 -1.2238 -0.3401
 6160SOL    HW229943   4.576   1.861   7.399  0.2240  1.1437  0.4105
 6161SOL     OW29944   1.090   3.700   3.040 -0.6419  0.1043 -0.4212
 6161SOL    HW129945   1.113   3.628   3.099  1.6027  1.5484  0.4467
 6161SOL    HW229946   1.032   3.660   2.975 -1.5652 -0.8591  0.9963
 6162SOL     OW29947   1.733   0.267   7.409 -0.4836  0.6354  0.1558
 6162SOL    HW129948   1.755   0.251   7.317  0.5476  0.7163  0.3864
 6162SOL    HW229949   1.646   0.303   7.394 -1.7969 -2.0424  1.4520
 6163SOL     OW29950   3.225   3.323   4.470  0.6878 -0.3562  0.4235
 6163SOL    HW129951   3.305   3.308   4.419  1.7172  0.4562  1.8009
 6163SOL    HW229952   3.173   3.243   4.475 -0.5763  0.2161 -3.1945
 6164SOL     OW29953   1.916   0.165   0.740 -0.5281 -0.0878  0.1476
 6164SOL    HW129954   1.821   0.176   0.743 -0.4962  0.8066 -3.3185
 6164SOL    HW229955   1.928   0.100   0.810 -2.3184 -1.6123 -0.9677
 6165SOL     OW29956   1.998   3.592  11.467 -0.0942  0.4376 -0.7821
 6165SOL    HW129957   1.903   3.593  11.484 -0.0925  0.6169 -0.7806
 6165SOL    HW229958   2.009   3.686  11.448  0.7797  0.3320 -0.7862
 6166SOL     OW29959   2.766   2.671   1.837  0.0968  0.0238 -0.1290
 6166SOL    HW129960   2.789   2.596   1.893  0.9356  0.4424  0.0778
 6166SOL    HW229961   2.684   2.701   1.877  0.4064  1.4900 -0.6265
 6167SOL     OW29962   1.553   1.118   0.682  0.1996 -0.2021 -0.4287
 6167SOL    HW129963   1.602   1.076   0.753  1.7863  1.5304 -0.4882
 6167SOL    HW229964   1.609   1.195   0.685 -0.4059  0.2911 -2.2606
 6168SOL     OW29965   3.188   0.200   5.740  0.4400  0.2127 -0.5633
 6168SOL    HW129966   3.169   0.292   5.728 -1.6294  0.0945  1.7420
 6168SOL    HW229967   3.102   0.161   5.727  1.3651 -1.4033 -1.9064
 6169SOL     OW29968   3.625   0.257  13.945  0.6517  0.0493  0.2272
 6169SOL    HW129969   3.644   0.221  14.032 -0.7497 -0.5535  0.2863
 6169SOL    HW229970   3.708   0.247  13.898 -0.9551 -0.8211 -2.4423
 6170SOL     OW29971   1.853   3.161   5.409 -0.2187  0.1364  0.3649
 6170SOL    HW129972   1.889   3.082   5.369 -0.6414  0.0034  0.2413
 6170SOL    HW229973   1.758   3.151   5.399 -0.2413  0.7948 -0.0366
 6171SOL     OW29974   0.313   3.947  11.435  0.5136  0.4164  0.4430
 6171SOL    HW129975   0.395   3.946  11.485 -0.2613 -0.3770  1.6855
 6171SOL    HW229976   0.286   4.038  11.443 -2.6849 -0.7425  2.6355
 6172SOL     OW29977   2.121   1.305   5.144  0.0553 -0.4544 -0.2786
 6172SOL    HW129978   2.172   1.350   5.211  1.2601 -0.4947 -1.1667
 6172SOL    HW229979   2.167   1.221   5.137  0.9191  0.1135 -1.4477
 6173SOL     OW29980   3.484   0.349  11.950 -0.1520 -0.3981  0.6282
 6173SOL    HW129981   3.406   0.327  12.001  0.0065 -2.6653 -0.1045
 6173SOL    HW229982   3.557   0.299  11.987  1.8851  0.6757 -1.9456
 6174SOL     OW29983   0.839   1.462   6.287 -0.2933 -0.5424  0.3942
 6174SOL    HW129984   0.868   1.439   6.199  0.1491 -0.7383  0.5904
 6174SOL    HW229985   0.916   1.468   6.344 -1.0075 -0.7450  1.3940
 6175SOL     OW29986   0.914   0.058   2.340  0.2880  0.9883 -0.4976
 6175SOL    HW129987   0.896   4.708   2.403  1.7693 -0.8084 -2.0540
 6175SOL    HW229988   0.873   0.130   2.389 -0.5699  0.6242 -0.6708
 6176SOL     OW29989   4.187   1.750   7.142 -0.4444 -0.2609 -0.1076
 6176SOL    HW129990   4.271   1.751   7.096 -0.5716 -1.0314 -0.3687
 6176SOL    HW229991   4.211   1.682   7.204  0.5981 -0.2756 -0.5201
 6177SOL     OW29992   4.383   2.197   7.146 -0.1066  0.2227  0.1277
 6177SOL    HW129993   4.322   2.128   7.171 -1.5750  2.0014  1.4062
 6177SOL    HW229994   4.348   2.214   7.059 -0.8320  1.2515  0.6316
 6178SOL     OW29995   2.750   4.710   3.306  0.5363 -0.4590 -0.0479
 6178SOL    HW129996   2.824   4.665   3.266  2.3002 -0.1522  2.8605
 6178SOL    HW229997   2.730   0.055   3.238 -0.6630 -2.1080 -1.2431
 6179SOL     OW29998   3.972   2.015  15.606 -0.2481 -0.6804 -0.0059
 6179SOL    HW129999   4.017   1.944  15.560 -0.9385  0.1352 -1.9101
 6179SOL    HW230000   4.024   2.092  15.588  0.3102 -0.0287  4.2440
 6180SOL     OW30001   4.317   3.832   4.546  0.4858 -0.7777  0.0789
 6180SOL    HW130002   4.274   3.787   4.619  0.5989  1.5972  1.6000
 6180SOL    HW230003   4.389   3.770   4.533  0.1690 -0.9885 -0.6829
 6181SOL     OW30004   3.481   3.080   5.657 -0.6400 -0.5896 -0.4392
 6181SOL    HW130005   3.490   3.125   5.573  0.2073  0.2034  0.0695
 6181SOL    HW230006   3.550   3.123   5.708  0.3150 -1.1442 -1.2787
 6182SOL     OW30007   1.383   1.564   1.690  0.6539 -0.4500  0.2065
 6182SOL    HW130008   1.381   1.658   1.673  0.7127 -0.8026 -1.7179
 6182SOL    HW230009   1.398   1.534   1.600  0.6624 -2.0278  0.7378
 6183SOL     OW30010   2.334   3.992   1.379  0.2499  0.0617 -0.2324
 6183SOL    HW130011   2.239   4.002   1.370  0.0533 -0.1993  1.6719
 6183SOL    HW230012   2.356   4.074   1.334 -3.3768 -1.4556 -4.8078
 6184SOL     OW30013   0.691   0.712  14.214  0.4627 -0.2541  0.2834
 6184SOL    HW130014   0.737   0.730  14.133  1.0821  0.2172  0.7417
 6184SOL    HW230015   0.673   0.618  14.201  2.6589 -0.5695 -0.3646
 6185SOL     OW30016   0.916   3.102   2.783 -0.3496 -0.3736  0.2136
 6185SOL    HW130017   0.825   3.119   2.758 -0.3430  2.0277  1.7822
 6185SOL    HW230018   0.920   3.015   2.744  0.9040 -0.1713 -0.1096
 6186SOL     OW30019   0.846   2.089  10.208  0.2578 -0.1683 -0.1845
 6186SOL    HW130020   0.842   2.028  10.282 -0.6068  0.1360  0.0226
 6186SOL    HW230021   0.919   2.056  10.155  1.7521  2.6509  0.0994
 6187SOL     OW30022   2.276   2.528   1.676 -0.7685  0.0511  0.4244
 6187SOL    HW130023   2.294   2.439   1.645 -0.7282  0.5553 -0.9751
 6187SOL    HW230024   2.300   2.572   1.595 -0.5200 -1.3783 -0.2890
 6188SOL     OW30025   0.817   2.034   4.158 -1.0530 -0.0133  0.3853
 6188SOL    HW130026   0.878   2.102   4.128 -1.1877 -0.6190 -1.2816
 6188SOL    HW230027   0.864   1.956   4.128  0.1160  0.3341  1.3139
 6189SOL     OW30028   3.270   1.841  14.721  0.1011 -0.7821  0.3405
 6189SOL    HW130029   3.313   1.762  14.689 -0.5934 -0.9119 -0.2834
 6189SOL    HW230030   3.189   1.806  14.759 -0.6115  1.1402  0.5683
 6190SOL     OW30031   1.114   2.413   6.028  0.3293 -0.0886  0.2038
 6190SOL    HW130032   1.115   2.434   5.935  0.8021 -1.7880 -0.1808
 6190SOL    HW230033   1.189   2.354   6.027  0.8827  0.5770  1.8875
 6191SOL     OW30034   1.611   2.495   5.598 -0.4064 -0.0787 -0.0148
 6191SOL    HW130035   1.630   2.508   5.505 -0.1593  3.4976  0.5119
 6191SOL    HW230036   1.562   2.575   5.617 -1.4281 -1.2392  2.2259
 6192SOL     OW30037   2.909   1.704   1.223  0.2152 -0.0015 -0.0565
 6192SOL    HW130038   2.939   1.614   1.237  1.7631  0.3362 -1.1022
 6192SOL    HW230039   2.817   1.684   1.240  0.2034  0.6939  0.6734
 6193SOL     OW30040   1.438   0.647   5.885 -0.8380 -0.4118  0.1373
 6193SOL    HW130041   1.429   0.661   5.791 -0.9372 -2.2918 -0.1409
 6193SOL    HW230042   1.447   0.552   5.898  3.4724  0.1838  1.2437
 6194SOL     OW30043   3.699   4.038   2.392 -0.0538 -0.0102  0.4949
 6194SOL    HW130044   3.787   4.010   2.370 -0.7699 -0.0463 -2.3785
 6194SOL    HW230045   3.704   4.130   2.364 -0.2565 -0.4645 -1.0285
 6195SOL     OW30046   0.028   0.192   7.839  0.0249 -0.1664 -0.0108
 6195SOL    HW130047   0.017   0.226   7.927  3.8563 -1.2763  0.8893
 6195SOL    HW230048   0.049   0.277   7.800  0.4875  0.1601  0.9536
 6196SOL     OW30049   1.614   4.366   2.594  0.5467  0.3736 -0.1882
 6196SOL    HW130050   1.682   4.421   2.633  1.1637 -1.4408  1.3076
 6196SOL    HW230051   1.668   4.287   2.587  0.0301  0.0116 -0.1132
 6197SOL     OW30052   3.722   1.268   5.086 -0.6458 -0.2589  0.3184
 6197SOL    HW130053   3.782   1.307   5.149 -0.4630  0.6712 -0.4257
 6197SOL    HW230054   3.778   1.215   5.028  0.6636  0.3555  1.0273
 6198SOL     OW30055   2.461   1.994   9.675 -0.1053  0.0568  0.1020
 6198SOL    HW130056   2.521   1.945   9.619  1.6221  2.2657  0.0524
 6198SOL    HW230057   2.485   2.085   9.658 -0.4463  0.6657  2.8061
 6199SOL     OW30058   1.612   0.397  14.023 -0.0557  0.0388  0.1121
 6199SOL    HW130059   1.629   0.321  14.078  2.9122  1.0130  0.5192
 6199SOL    HW230060   1.696   0.426  13.990 -0.3500 -0.5441 -1.1590
 6200SOL     OW30061   0.783   3.160   9.052  0.1559 -0.1382 -0.1453
 6200SOL    HW130062   0.708   3.109   9.022  1.1254 -1.1639 -0.8345
 6200SOL    HW230063   0.734   3.222   9.106  1.1733  0.0395  0.5827
 6201SOL     OW30064   3.577   0.626   8.744 -0.1700 -0.8603  0.2611
 6201SOL    HW130065   3.571   0.675   8.662 -1.5241 -0.1259  0.8087
 6201SOL    HW230066   3.513   0.673   8.797  1.3325  3.9388 -2.1445
 6202SOL     OW30067   2.067   1.229   8.526  0.1027  0.3072 -0.0690
 6202SOL    HW130068   2.088   1.321   8.510 -0.0546  0.8810  3.1887
 6202SOL    HW230069   2.152   1.200   8.559  0.1317  0.6804  0.1801
 6203SOL     OW30070   0.216   2.415   8.149  0.0661  0.0087 -0.3308
 6203SOL    HW130071   0.209   2.452   8.061  0.7879  1.0423  0.0429
 6203SOL    HW230072   0.292   2.356   8.150 -0.2883 -0.4573 -0.8282
 6204SOL     OW30073   4.406   1.560   4.526  0.1317 -0.1927 -0.0277
 6204SOL    HW130074   4.316   1.564   4.558  0.2536 -2.3061  0.6169
 6204SOL    HW230075   4.395   1.584   4.434  0.4656  0.6970  0.1610
 6205SOL     OW30076   3.950   2.838   6.635 -0.4078 -0.4050  0.7247
 6205SOL    HW130077   3.905   2.834   6.551 -0.0140 -0.2928  0.5100
 6205SOL    HW230078   3.878   2.863   6.692 -0.6986  0.7247 -0.1465
 6206SOL     OW30079   4.398   2.146   4.734  0.5131  0.3857  0.6571
 6206SOL    HW130080   4.416   2.099   4.653 -1.8270  1.3212 -0.4135
 6206SOL    HW230081   4.470   2.128   4.795 -0.1781 -1.5195  0.9183
 6207SOL     OW30082   3.389   0.210   8.759  0.1583 -0.2407 -0.3670
 6207SOL    HW130083   3.401   0.276   8.827  1.3948 -0.0963 -0.7300
 6207SOL    HW230084   3.477   0.175   8.769  0.1294  0.0555  0.9172
 6208SOL     OW30085   4.507   1.329   7.675  0.2126 -0.3940 -0.1746
 6208SOL    HW130086   4.448   1.310   7.748 -2.2034 -2.1480 -2.5671
 6208SOL    HW230087   4.584   1.350   7.727 -0.2080 -1.4278  0.8791
 6209SOL     OW30088   0.668   2.760  15.613  0.5228  0.2043  0.2493
 6209SOL    HW130089   0.674   2.757  15.518  1.3333  0.6274  0.2851
 6209SOL    HW230090   0.677   2.667  15.633 -3.2253 -0.1696  0.2244
 6210SOL     OW30091   3.407   2.589   3.815 -0.0137 -0.5850 -0.0953
 6210SOL    HW130092   3.349   2.521   3.848 -1.3448  1.3598  1.5240
 6210SOL    HW230093   3.338   2.650   3.790  0.8061  0.1963 -0.4547
 6211SOL     OW30094   3.579   3.449  15.991  0.2030  0.1787  0.4655
 6211SOL    HW130095   3.667   3.414  15.988  0.4317  0.7507  0.3708
 6211SOL    HW230096   3.585   3.522  16.053  0.4348  0.7662 -0.2486
 6212SOL     OW30097   2.100   2.046  15.150 -0.2026  0.0117  0.2009
 6212SOL    HW130098   2.039   2.120  15.147  0.2926  0.4618  1.2661
 6212SOL    HW230099   2.163   2.077  15.215 -0.5314 -0.0103  0.5308
 6213SOL     OW30100   0.220   2.178  11.756  1.1953 -0.4154  0.1162
 6213SOL    HW130101   0.232   2.270  11.732 -0.1491  0.5174  3.0593
 6213SOL    HW230102   0.313   2.157  11.767  1.1843 -0.7664 -0.5058
 6214SOL     OW30103   4.017   4.638   8.076  0.5081 -0.2839  0.2037
 6214SOL    HW130104   3.972   4.656   8.159  2.1806 -0.6167  1.1986
 6214SOL    HW230105   3.992   4.546   8.065 -1.6215 -0.1556  3.9601
 6215SOL     OW30106   4.015   0.895  15.775  0.3123  0.0178  0.3966
 6215SOL    HW130107   3.953   0.888  15.847 -1.5341 -0.5123 -1.2421
 6215SOL    HW230108   3.979   0.968  15.725  0.9500  0.7300  0.9775
 6216SOL     OW30109   1.195   2.092   7.615 -0.4414  0.4870  0.5881
 6216SOL    HW130110   1.187   2.021   7.551  0.7577  1.0944 -0.2476
 6216SOL    HW230111   1.284   2.126   7.620 -0.5092  0.9055 -0.8442
 6217SOL     OW30112   2.701   4.527  15.087 -0.2751  0.0181  0.1479
 6217SOL    HW130113   2.627   4.515  15.146 -0.0140 -0.7568  0.3165
 6217SOL    HW230114   2.658   4.496  15.007 -2.6593  2.4584  0.5068
 6218SOL     OW30115   1.667   1.785  12.835 -0.4328  0.2863 -0.2054
 6218SOL    HW130116   1.645   1.762  12.925 -0.2997 -2.9781 -0.9898
 6218SOL    HW230117   1.762   1.801  12.834  0.2551 -3.8190 -1.7810
 6219SOL     OW30118   1.773   3.572  11.627 -0.5463 -0.0012 -0.0349
 6219SOL    HW130119   1.688   3.560  11.670 -0.5115  1.8572  0.5455
 6219SOL    HW230120   1.801   3.648  11.678 -3.0270 -0.6869  2.3768
 6220SOL     OW30121   4.370   0.754   8.360  0.2122 -0.2775 -0.4164
 6220SOL    HW130122   4.419   0.828   8.396 -1.3226 -0.6777  2.5192
 6220SOL    HW230123   4.409   0.681   8.407 -3.5451  0.1289  3.3469
 6221SOL     OW30124   3.762   4.519  11.635  0.3120 -0.4773  0.4637
 6221SOL    HW130125   3.679   4.498  11.592  0.9418 -0.2354 -0.8700
 6221SOL    HW230126   3.809   4.566  11.567  1.3992 -1.7948  0.2981
 6222SOL     OW30127   3.134   0.346   8.773  0.4198 -0.0415  0.8149
 6222SOL    HW130128   3.228   0.346   8.760  0.0516 -0.5642 -1.9051
 6222SOL    HW230129   3.111   0.434   8.803  2.0956  0.2747  1.1094
 6223SOL     OW30130   2.894   0.183   5.572 -0.1219 -0.3667  0.0499
 6223SOL    HW130131   2.940   0.255   5.529 -3.7551  1.9044 -0.0802
 6223SOL    HW230132   2.826   0.233   5.618 -0.0436 -0.3511  0.1459
 6224SOL     OW30133   3.228   1.425   8.680 -0.2646 -0.6550 -0.7456
 6224SOL    HW130134   3.291   1.409   8.750 -1.8981 -1.6306  0.5182
 6224SOL    HW230135   3.243   1.519   8.670 -1.4249 -0.5349 -1.3912
 6225SOL     OW30136   4.610   2.899   3.760 -0.0108 -0.0195 -0.1491
 6225SOL    HW130137   4.601   2.827   3.697 -2.5638  0.4869 -0.3623
 6225SOL    HW230138   4.665   2.853   3.823  0.9151 -2.1088 -2.4718
 6226SOL     OW30139   2.359   3.086   6.916 -0.3027  0.1835 -0.6852
 6226SOL    HW130140   2.408   3.130   6.985 -0.5634  1.5046 -1.3360
 6226SOL    HW230141   2.417   3.097   6.840  0.3894  0.5458 -0.0947
 6227SOL     OW30142   2.500   3.504   1.897 -0.0546 -0.2376 -0.3614
 6227SOL    HW130143   2.568   3.438   1.906  0.7570  0.8133  1.3944
 6227SOL    HW230144   2.502   3.527   1.804 -1.3023 -0.2675 -0.3964
 6228SOL     OW30145   1.738   4.272   4.236  0.7124 -0.4407  0.3855
 6228SOL    HW130146   1.711   4.190   4.194  1.7101 -1.1649  1.1606
 6228SOL    HW230147   1.830   4.254   4.256  0.9151  1.7789  1.3902
 6229SOL     OW30148   3.447   1.948   6.008 -0.2722 -0.5960 -0.0989
 6229SOL    HW130149   3.507   1.893   5.957  2.0920  0.6915  1.2904
 6229SOL    HW230150   3.398   1.993   5.940  0.9263  2.3127  0.9644
 6230SOL     OW30151   1.657   1.536   4.965 -0.5546  0.2149 -0.4516
 6230SOL    HW130152   1.656   1.589   5.045  0.0101 -0.2065 -0.1668
 6230SOL    HW230153   1.711   1.463   4.995  0.5469  1.1330 -0.2129
 6231SOL     OW30154   0.105   4.698   3.950 -0.1352 -0.0680 -0.2101
 6231SOL    HW130155   0.015   4.683   3.978  0.0997 -1.3954 -0.1513
 6231SOL    HW230156   0.152   4.622   3.986 -0.7186 -0.3935 -0.1384
 6232SOL     OW30157   0.493   2.748   7.933 -0.0957 -0.2590  0.5804
 6232SOL    HW130158   0.436   2.702   7.871  0.1957 -0.4849  0.4768
 6232SOL    HW230159   0.444   2.753   8.015 -0.6367  1.4252  0.1458
 6233SOL     OW30160   3.119   0.285  13.155 -0.3240 -0.3704  0.2397
 6233SOL    HW130161   3.210   0.255  13.158  0.0767  0.9448  1.2312
 6233SOL    HW230162   3.105   0.291  13.060 -1.2117 -1.5980  0.2874
 6234SOL     OW30163   1.493   0.972  11.464 -0.0150 -0.0932 -0.2999
 6234SOL    HW130164   1.577   0.993  11.424  0.7969  1.1770  2.0840
 6234SOL    HW230165   1.523   0.952  11.553 -1.5020 -2.2955 -0.2966
 6235SOL     OW30166   1.024   0.512   6.807 -0.2551  0.4636 -0.0511
 6235SOL    HW130167   0.976   0.454   6.748 -1.8250  2.1884 -0.4788
 6235SOL    HW230168   1.090   0.542   6.745  0.3846  1.3588  1.0617
 6236SOL     OW30169   1.170   0.776   6.600  0.0223 -0.2361 -0.4948
 6236SOL    HW130170   1.126   0.759   6.517  0.7265  0.1349 -0.9442
 6236SOL    HW230171   1.094   0.810   6.647  1.3496  3.3905 -0.9505
 6237SOL     OW30172   2.967   1.182  10.478  0.0635 -0.4907  0.1676
 6237SOL    HW130173   3.050   1.222  10.451  1.2767 -1.4389  2.4205
 6237SOL    HW230174   3.003   1.136  10.554 -1.6063  0.8505  1.7692
 6238SOL     OW30175   0.357   4.411   1.832  0.3125 -0.0085  0.1503
 6238SOL    HW130176   0.442   4.392   1.791  1.0794 -0.7692  2.0884
 6238SOL    HW230177   0.357   4.326   1.877  0.3237  0.0923  0.3385
 6239SOL     OW30178   2.842   4.566   8.955  0.1241  0.1148 -0.4036
 6239SOL    HW130179   2.901   4.630   8.996 -1.5309 -0.2926  2.6242
 6239SOL    HW230180   2.891   4.486   8.978 -0.3754  0.2148  1.0057
 6240SOL     OW30181   2.036   4.095   9.157  0.0746 -0.0418 -0.3517
 6240SOL    HW130182   1.983   4.056   9.226  0.7345 -2.8264 -1.4246
 6240SOL    HW230183   2.112   4.133   9.200  0.2178 -1.5012  0.6700
 6241SOL     OW30184   3.134   0.231   9.017 -0.0450 -0.0919 -0.5783
 6241SOL    HW130185   3.143   0.262   8.927 -1.6146 -1.4132 -1.1849
 6241SOL    HW230186   3.057   0.280   9.046  1.9333  3.1463 -0.9208
 6242SOL     OW30187   1.474   2.867  13.888 -0.3457  0.0819 -0.0730
 6242SOL    HW130188   1.495   2.883  13.980  0.1992  0.9378 -0.3469
 6242SOL    HW230189   1.429   2.782  13.888  1.2532 -0.7725 -2.4404
 6243SOL     OW30190   0.301   4.095  11.881  0.4544  0.3830  0.3359
 6243SOL    HW130191   0.221   4.148  11.882 -1.8559 -3.0797 -1.9015
 6243SOL    HW230192   0.261   4.018  11.922 -0.2032  1.1948  1.2296
 6244SOL     OW30193   1.308   1.275   8.236 -0.4263 -0.4306 -0.2146
 6244SOL    HW130194   1.367   1.229   8.296 -1.9867  0.1301  1.7381
 6244SOL    HW230195   1.258   1.329   8.296 -0.7405 -1.4306  0.4124
 6245SOL     OW30196   2.865   1.550   3.768  0.2275  0.4361 -0.0330
 6245SOL    HW130197   2.910   1.618   3.717 -0.1311  1.8192  1.4900
 6245SOL    HW230198   2.931   1.481   3.772  0.7773  0.9611  0.0147
 6246SOL     OW30199   1.943   2.562   6.521  0.0784  0.1276 -0.4530
 6246SOL    HW130200   1.914   2.651   6.543 -0.1763 -0.3665  1.2374
 6246SOL    HW230201   1.859   2.519   6.534  1.2378 -1.7881  0.7552
 6247SOL     OW30202   2.152   0.468   4.901 -0.6727  0.0058 -0.0753
 6247SOL    HW130203   2.159   0.556   4.937  0.4088 -0.6560  1.3543
 6247SOL    HW230204   2.065   0.480   4.863 -0.3953 -0.2712 -0.7890
 6248SOL     OW30205   3.520   4.035   9.577 -0.8341 -0.6203  0.2046
 6248SOL    HW130206   3.564   4.047   9.661  1.2631 -1.8696 -0.7121
 6248SOL    HW230207   3.447   3.976   9.596 -2.9294  1.9997  0.2205
 6249SOL     OW30208   3.673   1.745   3.255 -0.0358  0.1469 -0.2803
 6249SOL    HW130209   3.745   1.757   3.193 -0.2237 -2.6804 -1.0703
 6249SOL    HW230210   3.641   1.667   3.209 -1.3581  1.2745 -1.2907
 6250SOL     OW30211   1.177   1.889   7.092 -0.6190 -0.4087 -0.3288
 6250SOL    HW130212   1.109   1.859   7.032  0.5712 -1.3325 -1.2182
 6250SOL    HW230213   1.216   1.963   7.047  0.6536 -0.8163  0.1032
 6251SOL     OW30214   4.680   0.412   5.415  0.0100 -0.2526  0.0318
 6251SOL    HW130215   4.661   0.323   5.387 -0.9471 -0.0749  0.1124
 6251SOL    HW230216   4.696   0.399   5.509  0.0579 -0.6758 -0.0389
 6252SOL     OW30217   2.185   4.579   6.111  0.6271 -0.2963  0.1162
 6252SOL    HW130218   2.169   4.485   6.108 -3.1511  0.3083  1.4880
 6252SOL    HW230219   2.125   4.601   6.039  1.1544  1.4633  0.2115
 6253SOL     OW30220   0.057   1.682   5.929 -0.2856 -0.0674 -0.1638
 6253SOL    HW130221   0.137   1.722   5.963  0.1472 -0.7527 -0.3760
 6253SOL    HW230222   0.022   1.760   5.886  0.1560  0.2291  0.0127
 6254SOL     OW30223   3.353   4.282   8.453 -0.1529 -0.2867 -0.7912
 6254SOL    HW130224   3.344   4.225   8.530  0.3639  0.6491 -0.0281
 6254SOL    HW230225   3.369   4.367   8.496  0.4347 -0.9080  0.2380
 6255SOL     OW30226   4.316   3.081   7.675 -0.2143  0.1756  0.1750
 6255SOL    HW130227   4.389   3.110   7.730  0.5378  2.6106 -2.1091
 6255SOL    HW230228   4.362   3.020   7.618  0.1552  0.3444  0.2982
 6256SOL     OW30229   1.104   4.624   0.832 -0.4409  0.2273 -0.1584
 6256SOL    HW130230   1.161   4.556   0.868  1.9376  1.8633 -0.8579
 6256SOL    HW230231   1.157   4.690   0.788 -1.1043  1.4000  0.7969
 6257SOL     OW30232   4.631   2.814   6.135  0.2982 -0.5945 -0.6608
 6257SOL    HW130233   4.590   2.821   6.221 -1.3838  0.0293 -1.5091
 6257SOL    HW230234   4.700   2.749   6.150 -0.4876 -1.6614 -1.6738
 6258SOL     OW30235   4.514   4.308   6.172 -0.2659  0.3754  0.3886
 6258SOL    HW130236   4.505   4.243   6.242 -0.5844  0.5639  0.5217
 6258SOL    HW230237   4.457   4.279   6.101 -0.3151 -0.2115  0.6662
 6259SOL     OW30238   1.632   3.087   3.605 -0.2680  0.9053  0.1287
 6259SOL    HW130239   1.614   3.100   3.698 -1.4221 -0.7606  0.1409
 6259SOL    HW230240   1.719   3.048   3.611 -0.8506 -0.4466 -0.0351
 6260SOL     OW30241   0.227   3.286   2.856  0.5716  0.1215 -0.2277
 6260SOL    HW130242   0.189   3.275   2.769 -0.7293  4.3792 -0.1829
 6260SOL    HW230243   0.298   3.345   2.833  0.9763  0.0627  0.8683
 6261SOL     OW30244   0.172   3.415  13.126  0.3977  0.1911  0.0338
 6261SOL    HW130245   0.176   3.327  13.088 -2.6593  0.2815 -0.5130
 6261SOL    HW230246   0.216   3.449  13.048 -0.2813 -0.4392 -0.6255
 6262SOL     OW30247   3.441   3.805   8.935  1.0149 -0.2139 -0.3514
 6262SOL    HW130248   3.504   3.769   8.997  1.0982  0.0928 -0.2581
 6262SOL    HW230249   3.429   3.897   8.960 -1.7377 -0.4254 -0.8265
 6263SOL     OW30250   1.187   3.190  16.338  0.3532 -0.4227  0.0191
 6263SOL    HW130251   1.234   3.268  16.310  0.9307 -0.9473 -0.4765
 6263SOL    HW230252   1.097   3.221  16.347 -0.6635 -2.8483 -1.6492
 6264SOL     OW30253   4.375   2.308  11.556  0.3347  0.3878  0.0687
 6264SOL    HW130254   4.280   2.312  11.551  0.2518 -1.7913 -0.4579
 6264SOL    HW230255   4.392   2.239  11.492  0.1078  0.5215 -0.1369
 6265SOL     OW30256   3.764   1.588  11.029 -0.1685 -0.2791 -0.2768
 6265SOL    HW130257   3.775   1.506  10.982 -0.3160 -0.6546  0.3361
 6265SOL    HW230258   3.802   1.569  11.115 -0.1349 -2.1278 -0.7054
 6266SOL     OW30259   1.388   0.348  16.668 -0.0569 -0.5662 -0.2164
 6266SOL    HW130260   1.362   0.293  16.594 -1.1502 -1.0981  0.5638
 6266SOL    HW230261   1.365   0.434  16.634 -0.2056 -1.4837 -2.4353
 6267SOL     OW30262   1.365   4.372   1.700 -0.4797 -0.0559  0.1380
 6267SOL    HW130263   1.358   4.319   1.620 -1.0122  0.0903  0.0888
 6267SOL    HW230264   1.456   4.376   1.728  0.8217  0.8736 -4.2006
 6268SOL     OW30265   3.551   3.687   2.355 -0.4586  0.1377  0.1146
 6268SOL    HW130266   3.637   3.713   2.387 -0.0339 -1.6970  0.4507
 6268SOL    HW230267   3.545   3.741   2.276  0.1645 -0.5052 -0.3721
 6269SOL     OW30268   4.260   4.562   6.792 -0.1651 -0.3330 -0.2526
 6269SOL    HW130269   4.212   4.642   6.815  1.7632  0.5629  0.7375
 6269SOL    HW230270   4.210   4.534   6.716  0.7328  0.5765 -1.1710
 6270SOL     OW30271   1.783   2.302   7.368 -0.1814  0.3305  0.1123
 6270SOL    HW130272   1.856   2.290   7.307 -1.1914 -1.6872 -0.6877
 6270SOL    HW230273   1.765   2.210   7.388  0.9399  0.2091  0.5842
 6271SOL     OW30274   0.366   1.551   3.435  0.2055  0.2371  0.0777
 6271SOL    HW130275   0.456   1.541   3.402 -0.9899 -3.2096 -2.0924
 6271SOL    HW230276   0.372   1.534   3.528  0.2656 -0.6447 -0.0922
 6272SOL     OW30277   1.817   0.366   3.497 -0.6320 -0.2573  0.0537
 6272SOL    HW130278   1.861   0.281   3.502  0.1804  0.2320  1.2097
 6272SOL    HW230279   1.781   0.369   3.409 -1.7940  2.5425  0.6267
 6273SOL     OW30280   3.949   1.192   0.570  0.2666 -0.1840 -0.7669
 6273SOL    HW130281   3.943   1.161   0.660 -0.7840  0.9270 -0.4642
 6273SOL    HW230282   4.002   1.120   0.534 -0.2141 -0.8920 -0.0597
 6274SOL     OW30283   1.697   1.864   9.178 -0.0820 -0.5650  0.5032
 6274SOL    HW130284   1.617   1.816   9.158 -0.5024  0.4314 -0.2199
 6274SOL    HW230285   1.699   1.930   9.108 -0.9897 -0.2497  0.7768
 6275SOL     OW30286   0.530   3.120  13.705  0.8602  0.3180  0.4773
 6275SOL    HW130287   0.611   3.068  13.702  0.4908 -0.2115 -0.2458
 6275SOL    HW230288   0.515   3.102  13.798  1.8510 -2.4081  0.1159
 6276SOL     OW30289   4.618   2.531  11.511  0.1304 -0.0461 -0.2191
 6276SOL    HW130290   4.622   2.535  11.606  2.0989 -1.8567 -0.2194
 6276SOL    HW230291   4.536   2.483  11.497 -0.6547  1.8639 -2.1422
 6277SOL     OW30292   4.109   0.140   6.022 -0.0156 -0.1352 -0.0349
 6277SOL    HW130293   4.053   0.064   6.005 -0.4623  0.0171  0.7204
 6277SOL    HW230294   4.062   0.206   5.970 -1.0653 -1.3150 -0.5650
 6278SOL     OW30295   0.195   1.108   8.947 -0.4136 -0.5723  0.0333
 6278SOL    HW130296   0.192   1.203   8.951 -0.4190 -0.5187 -1.5053
 6278SOL    HW230297   0.115   1.090   8.898 -1.0605  0.9633  0.5213
 6279SOL     OW30298   0.396   0.231  11.255  0.2746 -0.3608  0.1208
 6279SOL    HW130299   0.334   0.241  11.328 -0.1386  0.1978 -0.3061
 6279SOL    HW230300   0.403   0.321  11.223  0.9992 -0.4265  0.1014
 6280SOL     OW30301   1.611   1.187   8.138 -0.2218  0.0025  0.0010
 6280SOL    HW130302   1.582   1.120   8.200  1.1980  0.3939  1.1073
 6280SOL    HW230303   1.658   1.247   8.197 -1.0047 -0.3225  0.9527
 6281SOL     OW30304   0.015   1.922   5.802 -0.3995  0.2853  0.2109
 6281SOL    HW130305   4.666   1.985   5.779  0.4843  1.3294  0.4359
 6281SOL    HW230306   0.034   1.882   5.718 -0.1435 -1.2456  0.9967
 6282SOL     OW30307   3.812   2.772   6.164 -0.0187  0.2781 -0.0888
 6282SOL    HW130308   3.803   2.693   6.111 -1.5784  0.8317 -0.6383
 6282SOL    HW230309   3.888   2.755   6.219  1.5845  0.8728 -2.1014
 6283SOL     OW30310   4.426   0.555   2.539  0.5042  0.2081 -0.0631
 6283SOL    HW130311   4.502   0.498   2.549 -0.9267 -2.1553 -2.2835
 6283SOL    HW230312   4.462   0.618   2.477 -0.0162 -2.3143 -2.9619
 6284SOL     OW30313   2.818   3.238   4.338 -0.4351 -0.0146 -0.1670
 6284SOL    HW130314   2.806   3.197   4.252 -0.7295 -0.8155  0.2562
 6284SOL    HW230315   2.910   3.218   4.353 -0.9192 -1.4803  0.8635
 6285SOL     OW30316   1.048   3.402   4.243  0.0749 -0.6474 -0.1908
 6285SOL    HW130317   1.111   3.333   4.222  1.4902 -0.2939  2.9501
 6285SOL    HW230318   0.993   3.397   4.165 -0.4750  2.2018  0.0009
 6286SOL     OW30319   4.693   4.638  13.279  0.9194 -0.2931 -0.2293
 6286SOL    HW130320   4.713   4.713  13.335 -0.6888  0.7393 -1.0239
 6286SOL    HW230321   4.662   4.561  13.327 -0.6538 -0.4701 -1.4922
 6287SOL     OW30322   0.040   3.155   4.376  0.3325 -0.2632  0.2696
 6287SOL    HW130323   4.691   3.151   4.443  0.7699  1.4488  0.8232
 6287SOL    HW230324   0.093   3.228   4.406  0.6687 -1.5944  2.8889
 6288SOL     OW30325   1.019   1.550  13.544  0.1447 -0.4769 -0.4548
 6288SOL    HW130326   1.096   1.512  13.587 -0.7216  0.2826  1.7865
 6288SOL    HW230327   0.955   1.541  13.614  0.3477  1.3217 -0.0289
 6289SOL     OW30328   1.772   0.992   0.845  0.0376 -0.3061  0.2255
 6289SOL    HW130329   1.818   1.055   0.901 -0.0285  0.1634 -0.2534
 6289SOL    HW230330   1.738   0.924   0.903  2.1399 -0.0692  1.7623
 6290SOL     OW30331   3.889   0.478   3.822 -0.3179  0.4600  0.5015
 6290SOL    HW130332   3.869   0.388   3.850 -0.4310  1.1219  2.5059
 6290SOL    HW230333   3.935   0.461   3.739  1.5189  2.2183  1.1776
 6291SOL     OW30334   1.697   3.133   2.789 -0.0628 -0.3723 -0.5989
 6291SOL    HW130335   1.767   3.143   2.854  0.6931 -0.8397 -1.3467
 6291SOL    HW230336   1.618   3.150   2.840  1.8893  1.0787  1.9523
 6292SOL     OW30337   3.705   3.528   3.525 -0.4557 -0.5310  0.4993
 6292SOL    HW130338   3.682   3.522   3.432 -2.1599  2.1033  0.7691
 6292SOL    HW230339   3.795   3.561   3.530 -0.4271 -0.6017  0.4473
 6293SOL     OW30340   0.673   1.231   2.942 -0.3243  0.2441 -0.0643
 6293SOL    HW130341   0.694   1.324   2.953  2.8018 -0.3434 -1.1104
 6293SOL    HW230342   0.621   1.233   2.862 -0.5492 -0.9658  0.0534
 6294SOL     OW30343   0.413   4.420   7.587  0.2441  0.3481  0.2268
 6294SOL    HW130344   0.350   4.380   7.648 -1.4307 -0.2591 -1.9179
 6294SOL    HW230345   0.385   4.382   7.504  2.6004  1.5474 -1.0927
 6295SOL     OW30346   0.169   1.179   3.715  0.1896  0.8198  0.0217
 6295SOL    HW130347   0.160   1.182   3.620  1.0894 -3.8765 -0.2064
 6295SOL    HW230348   0.163   1.272   3.736  0.6054  0.6098  1.0407
 6296SOL     OW30349   2.045   0.605   4.459  0.4414  0.5158  0.2182
 6296SOL    HW130350   1.970   0.546   4.452 -0.9680  2.4267 -0.6153
 6296SOL    HW230351   2.040   0.645   4.373  0.5120  1.8773  0.8387
 6297SOL     OW30352   0.255   1.679  11.155 -0.6856 -0.2484  0.2907
 6297SOL    HW130353   0.292   1.747  11.210 -1.2492  0.6858 -0.4961
 6297SOL    HW230354   0.236   1.605  11.212 -0.7144  0.2235  0.8834
 6298SOL     OW30355   2.709   2.157   8.326 -0.4809  0.2779  0.0984
 6298SOL    HW130356   2.750   2.220   8.385  1.2875  0.3422 -1.1861
 6298SOL    HW230357   2.777   2.143   8.260 -0.8404  1.4802 -0.5258
 6299SOL     OW30358   1.845   1.443   7.517  0.0605 -0.2073 -0.2937
 6299SOL    HW130359   1.808   1.380   7.579 -0.1764  0.6780  0.4639
 6299SOL    HW230360   1.933   1.455   7.554  0.5194 -2.6388 -0.5584
 6300SOL     OW30361   3.606   3.796   3.384 -0.1108  0.0284 -0.1049
 6300SOL    HW130362   3.566   3.875   3.347  2.3088  1.8308  1.1680
 6300SOL    HW230363   3.609   3.822   3.476 -1.5434  3.3094 -0.9949
 6301SOL     OW30364   1.081   1.107   6.786 -0.6178  0.0168  0.3561
 6301SOL    HW130365   1.026   1.065   6.720 -1.2113  0.7358  0.3848
 6301SOL    HW230366   1.023   1.087   6.860 -0.2638  0.8584  0.8650
 6302SOL     OW30367   0.586   3.852  11.456  0.4202 -0.1980  0.6671
 6302SOL    HW130368   0.626   3.889  11.535  0.0005  0.4950  0.5582
 6302SOL    HW230369   0.655   3.788  11.441 -2.5053 -2.8261 -1.4535
 6303SOL     OW30370   3.085   1.464   6.647  0.2500  0.4654 -0.2053
 6303SOL    HW130371   3.001   1.437   6.684  2.1851 -3.1602  1.4990
 6303SOL    HW230372   3.094   1.558   6.665 -0.4098  0.4660  0.1256
 6304SOL     OW30373   3.602   0.882   2.998  0.0661 -0.2358 -0.3454
 6304SOL    HW130374   3.602   0.859   2.905 -1.3097  3.5375 -1.2797
 6304SOL    HW230375   3.507   0.885   3.012 -0.0927 -0.1058 -1.4372
 6305SOL     OW30376   1.943   3.459   4.850  0.5950 -0.1360  0.7335
 6305SOL    HW130377   2.033   3.467   4.819  0.4521 -0.6730  0.1664
 6305SOL    HW230378   1.944   3.509   4.931 -0.5999  0.3687  0.4352
 6306SOL     OW30379   1.825   4.111  15.192  0.5223 -0.5547 -0.1534
 6306SOL    HW130380   1.875   4.177  15.143 -0.0483 -0.1112 -0.1493
 6306SOL    HW230381   1.892   4.049  15.220  1.7581  1.7400  2.0149
 6307SOL     OW30382   3.522   0.364   6.841  0.0496 -0.1250 -0.0508
 6307SOL    HW130383   3.495   0.421   6.913  0.1708 -1.3127  0.9411
 6307SOL    HW230384   3.581   0.432   6.807 -0.8544  0.4992 -0.3695
 6308SOL     OW30385   2.281   4.670   4.197 -0.0496  0.0959  0.5267
 6308SOL    HW130386   2.255   0.031   4.241  0.5878 -0.7698  2.4781
 6308SOL    HW230387   2.219   4.670   4.124  0.0304 -0.1853  0.4576
 6309SOL     OW30388   2.355   4.460   3.571 -0.0287  0.1527 -0.1485
 6309SOL    HW130389   2.405   4.521   3.517 -0.1731 -1.4834 -2.1503
 6309SOL    HW230390   2.282   4.447   3.510 -1.7061 -1.4259  2.2253
 6310SOL     OW30391   2.859   2.569   3.170  0.5946 -0.6327 -0.4387
 6310SOL    HW130392   2.900   2.527   3.245 -3.2132 -0.7299  1.6129
 6310SOL    HW230393   2.850   2.661   3.197 -5.0713 -1.5162  0.8388
 6311SOL     OW30394   0.980   4.235   8.465  0.1922  0.1052  0.0123
 6311SOL    HW130395   1.043   4.182   8.515 -0.0626  1.3883  1.6859
 6311SOL    HW230396   0.901   4.185   8.483  1.7358 -2.5663 -0.5598
 6312SOL     OW30397   1.739   2.646   3.215  0.3253  0.0703  0.2267
 6312SOL    HW130398   1.741   2.679   3.125  0.4141  1.4576  0.7273
 6312SOL    HW230399   1.653   2.606   3.203  0.3401 -0.5286  2.1221
 6313SOL     OW30400   1.559   1.295   1.284  0.2657  0.0849  0.1631
 6313SOL    HW130401   1.537   1.348   1.361  1.3006  0.1390  0.4149
 6313SOL    HW230402   1.579   1.209   1.322 -1.8838  0.1189  1.3754
 6314SOL     OW30403   0.045   3.096  12.560  0.1046  0.3310  0.7871
 6314SOL    HW130404   0.119   3.099  12.620  0.7576  1.3570 -0.0714
 6314SOL    HW230405   0.058   3.183  12.522 -0.6595  0.3491  0.5726
 6315SOL     OW30406   2.352   1.046   4.410  0.2634 -0.0281 -0.0433
 6315SOL    HW130407   2.353   1.132   4.451 -1.0219 -0.8996  1.7933
 6315SOL    HW230408   2.350   0.983   4.482  3.6699 -1.1066 -0.9219
 6316SOL     OW30409   2.360   3.163   2.788  0.4232 -0.1104  0.0572
 6316SOL    HW130410   2.314   3.172   2.704  0.1034  0.2508  0.2684
 6316SOL    HW230411   2.434   3.222   2.779  1.9952 -2.2190 -0.6861
 6317SOL     OW30412   2.414   0.607  16.811 -0.7347 -0.1868 -0.1430
 6317SOL    HW130413   2.502   0.574  16.792 -0.3353  2.3630 -2.7554
 6317SOL    HW230414   2.432   0.673  16.878 -1.3893  0.5614 -0.6980
 6318SOL     OW30415   3.855   0.379  14.536 -0.0920  0.7536  0.4537
 6318SOL    HW130416   3.898   0.358  14.453  0.3646  1.0595  0.6084
 6318SOL    HW230417   3.793   0.448  14.513 -0.6427 -0.6288 -2.2858
 6319SOL     OW30418   3.740   3.416  13.337 -0.0516  0.0929 -0.1204
 6319SOL    HW130419   3.668   3.479  13.339 -0.9119 -0.9528  1.3099
 6319SOL    HW230420   3.706   3.340  13.384  3.9417 -0.8769  1.2502
 6320SOL     OW30421   3.157   0.243   4.151 -0.5063 -0.2472 -0.1370
 6320SOL    HW130422   3.170   0.224   4.058  0.7617 -0.1796  0.0355
 6320SOL    HW230423   3.189   0.333   4.157 -0.0491 -0.3401 -1.2612
 6321SOL     OW30424   0.193   3.554   0.583  0.1965  0.0102  0.2350
 6321SOL    HW130425   0.189   3.476   0.639  1.3646  0.1651  0.5262
 6321SOL    HW230426   0.104   3.591   0.586 -0.7021 -2.0011 -1.4862
 6322SOL     OW30427   3.227   0.658  16.650 -0.2338 -0.2378 -0.0267
 6322SOL    HW130428   3.248   0.718  16.722  0.1297  1.2732 -1.4107
 6322SOL    HW230429   3.311   0.614  16.637  0.6243  2.0240 -1.9616
 6323SOL     OW30430   0.996   2.451   2.107  0.3755  0.1920 -0.1379
 6323SOL    HW130431   1.015   2.541   2.081 -2.9594  0.8913 -0.1749
 6323SOL    HW230432   0.905   2.443   2.078  0.4859 -1.0936 -0.1491
 6324SOL     OW30433   0.780   4.634   2.533  0.7560  0.5752  0.7715
 6324SOL    HW130434   0.761   4.601   2.621  3.3301 -1.2294  0.6461
 6324SOL    HW230435   0.692   4.649   2.500  1.3718  2.1980 -0.1459
 6325SOL     OW30436   2.479   2.900  16.317  0.3374 -0.0689  0.1592
 6325SOL    HW130437   2.443   2.958  16.250 -1.2102  0.7335  1.6558
 6325SOL    HW230438   2.556   2.952  16.340 -0.3441 -0.3571  3.1439
 6326SOL     OW30439   1.024   2.798   5.516 -0.1448 -0.4049  0.4430
 6326SOL    HW130440   0.953   2.852   5.550  0.1534  1.6152 -2.1392
 6326SOL    HW230441   1.058   2.857   5.449 -2.6510 -0.0775 -0.5395
 6327SOL     OW30442   3.065   2.350   2.366  0.1473 -0.1083 -0.0555
 6327SOL    HW130443   3.015   2.380   2.442  0.8491 -1.0559  0.7887
 6327SOL    HW230444   3.117   2.281   2.407  1.4216 -0.1947 -1.8213
 6328SOL     OW30445   0.377   3.570   1.927 -0.3027  0.4907  0.0579
 6328SOL    HW130446   0.318   3.631   1.884 -2.7970 -2.5796 -0.9283
 6328SOL    HW230447   0.335   3.485   1.909  1.7404 -0.3494 -0.8705
 6329SOL     OW30448   2.615   4.413  11.875 -0.0936 -0.2005 -0.1356
 6329SOL    HW130449   2.565   4.486  11.839  1.6778 -0.2886 -2.7716
 6329SOL    HW230450   2.707   4.439  11.871 -0.6920  1.5798 -2.0537
 6330SOL     OW30451   2.105   4.305   4.579  0.0653 -0.5098 -0.3652
 6330SOL    HW130452   2.071   4.339   4.662  0.9794  0.0116 -0.2126
 6330SOL    HW230453   2.190   4.347   4.582 -0.4122  0.4438 -0.2859
 6331SOL     OW30454   3.174   0.890   8.953  0.4716  0.4111 -0.3698
 6331SOL    HW130455   3.188   0.983   8.932  1.4413 -0.1713 -2.2065
 6331SOL    HW230456   3.164   0.892   9.048 -1.5273 -0.0300 -0.5794
 6332SOL     OW30457   4.257   2.596  13.199 -0.3167 -0.0985  0.0743
 6332SOL    HW130458   4.284   2.556  13.117 -0.7986 -0.6596  0.1894
 6332SOL    HW230459   4.164   2.576  13.213 -0.1730 -0.8773 -0.0953
 6333SOL     OW30460   0.308   1.404  12.415  0.5547  0.3536 -0.5292
 6333SOL    HW130461   0.364   1.426  12.490  2.5702 -0.4960 -1.8152
 6333SOL    HW230462   0.363   1.344  12.366  1.3362  1.3137 -0.8265
 6334SOL     OW30463   0.543   1.512   6.284  0.4097 -0.6285  0.2388
 6334SOL    HW130464   0.484   1.520   6.358 -1.4714  0.8567 -1.4390
 6334SOL    HW230465   0.615   1.460   6.321 -0.8777 -1.6734  1.2877
 6335SOL     OW30466   3.861   4.027   7.066 -0.3498 -0.5450 -0.7658
 6335SOL    HW130467   3.934   4.012   7.006  0.4754 -0.8940  0.3266
 6335SOL    HW230468   3.912   4.043   7.145  0.1699  0.5254 -1.3076
 6336SOL     OW30469   3.132   1.669   8.401 -0.0623 -0.1073 -0.4119
 6336SOL    HW130470   3.204   1.671   8.465 -1.5826  1.0755  1.2487
 6336SOL    HW230471   3.180   1.701   8.324 -0.8470 -2.2707 -1.7987
 6337SOL     OW30472   1.933   2.331   9.380  0.2875  0.1000  0.1730
 6337SOL    HW130473   1.838   2.320   9.383  0.4730 -1.4813  0.2324
 6337SOL    HW230474   1.957   2.390   9.452  1.4305  0.8084 -0.7910
 6338SOL     OW30475   1.514   0.551   6.396  0.0457 -0.3677  0.1355
 6338SOL    HW130476   1.557   0.604   6.329 -0.4485 -0.2859 -0.1150
 6338SOL    HW230477   1.430   0.529   6.357 -0.1702 -0.2359  0.5249
 6339SOL     OW30478   4.572   2.178   5.880 -0.3930 -0.2977  0.7232
 6339SOL    HW130479   4.573   2.135   5.966  0.5687 -0.0396  0.8457
 6339SOL    HW230480   4.534   2.258   5.916 -0.0963  0.0527  0.2489
 6340SOL     OW30481   4.208   0.826   5.185 -0.4340 -0.3739 -0.0878
 6340SOL    HW130482   4.139   0.760   5.192 -0.7392 -0.1120 -0.7612
 6340SOL    HW230483   4.245   0.803   5.100  0.1979  0.6113 -0.0729
 6341SOL     OW30484   3.659   3.537   4.027 -0.6865  0.3971 -0.6019
 6341SOL    HW130485   3.576   3.505   3.992 -0.8946  0.9254 -0.5905
 6341SOL    HW230486   3.732   3.523   3.967 -1.6433 -1.1128 -1.4077
 6342SOL     OW30487   0.486   3.615   2.557 -0.0367  0.1985 -0.1906
 6342SOL    HW130488   0.516   3.705   2.565 -0.3537  0.1760  1.2814
 6342SOL    HW230489   0.396   3.633   2.530  0.5606  0.9319 -1.7103
 6343SOL     OW30490   2.677   0.667   3.222 -0.4505  0.3626  0.5845
 6343SOL    HW130491   2.699   0.725   3.149  0.2547 -0.7531 -0.0796
 6343SOL    HW230492   2.741   0.704   3.284 -1.2231  1.2624  0.8497
 6344SOL     OW30493   0.734   0.822  10.644 -0.1482 -0.3870  0.0142
 6344SOL    HW130494   0.730   0.728  10.662  1.1653 -0.4209  0.1552
 6344SOL    HW230495   0.818   0.838  10.600  0.0531 -2.5366 -0.3683
 6345SOL     OW30496   4.393   3.912   6.030 -0.5175 -0.4520 -0.0215
 6345SOL    HW130497   4.430   3.845   5.974 -0.4034 -1.2139  0.9536
 6345SOL    HW230498   4.411   3.880   6.119  0.8853 -2.2748 -0.9789
 6346SOL     OW30499   0.001   0.387  11.931 -0.4593 -0.4500  0.5830
 6346SOL    HW130500   4.701   0.348  12.016  2.5142 -2.2904  0.4297
 6346SOL    HW230501   4.681   0.474  11.940  2.7591  1.1839 -1.0047
 6347SOL     OW30502   1.902   0.735   2.250  0.5060  0.0859  0.1306
 6347SOL    HW130503   1.951   0.656   2.271  0.0719  0.8916  4.2113
 6347SOL    HW230504   1.973   0.794   2.224  0.6092  0.5279  1.4503
 6348SOL     OW30505   1.838   4.703  16.263 -0.2267  0.2387  0.0205
 6348SOL    HW130506   1.814   0.076  16.257  0.4165  0.3506 -0.7890
 6348SOL    HW230507   1.837   4.668  16.174  1.1178  3.1406 -1.1343
 6349SOL     OW30508   0.051   1.378   7.163  0.2898  0.2821  0.7099
 6349SOL    HW130509   0.038   1.403   7.072  1.0281  1.1202  0.8298
 6349SOL    HW230510   0.144   1.354   7.162  0.1918 -0.1128  1.0020
 6350SOL     OW30511   0.030   3.033  15.278  0.1939 -0.1621 -0.2353
 6350SOL    HW130512   4.710   2.971  15.217 -0.3701  0.3583 -0.3942
 6350SOL    HW230513   4.697   3.112  15.269 -1.1128 -1.1108 -1.1083
 6351SOL     OW30514   4.396   4.617   8.375 -0.6367  0.0659 -0.0314
 6351SOL    HW130515   4.474   4.671   8.384 -0.6481  0.4621 -2.2796
 6351SOL    HW230516   4.370   4.629   8.284 -0.8056  2.7259  0.3848
 6352SOL     OW30517   4.251   3.772  14.683 -0.6011  0.4194 -0.2490
 6352SOL    HW130518   4.208   3.767  14.769  0.6720  0.7652  0.4148
 6352SOL    HW230519   4.262   3.684  14.649 -1.7431  1.2614 -2.7382
 6353SOL     OW30520   4.142   2.244   6.976  0.2593 -0.1695 -0.0749
 6353SOL    HW130521   4.062   2.196   6.954  0.7275 -0.4073 -1.2376
 6353SOL    HW230522   4.097   2.312   7.026  0.9796 -0.3622  0.8357
 6354SOL     OW30523   4.430   1.998   8.315  0.4778  0.4633 -0.2062
 6354SOL    HW130524   4.456   2.086   8.343  0.1402 -0.2838  2.4400
 6354SOL    HW230525   4.342   1.999   8.352  0.8626  0.1801  0.7248
 6355SOL     OW30526   0.225   4.398   2.368 -0.1486  0.0310  0.4147
 6355SOL    HW130527   0.151   4.417   2.311  0.4383  0.6861 -0.1429
 6355SOL    HW230528   0.200   4.440   2.450 -1.5667  1.9065 -0.9918
 6356SOL     OW30529   1.673   3.398   3.063 -0.0129 -0.1278  0.3017
 6356SOL    HW130530   1.754   3.396   3.013  0.9187 -1.2584  1.8694
 6356SOL    HW230531   1.617   3.458   3.014  0.8804 -1.2352 -2.0937
 6357SOL     OW30532   2.075   3.963   4.951  0.2108  0.1633 -0.3327
 6357SOL    HW130533   2.041   3.922   4.872 -2.5945  1.9644 -0.0880
 6357SOL    HW230534   2.042   3.906   5.021 -0.0249  0.8778  0.1515
 6358SOL     OW30535   0.295   3.964   4.344  0.1660 -0.5446 -0.4583
 6358SOL    HW130536   0.324   3.903   4.275  1.9771 -1.6364  1.2507
 6358SOL    HW230537   0.296   4.051   4.305 -1.6006  0.4157  1.6489
 6359SOL     OW30538   3.546   3.702   1.269 -0.6336 -0.3453  0.6279
 6359SOL    HW130539   3.621   3.758   1.245  0.5570 -1.1330  2.5027
 6359SOL    HW230540   3.481   3.734   1.207  0.0755 -1.7664 -0.8326
 6360SOL     OW30541   0.457   3.843   8.120  0.0740  0.0597 -0.7064
 6360SOL    HW130542   0.543   3.817   8.154  0.5745 -0.9076 -2.7233
 6360SOL    HW230543   0.418   3.760   8.094  1.7267 -0.8622 -0.2294
 6361SOL     OW30544   2.710   3.849   9.189 -0.0977  0.6461 -0.5357
 6361SOL    HW130545   2.758   3.788   9.133 -0.1729  1.0574 -1.0515
 6361SOL    HW230546   2.647   3.886   9.127 -0.1070  0.8932 -0.3792
 6362SOL     OW30547   2.345   1.662   7.386 -0.1188  0.1421  0.1300
 6362SOL    HW130548   2.406   1.588   7.380  2.3448  2.1492  0.6475
 6362SOL    HW230549   2.400   1.715   7.444 -0.5757  1.0953 -0.3127
 6363SOL     OW30550   1.354   0.819   4.020  0.5914  0.1475  0.7101
 6363SOL    HW130551   1.438   0.802   3.977  0.5502 -3.5901  2.0867
 6363SOL    HW230552   1.302   0.751   3.975  0.0720  0.5136  0.7614
 6364SOL     OW30553   0.294   1.171   4.791  0.1124 -0.4301  0.2033
 6364SOL    HW130554   0.317   1.258   4.823 -0.4076  0.1989 -1.1108
 6364SOL    HW230555   0.293   1.119   4.871 -2.0944 -0.0583  0.4243
 6365SOL     OW30556   3.759   4.599   4.256  0.0631  0.6266 -0.0905
 6365SOL    HW130557   3.748   4.563   4.344  0.1748  1.5567  0.3026
 6365SOL    HW230558   3.817   4.673   4.272  1.1236 -0.2898  0.2936
 6366SOL     OW30559   2.369   0.853   9.146  0.0888  0.1693 -0.0531
 6366SOL    HW130560   2.444   0.825   9.199  0.5721  2.2529  0.3584
 6366SOL    HW230561   2.378   0.805   9.064 -0.9929  2.1464 -1.2947
 6367SOL     OW30562   1.639   0.644   2.099  0.3077 -0.3786 -0.4537
 6367SOL    HW130563   1.549   0.614   2.083  0.4103  0.2368 -2.1650
 6367SOL    HW230564   1.690   0.601   2.030  1.4622  0.4978 -0.1524
 6368SOL     OW30565   2.264   1.270  14.640  0.3330 -0.4571 -0.2250
 6368SOL    HW130566   2.323   1.340  14.667 -1.2321  0.3224  1.1503
 6368SOL    HW230567   2.318   1.211  14.586 -1.1530 -0.8217 -1.3226
 6369SOL     OW30568   0.794   2.763   5.297 -0.2496 -0.3326  0.3524
 6369SOL    HW130569   0.825   2.845   5.259 -0.4010 -1.3756 -2.0194
 6369SOL    HW230570   0.766   2.803   5.380  0.6796 -0.2887  0.6375
 6370SOL     OW30571   2.126   1.382   4.047  0.2628 -0.2299 -0.8311
 6370SOL    HW130572   2.126   1.447   3.977 -1.3480  0.7528  0.0645
 6370SOL    HW230573   2.147   1.301   4.001 -1.2758 -0.2975 -1.4125
 6371SOL     OW30574   3.699   4.135   3.863 -0.5777  0.0776 -0.2124
 6371SOL    HW130575   3.634   4.180   3.809 -1.3552  0.8617  1.3693
 6371SOL    HW230576   3.648   4.054   3.873 -2.0631  1.0786  0.4604
 6372SOL     OW30577   0.519   1.365   8.880  0.3238 -0.1598 -0.6177
 6372SOL    HW130578   0.425   1.365   8.895  0.1815 -1.1969 -1.4873
 6372SOL    HW230579   0.549   1.294   8.936  1.9000  0.8430 -0.1683
 6373SOL     OW30580   3.418   1.097   4.049  0.0997  0.2108  0.1063
 6373SOL    HW130581   3.468   1.095   4.131  0.4246  1.8920 -0.0376
 6373SOL    HW230582   3.452   1.025   3.996 -0.1108  1.8845 -2.2887
 6374SOL     OW30583   3.225   3.358   1.660 -0.0812  0.1302 -0.3145
 6374SOL    HW130584   3.217   3.290   1.726 -1.2968  0.2903 -0.3073
 6374SOL    HW230585   3.136   3.390   1.644 -0.0394 -0.2483 -1.2714
 6375SOL     OW30586   0.367   1.964   7.185  0.2812 -0.1956 -0.0927
 6375SOL    HW130587   0.414   2.017   7.250  0.6796  1.8820 -2.0857
 6375SOL    HW230588   0.435   1.948   7.120 -1.6815 -0.8086 -1.9637
 6376SOL     OW30589   4.714   1.773  10.274 -0.2994  0.2540  0.2713
 6376SOL    HW130590   0.055   1.801  10.205  0.7207 -1.4214  0.4866
 6376SOL    HW230591   4.666   1.708  10.223  0.4720  0.0508 -0.1878
 6377SOL     OW30592   1.692   2.349   4.256  0.1215 -0.1532 -0.6314
 6377SOL    HW130593   1.693   2.442   4.279 -3.6985  0.0138 -1.1926
 6377SOL    HW230594   1.783   2.338   4.283  0.1621 -0.2613 -0.8073
 6378SOL     OW30595   1.389   4.238  15.353 -0.1043 -0.3428  0.4468
 6378SOL    HW130596   1.299   4.244  15.319  0.7490 -1.5941 -2.0329
 6378SOL    HW230597   1.390   4.320  15.403 -3.3060  1.0621 -1.7720
 6379SOL     OW30598   3.928   4.562   6.814 -0.6937  0.1764  0.6415
 6379SOL    HW130599   3.886   4.476   6.811 -0.1604  0.0112 -1.7942
 6379SOL    HW230600   3.990   4.542   6.885  1.2484 -2.5421 -1.8168
 6380SOL     OW30601   2.981   3.428   6.919  0.2233  0.1797 -0.0288
 6380SOL    HW130602   2.989   3.457   7.010 -1.0213 -0.9578  0.4462
 6380SOL    HW230603   2.980   3.516   6.881  1.1208  0.2598  0.1241
 6381SOL     OW30604   3.325   4.442   7.283 -0.1176 -0.4439 -0.3421
 6381SOL    HW130605   3.417   4.441   7.308  0.3773  0.1016 -2.0999
 6381SOL    HW230606   3.326   4.468   7.190 -1.0337  1.2999  0.1392
 6382SOL     OW30607   3.543   4.103   6.151 -0.1913 -0.1296 -0.2572
 6382SOL    HW130608   3.511   4.182   6.195 -0.9426 -0.5217 -0.1027
 6382SOL    HW230609   3.541   4.046   6.228  1.6972 -1.0728 -0.9033
 6383SOL     OW30610   0.584   1.718   3.874 -0.1851 -0.1102  0.1599
 6383SOL    HW130611   0.503   1.761   3.845  0.1272  0.2066 -0.2283
 6383SOL    HW230612   0.568   1.641   3.819  1.9361 -0.3402 -0.1364
 6384SOL     OW30613   0.631   2.563   7.482 -0.0949  0.1793  0.3010
 6384SOL    HW130614   0.617   2.477   7.523 -0.5597  0.0925 -0.0345
 6384SOL    HW230615   0.726   2.567   7.488 -0.0068 -1.2043  0.0410
 6385SOL     OW30616   3.228   2.721   2.045 -0.7162  0.4883 -0.3222
 6385SOL    HW130617   3.207   2.636   2.083  0.5018  0.0128 -0.7355
 6385SOL    HW230618   3.256   2.695   1.958 -0.2076  2.6140 -0.8086
 6386SOL     OW30619   2.966   2.711   8.312  0.2111 -0.2740 -0.6569
 6386SOL    HW130620   2.899   2.752   8.367 -1.3663 -2.4823 -0.9539
 6386SOL    HW230621   2.930   2.627   8.285 -0.5816  0.4842 -1.9114
 6387SOL     OW30622   2.170   2.737   4.707  0.0831  0.5722 -0.3847
 6387SOL    HW130623   2.213   2.696   4.783 -1.8362  0.6618  0.7477
 6387SOL    HW230624   2.136   2.816   4.750 -2.3716 -0.8944  0.3270
 6388SOL     OW30625   1.646   1.056   1.332  0.0764  0.1404 -0.1712
 6388SOL    HW130626   1.700   0.990   1.375 -2.7728 -2.2649 -0.3113
 6388SOL    HW230627   1.609   0.996   1.267  0.8988 -0.8799  0.3088
 6389SOL     OW30628   3.705   0.242  17.108 -0.2985 -0.1023  0.3132
 6389SOL    HW130629   3.661   0.157  17.102 -2.6192  0.8771  3.2272
 6389SOL    HW230630   3.674   0.292  17.032 -0.9267 -0.9223  0.0378
 6390SOL     OW30631   2.576   4.647   5.477  0.2960  0.5313 -0.1491
 6390SOL    HW130632   2.619   4.653   5.562 -1.5495  0.3300  0.7865
 6390SOL    HW230633   2.599   4.557   5.454  1.5951  0.1804  2.5134
 6391SOL     OW30634   4.012   3.506   6.968  0.4418  0.5183 -0.2993
 6391SOL    HW130635   3.918   3.521   6.982  0.8780  2.0562  0.9871
 6391SOL    HW230636   4.042   3.584   7.014  0.6900  0.6204 -0.6379
 6392SOL     OW30637   1.879   0.398   2.676  0.1134  0.1615  0.5098
 6392SOL    HW130638   1.794   0.357   2.688  0.4401 -0.4921  0.6163
 6392SOL    HW230639   1.925   0.317   2.701  0.1887  0.3941  1.1131
 6393SOL     OW30640   3.000   3.353   0.297  0.5222  0.3191  0.2940
 6393SOL    HW130641   2.924   3.350   0.355  1.5466  0.7480  1.6560
 6393SOL    HW230642   2.998   3.262   0.266 -1.5405  0.2188  0.7157
 6394SOL     OW30643   3.637   1.208   6.752 -0.0842  0.2498 -0.2364
 6394SOL    HW130644   3.692   1.184   6.827 -0.6391 -0.6907 -0.1333
 6394SOL    HW230645   3.609   1.297   6.774  1.6726  0.7597 -0.0592
 6395SOL     OW30646   4.376   3.874   8.880 -0.1273 -0.1289 -0.2548
 6395SOL    HW130647   4.456   3.926   8.881 -1.2681  1.6765 -1.6906
 6395SOL    HW230648   4.318   3.944   8.849 -1.3364 -1.9813 -2.1679
 6396SOL     OW30649   3.746   4.095  15.907 -0.0675  0.1917 -0.1943
 6396SOL    HW130650   3.779   4.009  15.879 -0.4705  0.4089 -1.3481
 6396SOL    HW230651   3.678   4.068  15.969  0.4507 -1.1481 -0.2015
 6397SOL     OW30652   0.644   2.779   6.871 -0.2356 -0.0222  0.7830
 6397SOL    HW130653   0.734   2.759   6.896 -0.6490 -2.0388  0.6715
 6397SOL    HW230654   0.599   2.704   6.910 -0.0862 -0.8005 -0.5348
 6398SOL     OW30655   2.072   3.036  16.444 -0.0317  0.2292 -0.0913
 6398SOL    HW130656   2.141   2.971  16.462  3.2522  3.1131 -2.3641
 6398SOL    HW230657   2.012   3.007  16.513 -0.0982 -1.2787 -0.7712
 6399SOL     OW30658   4.506   1.027   6.220  0.1744  0.0039 -0.6374
 6399SOL    HW130659   4.490   1.120   6.207  2.1832  0.5577  0.8899
 6399SOL    HW230660   4.432   0.999   6.274  1.3681 -0.2941  0.8657
 6400SOL     OW30661   1.381   2.640   5.674  0.3531  0.0857  0.2874
 6400SOL    HW130662   1.326   2.651   5.597  0.3307 -0.1729  0.2659
 6400SOL    HW230663   1.387   2.728   5.711 -1.9575  0.2059  0.3532
 6401SOL     OW30664   4.288   3.668   9.027 -0.5688 -0.4035  0.5324
 6401SOL    HW130665   4.298   3.748   8.975 -1.3201 -1.0904 -0.6526
 6401SOL    HW230666   4.263   3.703   9.113 -1.7298  0.0009  0.0267
 6402SOL     OW30667   0.303   0.328   6.934 -0.2432  0.6848  0.2340
 6402SOL    HW130668   0.355   0.311   7.013  0.2192  0.0699 -0.2060
 6402SOL    HW230669   0.351   0.399   6.890  0.8808 -0.1562  0.0933
 6403SOL     OW30670   4.099   4.669  15.832 -0.3378 -0.1793 -0.5949
 6403SOL    HW130671   4.075   0.006  15.758  0.5716  0.4130 -0.4364
 6403SOL    HW230672   4.182   4.704  15.864 -0.8952  0.0482  0.5774
 6404SOL     OW30673   3.213   0.306   9.649 -0.0982  0.2921 -0.4530
 6404SOL    HW130674   3.228   0.217   9.680  2.2083  0.3046 -1.5713
 6404SOL    HW230675   3.185   0.301   9.558  1.0774  0.9367 -0.8410
 6405SOL     OW30676   1.423   1.389   6.172  0.2471 -0.7240 -0.3664
 6405SOL    HW130677   1.331   1.363   6.179 -0.1726  0.8303  0.0021
 6405SOL    HW230678   1.425   1.347   6.086 -1.6903 -1.9122  0.1640
 6406SOL     OW30679   3.742   2.042  14.942 -0.0026 -0.1359  0.0906
 6406SOL    HW130680   3.836   2.024  14.939 -0.1682 -0.9989  0.2581
 6406SOL    HW230681   3.712   1.951  14.934 -0.0543 -0.0394 -0.8798
 6407SOL     OW30682   4.145   1.413   4.344 -0.0780 -0.2404  0.1758
 6407SOL    HW130683   4.067   1.460   4.313 -1.7220 -2.0859  1.5303
 6407SOL    HW230684   4.219   1.468   4.317 -0.2976 -0.3280 -0.6161
 6408SOL     OW30685   3.015   4.287  17.483  0.5165 -0.2105  0.1225
 6408SOL    HW130686   2.938   4.295  17.538  0.9049  2.4845  0.2529
 6408SOL    HW230687   2.980   4.309  17.397  2.8067 -0.4459 -0.8760
 6409SOL     OW30688   1.718   3.584   0.408 -0.0950  0.4180  0.1116
 6409SOL    HW130689   1.710   3.639   0.486  1.2288 -0.2509  0.7102
 6409SOL    HW230690   1.762   3.506   0.441  1.1754  0.1187 -2.2344
 6410SOL     OW30691   2.192   1.470   8.448  0.3520 -0.2271 -0.1838
 6410SOL    HW130692   2.227   1.494   8.534 -2.7584  0.4919  0.8925
 6410SOL    HW230693   2.266   1.491   8.391 -0.7187 -0.2893 -1.5868
 6411SOL     OW30694   0.087   1.843   2.465  0.2061  0.0653  0.1537
 6411SOL    HW130695   0.043   1.781   2.522 -0.7026  0.2437 -0.3409
 6411SOL    HW230696   0.062   1.809   2.379 -1.6254  2.9963 -0.4721
 6412SOL     OW30697   0.825   4.495   5.956 -0.0891 -0.0315  0.1933
 6412SOL    HW130698   0.853   4.575   5.912  1.3332 -0.2784  0.6344
 6412SOL    HW230699   0.898   4.433   5.955 -1.4953 -1.6756 -0.2410
 6413SOL     OW30700   3.237   3.218   6.455  1.0539  0.5516  0.5771
 6413SOL    HW130701   3.256   3.169   6.534 -3.1026  0.7837  1.7016
 6413SOL    HW230702   3.148   3.188   6.436  1.8463 -1.4431  0.0957
 6414SOL     OW30703   3.396   1.726   2.465 -0.8587  0.2304 -0.3040
 6414SOL    HW130704   3.398   1.699   2.557  2.3059 -2.9197 -1.2863
 6414SOL    HW230705   3.478   1.696   2.426 -1.3655 -3.7269  1.7229
 6415SOL     OW30706   1.548   4.376   4.050 -0.0862 -0.2950 -0.0121
 6415SOL    HW130707   1.563   4.466   4.022 -0.3402 -0.3101 -0.2061
 6415SOL    HW230708   1.633   4.355   4.089  0.0379  1.0151  0.4165
 6416SOL     OW30709   3.627   2.385  14.305 -0.2867  0.3645  0.0449
 6416SOL    HW130710   3.610   2.364  14.397  0.2122  2.0437  0.5275
 6416SOL    HW230711   3.579   2.309  14.273 -0.6605  0.3294  0.6858
 6417SOL     OW30712   3.546   4.602  12.415  0.5810 -0.0022  0.0278
 6417SOL    HW130713   3.563   4.554  12.334 -2.1196 -2.0816  0.6940
 6417SOL    HW230714   3.506   4.534  12.468  0.4754  0.0014 -0.0455
 6418SOL     OW30715   4.310   3.179  13.090 -0.7734 -0.6758  0.3455
 6418SOL    HW130716   4.294   3.251  13.151 -0.8957  0.0163 -0.5094
 6418SOL    HW230717   4.278   3.218  13.009  0.2938  1.6292  1.0419
 6419SOL     OW30718   4.701   2.968   1.841 -0.2423 -0.4255 -0.5900
 6419SOL    HW130719   4.678   2.927   1.925  1.2177 -0.4188 -0.1774
 6419SOL    HW230720   4.621   2.945   1.794 -0.7309 -1.4219  0.7289
 6420SOL     OW30721   2.870   4.446   9.443  0.5245 -0.9557  0.1335
 6420SOL    HW130722   2.866   4.360   9.400  3.1569 -2.7219  3.3778
 6420SOL    HW230723   2.840   4.503   9.373 -0.0172 -0.7232  0.5483
 6421SOL     OW30724   0.291   2.496   2.118 -0.3779 -0.7391 -0.4487
 6421SOL    HW130725   0.312   2.429   2.052 -3.0505  0.3310 -2.3771
 6421SOL    HW230726   0.203   2.524   2.092  0.1801  0.4683 -1.0601
 6422SOL     OW30727   1.693   1.124  15.045 -0.5270  0.2862 -0.1069
 6422SOL    HW130728   1.750   1.175  14.987  0.4979 -0.1166  0.5436
 6422SOL    HW230729   1.686   1.042  14.996 -1.0935 -0.1721  0.7431
 6423SOL     OW30730   1.715   0.013   7.543  0.0043  0.0787 -0.5282
 6423SOL    HW130731   1.807   4.707   7.532  0.2808  2.0512 -2.7109
 6423SOL    HW230732   1.720   0.108   7.528  0.4984 -0.2316 -2.3258
 6424SOL     OW30733   2.735   3.037   2.729 -0.3977 -0.4827  0.5444
 6424SOL    HW130734   2.708   3.118   2.773 -1.6495 -0.1990 -0.7200
 6424SOL    HW230735   2.698   3.053   2.642  1.1504  0.3492  0.0472
 6425SOL     OW30736   1.459   2.673   0.585  0.1840 -0.7403 -0.1107
 6425SOL    HW130737   1.364   2.659   0.584 -0.0728  0.9944  0.3778
 6425SOL    HW230738   1.466   2.768   0.579 -2.2249 -0.6534 -1.6041
 6426SOL     OW30739   4.146   3.460  13.142 -0.4238  0.6443  0.1506
 6426SOL    HW130740   4.237   3.455  13.174 -0.5641  1.1197  0.6219
 6426SOL    HW230741   4.110   3.503  13.220  1.9427  0.4152  1.3943
 6427SOL     OW30742   1.674   1.956   5.249  0.0706  0.7832 -0.6458
 6427SOL    HW130743   1.628   1.992   5.325  1.2009  0.2604  0.2754
 6427SOL    HW230744   1.757   2.004   5.243  0.5358  0.0546 -0.0269
 6428SOL     OW30745   3.462   3.067   8.914 -0.0641 -0.4019 -0.1641
 6428SOL    HW130746   3.379   3.115   8.909 -0.6565 -1.3474  0.5259
 6428SOL    HW230747   3.486   3.104   8.999  1.0524  0.1557 -0.7238
 6429SOL     OW30748   3.098   2.450   5.055  0.0312 -0.4412 -0.7722
 6429SOL    HW130749   3.052   2.525   5.093 -1.2365 -0.9922 -1.2274
 6429SOL    HW230750   3.033   2.423   4.990 -0.5144 -1.3957  0.1754
 6430SOL     OW30751   1.245   4.130  11.593  0.3088  0.1387  0.3660
 6430SOL    HW130752   1.279   4.062  11.651 -0.5393 -1.0551 -0.5321
 6430SOL    HW230753   1.213   4.188  11.662  1.4586  0.5440  0.5592
 6431SOL     OW30754   2.235   3.801   4.008 -0.5045 -0.1698  0.0025
 6431SOL    HW130755   2.208   3.837   4.093  1.0352  1.0769 -0.0482
 6431SOL    HW230756   2.330   3.796   4.015 -0.6957 -1.5681  1.7594
 6432SOL     OW30757   2.669   0.202   2.211 -0.1159 -0.3322 -0.6328
 6432SOL    HW130758   2.726   0.125   2.208  1.9725  1.1049  2.7861
 6432SOL    HW230759   2.580   0.171   2.226  0.0583 -0.7357 -0.4509
 6433SOL     OW30760   0.239   2.688   5.201  0.0712  0.0935  0.1924
 6433SOL    HW130761   0.148   2.709   5.183  0.5885 -2.6150 -5.4419
 6433SOL    HW230762   0.260   2.773   5.241  0.9900 -0.2771  0.5029
 6434SOL     OW30763   2.010   2.837   6.002 -0.2578 -0.0060  0.3736
 6434SOL    HW130764   2.014   2.796   6.088 -0.0960  1.8300  1.2536
 6434SOL    HW230765   2.101   2.825   5.976  0.2567  0.7270  1.7897
 6435SOL     OW30766   2.849   0.918   7.515 -0.6311 -0.2927  0.1152
 6435SOL    HW130767   2.800   0.898   7.595 -0.7400  1.7150  0.5504
 6435SOL    HW230768   2.909   0.844   7.513 -2.1324 -1.5516  2.0992
 6436SOL     OW30769   0.421   4.212   2.500 -0.0894  0.2486 -0.1984
 6436SOL    HW130770   0.487   4.260   2.550  0.3472 -0.3883 -0.1685
 6436SOL    HW230771   0.376   4.292   2.473 -0.4392  0.0653 -0.1657
 6437SOL     OW30772   1.119   1.637   0.359  0.2011 -0.5583 -0.4477
 6437SOL    HW130773   1.036   1.669   0.326 -0.0303 -0.7352 -0.0429
 6437SOL    HW230774   1.118   1.542   0.349 -2.3364 -0.1713 -3.4880
 6438SOL     OW30775   1.071   1.824   4.846 -0.1440  0.2402 -0.3517
 6438SOL    HW130776   1.145   1.858   4.897  0.2220  1.3444 -1.6252
 6438SOL    HW230777   1.048   1.754   4.908 -1.3623  2.1579  1.3599
 6439SOL     OW30778   1.118   1.487   6.389  0.0484  0.6241  0.7350
 6439SOL    HW130779   1.055   1.479   6.461  0.5424  2.2520  1.3506
 6439SOL    HW230780   1.140   1.580   6.389  0.0658  0.6187 -1.4931
 6440SOL     OW30781   1.386   1.933   5.489  0.1214  0.3268  0.4003
 6440SOL    HW130782   1.349   1.952   5.403  0.3844  0.4276  0.3091
 6440SOL    HW230783   1.441   2.010   5.502  0.8000  0.3025 -2.3334
 6441SOL     OW30784   1.033   2.530   3.076 -0.5185 -0.2926 -0.0134
 6441SOL    HW130785   1.001   2.614   3.107 -0.6207 -0.7761  1.2054
 6441SOL    HW230786   1.098   2.510   3.144 -1.2872 -0.7923  0.5672
 6442SOL     OW30787   2.727   4.404  13.772 -0.2117 -0.5495 -0.3487
 6442SOL    HW130788   2.789   4.438  13.837 -1.6274  0.3447  0.5344
 6442SOL    HW230789   2.757   4.313  13.772 -3.5135 -1.6186  0.5314
 6443SOL     OW30790   1.308   2.535   9.788  0.2666  0.7785 -0.8373
 6443SOL    HW130791   1.250   2.475   9.741 -2.2689  1.4100  1.5360
 6443SOL    HW230792   1.263   2.529   9.872 -0.3975 -1.3165 -1.3436
 6444SOL     OW30793   4.394   1.929   5.222 -0.7341  0.1493 -0.1915
 6444SOL    HW130794   4.323   1.988   5.198 -1.1357 -0.8280 -1.4621
 6444SOL    HW230795   4.455   1.992   5.259  0.9459 -0.6908 -1.5152
 6445SOL     OW30796   3.557   0.589  17.011 -0.3938 -0.2850  0.2618
 6445SOL    HW130797   3.516   0.511  17.048 -1.0328 -0.1934 -0.2565
 6445SOL    HW230798   3.485   0.653  17.015 -0.3220 -0.3395  2.7652
 6446SOL     OW30799   3.993   1.159  16.264  0.1666  0.1396 -0.0376
 6446SOL    HW130800   4.017   1.071  16.291 -0.4331  0.0323  0.1280
 6446SOL    HW230801   3.923   1.147  16.200 -0.0345  1.5877 -0.1060
 6447SOL     OW30802   0.336   0.087   5.776 -0.0028  0.0895 -0.2299
 6447SOL    HW130803   0.248   0.048   5.771 -1.1961  3.0590 -2.4431
 6447SOL    HW230804   0.328   0.176   5.742 -1.1448  0.9373  2.2841
 6448SOL     OW30805   3.693   3.427   8.957 -0.5997 -0.3801 -0.4431
 6448SOL    HW130806   3.706   3.348   8.905 -1.2053 -1.3387  0.8687
 6448SOL    HW230807   3.776   3.424   9.005 -2.9217 -1.2968  3.5181
 6449SOL     OW30808   1.559   1.445   6.425  0.2491 -0.1373  0.6509
 6449SOL    HW130809   1.602   1.526   6.396  1.9184 -1.1789  0.1970
 6449SOL    HW230810   1.536   1.416   6.337  0.6176 -1.8698  1.1124
 6450SOL     OW30811   0.640   0.097   7.549  0.1024 -0.2340 -0.0088
 6450SOL    HW130812   0.609   0.007   7.555 -0.6253  0.0842  1.0507
 6450SOL    HW230813   0.696   0.103   7.626  0.4681 -0.8738 -0.2309
 6451SOL     OW30814   3.837   3.198  16.056  0.0216  0.5146  0.1457
 6451SOL    HW130815   3.837   3.253  16.134 -1.6841  0.5208  0.1277
 6451SOL    HW230816   3.896   3.130  16.090  0.7790  0.7019 -0.7885
 6452SOL     OW30817   2.010   3.621   8.756  0.0700  0.0537  0.1701
 6452SOL    HW130818   2.012   3.569   8.676 -0.8167  0.7992 -0.3291
 6452SOL    HW230819   2.098   3.658   8.743  0.4276 -0.9944 -0.4157
 6453SOL     OW30820   0.242   1.976   8.835  0.1496 -0.0020  0.0500
 6453SOL    HW130821   0.314   1.913   8.826  0.4063  0.1746  0.8327
 6453SOL    HW230822   0.189   1.931   8.901 -0.5634 -0.2005 -0.6591
 6454SOL     OW30823   0.948   2.252   9.508 -0.0732 -0.4568  0.3560
 6454SOL    HW130824   0.872   2.194   9.498 -0.2285 -0.1181 -0.4722
 6454SOL    HW230825   0.920   2.301   9.586  1.9185  1.4392 -0.1211
 6455SOL     OW30826   2.949   3.834  12.661 -0.4713  0.2461 -0.2518
 6455SOL    HW130827   3.008   3.783  12.605 -1.1421 -0.5058 -0.2656
 6455SOL    HW230828   3.012   3.885  12.712 -0.3299 -0.4338  0.2495
 6456SOL     OW30829   0.382   4.357  10.900  1.0214  0.2718 -0.1181
 6456SOL    HW130830   0.348   4.293  10.963 -1.0584 -0.7486 -2.2642
 6456SOL    HW230831   0.400   4.291  10.834 -0.1249 -0.2850  0.1151
 6457SOL     OW30832   3.438   2.461  13.302 -0.7999 -0.2647  0.0557
 6457SOL    HW130833   3.408   2.552  13.298  1.6753  0.6228  1.5053
 6457SOL    HW230834   3.434   2.462  13.398  0.5913 -0.5587  0.1204
 6458SOL     OW30835   3.541   0.544   0.145  0.0763  0.0764  0.1462
 6458SOL    HW130836   3.540   0.464   0.198 -0.5477  0.0077  0.0327
 6458SOL    HW230837   3.451   0.538   0.113  0.2509 -0.5547 -0.2302
 6459SOL     OW30838   3.200   1.288   9.221 -0.0363 -0.3498  0.5806
 6459SOL    HW130839   3.262   1.359   9.241 -0.0507  0.2369 -1.4472
 6459SOL    HW230840   3.163   1.277   9.309 -1.9800  0.4386 -0.1366
 6460SOL     OW30841   0.800   0.277   1.847  0.0997  0.0531  0.1579
 6460SOL    HW130842   0.810   0.187   1.817 -1.4271  0.4448 -1.5746
 6460SOL    HW230843   0.840   0.320   1.771 -0.1355 -1.8509 -1.0443
 6461SOL     OW30844   3.507   0.202   7.480  0.1492  0.1714  0.4928
 6461SOL    HW130845   3.495   0.220   7.387  0.3405 -0.9052  0.2606
 6461SOL    HW230846   3.585   0.145   7.481  1.6190  2.1821  1.1076
 6462SOL     OW30847   1.588   0.463   4.509  0.9739 -0.4326  0.1174
 6462SOL    HW130848   1.587   0.547   4.463  0.3251 -0.0755  0.7770
 6462SOL    HW230849   1.503   0.426   4.485  0.9742 -0.7372  0.5998
 6463SOL     OW30850   1.053   0.419   4.600 -0.0093 -0.0328 -0.4205
 6463SOL    HW130851   0.983   0.479   4.626  1.6649  1.3645  0.8631
 6463SOL    HW230852   1.036   0.345   4.658 -0.5931  0.2078 -0.2826
 6464SOL     OW30853   1.009   0.538   2.129 -0.1524 -0.7558  0.3773
 6464SOL    HW130854   0.973   0.555   2.042  2.2707  2.6439 -0.0050
 6464SOL    HW230855   1.095   0.578   2.117 -0.8237  0.8693  0.9247
 6465SOL     OW30856   2.623   3.582   2.531 -0.1928 -0.0701  0.5102
 6465SOL    HW130857   2.687   3.547   2.594 -0.0852 -0.5274  0.1542
 6465SOL    HW230858   2.689   3.618   2.471 -3.5309  2.8653 -1.3446
 6466SOL     OW30859   2.610   1.375   8.948 -0.2071  0.5322  0.6699
 6466SOL    HW130860   2.564   1.397   8.867  1.2631  2.3532  0.3332
 6466SOL    HW230861   2.659   1.295   8.928  0.5820  0.7199  1.8299
 6467SOL     OW30862   3.664   1.220   3.827  0.6327  0.0619  0.1463
 6467SOL    HW130863   3.725   1.260   3.766  0.5126  0.3455  0.2148
 6467SOL    HW230864   3.713   1.217   3.909 -0.3299  2.7876  0.8211
 6468SOL     OW30865   1.737   3.979   9.573  0.3881  0.1470  0.0444
 6468SOL    HW130866   1.759   4.072   9.570  0.9595 -0.0268 -1.1580
 6468SOL    HW230867   1.705   3.967   9.663  1.0780 -2.0562  0.0056
 6469SOL     OW30868   2.627   1.609  15.368 -0.1877 -0.5637 -0.1452
 6469SOL    HW130869   2.721   1.623  15.358  0.0964 -1.4581  1.3808
 6469SOL    HW230870   2.640   1.552  15.444  2.1716  1.0946  0.6819
 6470SOL     OW30871   0.127   3.911  11.956  0.6107 -0.2042  0.1641
 6470SOL    HW130872   0.036   3.932  11.935  0.4884 -2.3188 -1.3392
 6470SOL    HW230873   0.125   3.891  12.050  1.3946  0.9824  0.4346
 6471SOL     OW30874   1.847   0.792  16.878 -0.1135 -0.2455  0.2121
 6471SOL    HW130875   1.839   0.786  16.973 -2.3099  0.3925  0.0646
 6471SOL    HW230876   1.901   0.870  16.874  0.5594 -0.7848 -1.0358
 6472SOL     OW30877   4.075   3.947  14.584 -0.1368 -0.3415  0.3989
 6472SOL    HW130878   4.023   3.967  14.662  0.3366  0.5183  0.4895
 6472SOL    HW230879   4.142   3.885  14.614  2.2147  1.5260 -1.0068
 6473SOL     OW30880   0.845   0.960  13.490 -0.7766  0.2653  0.4350
 6473SOL    HW130881   0.857   0.909  13.570 -1.3754  0.2979  0.5500
 6473SOL    HW230882   0.779   0.903  13.449  0.7598 -0.9285 -0.3549
 6474SOL     OW30883   3.491   3.939   4.669  0.3497  0.5296  0.1935
 6474SOL    HW130884   3.429   3.920   4.740  0.3993 -2.8147 -0.6301
 6474SOL    HW230885   3.539   3.856   4.671 -1.6480 -0.6089  0.4244
 6475SOL     OW30886   3.244   3.112   9.884 -0.0655 -0.2755  0.4582
 6475SOL    HW130887   3.249   3.124   9.789 -2.5424 -0.5208  0.2940
 6475SOL    HW230888   3.184   3.182   9.910 -1.1481 -0.6061 -1.1556
 6476SOL     OW30889   0.825   3.221   3.656 -0.2752  0.1397  0.5833
 6476SOL    HW130890   0.781   3.283   3.597 -0.0742  1.0485  1.3842
 6476SOL    HW230891   0.917   3.231   3.631 -0.1069  0.2072  1.2408
 6477SOL     OW30892   4.246   3.502  14.963  0.1024 -0.3443  0.0533
 6477SOL    HW130893   4.160   3.531  14.995  1.0509  2.7330 -0.2230
 6477SOL    HW230894   4.300   3.565  15.010  0.6249  1.1532 -2.5615
 6478SOL     OW30895   3.556   4.538   4.877  0.3480  0.0509 -0.0701
 6478SOL    HW130896   3.649   4.522   4.890  0.0785 -1.0594  0.5774
 6478SOL    HW230897   3.565   4.632   4.866 -1.4107  0.2527  0.1153
 6479SOL     OW30898   4.105   3.350   3.784  0.2176  0.2120 -0.5213
 6479SOL    HW130899   4.090   3.286   3.715  0.2049 -0.2675 -0.0807
 6479SOL    HW230900   4.114   3.295   3.862  1.1686  1.5014  0.2806
 6480SOL     OW30901   2.077   1.995   4.240  0.5738 -0.2687 -0.3870
 6480SOL    HW130902   2.013   1.964   4.304  0.8252  0.3525  0.1600
 6480SOL    HW230903   2.130   2.054   4.293 -0.7186 -0.1545  0.7796
 6481SOL     OW30904   3.316   4.690   6.326  0.1228  0.6703  0.0400
 6481SOL    HW130905   3.407   4.682   6.355 -0.1150 -2.4193 -0.1018
 6481SOL    HW230906   3.337   4.671   6.235 -0.3557 -1.6097  0.4050
 6482SOL     OW30907   1.764   1.031   3.504 -0.0555 -0.0793  0.4909
 6482SOL    HW130908   1.799   1.064   3.587 -0.7005  1.8622 -0.0137
 6482SOL    HW230909   1.843   1.048   3.453 -0.5135  2.9977  0.7892
 6483SOL     OW30910   2.619   2.580   6.343 -0.4452 -0.7413 -0.0626
 6483SOL    HW130911   2.528   2.560   6.366 -0.8288  0.2462 -0.6766
 6483SOL    HW230912   2.635   2.639   6.417 -2.1463  0.4696 -0.6637
 6484SOL     OW30913   0.043   4.558   8.577 -0.2925  0.3656  0.2838
 6484SOL    HW130914   0.010   4.475   8.609 -3.8316  2.2382  1.4683
 6484SOL    HW230915   0.049   4.536   8.484  0.2671  0.8530  0.2037
 6485SOL     OW30916   1.223   0.592   0.691  0.1731  0.8303  0.7588
 6485SOL    HW130917   1.155   0.528   0.713  1.2488 -0.5812 -0.0302
 6485SOL    HW230918   1.289   0.558   0.751 -0.2427  0.9828  1.3125
 6486SOL     OW30919   3.802   2.601   8.136 -0.2310  0.5526 -0.1712
 6486SOL    HW130920   3.735   2.625   8.200 -1.0354 -0.9202 -0.4607
 6486SOL    HW230921   3.885   2.629   8.174  1.4707 -0.8186 -2.8863
 6487SOL     OW30922   2.409   1.193   8.521  0.3107  0.4751  0.1498
 6487SOL    HW130923   2.499   1.205   8.489  0.0277  0.6743 -0.5536
 6487SOL    HW230924   2.416   1.135   8.597  2.2881 -1.1300 -1.2365
 6488SOL     OW30925   2.257   1.713   4.146 -0.3501  0.0028  0.1522
 6488SOL    HW130926   2.172   1.756   4.155  1.2037  2.9057  0.8715
 6488SOL    HW230927   2.237   1.652   4.075  2.3982 -0.3856 -0.2858
 6489SOL     OW30928   3.403   0.805   8.837 -0.1852  0.5580 -0.3773
 6489SOL    HW130929   3.458   0.873   8.797 -0.2090 -0.4188 -2.0777
 6489SOL    HW230930   3.330   0.853   8.876  0.5020  2.0325 -0.9281
 6490SOL     OW30931   4.126   0.693  14.081 -0.4882  0.4482 -0.1803
 6490SOL    HW130932   4.057   0.692  14.014 -0.5806  1.9433 -0.1107
 6490SOL    HW230933   4.110   0.607  14.120 -2.6790 -0.0584 -2.2026
 6491SOL     OW30934   4.529   2.120   8.794  0.0164 -0.1987 -0.1377
 6491SOL    HW130935   4.443   2.077   8.799 -0.4726  0.6662 -1.1354
 6491SOL    HW230936   4.568   2.067   8.864 -1.7466  1.1843  1.9006
 6492SOL     OW30937   2.242   2.017  10.051 -0.0125  1.1354  0.2998
 6492SOL    HW130938   2.210   2.076  10.119 -0.7674  1.0853 -0.0183
 6492SOL    HW230939   2.291   1.955  10.106 -0.4148  1.7577  1.3672
 6493SOL     OW30940   2.439   1.233   6.543  0.4264 -0.2483  0.7945
 6493SOL    HW130941   2.389   1.152   6.529  0.8071  0.1996 -3.2380
 6493SOL    HW230942   2.417   1.270   6.457  0.4697 -1.5244  0.2445
 6494SOL     OW30943   1.752   0.703   5.852 -0.4199 -0.0226  0.6062
 6494SOL    HW130944   1.759   0.629   5.912  0.7694  0.8741  1.5712
 6494SOL    HW230945   1.735   0.772   5.916  1.2888  1.9463 -1.0771
 6495SOL     OW30946   4.037   0.988   4.058 -0.0266 -0.7109  0.1268
 6495SOL    HW130947   4.070   1.051   4.122  1.8652 -0.1205 -1.4150
 6495SOL    HW230948   4.028   0.906   4.106 -1.9684  0.1508  1.2218
 6496SOL     OW30949   0.526   4.217   2.057  0.5405  0.1036 -0.3638
 6496SOL    HW130950   0.583   4.234   1.982 -1.6786 -0.2607 -2.1120
 6496SOL    HW230951   0.595   4.227   2.123  1.1711  1.7886 -1.2610
 6497SOL     OW30952   3.337   1.132   5.883  0.0657  0.4882  0.7173
 6497SOL    HW130953   3.262   1.116   5.826 -0.1493 -0.3053  1.2199
 6497SOL    HW230954   3.360   1.041   5.904  1.3623  0.5322 -0.5126
 6498SOL     OW30955   4.649   0.655   5.831 -0.0404 -0.1426 -0.1686
 6498SOL    HW130956   4.577   0.592   5.826 -0.5026  0.2541  1.4849
 6498SOL    HW230957   4.712   0.611   5.774  1.5761  2.3382 -0.3391
 6499SOL     OW30958   3.054   2.118   4.751  0.0870 -0.8011 -0.3295
 6499SOL    HW130959   3.061   2.093   4.659 -1.7068 -0.1479 -0.6310
 6499SOL    HW230960   3.000   2.043   4.777  1.2507 -1.8323 -0.8385
 6500SOL     OW30961   1.371   1.680  16.991 -0.8086  0.2219 -0.3760
 6500SOL    HW130962   1.359   1.600  17.042  1.9772 -0.2342 -0.3999
 6500SOL    HW230963   1.381   1.744  17.062  0.2365  1.0698 -1.2945
 6501SOL     OW30964   3.486   0.224   7.216 -0.5550  0.1508 -0.1587
 6501SOL    HW130965   3.540   0.299   7.194 -2.4080  1.0166 -1.8212
 6501SOL    HW230966   3.519   0.147   7.169 -1.8572  0.0978 -0.9880
 6502SOL     OW30967   3.414   3.298  13.421 -0.0274  0.2342  0.2113
 6502SOL    HW130968   3.481   3.270  13.483  1.3864 -1.4198 -2.0836
 6502SOL    HW230969   3.461   3.377  13.393 -0.4516  0.1042 -0.8539
 6503SOL     OW30970   3.220   2.686   5.866 -0.2413  0.0241 -0.1792
 6503SOL    HW130971   3.255   2.607   5.825 -3.5028 -0.4426 -2.0187
 6503SOL    HW230972   3.248   2.756   5.807 -2.3280  0.6115 -0.4625
 6504SOL     OW30973   0.387   3.200   7.635  0.6456  0.5913  0.3325
 6504SOL    HW130974   0.377   3.289   7.667 -0.1596 -0.0516  1.8547
 6504SOL    HW230975   0.345   3.147   7.703 -2.2860  1.4372 -0.8183
 6505SOL     OW30976   0.529   3.282   8.620 -0.6398  0.0547 -0.4013
 6505SOL    HW130977   0.468   3.333   8.567 -0.0539  1.4482  0.2623
 6505SOL    HW230978   0.600   3.340   8.648  0.6442 -0.7315 -2.0390
 6506SOL     OW30979   2.712   0.621   4.004  0.3887  0.3941  0.0886
 6506SOL    HW130980   2.708   0.707   3.962  0.4721  1.1352  1.6150
 6506SOL    HW230981   2.802   0.623   4.036  1.5074 -0.5725 -2.9981
 6507SOL     OW30982   0.223   1.126   7.677 -0.5618 -0.0250  0.0688
 6507SOL    HW130983   0.263   1.207   7.708  1.5229 -0.7318 -0.7572
 6507SOL    HW230984   0.297   1.076   7.643  1.2566  1.2746  2.1722
 6508SOL     OW30985   4.652   0.686  11.195  0.1320  0.2625 -0.1436
 6508SOL    HW130986   4.668   0.771  11.155  0.1819  0.4349  0.2422
 6508SOL    HW230987   4.587   0.705  11.263  0.8320  2.0648  0.0109
 6509SOL     OW30988   4.128   2.540  14.543  0.0961  1.0406 -0.7530
 6509SOL    HW130989   4.089   2.460  14.579  2.1310  0.7084  0.6838
 6509SOL    HW230990   4.058   2.567  14.483 -1.0791  0.4163  0.3284
 6510SOL     OW30991   3.958   1.391  12.599 -0.0591 -0.1679  0.0666
 6510SOL    HW130992   4.050   1.420  12.603 -0.2311  0.5070 -0.8088
 6510SOL    HW230993   3.924   1.410  12.687 -2.5130  1.8911 -1.3248
 6511SOL     OW30994   4.143   1.045   8.069  0.1797 -0.4518  0.0367
 6511SOL    HW130995   4.086   0.994   8.012 -0.0049  0.6295 -0.7422
 6511SOL    HW230996   4.143   0.983   8.142 -2.4381  2.2964  2.3658
 6512SOL     OW30997   0.589   1.574   2.701  0.1594  0.0120 -0.2137
 6512SOL    HW130998   0.516   1.514   2.685  0.7160 -0.3719 -1.3217
 6512SOL    HW230999   0.540   1.648   2.738  1.0987  1.1865 -1.3389
 6513SOL     OW31000   4.213   3.586  11.706  0.1384 -0.1925 -0.0382
 6513SOL    HW131001   4.229   3.517  11.769 -4.3126 -0.8022  0.4465
 6513SOL    HW231002   4.298   3.631  11.706  0.0311  0.0130 -0.9393
 6514SOL     OW31003   4.224   0.521   8.296  0.8065 -0.0634 -0.7912
 6514SOL    HW131004   4.135   0.545   8.320  1.5854  0.0343  2.0147
 6514SOL    HW231005   4.277   0.578   8.353 -1.2804  0.1537  0.9333
 6515SOL     OW31006   2.619   3.903  10.281  0.1866  0.2427 -0.5095
 6515SOL    HW131007   2.666   3.969  10.331  0.4409  0.2575 -0.7633
 6515SOL    HW231008   2.526   3.918  10.300 -0.2707  0.2390 -2.7023
 6516SOL     OW31009   4.302   0.236   7.338 -0.1373  0.3572 -0.4901
 6516SOL    HW131010   4.222   0.288   7.350 -0.3670 -0.1979  0.3507
 6516SOL    HW231011   4.366   0.305   7.354  0.8811  0.0414 -3.1650
 6517SOL     OW31012   1.800   0.749   8.968  0.0354 -0.3067  1.0335
 6517SOL    HW131013   1.832   0.750   8.878 -1.9089  0.5141  0.3441
 6517SOL    HW231014   1.725   0.690   8.955  1.0532 -1.6851  1.4775
 6518SOL     OW31015   0.471   2.377   6.955 -0.2102 -0.2495 -0.4467
 6518SOL    HW131016   0.554   2.374   6.906  0.8895  0.1552  1.3863
 6518SOL    HW231017   0.498   2.406   7.042 -0.5202 -0.6486 -0.2165
 6519SOL     OW31018   0.035   0.778   6.072  0.4663 -0.7171  0.9498
 6519SOL    HW131019   0.020   0.854   6.015 -1.9086 -1.4444  0.5923
 6519SOL    HW231020   0.013   0.702   6.018  1.5064  0.5394 -1.2138
 6520SOL     OW31021   0.906   1.881   5.102 -0.1386  0.5948  0.1101
 6520SOL    HW131022   0.901   1.902   5.196  2.2294 -0.9493  0.5734
 6520SOL    HW231023   0.940   1.964   5.069  1.2474  1.1391  2.8869
 6521SOL     OW31024   0.360   2.763  16.355  0.3818 -0.1273  0.0838
 6521SOL    HW131025   0.409   2.743  16.276 -1.0012  0.1889 -0.8577
 6521SOL    HW231026   0.433   2.769  16.416 -0.1992 -1.7704  0.9472
 6522SOL     OW31027   0.370   1.628   9.063 -0.1738  0.2064  0.5228
 6522SOL    HW131028   0.404   1.548   9.102 -3.3387 -2.6711 -2.5803
 6522SOL    HW231029   0.318   1.667   9.133  1.3750 -1.0985  2.3726
 6523SOL     OW31030   0.192   2.285   6.997  0.3202  0.3837 -0.1395
 6523SOL    HW131031   0.285   2.290   6.973  0.3330  0.9853  0.0263
 6523SOL    HW231032   0.161   2.327   6.917  2.2890  0.9172 -0.6347
 6524SOL     OW31033   3.629   3.314  11.037 -0.1910 -0.2456  0.0205
 6524SOL    HW131034   3.676   3.378  11.090 -2.4303  2.2200 -1.0342
 6524SOL    HW231035   3.546   3.302  11.082 -0.1512  0.5644  0.3084
 6525SOL     OW31036   3.116   2.200   6.341  0.1003 -0.1284  0.3792
 6525SOL    HW131037   3.185   2.185   6.277 -0.3781 -0.8532  0.0417
 6525SOL    HW231038   3.083   2.111   6.344  0.1997 -0.1633  0.4469
 6526SOL     OW31039   2.283   2.087  17.015  0.7734  1.0289  0.9140
 6526SOL    HW131040   2.188   2.078  17.007  0.6604  2.3594  0.7055
 6526SOL    HW231041   2.307   2.087  16.922  1.5350  1.1282  1.1153
 6527SOL     OW31042   1.786   2.899  10.583 -0.2712  0.1878 -0.6998
 6527SOL    HW131043   1.830   2.978  10.615  1.2582 -1.2309  0.6632
 6527SOL    HW231044   1.767   2.851  10.663 -0.8754 -1.1121 -1.6203
 6528SOL     OW31045   1.989   3.378  13.145  0.0435 -0.1034  0.0342
 6528SOL    HW131046   1.938   3.400  13.067 -1.6445  0.3779  1.2650
 6528SOL    HW231047   2.004   3.463  13.185 -1.5605  1.4071 -2.5721
 6529SOL     OW31048   0.229   1.651   7.687 -0.5675 -0.0434  0.1369
 6529SOL    HW131049   0.294   1.613   7.747  0.3120  1.4551  0.1271
 6529SOL    HW231050   0.199   1.574   7.638 -1.1043 -0.7227  1.5155
 6530SOL     OW31051   3.007   2.958   3.107 -0.2887  0.2045 -0.0708
 6530SOL    HW131052   3.034   3.042   3.071 -1.1092  0.5072  0.0090
 6530SOL    HW231053   2.912   2.966   3.098 -0.4438 -1.3869  0.1651
 6531SOL     OW31054   2.297   2.963  12.924 -0.7941  0.6131  0.1420
 6531SOL    HW131055   2.338   2.943  12.840 -1.7774 -1.8680  0.2709
 6531SOL    HW231056   2.244   3.039  12.897  0.1226  1.5063  0.8432
 6532SOL     OW31057   4.321   2.859  15.164  0.3356 -0.0560 -0.1548
 6532SOL    HW131058   4.254   2.872  15.097  1.2626  2.2711 -0.6227
 6532SOL    HW231059   4.272   2.896  15.238 -0.8355  0.5499 -1.2259
 6533SOL     OW31060   1.362   4.216   6.286 -0.0515 -0.6970 -0.1412
 6533SOL    HW131061   1.430   4.277   6.256  0.6111 -1.5716 -0.3939
 6533SOL    HW231062   1.326   4.251   6.368 -2.2367 -1.5103 -0.7412
 6534SOL     OW31063   0.318   1.961  10.646 -0.3985 -0.3921  0.3002
 6534SOL    HW131064   0.304   1.904  10.721  0.5776 -1.2291 -0.1573
 6534SOL    HW231065   0.233   1.981  10.606  1.5527  1.0302 -3.1290
 6535SOL     OW31066   4.329   1.649   0.234  0.6499 -0.0448  0.0606
 6535SOL    HW131067   4.422   1.654   0.257  0.6769  1.9461 -0.4766
 6535SOL    HW231068   4.318   1.706   0.158 -0.2435  2.6895  2.2487
 6536SOL     OW31069   4.369   1.294   2.606 -0.4047 -0.2647 -0.5926
 6536SOL    HW131070   4.414   1.366   2.650  0.4012 -1.1944  0.1236
 6536SOL    HW231071   4.362   1.316   2.513  0.1743  1.0123 -0.3320
 6537SOL     OW31072   0.178   4.522  15.187  0.1668  0.1303 -0.7197
 6537SOL    HW131073   0.254   4.561  15.144  0.2710 -0.6328 -1.2353
 6537SOL    HW231074   0.210   4.441  15.226  0.0290 -0.8068 -2.5541
 6538SOL     OW31075   3.198   1.116   8.204  0.2480 -0.1447 -0.0095
 6538SOL    HW131076   3.142   1.098   8.280  0.0702 -1.9661 -0.5781
 6538SOL    HW231077   3.139   1.175   8.155  0.5957 -0.4941 -0.8433
 6539SOL     OW31078   1.944   3.285   6.892  0.2791 -0.0320  0.0044
 6539SOL    HW131079   1.982   3.198   6.884 -0.1597 -0.1869 -0.4663
 6539SOL    HW231080   1.854   3.282   6.858  0.5620 -0.1806 -0.7244
 6540SOL     OW31081   2.595   1.626   4.433  0.0117  1.0687  0.0597
 6540SOL    HW131082   2.525   1.686   4.458  0.7891  2.2130 -0.5690
 6540SOL    HW231083   2.588   1.624   4.338 -1.9777  0.2795  0.2199
 6541SOL     OW31084   0.508   3.185   1.861  0.3794  0.7541 -0.2087
 6541SOL    HW131085   0.546   3.243   1.927  1.6179 -0.9071  0.5556
 6541SOL    HW231086   0.475   3.248   1.797 -0.9065  1.2276  0.9086
 6542SOL     OW31087   2.620   3.169   0.250 -0.2282  0.2266  0.9404
 6542SOL    HW131088   2.580   3.099   0.301 -0.6071 -2.8227 -3.5377
 6542SOL    HW231089   2.703   3.174   0.297  0.5337 -0.6043 -0.3032
 6543SOL     OW31090   4.196   4.525   1.728  0.3063 -0.1021 -0.5228
 6543SOL    HW131091   4.162   4.470   1.657  0.9355 -1.2195  0.0493
 6543SOL    HW231092   4.210   4.456   1.793  0.8135  1.0662  0.6051
 6544SOL     OW31093   1.174   3.305  14.679 -0.2120  0.7209 -0.1141
 6544SOL    HW131094   1.208   3.311  14.590 -2.7091 -0.5125 -1.1622
 6544SOL    HW231095   1.245   3.350  14.725  0.3604 -1.3269  1.0096
 6545SOL     OW31096   0.198   2.904   2.082 -0.6478 -0.1841  0.1865
 6545SOL    HW131097   0.154   2.855   2.151  0.8689  0.6376  1.7479
 6545SOL    HW231098   0.217   2.838   2.016  1.3887  1.5469 -0.9834
 6546SOL     OW31099   1.956   3.143  10.712  0.0221  0.0628  0.3876
 6546SOL    HW131100   2.021   3.133  10.781  1.4807 -2.4642 -1.3574
 6546SOL    HW231101   1.881   3.192  10.746  0.4728  1.5780 -0.7742
 6547SOL     OW31102   0.816   0.316  11.394 -0.5125 -0.5239  0.1255
 6547SOL    HW131103   0.845   0.287  11.481  0.1802  0.9805  0.4090
 6547SOL    HW231104   0.755   0.381  11.429 -1.4159 -0.8865 -0.8060
 6548SOL     OW31105   2.236   4.533   3.310 -0.1870 -0.2012 -0.0317
 6548SOL    HW131106   2.160   4.478   3.325 -0.3570 -0.3184 -1.2689
 6548SOL    HW231107   2.203   4.623   3.309  2.5651  0.8378  0.0424
 6549SOL     OW31108   0.708   0.573   8.377 -0.4102 -0.5060  0.7320
 6549SOL    HW131109   0.691   0.599   8.287  0.0013  4.0593  1.9893
 6549SOL    HW231110   0.762   0.646   8.407 -0.9570  0.9487 -1.8106
 6550SOL     OW31111   2.204   4.592   5.782  0.4736  0.1800  0.1903
 6550SOL    HW131112   2.285   4.540   5.786  0.8020  0.4768 -2.5537
 6550SOL    HW231113   2.157   4.522   5.738 -0.5826  0.2023  1.2851
 6551SOL     OW31114   2.325   1.320   2.088  0.2319  1.0205 -0.1943
 6551SOL    HW131115   2.331   1.360   2.001 -0.4323  0.7175 -0.3797
 6551SOL    HW231116   2.354   1.235   2.057 -0.8540 -0.1083  1.9022
 6552SOL     OW31117   1.763   1.958   3.778  0.2699  0.5394 -0.2774
 6552SOL    HW131118   1.717   2.029   3.732  2.0904  0.8196 -1.6693
 6552SOL    HW231119   1.744   1.879   3.728 -0.3769  1.8618 -2.1333
 6553SOL     OW31120   0.241   0.452   3.967 -0.2953 -0.3889  0.2201
 6553SOL    HW131121   0.238   0.475   3.874 -3.0501 -1.7243 -0.0301
 6553SOL    HW231122   0.288   0.369   3.959 -0.7798 -0.5775 -0.7788
 6554SOL     OW31123   4.589   3.041  13.523 -0.0161  0.2147 -0.7179
 6554SOL    HW131124   4.598   3.104  13.451 -0.9518  0.2900 -0.7775
 6554SOL    HW231125   4.498   3.050  13.553 -0.0429  0.2387 -0.8059
 6555SOL     OW31126   0.084   1.218   4.559  0.1451 -0.0839 -0.3118
 6555SOL    HW131127   0.109   1.187   4.646 -1.7507  1.1120  0.6658
 6555SOL    HW231128   0.073   1.311   4.578 -0.3282  0.2920 -2.3300
 6556SOL     OW31129   0.667   4.234  13.230 -0.7041 -0.5941 -0.1214
 6556SOL    HW131130   0.701   4.159  13.180 -1.7418 -0.3717 -1.1614
 6556SOL    HW231131   0.740   4.271  13.279 -1.0547 -1.6230  1.1815
 6557SOL     OW31132   0.776   3.887  14.710  0.0279 -0.3092  0.3897
 6557SOL    HW131133   0.709   3.897  14.777 -1.5242 -2.5422 -0.8553
 6557SOL    HW231134   0.745   3.811  14.661  0.7443  1.8234 -3.3076
 6558SOL     OW31135   2.009   4.088   8.668  0.2721  1.1373 -0.1023
 6558SOL    HW131136   2.098   4.120   8.653  0.8671 -0.4401  0.0752
 6558SOL    HW231137   2.028   4.051   8.754 -1.9668  2.0656  0.8006
 6559SOL     OW31138   0.782   4.682   4.986 -0.2019  0.0986 -0.5748
 6559SOL    HW131139   0.766   4.606   5.041  1.1323  0.0223 -0.2839
 6559SOL    HW231140   0.762   4.648   4.899  1.9540 -1.8268 -0.3068
 6560SOL     OW31141   0.640   4.524  14.839  0.1745  0.1163  0.2817
 6560SOL    HW131142   0.620   4.446  14.891 -0.6191  1.0863  1.4408
 6560SOL    HW231143   0.578   4.528  14.766  0.4813 -0.0015  0.0168
 6561SOL     OW31144   4.341   3.951  14.918 -0.2324 -0.2102 -0.5079
 6561SOL    HW131145   4.301   4.038  14.909 -2.2072 -1.0803 -0.2737
 6561SOL    HW231146   4.268   3.902  14.956 -0.0123  0.0881  0.3091
 6562SOL     OW31147   4.661   1.258   9.688 -0.2110  0.0518 -0.7828
 6562SOL    HW131148   4.654   1.249   9.592 -0.3657  0.4575 -0.8088
 6562SOL    HW231149   4.607   1.337   9.683  0.7733  0.7953  0.2957
 6563SOL     OW31150   1.584   2.019   3.331 -0.6609  0.3874  0.2816
 6563SOL    HW131151   1.516   1.963   3.294 -0.6535  0.2604  0.4614
 6563SOL    HW231152   1.644   1.948   3.352 -1.6580 -0.3807  0.5083
 6564SOL     OW31153   1.825   3.284  15.444  0.0818 -0.0389  0.8938
 6564SOL    HW131154   1.890   3.352  15.461  1.1615 -0.6766 -0.7260
 6564SOL    HW231155   1.775   3.284  15.526 -1.3164  2.9765  0.0629
 6565SOL     OW31156   1.184   3.972   8.926 -0.2530  0.0598 -0.0178
 6565SOL    HW131157   1.239   4.014   8.992 -1.4020  0.5778  0.6008
 6565SOL    HW231158   1.154   3.900   8.981 -0.5506 -0.1396 -0.4400
 6566SOL     OW31159   0.906   1.333   5.714  0.1015  0.3119  0.1422
 6566SOL    HW131160   0.971   1.264   5.725  0.6001  0.0609 -4.1075
 6566SOL    HW231161   0.896   1.338   5.619 -0.3244 -0.7252  0.1351
 6567SOL     OW31162   4.331   2.238   7.586 -0.1768  0.3988 -0.6565
 6567SOL    HW131163   4.308   2.327   7.612  1.6405  0.2546  1.5052
 6567SOL    HW231164   4.380   2.205   7.661 -0.5724  0.8447 -0.2075
 6568SOL     OW31165   1.226   4.117   8.579 -0.1247  0.0859 -0.6357
 6568SOL    HW131166   1.218   4.195   8.634 -2.6488  1.4049 -2.8878
 6568SOL    HW231167   1.247   4.049   8.643 -2.7737 -2.0997 -2.1024
 6569SOL     OW31168   3.510   3.770   5.656  0.1044  0.4984 -0.1388
 6569SOL    HW131169   3.515   3.675   5.666 -1.0501  0.7351  2.7928
 6569SOL    HW231170   3.548   3.772   5.568 -0.6654  0.2814 -0.4704
 6570SOL     OW31171   4.656   4.643  16.040  0.0021 -0.2614 -0.1348
 6570SOL    HW131172   4.676   4.605  15.955  0.8043 -1.8625  0.7732
 6570SOL    HW231173   4.629   0.013  16.016  0.4543 -1.1928 -4.1638
 6571SOL     OW31174   1.472   1.849   0.009  0.2587  0.5685 -0.2974
 6571SOL    HW131175   1.431   1.887   0.087  2.2746 -0.0830  1.0773
 6571SOL    HW231176   1.454   1.757   0.027  1.3829  0.1122 -1.5528
 6572SOL     OW31177   0.954   3.938   6.676  0.1578 -0.2135  0.3592
 6572SOL    HW131178   0.863   3.964   6.667  0.7074  1.9267  0.9992
 6572SOL    HW231179   0.947   3.895   6.762  2.1593  1.9745  1.6271
 6573SOL     OW31180   0.466   3.195  15.696 -0.0113  0.3461  0.4094
 6573SOL    HW131181   0.544   3.218  15.747  0.8681 -0.3337 -0.6372
 6573SOL    HW231182   0.519   3.169  15.621 -1.7684 -0.4232 -0.5646
 6574SOL     OW31183   1.510   2.050  16.609 -0.1802  0.2285  0.0069
 6574SOL    HW131184   1.497   2.064  16.703 -2.3906  1.6169 -0.5100
 6574SOL    HW231185   1.601   2.081  16.602 -0.1536  0.0300 -0.4982
 6575SOL     OW31186   1.720   0.026   8.704  0.4867 -1.0365  0.3643
 6575SOL    HW131187   1.798   4.697   8.729  0.6402 -0.9055  0.1354
 6575SOL    HW231188   1.649   4.692   8.739  0.4694 -1.4679 -0.3394
 6576SOL     OW31189   3.673   4.616   5.575 -0.2539 -0.3136  0.0566
 6576SOL    HW131190   3.586   4.618   5.613  0.1842 -3.2965  1.2452
 6576SOL    HW231191   3.642   4.599   5.486  0.4863  0.9219 -0.4410
 6577SOL     OW31192   3.985   0.096   5.105 -0.2265  0.1071  0.2740
 6577SOL    HW131193   4.026   0.069   5.023  0.3692 -2.2185  1.3433
 6577SOL    HW231194   3.961   0.014   5.147  0.2305  0.4330  1.1727
 6578SOL     OW31195   0.119   2.110   8.477 -0.6421  0.7835 -0.2216
 6578SOL    HW131196   0.174   2.122   8.399 -0.8695 -1.0093 -0.6626
 6578SOL    HW231197   0.165   2.163   8.541 -1.5420  0.0229  1.0547
 6579SOL     OW31198   0.770   4.427   3.604  0.3773  0.4007  0.2449
 6579SOL    HW131199   0.781   4.522   3.606 -0.5685  0.5686 -1.9510
 6579SOL    HW231200   0.733   4.424   3.516  1.6259  1.3523 -0.3060
 6580SOL     OW31201   2.952   3.810  17.149  0.0094 -0.3140  0.1968
 6580SOL    HW131202   2.944   3.799  17.054  1.1528  0.6231 -0.0158
 6580SOL    HW231203   2.859   3.799  17.170  0.3409 -0.8721  1.4035
 6581SOL     OW31204   2.301   2.188   0.045 -0.1906 -0.0639 -0.0494
 6581SOL    HW131205   2.316   2.134   0.122 -1.5441  1.2013  1.1004
 6581SOL    HW231206   2.207   2.207   0.047 -0.2966 -0.4660 -1.4996
 6582SOL     OW31207   1.163   3.592   1.856 -0.0078  0.4822 -0.3540
 6582SOL    HW131208   1.174   3.497   1.857  1.9129  0.7055 -0.1461
 6582SOL    HW231209   1.069   3.606   1.845 -0.2819 -0.9384  0.1887
 6583SOL     OW31210   2.708   2.469   4.017 -0.8152  0.3172 -0.2232
 6583SOL    HW131211   2.772   2.525   3.973 -0.4689 -0.6465 -0.9408
 6583SOL    HW231212   2.754   2.386   4.003 -0.8847  0.1511  0.5538
 6584SOL     OW31213   0.502   2.909   5.526 -0.0664  0.5679 -0.1415
 6584SOL    HW131214   0.513   2.982   5.587  1.8467  1.4738 -1.5466
 6584SOL    HW231215   0.465   2.848   5.588  0.5667 -0.9106 -1.2115
 6585SOL     OW31216   1.695   3.191   6.809  0.1707  0.0725  0.4541
 6585SOL    HW131217   1.685   3.177   6.715  1.0212  1.9979  0.0826
 6585SOL    HW231218   1.653   3.109   6.837 -2.0597  0.3432 -2.1480
 6586SOL     OW31219   4.022   4.670   1.233 -0.7986  0.2074  0.1437
 6586SOL    HW131220   4.022   4.584   1.276 -3.3553 -0.8568 -1.9749
 6586SOL    HW231221   4.114   4.693   1.244 -0.3853 -0.4760 -1.8516
 6587SOL     OW31222   0.901   0.888   6.201 -0.6666 -0.1301 -0.2896
 6587SOL    HW131223   0.861   0.881   6.115  0.7418  1.8995 -1.0895
 6587SOL    HW231224   0.972   0.948   6.179  0.1934 -0.9735  0.1519
 6588SOL     OW31225   3.637   0.518   6.243 -0.0460 -0.1962 -0.3751
 6588SOL    HW131226   3.697   0.577   6.289  1.0552 -0.8900 -0.9074
 6588SOL    HW231227   3.696   0.484   6.176  0.5127 -1.1441  0.5938
 6589SOL     OW31228   1.097   1.070   6.155  0.0477 -0.4544  0.5525
 6589SOL    HW131229   1.083   1.157   6.118  1.0829 -0.1503  0.8784
 6589SOL    HW231230   1.192   1.075   6.165 -0.0795  2.1621  0.2899
 6590SOL     OW31231   2.491   0.376  16.291  0.4750  0.5325  0.4922
 6590SOL    HW131232   2.452   0.436  16.354 -0.8987 -0.4516  0.5791
 6590SOL    HW231233   2.582   0.368  16.318  0.1782 -2.6392  0.5764
 6591SOL     OW31234   3.351   0.181   8.504  0.0456  0.2882  0.2659
 6591SOL    HW131235   3.400   0.104   8.474  1.4175  0.5536  1.7916
 6591SOL    HW231236   3.372   0.188   8.597  0.8903  1.3451  0.0005
 6592SOL     OW31237   0.548   1.958   0.127 -0.5589  0.0028  0.5015
 6592SOL    HW131238   0.513   1.869   0.124  1.6496 -0.7848 -1.0991
 6592SOL    HW231239   0.516   1.982   0.214 -1.4930 -1.3382  0.5255
 6593SOL     OW31240   0.498   0.704   4.899  0.4947  0.5650  0.2927
 6593SOL    HW131241   0.413   0.704   4.943 -0.2183 -1.2625 -1.0722
 6593SOL    HW231242   0.555   0.687   4.974 -0.9234  0.4293  1.3441
 6594SOL     OW31243   0.242   1.379   8.932 -0.4041  0.0502 -0.2367
 6594SOL    HW131244   0.175   1.442   8.958 -2.3798 -2.8555  1.6961
 6594SOL    HW231245   0.227   1.372   8.838 -1.3973 -1.1181  0.0073
 6595SOL     OW31246   1.229   3.065  10.675 -0.2249  0.2415 -0.1803
 6595SOL    HW131247   1.203   3.135  10.735 -0.8400  1.4799 -1.9013
 6595SOL    HW231248   1.316   3.083  10.642 -1.4310  1.8827 -2.4292
 6596SOL     OW31249   2.120   3.875  11.468 -0.6643 -0.5349  0.5108
 6596SOL    HW131250   2.138   3.836  11.554  0.3024 -0.5076  0.3213
 6596SOL    HW231251   2.180   3.825  11.411 -0.1408 -0.8538  1.3445
 6597SOL     OW31252   3.585   1.368   5.348 -0.2203  0.0110 -0.1899
 6597SOL    HW131253   3.660   1.320   5.382 -0.0765 -0.0393 -0.5761
 6597SOL    HW231254   3.536   1.294   5.312  0.5326 -0.0417 -1.0992
 6598SOL     OW31255   1.947   3.523   5.122 -0.7088 -0.0086 -0.9269
 6598SOL    HW131256   1.870   3.481   5.161 -0.7179  1.0395  0.1732
 6598SOL    HW231257   2.004   3.509   5.198 -0.1068  0.7851 -1.2365
 6599SOL     OW31258   3.574   4.409   2.964 -0.0287 -0.1402  0.5500
 6599SOL    HW131259   3.485   4.437   2.980  0.1878  0.3935  0.8149
 6599SOL    HW231260   3.559   4.369   2.878  0.6839  1.6421 -0.4069
 6600SOL     OW31261   4.017   1.682   0.007  0.0190 -0.3798 -0.3330
 6600SOL    HW131262   3.947   1.722  17.635 -1.0040 -1.0430  0.5257
 6600SOL    HW231263   3.972   1.679   0.091  1.5895 -0.7875  0.4883
 6601SOL     OW31264   4.375   0.166   6.006 -0.6636 -0.3727  0.4227
 6601SOL    HW131265   4.399   0.220   6.082 -0.9312  1.6170 -0.8887
 6601SOL    HW231266   4.284   0.145   6.028 -0.4784 -0.5843  0.9959
 6602SOL     OW31267   4.470   3.670  12.073  0.2125  0.8518 -0.3370
 6602SOL    HW131268   4.499   3.618  12.148 -0.4024 -1.5458 -1.7699
 6602SOL    HW231269   4.388   3.632  12.042  0.0832  1.7506 -1.1090
 6603SOL     OW31270   0.208   1.611   3.218 -0.2670 -0.0159  0.3135
 6603SOL    HW131271   0.265   1.597   3.293 -0.9177 -4.7565 -0.0889
 6603SOL    HW231272   0.157   1.685   3.253 -1.2368 -2.3451  3.8391
 6604SOL     OW31273   0.704   3.164   7.769 -0.2208  0.4995  0.1088
 6604SOL    HW131274   0.719   3.072   7.789 -0.6207  0.9551  2.5284
 6604SOL    HW231275   0.629   3.158   7.709  0.2615  0.0618 -0.4537
 6605SOL     OW31276   3.242   2.506   9.707 -0.2223  0.1601  0.1016
 6605SOL    HW131277   3.335   2.527   9.698  0.5379 -2.8763  0.8473
 6605SOL    HW231278   3.212   2.572   9.645  0.3467 -1.2573 -1.6505
 6606SOL     OW31279   1.265   0.055   6.291 -0.2215  0.4731  0.1809
 6606SOL    HW131280   1.273   0.146   6.262  2.9187 -0.6966 -2.6676
 6606SOL    HW231281   1.195   0.017   6.238  0.9367 -2.5815  0.8473
 6607SOL     OW31282   4.394   4.421  15.368 -0.0537  0.4142 -0.6149
 6607SOL    HW131283   4.321   4.403  15.427 -0.9658 -0.2528 -1.9409
 6607SOL    HW231284   4.419   4.509  15.397 -0.0162 -1.0211  3.6211
 6608SOL     OW31285   1.369   3.137   2.489 -0.0263  0.2320 -0.6407
 6608SOL    HW131286   1.382   3.047   2.518  2.0704  0.4592 -0.8518
 6608SOL    HW231287   1.303   3.177   2.545  1.2673  1.0619  0.2966
 6609SOL     OW31288   3.097   1.922  12.096  0.3900 -0.0094 -0.2679
 6609SOL    HW131289   3.011   1.906  12.135  0.9031  0.0238  0.8710
 6609SOL    HW231290   3.099   2.017  12.102 -1.8054  0.1284 -1.6427
 6610SOL     OW31291   3.769   1.848  10.995 -0.3909  0.0918  0.1709
 6610SOL    HW131292   3.743   1.820  10.907 -3.2673 -1.4797  1.5258
 6610SOL    HW231293   3.788   1.756  11.013  1.9114  0.4693 -0.3230
 6611SOL     OW31294   0.252   3.175   1.696 -0.2902 -0.3198 -0.2009
 6611SOL    HW131295   0.244   3.152   1.789 -3.8973 -1.8184 -0.9107
 6611SOL    HW231296   0.306   3.254   1.709 -1.0605  0.3625 -1.1586
 6612SOL     OW31297   0.440   3.730  14.471  0.2759  0.2120  0.1027
 6612SOL    HW131298   0.348   3.702  14.474  0.1433  0.5696 -0.7062
 6612SOL    HW231299   0.423   3.806  14.415  0.0188 -0.7046 -1.0647
 6613SOL     OW31300   2.016   4.303  12.851 -0.2069 -0.2695  0.6021
 6613SOL    HW131301   2.075   4.355  12.796 -0.5558  0.1960  0.6720
 6613SOL    HW231302   2.061   4.297  12.935 -0.1956 -1.6499  0.4934
 6614SOL     OW31303   2.913   2.802   2.400 -0.3429 -0.7140  0.0140
 6614SOL    HW131304   2.937   2.779   2.310  3.5190  0.9430  0.6142
 6614SOL    HW231305   2.933   2.896   2.401  0.5546 -0.8900 -1.5989
 6615SOL     OW31306   0.553   0.696   0.882 -0.2383  0.3032  0.6812
 6615SOL    HW131307   0.512   0.713   0.967 -1.2261  1.1604  0.0254
 6615SOL    HW231308   0.624   0.638   0.907  0.2810  0.0786 -1.2989
 6616SOL     OW31309   1.102   2.520   9.238  0.0282 -0.6474  0.2591
 6616SOL    HW131310   1.023   2.554   9.197 -0.0194 -0.3636  0.5837
 6616SOL    HW231311   1.119   2.444   9.183 -0.0170  0.2376 -0.9688
 6617SOL     OW31312   1.190   2.381  11.968 -0.0922  0.2322 -0.2774
 6617SOL    HW131313   1.204   2.411  11.879 -0.2440 -0.9194 -0.6992
 6617SOL    HW231314   1.242   2.300  11.967  0.1287  0.3789 -0.4653
 6618SOL     OW31315   0.153   1.480  11.589 -0.2858  0.4558 -0.0197
 6618SOL    HW131316   0.110   1.558  11.625 -0.2654 -0.2062  1.4493
 6618SOL    HW231317   0.235   1.469  11.638 -0.9960 -2.3619  0.5502
 6619SOL     OW31318   1.815   3.747   6.532  0.1870  0.0596 -0.0482
 6619SOL    HW131319   1.816   3.795   6.615 -1.6738  0.2232 -0.1184
 6619SOL    HW231320   1.872   3.800   6.477 -0.2100  1.2643  0.7176
 6620SOL     OW31321   2.736   0.116  11.537  0.2685 -0.3253  0.3286
 6620SOL    HW131322   2.654   0.092  11.496 -0.3131  0.1630  1.1941
 6620SOL    HW231323   2.721   0.083  11.626 -1.2889 -1.6030 -0.4197
 6621SOL     OW31324   0.237   0.108  10.528  0.0688  0.5763 -0.0274
 6621SOL    HW131325   0.327   0.077  10.536 -0.0117 -0.2116 -2.2657
 6621SOL    HW231326   0.178   0.033  10.529  1.3193 -0.3927 -0.3705
 6622SOL     OW31327   1.248   2.904   6.951  0.3250  0.4956 -0.2058
 6622SOL    HW131328   1.327   2.886   7.002 -0.6856 -0.8275  0.8863
 6622SOL    HW231329   1.255   2.825   6.897 -1.8419  0.6443 -0.7072
 6623SOL     OW31330   4.090   1.005   9.418 -0.1784 -0.0757  0.1364
 6623SOL    HW131331   4.158   1.072   9.404  0.7018 -1.1408 -0.6712
 6623SOL    HW231332   4.040   1.031   9.341  0.2292  0.8160  0.1709
 6624SOL     OW31333   4.240   4.637   3.994 -0.0400 -0.4443 -0.0373
 6624SOL    HW131334   4.269   4.552   4.028  1.4073  0.1309  0.1698
 6624SOL    HW231335   4.180   4.622   3.921  0.7334 -0.4229 -0.6725
 6625SOL     OW31336   1.864   3.088   6.502  0.2140  1.0207 -0.0957
 6625SOL    HW131337   1.844   3.130   6.418  0.6833 -2.0640 -1.7726
 6625SOL    HW231338   1.956   3.063   6.490  0.0583 -0.0989  1.0792
 6626SOL     OW31339   2.947   4.120   0.408  0.1559  0.2272 -1.1197
 6626SOL    HW131340   2.953   4.065   0.486  0.2669  1.2229 -0.4236
 6626SOL    HW231341   2.914   4.205   0.439  2.5431  0.4165  0.9313
 6627SOL     OW31342   0.635   3.191   3.395  0.0934 -0.4652  0.5613
 6627SOL    HW131343   0.587   3.238   3.327 -1.3873 -2.2576  0.3515
 6627SOL    HW231344   0.697   3.257   3.425  1.0374 -0.7029 -0.8909
 6628SOL     OW31345   0.193   3.461  13.412  0.2831  0.3699 -0.3099
 6628SOL    HW131346   0.187   3.456  13.316 -1.3676 -2.0718 -0.0532
 6628SOL    HW231347   0.242   3.381  13.432 -3.2681 -2.3052 -2.3903
 6629SOL     OW31348   4.341   3.702   3.297  0.5926  0.0556  0.4377
 6629SOL    HW131349   4.323   3.729   3.387  0.4654 -1.9738  1.0201
 6629SOL    HW231350   4.388   3.620   3.310  0.8686 -0.2403 -2.2953
 6630SOL     OW31351   3.726   4.322   5.713 -0.2157  0.2199  0.0959
 6630SOL    HW131352   3.665   4.317   5.640 -0.7644 -0.4455  0.6098
 6630SOL    HW231353   3.691   4.249   5.763 -0.8406  1.7987  1.9221
 6631SOL     OW31354   3.892   1.174   4.899  0.2346 -0.6124  0.6442
 6631SOL    HW131355   3.987   1.166   4.890  0.1227  0.0879 -1.1740
 6631SOL    HW231356   3.870   1.140   4.812 -0.1803  0.8977  0.1511
 6632SOL     OW31357   0.696   3.362   0.469 -0.1578 -0.5050 -0.5136
 6632SOL    HW131358   0.720   3.292   0.530  1.5281  2.0304  1.7374
 6632SOL    HW231359   0.630   3.413   0.516 -0.4290 -2.0740  0.8053
 6633SOL     OW31360   4.571   2.461   6.561  0.7348 -0.2571  0.5266
 6633SOL    HW131361   4.502   2.520   6.590 -0.4527 -0.9698 -0.7960
 6633SOL    HW231362   4.511   2.391   6.532 -2.4527  2.4748  0.5261
 6634SOL     OW31363   4.328   0.463   4.973 -0.2805 -0.8402  0.3365
 6634SOL    HW131364   4.319   0.445   5.067 -1.5226 -1.1398  0.1635
 6634SOL    HW231365   4.249   0.512   4.949 -0.5257 -1.2019  0.4003
 6635SOL     OW31366   1.672   0.795   0.305 -0.3961  0.3039  0.3988
 6635SOL    HW131367   1.725   0.794   0.385  2.0817  0.9278 -1.2179
 6635SOL    HW231368   1.665   0.890   0.297 -1.5211  0.0954 -1.0659
 6636SOL     OW31369   2.596   0.697  17.211 -0.2041  0.1771  0.3572
 6636SOL    HW131370   2.688   0.671  17.200 -0.2524  0.7233 -1.3458
 6636SOL    HW231371   2.590   0.771  17.151 -2.3945 -0.6337 -0.4201
 6637SOL     OW31372   1.715   2.066   7.058 -0.2904 -0.5227 -0.1309
 6637SOL    HW131373   1.640   2.006   7.058 -0.6677 -0.0229  3.0428
 6637SOL    HW231374   1.782   2.024   7.004  0.0274  0.0175 -0.1512
 6638SOL     OW31375   2.734   2.033   1.377 -0.7008  0.0944 -0.4264
 6638SOL    HW131376   2.689   2.062   1.298  1.2868  3.5555 -0.3078
 6638SOL    HW231377   2.678   1.959   1.403 -2.3516  2.6649  3.4173
 6639SOL     OW31378   3.248   2.799  15.978  0.7298 -0.0546  0.2632
 6639SOL    HW131379   3.216   2.757  15.898 -0.5140  1.9563 -0.3044
 6639SOL    HW231380   3.232   2.891  15.956 -0.5661 -0.3014  0.1835
 6640SOL     OW31381   3.387   0.270   0.061  0.1382 -0.0287  0.0284
 6640SOL    HW131382   3.348   0.357   0.052 -1.9317 -0.9578  0.2773
 6640SOL    HW231383   3.431   0.276   0.147 -1.0530 -1.0827  0.7093
 6641SOL     OW31384   0.259   2.661   3.127 -0.1293  0.1852 -0.1436
 6641SOL    HW131385   0.318   2.588   3.108  1.0467  1.2237 -0.5078
 6641SOL    HW231386   0.229   2.688   3.040 -0.6853 -0.6180 -0.1947
 6642SOL     OW31387   2.288   2.501   2.217 -0.2050 -0.5843 -0.2572
 6642SOL    HW131388   2.338   2.476   2.140  0.5300  0.9638 -0.2895
 6642SOL    HW231389   2.357   2.484   2.282 -1.0284 -0.0060  0.7670
 6643SOL     OW31390   3.307   3.700   2.538  0.2017 -0.0381 -0.3085
 6643SOL    HW131391   3.387   3.669   2.496  0.5405 -0.6190  0.7752
 6643SOL    HW231392   3.344   3.754   2.608 -0.7491 -1.4171  1.2531
 6644SOL     OW31393   2.355   4.586   7.325 -0.3332  0.1255 -0.0401
 6644SOL    HW131394   2.262   4.587   7.304 -0.6369  0.0979  1.3026
 6644SOL    HW231395   2.356   4.676   7.358  1.7071  0.4568 -0.9963
 6645SOL     OW31396   0.398   3.386   4.791 -0.0292  0.4779  0.5554
 6645SOL    HW131397   0.330   3.331   4.753 -0.6805  2.3600 -1.0087
 6645SOL    HW231398   0.440   3.422   4.713 -0.9249  2.3966  0.9474
 6646SOL     OW31399   4.040   2.716   8.373  0.5362 -0.3874  0.1979
 6646SOL    HW131400   3.962   2.772   8.373  1.1005  0.3958  0.3325
 6646SOL    HW231401   4.007   2.637   8.416 -0.4663 -0.1901 -0.1979
 6647SOL     OW31402   1.370   3.477   2.431  0.6420  0.1106 -0.2778
 6647SOL    HW131403   1.303   3.481   2.364  0.9168  0.9823 -0.4939
 6647SOL    HW231404   1.340   3.398   2.476 -0.2008  0.8782  0.4899
 6648SOL     OW31405   1.994   2.510   9.585 -0.2930  0.4250 -0.5084
 6648SOL    HW131406   2.089   2.518   9.584 -0.1220 -1.7509 -2.9471
 6648SOL    HW231407   1.989   2.466   9.670  1.1900  2.6727  0.7568
 6649SOL     OW31408   2.439   0.205  13.587 -0.9584 -0.4041  0.2214
 6649SOL    HW131409   2.523   0.189  13.630 -0.8055 -2.1781 -0.7482
 6649SOL    HW231410   2.452   0.282  13.533  0.7935  0.6348  2.1291
 6650SOL     OW31411   3.739   1.201  12.105  0.3538 -0.1575  0.8384
 6650SOL    HW131412   3.726   1.274  12.044  1.2053 -1.7442 -1.2648
 6650SOL    HW231413   3.761   1.257  12.180 -0.5026 -1.1717  1.8418
 6651SOL     OW31414   1.264   1.647  15.003 -0.0714 -0.1993 -0.3653
 6651SOL    HW131415   1.249   1.566  15.052 -0.0167  1.1744  1.9159
 6651SOL    HW231416   1.348   1.673  15.041 -0.3076  2.2129 -1.4956
 6652SOL     OW31417   1.832   2.317   6.325 -0.1227  0.4205  0.1295
 6652SOL    HW131418   1.754   2.276   6.363  1.0759 -2.4194 -0.4572
 6652SOL    HW231419   1.804   2.408   6.313 -2.2946 -0.3905 -0.9582
 6653SOL     OW31420   0.715   2.988  15.741 -0.0406 -0.3118  0.7547
 6653SOL    HW131421   0.691   2.942  15.821  1.2631 -0.3673  1.1106
 6653SOL    HW231422   0.714   2.910  15.686  0.0408  0.3870 -0.2442
 6654SOL     OW31423   1.106   2.872   5.242 -0.1672 -0.6589 -0.5702
 6654SOL    HW131424   1.139   2.818   5.171  1.1635 -0.5911 -0.0164
 6654SOL    HW231425   1.027   2.907   5.202 -0.9666 -0.7112  0.9407
 6655SOL     OW31426   3.759   0.808   0.799 -0.0234 -0.8600  0.3758
 6655SOL    HW131427   3.761   0.712   0.793  2.4041 -0.7684 -0.1654
 6655SOL    HW231428   3.780   0.839   0.711  2.3769  0.0460  1.2729
 6656SOL     OW31429   3.042   1.718   3.133  0.0226 -0.5058 -0.1401
 6656SOL    HW131430   3.129   1.731   3.171  0.0068 -1.7654  0.3165
 6656SOL    HW231431   2.993   1.682   3.206  0.7646  0.6138  0.9009
 6657SOL     OW31432   1.048   3.958   2.154  0.2502 -0.4101 -0.4003
 6657SOL    HW131433   1.020   4.000   2.235  0.1999 -1.1542 -0.0281
 6657SOL    HW231434   1.101   3.884   2.186  1.4935  1.3429  1.5603
 6658SOL     OW31435   0.176   2.971  16.256 -0.4601  0.0205 -0.7988
 6658SOL    HW131436   0.203   3.035  16.322  0.7108 -1.3814  0.1102
 6658SOL    HW231437   0.206   2.887  16.292 -0.8630  1.1329  2.1600
 6659SOL     OW31438   1.878   2.023  10.448 -0.2700  0.3035  0.2378
 6659SOL    HW131439   1.961   1.977  10.457  0.6215  1.7708 -0.6672
 6659SOL    HW231440   1.894   2.100  10.502 -0.3600  0.0514  0.6276
 6660SOL     OW31441   4.617   2.478  11.138 -0.2934  0.2811 -1.0253
 6660SOL    HW131442   4.678   2.467  11.065  3.1708  0.7145  1.7917
 6660SOL    HW231443   4.680   2.516  11.199  2.1727 -1.2496 -2.6016
 6661SOL     OW31444   3.514   1.173   2.044  0.2072  0.6343 -0.1411
 6661SOL    HW131445   3.467   1.252   2.068  1.3686  1.0514  0.7574
 6661SOL    HW231446   3.570   1.167   2.121 -0.4509  0.2987  0.3050
 6662SOL     OW31447   1.680   4.026  16.111 -0.5735  0.2318 -0.2562
 6662SOL    HW131448   1.766   4.008  16.151 -0.5268 -2.4115 -1.5665
 6662SOL    HW231449   1.717   4.111  16.087  0.6035  0.1390  1.2287
 6663SOL     OW31450   3.845   0.734  13.983 -0.2079 -0.3923 -0.2886
 6663SOL    HW131451   3.796   0.782  14.049  1.8386  1.9539 -0.4632
 6663SOL    HW231452   3.800   0.651  13.968 -5.3122  2.2788  0.4415
 6664SOL     OW31453   3.407   3.027   6.312 -0.1218  0.3931  0.0710
 6664SOL    HW131454   3.373   2.982   6.389 -0.9813  1.0592  0.0751
 6664SOL    HW231455   3.429   2.946   6.266 -0.9294 -0.5609  1.3506
 6665SOL     OW31456   2.488   3.729  10.814  0.8949  0.4482  0.3387
 6665SOL    HW131457   2.425   3.776  10.869  1.8467  3.8208 -1.4758
 6665SOL    HW231458   2.429   3.686  10.752  1.1428 -0.2452  0.5862
 6666SOL     OW31459   1.416   4.593   6.151  0.1804  0.0918 -0.0431
 6666SOL    HW131460   1.383   4.641   6.075  0.6274  2.4726  1.2482
 6666SOL    HW231461   1.407   4.660   6.219  0.3518 -1.4320  1.4805
 6667SOL     OW31462   1.259   4.535   5.684  0.1497  0.3097  0.6966
 6667SOL    HW131463   1.267   4.444   5.656  0.1958 -0.1596  2.1831
 6667SOL    HW231464   1.252   4.589   5.606  0.3095 -0.0401  0.4426
 6668SOL     OW31465   3.743   0.278   4.491 -0.0606 -0.5532  0.9271
 6668SOL    HW131466   3.752   0.290   4.396 -1.0288  0.6101  0.9851
 6668SOL    HW231467   3.777   0.367   4.505 -3.3216  1.3630 -3.4179
 6669SOL     OW31468   2.907   1.306   2.404  0.1513 -0.2293 -0.0558
 6669SOL    HW131469   2.994   1.304   2.362  0.7568  0.1702  1.1851
 6669SOL    HW231470   2.892   1.400   2.412 -5.1199 -1.1894  0.8183
 6670SOL     OW31471   1.177   3.062   9.310 -0.2578  0.1383 -0.1692
 6670SOL    HW131472   1.220   2.978   9.291 -1.1774 -0.9540  2.5027
 6670SOL    HW231473   1.251   3.116   9.339 -0.0387 -0.3018  0.0972
 6671SOL     OW31474   2.491   4.212   9.471 -0.8229 -0.1327 -0.3267
 6671SOL    HW131475   2.572   4.176   9.507 -0.7712  1.7036  1.3517
 6671SOL    HW231476   2.469   4.273   9.541  0.2797  0.0742 -0.1544
 6672SOL     OW31477   3.223   3.947   0.789 -0.1635 -0.0076 -0.3581
 6672SOL    HW131478   3.236   4.004   0.865 -3.2724  0.1672  0.0232
 6672SOL    HW231479   3.269   3.994   0.719  3.6414  0.7076  2.6196
 6673SOL     OW31480   3.017   2.077   3.292 -0.0024 -0.1377 -0.1396
 6673SOL    HW131481   3.074   2.028   3.351  1.5553  2.9299  0.9099
 6673SOL    HW231482   3.010   2.162   3.335 -1.0831  0.6933 -1.9841
 6674SOL     OW31483   1.537   3.337   3.487 -0.2949  0.2095  0.5242
 6674SOL    HW131484   1.550   3.246   3.512 -0.1559 -0.0820 -0.5949
 6674SOL    HW231485   1.614   3.387   3.515  1.4410 -0.8116 -2.3165
 6675SOL     OW31486   2.898   0.241  16.601 -0.6319  0.1168  0.2592
 6675SOL    HW131487   2.957   0.168  16.620 -1.7988 -0.8576  0.1570
 6675SOL    HW231488   2.851   0.242  16.684  1.1292  1.8391  1.2150
 6676SOL     OW31489   2.899   2.641  13.714 -0.3965 -0.1422  0.2470
 6676SOL    HW131490   2.959   2.581  13.669 -0.1598 -0.1327  0.5536
 6676SOL    HW231491   2.817   2.593  13.715 -0.0058 -0.8487 -1.8413
 6677SOL     OW31492   3.606   1.649   9.082 -0.7448 -0.2667  0.4405
 6677SOL    HW131493   3.632   1.562   9.112  1.2230 -0.5105 -1.9360
 6677SOL    HW231494   3.692   1.685   9.062 -0.2002 -0.7681  1.9315
 6678SOL     OW31495   4.143   4.678   3.143 -0.4181 -1.0787  0.2899
 6678SOL    HW131496   4.203   0.032   3.128  0.3243 -0.8973  4.2916
 6678SOL    HW231497   4.093   4.689   3.062  0.7429 -1.3262 -0.4543
 6679SOL     OW31498   1.469   0.141   4.321 -0.0806  0.1572 -0.0993
 6679SOL    HW131499   1.451   0.083   4.395  2.8060  1.1405  1.3574
 6679SOL    HW231500   1.396   0.203   4.327 -0.2437  0.0088 -0.5965
 6680SOL     OW31501   1.109   1.131   8.087 -0.1303 -0.1941 -0.1234
 6680SOL    HW131502   1.031   1.181   8.111 -1.8069 -2.4931 -0.6960
 6680SOL    HW231503   1.172   1.198   8.111  0.0887 -0.5041  0.1689
 6681SOL     OW31504   1.564   1.519   9.007  0.1498  0.1262  0.5427
 6681SOL    HW131505   1.564   1.495   8.914  1.1984 -0.0333  0.5833
 6681SOL    HW231506   1.636   1.460   9.030 -1.0674 -1.3257  0.6343
 6682SOL     OW31507   1.390   4.163   4.355  0.5162  0.4208 -0.7182
 6682SOL    HW131508   1.370   4.247   4.398  1.0784 -0.4029  1.1567
 6682SOL    HW231509   1.475   4.143   4.395  0.5184  2.8583  0.5193
 6683SOL     OW31510   2.423   0.145   7.130 -0.2609  0.1252 -0.2574
 6683SOL    HW131511   2.331   0.160   7.109 -0.1230  1.7738  0.3016
 6683SOL    HW231512   2.465   0.227   7.104 -2.6923  1.6308  0.5943
 6684SOL     OW31513   1.415   4.040  11.774 -0.5924  0.4357 -0.6596
 6684SOL    HW131514   1.461   4.035  11.690 -0.8366 -0.6212 -0.7313
 6684SOL    HW231515   1.478   3.992  11.827 -0.3116  2.5571  0.9387
 6685SOL     OW31516   2.515   1.695   4.159 -0.6108 -0.6997 -0.1986
 6685SOL    HW131517   2.423   1.706   4.136 -0.2770 -0.3563 -1.4129
 6685SOL    HW231518   2.549   1.641   4.088  2.4194  0.5087  0.3355
 6686SOL     OW31519   3.658   4.190   3.401  0.4755 -0.0692  0.1253
 6686SOL    HW131520   3.630   4.118   3.345 -1.4756  0.5661  0.2683
 6686SOL    HW231521   3.732   4.153   3.448  1.3738 -0.9648 -2.0206
 6687SOL     OW31522   3.175   4.691   7.419 -0.4259 -0.0461  0.7896
 6687SOL    HW131523   3.201   4.610   7.375  1.5199  1.0046 -0.0127
 6687SOL    HW231524   3.247   4.712   7.479  1.0997 -0.9317 -0.7324
 6688SOL     OW31525   1.070   2.419   6.934 -0.3989 -0.0723 -0.2280
 6688SOL    HW131526   1.155   2.463   6.936  0.0694 -0.9449 -0.5905
 6688SOL    HW231527   1.025   2.484   6.988 -1.6145  0.3326 -1.7170
 6689SOL     OW31528   3.263   2.647   1.783 -0.1971 -0.0112  0.2035
 6689SOL    HW131529   3.358   2.658   1.778 -0.1860  0.3089  1.1440
 6689SOL    HW231530   3.236   2.587   1.714 -0.1250  1.5584 -1.1798
 6690SOL     OW31531   3.264   1.679   1.234 -0.0181  0.0618 -0.1688
 6690SOL    HW131532   3.195   1.678   1.301  1.6720 -0.3779  1.5784
 6690SOL    HW231533   3.226   1.736   1.167  1.3034  0.7896 -0.3060
 6691SOL     OW31534   1.209   0.902   5.307 -0.0898 -0.5619 -0.5955
 6691SOL    HW131535   1.118   0.910   5.276  0.1910 -2.1021 -1.8406
 6691SOL    HW231536   1.194   0.832   5.371 -2.0440  1.6548  1.4005
 6692SOL     OW31537   2.765   0.196   9.156 -0.0096  0.1476 -0.1290
 6692SOL    HW131538   2.798   0.166   9.241  3.3857 -0.4991 -1.7052
 6692SOL    HW231539   2.680   0.151   9.160  0.2707 -0.5008 -1.5517
 6693SOL     OW31540   3.825   4.060   9.964 -0.0805 -0.3999  0.4282
 6693SOL    HW131541   3.901   4.061  10.023  0.4297 -0.8226 -0.2160
 6693SOL    HW231542   3.868   4.034   9.883  0.1443  3.3552 -0.6336
 6694SOL     OW31543   0.024   3.308   7.681  0.5173 -0.3762 -0.1116
 6694SOL    HW131544   0.050   3.289   7.591  2.0098  1.4604 -0.0562
 6694SOL    HW231545   0.083   3.240   7.714 -0.3370 -0.7248  0.7114
 6695SOL     OW31546   2.373   0.938   4.929 -0.0223  0.1142 -0.4553
 6695SOL    HW131547   2.450   0.947   4.874  1.4621  1.0954  1.8103
 6695SOL    HW231548   2.356   0.847   4.905 -0.7834  0.6282 -1.8904
 6696SOL     OW31549   0.676   0.041   1.202 -0.3247 -0.2409 -0.5896
 6696SOL    HW131550   0.623   0.121   1.201 -0.1395 -0.1015  0.6226
 6696SOL    HW231551   0.762   0.075   1.227 -2.1578  2.7359  1.5841
 6697SOL     OW31552   2.548   3.273   3.550  0.3130 -0.0653  0.0299
 6697SOL    HW131553   2.500   3.192   3.531 -1.8565  1.5124 -1.2682
 6697SOL    HW231554   2.493   3.345   3.519  0.1739  0.6433  1.9260
 6698SOL     OW31555   3.156   1.547  12.298  0.2005  0.1259 -0.4608
 6698SOL    HW131556   3.115   1.617  12.348 -0.0566 -0.9542  0.8401
 6698SOL    HW231557   3.141   1.573  12.207  1.5611 -0.3897 -0.8382
 6699SOL     OW31558   2.479   4.383   9.914 -0.4043  0.0743 -0.7028
 6699SOL    HW131559   2.413   4.374   9.983  0.6225  1.5465  0.4729
 6699SOL    HW231560   2.531   4.304   9.931  0.3138  0.6267 -0.3549
 6700SOL     OW31561   3.431   3.222   6.807 -0.0899  0.2108 -0.1957
 6700SOL    HW131562   3.432   3.278   6.884  0.4986 -1.2762  0.8729
 6700SOL    HW231563   3.339   3.231   6.781  0.2266  0.4023 -1.2582
 6701SOL     OW31564   0.389   1.687   8.227 -0.0687  0.0074  0.3427
 6701SOL    HW131565   0.323   1.735   8.277  1.9697  1.3003  1.7971
 6701SOL    HW231566   0.438   1.658   8.305  0.7005 -0.2859 -0.2548
 6702SOL     OW31567   0.274   0.065   0.338 -0.1389 -0.1022 -0.4327
 6702SOL    HW131568   0.230   0.114   0.408 -0.8696 -0.3565 -0.7088
 6702SOL    HW231569   0.356   0.040   0.381  0.3731 -0.0591 -1.3912
 6703SOL     OW31570   0.541   3.226   2.509  0.4159  0.7993  0.2343
 6703SOL    HW131571   0.517   3.138   2.478  0.2962  0.1512  2.2057
 6703SOL    HW231572   0.466   3.282   2.490 -1.4623 -2.0433 -0.7839
 6704SOL     OW31573   3.021   3.248   3.477 -0.0118 -0.7497 -0.0691
 6704SOL    HW131574   2.934   3.257   3.517  1.4728  0.9170  2.8214
 6704SOL    HW231575   3.057   3.331   3.509 -0.1219  0.0890 -2.1145
 6705SOL     OW31576   1.485   1.708  12.203 -0.0793 -0.3693 -0.2342
 6705SOL    HW131577   1.464   1.743  12.289 -3.9886  0.4317 -1.4995
 6705SOL    HW231578   1.422   1.636  12.209 -1.2462  0.7335  0.6767
 6706SOL     OW31579   4.502   0.789   6.638 -0.1641 -0.1503  0.1659
 6706SOL    HW131580   4.587   0.834   6.637  0.8165 -2.0802 -3.6645
 6706SOL    HW231581   4.513   0.718   6.701 -0.8510  0.4328  0.9372
 6707SOL     OW31582   1.053   3.975   6.401  0.5089  0.4561 -0.6545
 6707SOL    HW131583   1.058   3.881   6.414  1.4139  0.8564  1.8449
 6707SOL    HW231584   1.024   4.007   6.486 -1.4705  0.4873 -1.3432
 6708SOL     OW31585   1.141   3.773  16.226  0.2184  1.0970 -0.1987
 6708SOL    HW131586   1.100   3.792  16.310 -0.0548 -0.6665  0.0565
 6708SOL    HW231587   1.099   3.834  16.164  1.4371 -2.0618 -4.1186
 6709SOL     OW31588   1.315   2.004   0.953 -0.5232 -0.0303  0.1519
 6709SOL    HW131589   1.312   1.937   1.021  1.2781  1.0035  1.2273
 6709SOL    HW231590   1.383   2.062   0.987 -0.1619  0.0015 -0.6051
 6710SOL     OW31591   2.224   0.627   7.991 -0.3163  0.0140 -0.1311
 6710SOL    HW131592   2.248   0.534   7.996  1.4565  0.4424 -0.4906
 6710SOL    HW231593   2.241   0.642   7.897 -0.2716  3.7582  0.4973
 6711SOL     OW31594   4.470   4.453   3.820 -0.0916 -0.2269 -0.0706
 6711SOL    HW131595   4.527   4.381   3.793  1.6391  0.8385  0.7055
 6711SOL    HW231596   4.440   4.482   3.734  0.3669 -0.8619 -0.4452
 6712SOL     OW31597   0.487   0.365   2.854 -0.6949  0.4186 -0.7894
 6712SOL    HW131598   0.407   0.392   2.899  0.2782  3.2720 -0.7969
 6712SOL    HW231599   0.479   0.424   2.780 -2.7671 -1.2496 -1.9004
 6713SOL     OW31600   2.963   2.742   7.418  0.0741  0.1862 -0.4102
 6713SOL    HW131601   2.904   2.809   7.454 -0.6430  0.5156 -2.1886
 6713SOL    HW231602   2.944   2.676   7.486 -1.3800  1.6314  0.5793
 6714SOL     OW31603   1.485   4.264   1.258  0.1795  0.1920 -0.3175
 6714SOL    HW131604   1.411   4.268   1.198 -0.1737 -0.1011  0.1088
 6714SOL    HW231605   1.486   4.172   1.283  0.9611 -0.1957 -1.7386
 6715SOL     OW31606   0.704   2.974   7.435  0.2000 -0.1904  0.1222
 6715SOL    HW131607   0.726   2.907   7.371 -1.8808  0.5794 -1.3893
 6715SOL    HW231608   0.721   3.055   7.388  2.0519 -0.1877  0.7945
 6716SOL     OW31609   1.302   3.753  16.527 -0.3092 -0.0513  0.0282
 6716SOL    HW131610   1.303   3.666  16.568 -0.8592  0.8619  1.9635
 6716SOL    HW231611   1.212   3.773  16.501 -0.5715  0.3077  1.2027
 6717SOL     OW31612   3.089   2.891  11.265 -0.2530 -0.2297  0.2097
 6717SOL    HW131613   3.119   2.810  11.307  1.0185  0.1443  0.0111
 6717SOL    HW231614   3.023   2.848  11.210  0.7941  0.9721 -1.9757
 6718SOL     OW31615   3.102   3.595   8.880 -0.0198 -0.7511  0.4452
 6718SOL    HW131616   3.126   3.504   8.863  1.1625 -0.2890 -0.3221
 6718SOL    HW231617   3.149   3.647   8.815 -1.8122 -0.3307 -0.5232
 6719SOL     OW31618   2.974   2.608  14.986 -0.3615  0.1691  0.5389
 6719SOL    HW131619   2.916   2.684  14.990  0.3509  0.7062  0.5425
 6719SOL    HW231620   2.922   2.538  15.027 -0.1237 -0.3251 -0.0101
 6720SOL     OW31621   1.259   3.981  15.358 -0.2440 -0.1378  0.6815
 6720SOL    HW131622   1.255   3.985  15.453 -0.6930 -0.1133  0.6572
 6720SOL    HW231623   1.280   4.071  15.336 -1.6915 -0.4746 -2.0509
 6721SOL     OW31624   3.505   2.580  13.780 -0.2863 -0.4687 -0.1375
 6721SOL    HW131625   3.495   2.527  13.859 -0.3737  1.0774  0.8700
 6721SOL    HW231626   3.511   2.513  13.711 -0.4308  0.2027 -0.8029
 6722SOL     OW31627   1.683   3.636  11.343  0.1201  0.1465 -0.1778
 6722SOL    HW131628   1.673   3.616  11.436 -1.0410 -0.5858 -0.4643
 6722SOL    HW231629   1.596   3.618  11.308  0.5212  1.4056 -1.7757
 6723SOL     OW31630   2.250   0.109   8.478 -0.2955 -0.0051 -0.6270
 6723SOL    HW131631   2.324   0.056   8.508  0.7695  1.4999 -0.6043
 6723SOL    HW231632   2.285   0.196   8.462 -0.0108 -0.1439 -0.7555
 6724SOL     OW31633   2.446   2.840   1.457  0.2512  0.1813  0.3524
 6724SOL    HW131634   2.402   2.759   1.432  3.1233 -1.0945 -0.5415
 6724SOL    HW231635   2.441   2.843   1.553 -1.2333  0.2028  0.2764
 6725SOL     OW31636   3.733   1.233   8.049  0.1096  0.1363  0.2147
 6725SOL    HW131637   3.750   1.318   8.009  1.3443 -0.7275 -1.0983
 6725SOL    HW231638   3.639   1.226   8.068  0.3725 -3.1210  0.3794
 6726SOL     OW31639   4.308   0.169  15.648 -0.1413  0.4789 -0.2447
 6726SOL    HW131640   4.399   0.168  15.677 -0.0381 -0.3680 -0.5869
 6726SOL    HW231641   4.269   0.247  15.686 -0.7103  1.5495 -3.0075
 6727SOL     OW31642   1.945   3.555  16.386 -0.0087  0.3583  0.0316
 6727SOL    HW131643   1.944   3.462  16.411 -1.0315  1.1890  3.0648
 6727SOL    HW231644   2.018   3.595  16.433  0.0295  0.2479  0.0658
 6728SOL     OW31645   4.003   1.697   9.214  0.4219  0.6236 -0.2578
 6728SOL    HW131646   3.954   1.725   9.136 -1.7837  1.9910  1.6033
 6728SOL    HW231647   4.055   1.631   9.170 -1.1906 -0.9645  0.2094
 6729SOL     OW31648   0.794   4.195  14.847  0.8922  0.7263  0.1009
 6729SOL    HW131649   0.869   4.238  14.805  2.8950 -0.9652  1.9255
 6729SOL    HW231650   0.716   4.229  14.804 -0.2990 -2.2797 -0.1336
 6730SOL     OW31651   3.919   0.653   6.166  0.2872  0.2340 -0.2610
 6730SOL    HW131652   3.949   0.664   6.256 -1.0564  0.2832  0.1717
 6730SOL    HW231653   4.001   0.627   6.123  1.5518  0.9386  1.7315
 6731SOL     OW31654   3.761   4.243  13.500  0.1100  0.4255 -0.5610
 6731SOL    HW131655   3.829   4.223  13.564 -1.0711  0.6040  0.7500
 6731SOL    HW231656   3.705   4.165  13.502 -3.2524  2.8496  1.0906
 6732SOL     OW31657   0.552   1.702  10.742 -0.1006 -0.4377  0.1028
 6732SOL    HW131658   0.538   1.682  10.835  0.0212  0.9736  0.4183
 6732SOL    HW231659   0.481   1.763  10.721 -0.9897 -1.6598 -0.4301
 6733SOL     OW31660   2.297   3.125  15.139 -0.0651  0.2665  0.5085
 6733SOL    HW131661   2.235   3.197  15.130 -0.5387 -0.4368 -1.7054
 6733SOL    HW231662   2.243   3.057  15.101  0.4924 -0.0946  0.3555
 6734SOL     OW31663   3.097   3.897  10.477  0.0844 -0.0718  0.5899
 6734SOL    HW131664   3.190   3.885  10.464  0.4092  1.6918  1.2251
 6734SOL    HW231665   3.093   3.970  10.539  1.8609  0.7628 -0.2768
 6735SOL     OW31666   3.156   4.200   7.195  0.3979  0.5331  0.0144
 6735SOL    HW131667   3.206   4.262   7.248  0.6894  0.3527 -0.0531
 6735SOL    HW231668   3.209   4.187   7.116 -1.5725 -0.3296 -1.1840
 6736SOL     OW31669   3.743   2.413  13.404 -0.3942  0.1855  0.2594
 6736SOL    HW131670   3.717   2.481  13.342  0.3088  0.6911  0.5313
 6736SOL    HW231671   3.827   2.446  13.433  1.1512 -2.1213 -1.5531
 6737SOL     OW31672   2.858   3.730   8.362 -0.0935  0.2534 -0.7097
 6737SOL    HW131673   2.818   3.793   8.302  2.9558  2.1762 -0.7258
 6737SOL    HW231674   2.903   3.785   8.426  2.6855  1.2420 -3.5175
 6738SOL     OW31675   1.382   4.698   8.861 -0.0711 -0.0871  0.1354
 6738SOL    HW131676   1.338   4.640   8.923  0.7971 -1.1311 -0.2340
 6738SOL    HW231677   1.318   0.049   8.851  0.2346  0.1947  0.1811
 6739SOL     OW31678   4.215   3.937   7.807 -0.4729  0.1303  0.2694
 6739SOL    HW131679   4.228   3.932   7.901 -1.0790  1.8223  0.4352
 6739SOL    HW231680   4.170   3.853   7.796  1.6960 -0.8959 -0.7593
 6740SOL     OW31681   1.923   0.546  13.107 -0.0004 -0.2221  0.0363
 6740SOL    HW131682   1.934   0.641  13.112 -2.7021  0.1149 -0.3203
 6740SOL    HW231683   1.934   0.558  13.012 -0.8716 -1.0995 -0.1727
 6741SOL     OW31684   2.406   3.898  10.621  0.0338 -0.0538 -0.1053
 6741SOL    HW131685   2.341   3.841  10.662  0.6772  0.8930  2.1948
 6741SOL    HW231686   2.363   3.900  10.535 -1.0158  0.4577  0.4358
 6742SOL     OW31687   1.073   2.231   3.534 -0.0342 -0.2485  0.2011
 6742SOL    HW131688   1.066   2.167   3.605 -0.5283 -0.6280 -0.1960
 6742SOL    HW231689   1.057   2.308   3.589  3.4617  1.6575 -1.4231
 6743SOL     OW31690   2.277   2.380  10.071  0.4118 -0.4467  0.2991
 6743SOL    HW131691   2.194   2.414  10.038  0.7647  0.2070  0.0966
 6743SOL    HW231692   2.314   2.338   9.993 -0.7561  0.7804 -0.9175
 6744SOL     OW31693   1.180   2.800   6.502  0.3024 -0.5309  0.1826
 6744SOL    HW131694   1.101   2.748   6.489  0.6421 -0.9413 -0.2756
 6744SOL    HW231695   1.145   2.880   6.541  0.2787 -1.5174  2.1310
 6745SOL     OW31696   1.051   4.187  16.893  0.1089 -0.0188  0.2372
 6745SOL    HW131697   1.099   4.265  16.919 -2.8805  1.9814 -0.2586
 6745SOL    HW231698   1.054   4.143  16.978 -0.4751 -0.2367  0.1439
 6746SOL     OW31699   0.774   1.618   7.878 -0.0735  0.0302  0.1759
 6746SOL    HW131700   0.751   1.711   7.873  0.2772  0.1512  0.8002
 6746SOL    HW231701   0.858   1.627   7.921  0.1248 -1.0648  0.0260
 6747SOL     OW31702   3.077   4.052  13.062  0.2985  0.0458 -0.0195
 6747SOL    HW131703   3.144   4.088  13.119 -0.2301  0.0078  0.6325
 6747SOL    HW231704   3.032   3.989  13.119 -0.5687 -1.1702 -2.0185
 6748SOL     OW31705   1.590   1.236   6.888  0.6823  0.3062  0.2604
 6748SOL    HW131706   1.511   1.183   6.894  0.0879  1.0790 -0.7454
 6748SOL    HW231707   1.606   1.240   6.794  2.4746  0.3939  0.5590
 6749SOL     OW31708   2.650   3.090   7.323 -0.0312  0.4192  0.2881
 6749SOL    HW131709   2.719   3.040   7.368 -1.5548 -1.9030  0.0590
 6749SOL    HW231710   2.627   3.160   7.384 -1.2810 -0.1034  0.4169
 6750SOL     OW31711   0.629   4.463  12.908 -0.3936 -0.2947  0.0410
 6750SOL    HW131712   0.707   4.469  12.962  0.1914  2.3890 -1.1102
 6750SOL    HW231713   0.642   4.394  12.842  1.8905  0.4204 -0.2470
 6751SOL     OW31714   4.060   4.312   8.742 -0.4848 -0.3053 -0.2390
 6751SOL    HW131715   4.092   4.360   8.666 -1.2905  1.1924  0.3620
 6751SOL    HW231716   3.967   4.331   8.755 -0.9328 -1.5959 -1.5789
 6752SOL     OW31717   4.472   4.413   7.917  0.7539 -0.0657 -0.3657
 6752SOL    HW131718   4.393   4.431   7.968 -0.5824  0.7070 -2.6669
 6752SOL    HW231719   4.458   4.475   7.845 -1.3128  1.1512  1.0950
 6753SOL     OW31720   3.396   2.098   4.220 -0.2329  0.1437 -0.4948
 6753SOL    HW131721   3.329   2.166   4.212 -1.3672 -0.6002  2.5696
 6753SOL    HW231722   3.346   2.018   4.232 -2.0622  1.5847  1.5329
 6754SOL     OW31723   4.464   3.597  15.679 -0.1101  0.2772 -0.3393
 6754SOL    HW131724   4.401   3.543  15.727  1.1884 -2.9988 -2.3144
 6754SOL    HW231725   4.539   3.591  15.737  0.6438 -0.2156 -1.3575
 6755SOL     OW31726   0.857   1.021   0.830  0.3258  0.5696 -0.2188
 6755SOL    HW131727   0.840   1.104   0.876  2.0905  0.2565  0.9979
 6755SOL    HW231728   0.935   0.981   0.867 -0.1944  0.0326  0.3077
 6756SOL     OW31729   1.694   4.431  17.504  0.6993  1.1569 -1.0931
 6756SOL    HW131730   1.605   4.399  17.510  1.9851 -2.2120 -0.0217
 6756SOL    HW231731   1.721   4.425  17.595 -0.3626  0.5637 -0.8237
 6757SOL     OW31732   4.070   4.398   2.529 -0.4965 -0.3112  0.3300
 6757SOL    HW131733   3.986   4.387   2.575 -0.3157 -0.2861  0.6701
 6757SOL    HW231734   4.038   4.370   2.444  0.4770 -0.4526  0.0204
 6758SOL     OW31735   0.455   0.275  16.516 -0.4614 -0.5470  0.3469
 6758SOL    HW131736   0.444   0.366  16.545  0.1079  0.2590 -1.9724
 6758SOL    HW231737   0.430   0.281  16.424 -2.2512 -2.4237  0.7220
 6759SOL     OW31738   3.398   2.010   7.818 -0.5026 -0.5545  0.4087
 6759SOL    HW131739   3.392   2.041   7.728 -2.1610  0.0748  0.7272
 6759SOL    HW231740   3.343   2.075   7.862 -0.5531 -0.7918  0.6965
 6760SOL     OW31741   0.635   2.283   8.651 -0.5242 -0.6216  0.5197
 6760SOL    HW131742   0.647   2.317   8.740 -0.3395 -0.0175  0.2661
 6760SOL    HW231743   0.637   2.188   8.653 -2.6808 -0.6690 -0.2215
 6761SOL     OW31744   2.716   4.297  11.554 -0.6285 -0.3800 -0.2584
 6761SOL    HW131745   2.624   4.306  11.579 -0.2250  2.5634  0.1565
 6761SOL    HW231746   2.721   4.215  11.503  0.4974  1.3020 -2.8540
 6762SOL     OW31747   4.196   0.894   4.478  0.3864  0.1979 -0.0862
 6762SOL    HW131748   4.210   0.799   4.471 -1.3890 -0.2034  2.2308
 6762SOL    HW231749   4.285   0.927   4.491 -0.7517  1.6016  4.1440
 6763SOL     OW31750   2.802   1.951  13.946  0.5147  0.3805  0.1054
 6763SOL    HW131751   2.714   1.914  13.944  1.2315 -1.4443  2.3694
 6763SOL    HW231752   2.817   1.969  14.039  3.2337  1.2421 -0.4935
 6764SOL     OW31753   3.788   4.456  16.117  0.5368 -0.1274 -0.3256
 6764SOL    HW131754   3.707   4.503  16.097  0.3469 -0.2095  0.2604
 6764SOL    HW231755   3.756   4.394  16.182  1.4386 -0.5004 -0.2368
 6765SOL     OW31756   1.711   1.213  17.516 -0.1861  0.1674 -0.3526
 6765SOL    HW131757   1.746   1.302  17.514 -2.0610  0.9230 -0.0804
 6765SOL    HW231758   1.708   1.191  17.609  1.1895  0.7063 -0.1913
 6766SOL     OW31759   0.150   1.652   1.398  0.3320 -0.0209  0.0853
 6766SOL    HW131760   0.169   1.560   1.377  0.6906  0.1876 -0.5040
 6766SOL    HW231761   0.191   1.664   1.483 -1.5660  1.9612  0.7045
 6767SOL     OW31762   4.597   2.763  14.739 -0.3485  0.0091 -0.3996
 6767SOL    HW131763   4.518   2.740  14.690 -0.6432  0.7017 -0.2535
 6767SOL    HW231764   4.569   2.743  14.828  0.8755 -1.3121 -0.3128
 6768SOL     OW31765   3.642   2.319   6.455  0.5684  0.0973  0.2473
 6768SOL    HW131766   3.733   2.289   6.467  1.0372  1.1450 -0.7549
 6768SOL    HW231767   3.637   2.389   6.520 -0.0065 -0.0791  0.3907
 6769SOL     OW31768   1.539   4.354   9.206  0.0370 -0.0944  0.4852
 6769SOL    HW131769   1.574   4.413   9.140  1.3578  1.1556  2.3082
 6769SOL    HW231770   1.615   4.320   9.253  1.5219  0.6345 -1.4410
 6770SOL     OW31771   4.677   0.284   6.237 -0.0784 -0.2805  0.0517
 6770SOL    HW131772   4.587   0.316   6.242 -0.2436 -0.7898  0.3411
 6770SOL    HW231773   4.707   0.268   6.326 -1.6546  0.2440  0.6815
 6771SOL     OW31774   4.000   1.995  14.892 -0.4014 -0.2903 -0.1021
 6771SOL    HW131775   4.050   1.985  14.811 -0.1561 -1.4435  0.1974
 6771SOL    HW231776   4.043   2.069  14.934 -1.6948  1.6230 -2.1446
 6772SOL     OW31777   3.291   2.304   8.153  0.1540  0.1709 -0.0814
 6772SOL    HW131778   3.362   2.329   8.093  0.2946 -0.3493 -0.1325
 6772SOL    HW231779   3.222   2.365   8.128 -0.9619 -1.4313 -0.9065
 6773SOL     OW31780   3.825   1.151   5.595  0.2630 -0.1229  0.4467
 6773SOL    HW131781   3.886   1.143   5.668  1.7904  1.1053 -0.6648
 6773SOL    HW231782   3.743   1.158   5.643 -0.9400  0.0149 -1.6451
 6774SOL     OW31783   1.958   4.053   7.020  0.7331  0.2869 -0.2203
 6774SOL    HW131784   1.904   4.132   7.025 -2.8984 -2.0843 -1.7555
 6774SOL    HW231785   1.920   4.010   7.097 -0.2462 -2.0568 -1.9953
 6775SOL     OW31786   3.076   3.057  10.416  0.0079 -1.0255 -0.5551
 6775SOL    HW131787   3.038   3.052  10.329 -1.6856  0.1019  0.1341
 6775SOL    HW231788   3.100   2.966  10.432  0.3330 -0.8659 -0.1013
 6776SOL     OW31789   3.746   3.000   8.917 -0.0030  0.0848  0.2436
 6776SOL    HW131790   3.682   3.071   8.910 -0.1685 -0.2523 -1.6503
 6776SOL    HW231791   3.702   2.936   8.974  1.4364  0.0680  1.3134
 6777SOL     OW31792   1.785   2.594   7.250  0.5436  0.6437  0.4792
 6777SOL    HW131793   1.759   2.511   7.291 -0.2731  0.6026 -0.1121
 6777SOL    HW231794   1.873   2.607   7.286  2.0756  0.4243 -3.1723
 6778SOL     OW31795   1.932   1.516   7.226 -0.1287 -0.0552  0.1051
 6778SOL    HW131796   1.920   1.512   7.321  0.1599 -0.6587  0.1110
 6778SOL    HW231797   1.908   1.609   7.215  1.6356  0.3469 -0.2941
 6779SOL     OW31798   0.833   2.297   7.170 -0.3263  0.1257  0.0634
 6779SOL    HW131799   0.887   2.252   7.105 -1.0154 -0.5224 -0.0674
 6779SOL    HW231800   0.901   2.302   7.237 -1.7798 -1.3684  1.6340
 6780SOL     OW31801   4.342   2.337   5.294  0.5309 -0.3067 -0.3220
 6780SOL    HW131802   4.320   2.244   5.296 -0.5588 -0.0659 -1.0712
 6780SOL    HW231803   4.362   2.368   5.382 -0.5378  0.2913 -0.2994
 6781SOL     OW31804   2.326   4.420  12.659 -0.0334  0.5154  0.0107
 6781SOL    HW131805   2.386   4.484  12.696 -0.9294  0.3237  1.8003
 6781SOL    HW231806   2.243   4.464  12.678  0.8171  2.5223 -0.9142
 6782SOL     OW31807   0.242   0.147  13.938  0.0040 -0.4863 -0.6210
 6782SOL    HW131808   0.281   0.100  13.865 -0.2808 -0.9838 -0.4556
 6782SOL    HW231809   0.235   0.236  13.902  2.5881  0.2270  0.6458
 6783SOL     OW31810   3.960   2.402   5.891  0.3525  0.1003  0.8549
 6783SOL    HW131811   4.018   2.362   5.826 -0.3550  0.5733 -0.0763
 6783SOL    HW231812   3.881   2.432   5.846 -0.1152 -2.9743 -0.4222
 6784SOL     OW31813   4.675   2.051  16.492  0.5981  0.5164  0.0143
 6784SOL    HW131814   4.695   1.976  16.548  0.1939 -0.6578 -1.4079
 6784SOL    HW231815   4.585   2.065  16.520  1.0678  1.9819  0.7516
 6785SOL     OW31816   3.899   0.210   6.980  0.5092  0.5112 -0.1411
 6785SOL    HW131817   3.928   0.301   6.990 -1.3488  1.3267 -2.0523
 6785SOL    HW231818   3.918   0.177   7.068 -1.4679  0.8265  0.4241
 6786SOL     OW31819   3.996   2.822   7.810  0.0819 -0.0723 -0.5174
 6786SOL    HW131820   4.055   2.879   7.859  1.0949 -1.2205 -0.3961
 6786SOL    HW231821   4.036   2.737   7.831  0.6680 -0.0725 -1.6671
 6787SOL     OW31822   2.178   2.887   3.846 -0.3793 -0.1759  0.0895
 6787SOL    HW131823   2.189   2.822   3.915  0.5476 -1.9624 -1.7238
 6787SOL    HW231824   2.083   2.890   3.852 -0.5334  2.7473 -3.6043
 6788SOL     OW31825   2.095   2.290   2.957 -0.6156  0.1037 -0.4542
 6788SOL    HW131826   2.010   2.247   2.952 -0.2182 -1.0513  2.4593
 6788SOL    HW231827   2.073   2.377   2.990 -0.3797  0.5325 -1.4374
 6789SOL     OW31828   0.310   2.840   9.059  0.4164  0.8194  0.2899
 6789SOL    HW131829   0.282   2.924   9.022 -1.8713 -0.3808 -0.7244
 6789SOL    HW231830   0.263   2.843   9.143 -0.1275 -2.5075  0.0705
 6790SOL     OW31831   4.569   1.625  10.057 -0.1961 -0.5093  0.3708
 6790SOL    HW131832   4.479   1.659  10.056 -0.4273 -1.0506  2.3128
 6790SOL    HW231833   4.615   1.670   9.986  2.4214  0.6327  2.7862
 6791SOL     OW31834   1.837   1.771   0.944 -0.6389  0.5000  0.2488
 6791SOL    HW131835   1.881   1.708   0.887  1.6635  0.7015  1.8268
 6791SOL    HW231836   1.798   1.706   1.003 -1.0737 -0.3852 -0.9904
 6792SOL     OW31837   4.350   1.997   3.798  0.1299 -0.0930 -0.0719
 6792SOL    HW131838   4.289   1.997   3.872 -0.7393 -2.5487 -0.7950
 6792SOL    HW231839   4.422   1.961   3.849  0.0249 -3.0481 -2.0140
 6793SOL     OW31840   3.124   3.752   6.892  0.7562 -0.2437  0.0557
 6793SOL    HW131841   3.055   3.818   6.891 -0.4885 -1.5716 -1.3568
 6793SOL    HW231842   3.158   3.760   6.981 -0.8278 -0.2742  0.6662
 6794SOL     OW31843   3.399   2.979  14.199 -0.1576 -0.3889  0.0594
 6794SOL    HW131844   3.492   2.972  14.220 -0.4832 -2.0404  0.8984
 6794SOL    HW231845   3.398   2.925  14.120 -1.1810 -1.0229  0.5167
 6795SOL     OW31846   0.475   0.215   5.140 -0.2533  0.2286  0.3871
 6795SOL    HW131847   0.503   0.223   5.049  0.4766 -0.0947  0.5850
 6795SOL    HW231848   0.404   0.151   5.134  1.5468 -1.8763  1.7444
 6796SOL     OW31849   3.331   3.512   6.118  0.0864 -0.3051  0.4693
 6796SOL    HW131850   3.384   3.484   6.044 -0.7386 -1.7869  0.4285
 6796SOL    HW231851   3.283   3.432   6.141 -0.6446 -0.2247 -0.7831
 6797SOL     OW31852   3.008   2.488   6.260  0.5202  0.6658  0.4721
 6797SOL    HW131853   3.056   2.411   6.291 -1.6648 -1.3651 -1.1074
 6797SOL    HW231854   3.030   2.548   6.331 -0.7746  1.3385  0.3036
 6798SOL     OW31855   0.054   1.370  13.888 -0.5931  0.2924  0.0374
 6798SOL    HW131856   0.040   1.293  13.944 -2.4643  1.3302  1.0120
 6798SOL    HW231857   4.695   1.422  13.907 -0.9842  0.5028 -2.1373
 6799SOL     OW31858   4.411   0.807   1.830  0.1593 -0.0088 -0.3960
 6799SOL    HW131859   4.432   0.744   1.761  1.4650 -0.6211  0.5522
 6799SOL    HW231860   4.327   0.840   1.797 -0.3464  0.7384  1.6407
 6800SOL     OW31861   0.923   4.075   5.020 -0.4688 -0.1329  0.5562
 6800SOL    HW131862   0.888   3.994   4.983 -0.8740 -0.6410  2.0892
 6800SOL    HW231863   1.001   4.087   4.966  0.5323  2.0713  2.5511
 6801SOL     OW31864   2.855   3.677   9.009  0.0889 -0.6430  0.0080
 6801SOL    HW131865   2.804   3.644   8.935  1.9850 -2.0940 -0.6556
 6801SOL    HW231866   2.935   3.711   8.968 -0.4114  1.5128  0.8135
 6802SOL     OW31867   0.762   3.486   8.329 -0.2702  0.0060 -0.0523
 6802SOL    HW131868   0.808   3.404   8.314  1.2692  1.1285 -1.4883
 6802SOL    HW231869   0.814   3.520   8.402  0.1014  0.0565 -0.3407
 6803SOL     OW31870   2.291   0.999   7.485 -0.1388 -0.5080  0.0854
 6803SOL    HW131871   2.208   1.029   7.449  0.4775  1.3962  0.2697
 6803SOL    HW231872   2.351   1.070   7.462 -2.2018  0.4160 -2.4274
 6804SOL     OW31873   1.493   0.289  12.499  0.1383 -0.1587 -0.0978
 6804SOL    HW131874   1.576   0.335  12.486  0.8504 -1.7020 -1.0644
 6804SOL    HW231875   1.475   0.302  12.592  0.3216  0.2264 -0.1175
 6805SOL     OW31876   0.915   0.880  12.330  0.0849 -0.1597  0.2811
 6805SOL    HW131877   0.866   0.819  12.275  0.0013  1.3193 -1.2998
 6805SOL    HW231878   0.919   0.826  12.409  0.8209 -0.9229 -0.2704
 6806SOL     OW31879   0.617   1.487  16.851 -0.4282  0.3880  0.1411
 6806SOL    HW131880   0.691   1.547  16.864 -0.1718  0.4056 -1.3720
 6806SOL    HW231881   0.626   1.440  16.934 -1.8986  0.8247  0.5407
 6807SOL     OW31882   2.674   0.621   7.106 -0.1437 -0.4840  0.1604
 6807SOL    HW131883   2.633   0.554   7.051 -1.4648  0.3699  0.1026
 6807SOL    HW231884   2.624   0.700   7.085  0.9855  0.0802 -0.4616
 6808SOL     OW31885   1.774   4.463   7.354 -0.1097  0.3012 -0.1784
 6808SOL    HW131886   1.789   4.377   7.394 -1.7601 -1.4194 -3.2814
 6808SOL    HW231887   1.695   4.439   7.305  0.6702 -2.4102 -0.1427
 6809SOL     OW31888   4.372   4.533   8.621  0.0781  0.0137 -0.0502
 6809SOL    HW131889   4.377   4.571   8.533  2.9933  2.0654  0.9844
 6809SOL    HW231890   4.356   4.443   8.595  0.6760  0.1993 -1.0925
 6810SOL     OW31891   1.979   4.066   2.107  0.1630 -0.6273  0.3359
 6810SOL    HW131892   1.972   4.016   2.026 -2.6486  0.6825 -0.2011
 6810SOL    HW231893   1.897   4.058   2.155 -0.0889 -1.7796 -0.2778
 6811SOL     OW31894   1.572   1.285   9.513  0.0287  0.3345  0.3671
 6811SOL    HW131895   1.646   1.314   9.566 -0.2670  0.2528  0.8307
 6811SOL    HW231896   1.585   1.343   9.438  3.5549 -0.2916  0.4793
 6812SOL     OW31897   1.866   3.729   6.925 -0.4270  0.2259  0.3683
 6812SOL    HW131898   1.800   3.669   6.959  0.1926 -0.0275  1.1291
 6812SOL    HW231899   1.817   3.810   6.910  0.4526  0.9093  1.1952
 6813SOL     OW31900   3.446   4.703   4.078 -0.1746  0.2417 -0.0212
 6813SOL    HW131901   3.453   4.626   4.134 -0.0949  0.8389  0.7826
 6813SOL    HW231902   3.351   4.702   4.064 -0.2857 -0.3155  0.7803
 6814SOL     OW31903   1.915   1.439   5.034 -0.0794 -0.4085  0.2832
 6814SOL    HW131904   1.938   1.509   5.095 -0.4085 -1.5192  1.6981
 6814SOL    HW231905   1.971   1.373   5.076  1.7518  1.5135  0.8425
 6815SOL     OW31906   3.687   3.133   2.016  0.5433  0.2419  0.2027
 6815SOL    HW131907   3.595   3.140   1.993  0.0413 -2.1305  1.5534
 6815SOL    HW231908   3.737   3.189   1.956 -1.1145  1.1366 -0.3360
 6816SOL     OW31909   1.850   4.575   6.524  0.4592  0.2670 -0.1014
 6816SOL    HW131910   1.878   4.541   6.438 -0.1255  1.2448 -0.6699
 6816SOL    HW231911   1.908   4.649   6.541 -1.1426  2.0825 -2.5300
 6817SOL     OW31912   0.424   0.566  11.682 -0.1723  0.6408  0.4594
 6817SOL    HW131913   0.431   0.610  11.766  0.6911  0.0854  0.6905
 6817SOL    HW231914   0.330   0.569  11.664 -0.3318  0.3837  1.2802
 6818SOL     OW31915   4.281   1.951   9.702  0.3017  0.1779 -0.3416
 6818SOL    HW131916   4.294   2.039   9.739  0.7012 -0.6472  1.4924
 6818SOL    HW231917   4.186   1.943   9.696  0.0445  4.1795 -1.7625
 6819SOL     OW31918   1.027   2.234   1.778 -0.2352 -0.1614 -0.2232
 6819SOL    HW131919   1.121   2.224   1.794 -0.6895 -0.2214  2.4214
 6819SOL    HW231920   0.987   2.167   1.834  1.6418 -1.1960 -0.1148
 6820SOL     OW31921   1.387   4.295   8.165 -0.3432  0.1113  0.3138
 6820SOL    HW131922   1.323   4.244   8.215 -1.0725  0.3461 -0.3741
 6820SOL    HW231923   1.430   4.224   8.118 -1.0951 -0.6592  0.7931
 6821SOL     OW31924   2.155   3.187   6.609 -0.2096  0.1901 -0.6046
 6821SOL    HW131925   2.083   3.248   6.591 -0.3154 -0.0838 -1.1215
 6821SOL    HW231926   2.173   3.163   6.518  2.0540 -0.3764 -0.0054
 6822SOL     OW31927   3.739   1.723   5.125  0.2437 -0.1810 -0.0138
 6822SOL    HW131928   3.820   1.724   5.074  0.1584  2.1487 -0.0746
 6822SOL    HW231929   3.706   1.641   5.087 -2.4046  0.2091  1.4769
 6823SOL     OW31930   1.699   2.483   6.565  0.4391 -0.4098 -0.1442
 6823SOL    HW131931   1.702   2.529   6.649  1.3779  0.6025 -0.7432
 6823SOL    HW231932   1.638   2.544   6.524  1.4286  2.3040  2.4067
 6824SOL     OW31933   0.689   2.028   8.624 -0.8167  0.0493  0.3015
 6824SOL    HW131934   0.728   2.002   8.707  1.3544  2.0713 -0.0808
 6824SOL    HW231935   0.706   1.947   8.576 -2.0563 -0.3605  0.5627
 6825SOL     OW31936   1.154   2.826   6.238  0.3106 -0.5838 -0.5017
 6825SOL    HW131937   1.171   2.817   6.332 -1.7492 -0.8269 -0.1465
 6825SOL    HW231938   1.110   2.743   6.221  0.9198 -0.6723 -1.5929
 6826SOL     OW31939   3.384   2.783   8.884 -0.5137  0.9323  0.0448
 6826SOL    HW131940   3.380   2.750   8.974  1.8927  0.3545 -0.0617
 6826SOL    HW231941   3.429   2.866   8.893  0.3180  0.3512  1.1391
 6827SOL     OW31942   3.731   3.192  11.542  0.0316  0.2923  0.8755
 6827SOL    HW131943   3.659   3.205  11.604 -0.9716  0.5783 -0.3405
 6827SOL    HW231944   3.802   3.165  11.599  1.7861  1.3775 -0.8084
 6828SOL     OW31945   1.984   4.162   0.823  0.1383  0.3097  0.1078
 6828SOL    HW131946   2.061   4.173   0.878 -0.7703  2.0576  1.0353
 6828SOL    HW231947   1.935   4.244   0.836 -1.0143  0.0879 -2.6750
 6829SOL     OW31948   0.897   2.304   5.341  0.2414 -0.0810  0.0554
 6829SOL    HW131949   0.824   2.359   5.370  0.3451  1.5122 -2.7182
 6829SOL    HW231950   0.878   2.283   5.250 -1.8726 -0.5095  0.5871
 6830SOL     OW31951   2.286   3.334   7.315  0.7431  0.6156 -0.2948
 6830SOL    HW131952   2.252   3.247   7.338 -0.4664  0.9529 -0.8219
 6830SOL    HW231953   2.264   3.330   7.222  1.3476  0.5241 -0.4294
 6831SOL     OW31954   4.180   1.319   5.750 -0.3771  0.5035 -0.3763
 6831SOL    HW131955   4.239   1.298   5.822 -0.5321  0.0651 -0.3758
 6831SOL    HW231956   4.125   1.240   5.752  1.0273 -0.4059  1.7812
 6832SOL     OW31957   0.866   2.333  17.555  0.0794 -0.1793 -0.1938
 6832SOL    HW131958   0.773   2.352  17.563  1.1261  4.2490  1.5662
 6832SOL    HW231959   0.874   2.284  17.637  2.4148  0.9693  0.2739
 6833SOL     OW31960   2.644   4.324   0.613 -0.3608  0.1787  0.3744
 6833SOL    HW131961   2.557   4.285   0.624 -0.3457 -0.5586 -2.0913
 6833SOL    HW231962   2.641   4.369   0.697 -1.3469  1.1233 -0.1629
 6834SOL     OW31963   1.843   0.510  13.684  0.3170 -0.3664 -0.1251
 6834SOL    HW131964   1.748   0.507  13.685  0.3105  0.0106  0.1731
 6834SOL    HW231965   1.858   0.536  13.775 -1.4644 -0.6697  0.2564
 6835SOL     OW31966   2.218   0.464   7.695 -0.0444  0.0993  0.2614
 6835SOL    HW131967   2.150   0.415   7.649 -0.2694  0.3561  0.3181
 6835SOL    HW231968   2.175   0.549   7.709 -2.1202 -0.9164  0.0045
 6836SOL     OW31969   0.010   3.588   7.589  0.3406 -0.0780 -0.7727
 6836SOL    HW131970   0.030   3.632   7.506 -1.0981  1.7406 -0.1580
 6836SOL    HW231971   0.045   3.500   7.582  0.0634 -0.2694  0.3018
 6837SOL     OW31972   3.544   1.135   7.020 -0.1238 -0.0830  0.6109
 6837SOL    HW131973   3.638   1.153   7.017 -0.5514  1.8182 -0.8644
 6837SOL    HW231974   3.517   1.202   7.083 -0.2089 -0.1090  0.6020
 6838SOL     OW31975   4.040   3.860   6.872  0.0352  0.1388 -0.3375
 6838SOL    HW131976   4.117   3.804   6.866  0.8881  1.4490 -1.8459
 6838SOL    HW231977   4.010   3.849   6.782 -2.5840  1.2544  0.4043
 6839SOL     OW31978   0.296   4.602  10.821  0.0203 -0.5486  0.2061
 6839SOL    HW131979   0.304   4.516  10.862  2.1420 -0.7263 -0.5660
 6839SOL    HW231980   0.314   4.657  10.898  0.3610 -0.3529 -0.0094
 6840SOL     OW31981   4.628   4.199   3.753 -0.9244 -0.0419  0.5992
 6840SOL    HW131982   4.614   4.127   3.815 -0.8012 -0.0400  0.6290
 6840SOL    HW231983   0.002   4.207   3.768 -0.4800 -1.2087 -1.5781
 6841SOL     OW31984   1.060   2.539   1.821  0.1599 -0.1093 -0.0599
 6841SOL    HW131985   1.099   2.453   1.805  0.0437 -0.0311 -0.7983
 6841SOL    HW231986   1.117   2.594   1.768  0.2463 -1.0971 -1.0028
 6842SOL     OW31987   0.721   1.252   6.674 -0.3521 -0.6379  0.0251
 6842SOL    HW131988   0.635   1.229   6.639  0.2907  1.8903 -3.2422
 6842SOL    HW231989   0.718   1.228   6.767  1.4758  0.7128  0.4433
 6843SOL     OW31990   0.668   3.425  10.893  0.0451  0.3461 -0.2031
 6843SOL    HW131991   0.677   3.490  10.824 -2.5225  0.8991 -0.0195
 6843SOL    HW231992   0.745   3.457  10.940  0.0394  0.5155 -0.3077
 6844SOL     OW31993   0.873   1.875   0.002 -0.5743 -0.1261  0.3473
 6844SOL    HW131994   0.869   1.840   0.091 -0.1392 -1.3080 -0.0955
 6844SOL    HW231995   0.964   1.865  17.658 -1.0620 -2.9259 -0.3432
 6845SOL     OW31996   3.115   3.363   2.056  0.2040 -0.5208 -0.3741
 6845SOL    HW131997   3.153   3.299   1.997  1.3397  1.4057 -1.7369
 6845SOL    HW231998   3.157   3.342   2.139  0.0502  2.2024  0.3872
 6846SOL     OW31999   2.117   4.450   7.691 -0.0755 -0.3716 -0.2828
 6846SOL    HW132000   2.075   4.404   7.764  1.4107 -2.9108 -1.0343
 6846SOL    HW232001   2.179   4.392   7.647  0.8524 -0.6786  1.3947
 6847SOL     OW32002   3.982   1.362   0.366 -0.3631 -0.3509  0.2642
 6847SOL    HW132003   4.026   1.305   0.303 -3.2340 -0.4498 -1.6661
 6847SOL    HW232004   3.961   1.296   0.432  2.2119 -0.0288  1.4318
 6848SOL     OW32005   3.024   1.052   8.435  0.1023  0.3519  0.2103
 6848SOL    HW132006   3.087   1.047   8.507  0.2628 -0.9470 -0.0252
 6848SOL    HW232007   2.942   1.082   8.475 -0.7094 -0.5576 -0.7864
 6849SOL     OW32008   1.532   3.733  11.561  0.0079 -0.7771 -0.1081
 6849SOL    HW132009   1.532   3.715  11.655  1.5820 -1.4634 -0.2470
 6849SOL    HW232010   1.482   3.662  11.521 -1.7689 -0.1226  0.9366
 6850SOL     OW32011   1.846   4.050   7.752 -0.6929  0.1544 -0.1734
 6850SOL    HW132012   1.874   4.002   7.674  1.2407 -0.0965  0.6811
 6850SOL    HW232013   1.932   4.063   7.792  0.3068 -0.1647 -2.1647
 6851SOL     OW32014   1.213   3.903   0.953 -0.3143  0.0907 -1.0613
 6851SOL    HW132015   1.125   3.892   0.918 -0.6426 -1.5304  0.2605
 6851SOL    HW232016   1.254   3.821   0.924  0.9655 -0.0810  1.2131
 6852SOL     OW32017   3.015   2.269   9.608  0.0791 -0.2412  0.5094
 6852SOL    HW132018   2.971   2.205   9.665 -2.9519  0.8539 -0.5822
 6852SOL    HW232019   2.946   2.281   9.543  1.2423 -0.0046 -0.6660
 6853SOL     OW32020   2.033   2.636   5.782  0.5112  0.3762 -0.6006
 6853SOL    HW132021   1.984   2.695   5.839 -2.1558 -0.8926 -1.5782
 6853SOL    HW232022   2.042   2.689   5.703  0.9102  3.4253  1.5157
 6854SOL     OW32023   2.661   0.572   7.368  0.4987  0.0867 -0.5425
 6854SOL    HW132024   2.669   0.577   7.272  2.2880 -0.7930 -0.4339
 6854SOL    HW232025   2.733   0.511   7.381 -0.0233 -0.1117  1.4382
 6855SOL     OW32026   4.357   3.406   6.650 -0.0812  0.3461 -0.1670
 6855SOL    HW132027   4.276   3.362   6.628  0.8539 -1.1193 -0.7019
 6855SOL    HW232028   4.342   3.486   6.601 -0.0766  1.0853  1.0413
 6856SOL     OW32029   2.068   0.106   2.455  0.4097 -0.2174 -0.1302
 6856SOL    HW132030   2.133   0.150   2.509  2.2574 -3.0976 -0.0345
 6856SOL    HW232031   2.102   0.134   2.369  2.2597 -1.6314  0.1514
 6857SOL     OW32032   0.100   3.047  13.637 -0.6709  0.3839  0.0395
 6857SOL    HW132033   0.077   2.993  13.712  0.0858 -0.0804 -0.0659
 6857SOL    HW232034   0.015   3.071  13.600 -1.5982 -2.1825  0.5592
 6858SOL     OW32035   4.546   3.374  12.561 -0.0968 -0.1159 -0.4516
 6858SOL    HW132036   4.544   3.365  12.657  0.5600  0.1217 -0.4114
 6858SOL    HW232037   4.640   3.377  12.543  0.2092 -0.0260  1.0916
 6859SOL     OW32038   2.220   1.146   3.583  0.2749  0.3200  0.0783
 6859SOL    HW132039   2.240   1.054   3.567 -1.4158  0.0473 -0.5004
 6859SOL    HW232040   2.299   1.177   3.627 -0.0321 -1.6996  2.0667
 6860SOL     OW32041   0.725   2.762   8.556  0.1753 -0.3759  0.5511
 6860SOL    HW132042   0.709   2.706   8.480 -1.1312 -0.0525  0.5882
 6860SOL    HW232043   0.713   2.852   8.525 -0.9133 -0.4307  0.7970
 6861SOL     OW32044   1.920   2.505  15.243 -0.4890  0.7336  0.2220
 6861SOL    HW132045   1.851   2.548  15.295 -0.3869  0.2714  0.7420
 6861SOL    HW232046   1.994   2.520  15.302 -0.3806 -2.0035  0.7864
 6862SOL     OW32047   0.177   3.238   4.700  0.1338  0.0504  0.2604
 6862SOL    HW132048   0.090   3.275   4.714  0.9968  1.2720  2.3744
 6862SOL    HW232049   0.193   3.262   4.609 -0.5180 -0.0111  0.1317
 6863SOL     OW32050   2.794   0.816   1.008 -0.1197 -0.2206 -0.1922
 6863SOL    HW132051   2.766   0.775   0.926  1.2148 -0.0313 -0.7517
 6863SOL    HW232052   2.864   0.875   0.980 -0.8840  1.2849  1.1379
 6864SOL     OW32053   2.869   3.064  11.624 -0.2578  0.1083  0.4349
 6864SOL    HW132054   2.943   3.056  11.564 -0.3123 -0.7076  0.4750
 6864SOL    HW232055   2.910   3.099  11.703 -1.2903 -0.2398  1.1233
 6865SOL     OW32056   3.936   2.003   7.361 -0.0940 -0.6678  0.1904
 6865SOL    HW132057   3.972   2.078   7.409  0.8783 -1.0490  0.0705
 6865SOL    HW232058   3.860   2.041   7.316  0.7142  0.5679 -0.1514
 6866SOL     OW32059   0.257   2.929   7.302  0.8184  0.1084 -0.5011
 6866SOL    HW132060   0.289   2.885   7.381 -0.3003  2.7356  1.4102
 6866SOL    HW232061   0.291   3.018   7.312 -0.3139  0.6835 -1.7415
 6867SOL     OW32062   4.454   2.973  12.812  0.4138  0.6562  0.2291
 6867SOL    HW132063   4.469   2.987  12.719 -1.2785  1.7838  0.1405
 6867SOL    HW232064   4.361   2.992  12.811  0.2283 -0.4340 -1.6836
 6868SOL     OW32065   2.940   3.678  15.361  0.0035 -0.2704  0.1366
 6868SOL    HW132066   2.873   3.747  15.364  2.6741  2.2295  2.4090
 6868SOL    HW232067   2.943   3.651  15.452  1.1187  0.3104  0.2735
 6869SOL     OW32068   1.448   3.753   4.284  0.2315 -0.1571  0.1770
 6869SOL    HW132069   1.445   3.807   4.363  0.8764  1.4052 -0.8503
 6869SOL    HW232070   1.362   3.711   4.280  0.5201 -0.6727 -0.5772
 6870SOL     OW32071   3.390   1.025   6.700  0.2349 -0.2156  0.0556
 6870SOL    HW132072   3.417   1.046   6.610 -3.6519 -0.7870 -1.2332
 6870SOL    HW232073   3.359   1.114   6.720  1.0819 -0.0854  0.7880
 6871SOL     OW32074   4.714   3.556   2.601  0.0370  0.1036 -0.4325
 6871SOL    HW132075   4.681   3.601   2.522  0.5941  0.2677 -0.5703
 6871SOL    HW232076   4.640   3.539   2.660  1.4010  1.1341  1.5756
 6872SOL     OW32077   3.235   3.970   4.821  0.1385 -0.0810  0.2159
 6872SOL    HW132078   3.184   4.051   4.824 -1.0415 -0.8167  0.1024
 6872SOL    HW232079   3.170   3.907   4.788  1.4008 -1.3918  0.2310
 6873SOL     OW32080   0.422   0.139   4.572 -0.5908  0.0501 -0.1472
 6873SOL    HW132081   0.493   0.101   4.520 -0.1107 -2.3794  2.2793
 6873SOL    HW232082   0.456   0.160   4.659 -0.5135  0.5069 -0.2885
 6874SOL     OW32083   3.032   0.052  14.403 -0.2845  0.3331  0.6145
 6874SOL    HW132084   3.078   4.701  14.358  0.5410  1.9664 -1.0830
 6874SOL    HW232085   2.940   0.032  14.388 -0.2447  0.0145  0.7738
 6875SOL     OW32086   0.131   2.063   3.492 -0.2268 -0.7530  0.4446
 6875SOL    HW132087   0.109   2.140   3.544 -3.6821 -1.3042 -0.2118
 6875SOL    HW232088   0.223   2.047   3.515 -1.1370 -2.8681  2.5903
 6876SOL     OW32089   1.080   4.492  14.285 -0.5728 -0.1803  0.4623
 6876SOL    HW132090   1.082   4.541  14.367  1.9016  0.4303  0.0223
 6876SOL    HW232091   1.091   4.568  14.228  0.6726 -0.1592  0.7472
 6877SOL     OW32092   2.207   4.536   5.240  0.6331 -0.0579  0.1396
 6877SOL    HW132093   2.210   4.491   5.325 -0.2056  0.3495  0.3804
 6877SOL    HW232094   2.283   4.509   5.189 -0.2164  2.5086 -2.4886
 6878SOL     OW32095   4.102   2.603   5.517  0.0362 -0.6082  0.0951
 6878SOL    HW132096   4.170   2.537   5.533  1.2415  0.2688 -1.3227
 6878SOL    HW232097   4.032   2.540   5.505 -1.0558  0.7247 -0.5796
 6879SOL     OW32098   2.274   3.147  17.675 -0.0600  0.2502  0.0535
 6879SOL    HW132099   2.228   3.083   0.049  1.7233  0.5860  1.8968
 6879SOL    HW232100   2.238   3.229   0.028 -3.6513 -0.1806 -2.7333
 6880SOL     OW32101   0.673   2.643   6.176  0.3055  0.9800  0.6553
 6880SOL    HW132102   0.670   2.580   6.248 -0.3926 -1.5515 -1.6069
 6880SOL    HW232103   0.579   2.656   6.163 -0.3203 -2.1972  2.0171
 6881SOL     OW32104   3.218   1.501   4.764 -0.1390  0.3628  0.5517
 6881SOL    HW132105   3.207   1.578   4.819  2.5121  1.5164 -0.5745
 6881SOL    HW232106   3.154   1.529   4.699  1.2720 -1.7487 -1.7524
 6882SOL     OW32107   3.283   0.522   2.462 -0.2821  0.0353  0.2376
 6882SOL    HW132108   3.245   0.595   2.413 -0.5415  0.9958  1.8456
 6882SOL    HW232109   3.211   0.491   2.516 -1.4264  1.3313 -0.5296
 6883SOL     OW32110   1.758   0.083   3.856  0.0790  0.0205  0.0222
 6883SOL    HW132111   1.846   0.054   3.829  0.0265 -1.0379  0.9819
 6883SOL    HW232112   1.777   0.136   3.933 -1.7492  1.5183 -0.5858
 6884SOL     OW32113   0.109   3.319  12.086  0.1759 -0.0685 -0.4967
 6884SOL    HW132114   0.035   3.270  12.122  0.7255 -0.6069 -0.0927
 6884SOL    HW232115   0.127   3.368  12.166  0.3821 -0.0434 -0.5578
 6885SOL     OW32116   2.429   0.873  11.169  0.2925 -0.2455 -0.8403
 6885SOL    HW132117   2.422   0.785  11.205 -3.4653  0.9935  1.4728
 6885SOL    HW232118   2.388   0.863  11.082 -0.7115 -0.7131 -0.3194
 6886SOL     OW32119   4.153   1.960   2.921  0.2839  0.3285  0.2238
 6886SOL    HW132120   4.091   2.031   2.905  0.3004  0.1381 -0.6784
 6886SOL    HW232121   4.211   1.982   2.848 -0.8550  1.1473 -0.4282
 6887SOL     OW32122   1.259   4.491   5.241 -0.7037 -0.3483 -0.0427
 6887SOL    HW132123   1.335   4.446   5.276 -2.4780 -1.5092  2.3478
 6887SOL    HW232124   1.268   4.482   5.146 -1.7402 -0.4627 -0.1344
 6888SOL     OW32125   0.553   4.511   4.569  0.5631  0.3632 -0.5640
 6888SOL    HW132126   0.603   4.590   4.550 -1.2158  1.9598  1.2998
 6888SOL    HW232127   0.620   4.444   4.556  0.5557  0.2056  0.1745
 6889SOL     OW32128   3.597   3.468  16.719 -0.5143  0.6542  0.0396
 6889SOL    HW132129   3.649   3.539  16.754 -2.6401  2.1506  0.1285
 6889SOL    HW232130   3.579   3.433  16.806 -1.4206 -1.7364 -1.0887
 6890SOL     OW32131   3.847   1.202   6.007 -0.7197  0.2466 -0.1430
 6890SOL    HW132132   3.756   1.213   5.982  0.0290  0.2620 -2.8162
 6890SOL    HW232133   3.833   1.195   6.102 -0.4094 -0.4344 -0.1455
 6891SOL     OW32134   3.184   2.956   6.607 -0.0148 -0.0361  0.0011
 6891SOL    HW132135   3.232   2.885   6.651 -0.4303 -0.8762 -0.9146
 6891SOL    HW232136   3.097   2.932   6.639 -0.5984 -0.3443 -1.8322
 6892SOL     OW32137   2.027   3.172   9.196 -0.0358 -0.3649 -0.2628
 6892SOL    HW132138   1.973   3.103   9.158  0.0039  0.8810 -2.6220
 6892SOL    HW232139   1.964   3.235   9.231  0.1160  0.1587 -0.9214
 6893SOL     OW32140   2.810   2.788  11.641  0.2079  0.0769  0.0879
 6893SOL    HW132141   2.831   2.881  11.639 -2.0260  0.5842  0.6655
 6893SOL    HW232142   2.747   2.783  11.569  0.2013 -0.4443  0.1298
 6894SOL     OW32143   3.904   1.901   1.684 -0.0933  0.6244  0.3164
 6894SOL    HW132144   3.916   1.923   1.592  0.6454  4.3345  1.2724
 6894SOL    HW232145   3.819   1.942   1.697 -1.0806 -2.1468  2.5660
 6895SOL     OW32146   3.471   3.977   8.111  0.0687 -0.4566 -0.4455
 6895SOL    HW132147   3.506   3.894   8.145 -0.1644 -0.6405 -0.6488
 6895SOL    HW232148   3.513   4.039   8.170 -3.7303  0.6570  1.1181
 6896SOL     OW32149   3.509   1.102  13.652  0.1014  1.0420  0.3916
 6896SOL    HW132150   3.423   1.059  13.655  0.8412 -0.6240 -2.4308
 6896SOL    HW232151   3.558   1.028  13.617  0.6249  0.7279  1.7871
 6897SOL     OW32152   4.570   3.276   7.357  0.0887 -0.0575 -0.6657
 6897SOL    HW132153   4.660   3.294   7.387  0.0677 -1.4839  0.2599
 6897SOL    HW232154   4.588   3.280   7.263  0.3142 -0.9020 -0.6601
 6898SOL     OW32155   2.861   0.598   2.501  0.3136  0.0299  0.0891
 6898SOL    HW132156   2.785   0.562   2.455  1.3142  0.8358 -2.2275
 6898SOL    HW232157   2.906   0.633   2.423  0.9105  0.3145  0.5619
 6899SOL     OW32158   3.607   0.880  15.250 -0.3158 -0.8559 -0.4184
 6899SOL    HW132159   3.609   0.920  15.337  0.2408 -1.1819 -0.2757
 6899SOL    HW232160   3.614   0.955  15.191  1.1804  0.3725  1.3340
 6900SOL     OW32161   2.810   3.323   7.689 -0.2996 -0.1711  0.3481
 6900SOL    HW132162   2.826   3.414   7.715 -2.3947  0.7812 -1.7395
 6900SOL    HW232163   2.884   3.302   7.631  0.3198  1.1686  0.6453
 6901SOL     OW32164   1.162   1.794   5.655  0.4245 -0.8769  0.3958
 6901SOL    HW132165   1.239   1.834   5.615  1.0020 -1.7251  0.6395
 6901SOL    HW232166   1.099   1.786   5.584  1.3896 -2.3647 -0.2905
 6902SOL     OW32167   0.750   2.811   7.207  0.0675 -0.2660 -0.8898
 6902SOL    HW132168   0.668   2.763   7.209  0.4857 -1.0410 -2.2353
 6902SOL    HW232169   0.799   2.774   7.133  0.7627 -0.5196 -0.2981
 6903SOL     OW32170   3.403   1.138   5.267 -0.1536  0.0610 -0.1833
 6903SOL    HW132171   3.460   1.069   5.300  1.8432  2.3500  1.2147
 6903SOL    HW232172   3.366   1.164   5.352 -0.3594  4.0554 -1.4599
 6904SOL     OW32173   2.014   4.555   2.149  0.0965 -0.1844 -0.4337
 6904SOL    HW132174   2.019   4.471   2.105  0.8923 -0.6474  0.5369
 6904SOL    HW232175   2.099   4.557   2.191  0.5459  1.5589 -1.4274
 6905SOL     OW32176   3.978   1.780   4.192 -0.2678 -0.0344 -0.1219
 6905SOL    HW132177   4.070   1.802   4.204 -0.1423 -0.7421  0.1865
 6905SOL    HW232178   3.946   1.856   4.142 -2.2930 -0.5071  0.4472
 6906SOL     OW32179   0.743   2.639   8.330  0.0460  0.5989 -0.2930
 6906SOL    HW132180   0.710   2.608   8.246 -1.9001  1.2913  0.2155
 6906SOL    HW232181   0.760   2.731   8.311 -2.7421  0.7389 -2.0048
 6907SOL     OW32182   0.920   2.702   4.759 -0.8863  0.8888 -0.1440
 6907SOL    HW132183   0.868   2.671   4.685  1.5983  1.5579 -2.1461
 6907SOL    HW232184   0.994   2.739   4.711 -0.2062 -0.3778 -0.0833
 6908SOL     OW32185   0.780   0.613  10.023 -0.0263  0.5105 -0.1364
 6908SOL    HW132186   0.709   0.666   9.988  0.4205 -0.5304 -2.6364
 6908SOL    HW232187   0.781   0.641  10.114  1.1728  0.5615 -0.1660
 6909SOL     OW32188   0.171   0.400  10.755 -0.4080  0.0540 -0.1779
 6909SOL    HW132189   0.094   0.414  10.700 -0.2662 -1.7294 -0.8430
 6909SOL    HW232190   0.230   0.353  10.697 -1.0914 -0.1311 -0.7289
 6910SOL     OW32191   4.679   4.040   9.275  0.0077 -0.4450  0.5606
 6910SOL    HW132192   0.020   4.055   9.347  0.8738  0.2442 -0.3034
 6910SOL    HW232193   0.014   4.017   9.199 -0.5501  1.3104 -0.3918
 6911SOL     OW32194   2.167   4.248  14.602  0.3964  0.1307  0.1552
 6911SOL    HW132195   2.116   4.239  14.521 -0.3306 -3.9049  1.0835
 6911SOL    HW232196   2.124   4.324  14.641 -1.4113  0.0959 -1.7481
 6912SOL     OW32197   2.265   3.012   5.295  0.2183 -0.6599  0.4158
 6912SOL    HW132198   2.207   3.047   5.227  0.2867 -1.1822  0.0836
 6912SOL    HW232199   2.236   3.050   5.378 -1.2425 -0.2614 -0.2826
 6913SOL     OW32200   4.011   2.674   8.685  0.0852 -0.0162  0.1110
 6913SOL    HW132201   3.986   2.766   8.685  0.4514  0.0776 -1.4146
 6913SOL    HW232202   3.996   2.647   8.776 -0.3816 -0.0215  0.0350
 6914SOL     OW32203   4.277   4.570   2.430 -0.1911 -0.3218  0.3860
 6914SOL    HW132204   4.212   4.611   2.373  0.0549 -0.5144 -0.0401
 6914SOL    HW232205   4.228   4.500   2.473 -2.1036 -0.2732 -1.6972
 6915SOL     OW32206   4.545   0.017   3.663  0.1025  0.2065  0.1322
 6915SOL    HW132207   4.525   4.656   3.709 -2.9212  0.6575 -0.3904
 6915SOL    HW232208   4.495   0.085   3.709 -1.6041 -0.6850 -0.4028
 6916SOL     OW32209   1.563   0.151  13.582  0.3378  0.4094 -0.0852
 6916SOL    HW132210   1.605   0.149  13.667  0.2191 -1.4029 -0.0712
 6916SOL    HW232211   1.632   0.193  13.531  0.3812  0.3388 -0.0849
 6917SOL     OW32212   3.883   1.577   0.243 -0.4301 -0.0151  0.6820
 6917SOL    HW132213   3.827   1.612   0.313 -0.8956  1.3310 -0.3755
 6917SOL    HW232214   3.923   1.504   0.289 -1.1443 -1.1933 -0.5794
 6918SOL     OW32215   2.861   2.245   3.962 -0.1352  0.5126  0.5083
 6918SOL    HW132216   2.896   2.213   4.045  0.1948 -1.8064 -0.5404
 6918SOL    HW232217   2.927   2.225   3.895 -0.6348 -1.6917  0.6971
 6919SOL     OW32218   2.853   2.779   3.616  1.1734 -0.0540 -0.1239
 6919SOL    HW132219   2.905   2.755   3.539  0.4671 -0.7315 -0.3871
 6919SOL    HW232220   2.778   2.823   3.575  1.1111  1.3916  1.5524
 6920SOL     OW32221   4.631   4.101  12.354 -0.3343 -0.1321  0.0867
 6920SOL    HW132222   4.592   4.158  12.288  0.5231  1.3578  0.8608
 6920SOL    HW232223   4.552   4.061  12.389  0.7684 -2.1228  0.3086
 6921SOL     OW32224   1.843   4.186   7.471  0.1147  0.1931  0.3685
 6921SOL    HW132225   1.928   4.176   7.514 -0.7051 -2.4662  1.3202
 6921SOL    HW232226   1.876   4.153   7.388  1.1440  2.2479 -0.0456
 6922SOL     OW32227   3.851   0.520   3.492 -0.6866  0.0971 -0.0157
 6922SOL    HW132228   3.784   0.513   3.423  0.9689  0.0694 -1.6252
 6922SOL    HW232229   3.927   0.473   3.457  0.5887  2.1853 -0.0036
 6923SOL     OW32230   0.852   3.952   8.648  0.3009 -0.3388 -0.7713
 6923SOL    HW132231   0.899   4.020   8.696 -1.2449 -0.4243  0.8575
 6923SOL    HW232232   0.800   4.003   8.585 -1.6208  0.2829  1.3276
 6924SOL     OW32233   0.422   2.027   0.409 -0.1552 -0.3855 -0.1201
 6924SOL    HW132234   0.407   2.093   0.477 -0.5766 -0.5824 -0.0208
 6924SOL    HW232235   0.370   1.954   0.443 -1.6411  1.0357  0.6641
 6925SOL     OW32236   2.324   2.047   9.395 -0.4266 -0.0864  0.0385
 6925SOL    HW132237   2.415   2.024   9.410 -1.1718 -2.0489  1.4955
 6925SOL    HW232238   2.335   2.095   9.313 -0.3540  0.1978  0.2149
 6926SOL     OW32239   0.302   4.675   4.901 -0.1504 -0.1159 -0.3146
 6926SOL    HW132240   0.221   4.717   4.873 -0.8213 -1.5101 -0.4655
 6926SOL    HW232241   0.273   4.584   4.895 -0.2234 -0.2694  2.0978
 6927SOL     OW32242   4.307   2.251   0.589  0.4237 -0.2360 -0.3989
 6927SOL    HW132243   4.272   2.259   0.500 -2.1944 -1.3237  0.5326
 6927SOL    HW232244   4.256   2.175   0.616  1.2443 -0.6908 -0.1167
 6928SOL     OW32245   3.210   1.211  10.320  0.7483  0.1527  0.2724
 6928SOL    HW132246   3.250   1.150  10.383  0.1914 -0.2952  0.1897
 6928SOL    HW232247   3.238   1.293  10.359 -1.8354  0.3129  1.7322
 6929SOL     OW32248   1.013   4.697   6.150 -0.2373  0.2430 -0.4637
 6929SOL    HW132249   0.949   4.630   6.174  1.2478 -0.8286  0.5473
 6929SOL    HW232250   0.995   0.003   6.060  1.5215 -0.0796 -0.9060
 6930SOL     OW32251   2.459   2.800  13.066 -0.0666  0.3541  0.0725
 6930SOL    HW132252   2.477   2.737  12.995  1.0724 -0.9409  1.5124
 6930SOL    HW232253   2.395   2.861  13.029  1.8759  1.0651 -2.1423
 6931SOL     OW32254   4.459   4.454   2.028 -0.5230 -0.0638  0.4445
 6931SOL    HW132255   4.467   4.549   2.032 -0.3739 -0.1114  1.2621
 6931SOL    HW232256   4.549   4.429   2.006 -0.6304  0.2428 -0.3486
 6932SOL     OW32257   2.997   1.870   2.540  0.0063 -0.1931  0.2072
 6932SOL    HW132258   2.905   1.883   2.563 -0.9488  0.2684 -3.9010
 6932SOL    HW232259   3.031   1.815   2.610 -0.4440  0.4969  0.9720
 6933SOL     OW32260   2.300   3.936  15.770 -0.0816 -0.6291 -0.3501
 6933SOL    HW132261   2.211   3.903  15.770 -0.3465  0.0912  1.7242
 6933SOL    HW232262   2.293   3.990  15.692  1.8869  1.6002  1.0032
 6934SOL     OW32263   1.700   0.906   2.364  0.1097 -0.1788  0.1845
 6934SOL    HW132264   1.668   0.886   2.453  0.8360  5.5532  1.7051
 6934SOL    HW232265   1.752   0.830   2.337  0.6760 -0.8485  3.1031
 6935SOL     OW32266   2.907   0.095   3.533 -0.2311  0.0443  0.3150
 6935SOL    HW132267   2.845   0.040   3.486  0.6613 -0.8582  0.1859
 6935SOL    HW232268   2.863   0.175   3.505  0.8908  1.1586  1.7309
 6936SOL     OW32269   1.741   0.456  10.182 -0.3529 -0.0121  0.1705
 6936SOL    HW132270   1.788   0.399  10.244  2.0611  3.4200  1.4549
 6936SOL    HW232271   1.706   0.522  10.242 -0.9548 -0.3133  0.1522
 6937SOL     OW32272   2.045   0.212  10.895  0.3076 -0.2029 -0.3587
 6937SOL    HW132273   2.021   0.144  10.833  0.4794  0.6844 -1.3875
 6937SOL    HW232274   1.969   0.199  10.952 -0.2447 -0.5439 -1.1765
 6938SOL     OW32275   2.364   1.854  17.130 -0.0421 -0.5294  0.5246
 6938SOL    HW132276   2.334   1.938  17.096 -1.0495 -1.4406 -0.8069
 6938SOL    HW232277   2.314   1.792  17.077 -0.3091 -0.4158  0.6444
 6939SOL     OW32278   3.830   0.040  15.208 -0.2303 -0.6074 -0.6546
 6939SOL    HW132279   3.874   0.053  15.124 -0.8886  0.6506 -0.7981
 6939SOL    HW232280   3.785   4.675  15.200 -1.8623  0.3945 -2.1354
 6940SOL     OW32281   4.591   0.482   1.575 -0.1305  0.0653 -0.2551
 6940SOL    HW132282   4.565   0.573   1.558 -0.4932 -0.2694 -1.4515
 6940SOL    HW232283   4.531   0.467   1.648 -0.5962  0.1615 -0.6206
 6941SOL     OW32284   1.144   3.850   4.068 -0.1375  0.0876 -0.2281
 6941SOL    HW132285   1.170   3.940   4.087  1.0248 -0.3261  0.1247
 6941SOL    HW232286   1.166   3.811   4.153  3.1469 -0.7038 -1.4822
 6942SOL     OW32287   1.739   1.910   9.807 -0.0964 -0.0445 -0.0616
 6942SOL    HW132288   1.830   1.925   9.836  0.6613 -1.4684 -1.7054
 6942SOL    HW232289   1.697   1.890   9.890  0.3567 -2.1863 -0.3546
 6943SOL     OW32290   0.611   1.629   6.000  0.3393  0.7258  0.0861
 6943SOL    HW132291   0.579   1.597   6.085  1.8570  1.6733  1.0069
 6943SOL    HW232292   0.654   1.552   5.963  1.1851  0.3413  1.8333
 6944SOL     OW32293   0.983   3.213  12.109 -0.8405 -0.9910  0.0426
 6944SOL    HW132294   0.999   3.264  12.030  0.5785 -0.2816  0.7952
 6944SOL    HW232295   0.934   3.273  12.164  1.0463  0.8238 -0.2762
 6945SOL     OW32296   4.101   0.931   0.173  0.3335  0.5809  0.0210
 6945SOL    HW132297   4.182   0.888   0.145 -0.5079 -0.6801 -0.4680
 6945SOL    HW232298   4.042   0.877   0.121  1.1661  0.4185 -0.7605
 6946SOL     OW32299   1.079   1.033   1.885  0.3154  0.0256  0.0836
 6946SOL    HW132300   1.054   0.951   1.843  0.8044 -0.7223  1.2817
 6946SOL    HW232301   1.149   1.063   1.827 -0.9876  2.8877 -0.0178
 6947SOL     OW32302   3.881   2.380   1.754  0.1387  0.3198  0.0058
 6947SOL    HW132303   3.914   2.302   1.709  2.6756  1.3587  0.0592
 6947SOL    HW232304   3.823   2.343   1.821 -0.8053  0.7302 -0.5891
 6948SOL     OW32305   3.119   3.746   3.625 -0.6034 -0.1967 -0.3374
 6948SOL    HW132306   3.179   3.813   3.657 -1.3114  1.3019 -2.1723
 6948SOL    HW232307   3.178   3.709   3.559 -1.4243  0.3227 -1.3616
 6949SOL     OW32308   2.035   2.530   6.854  0.1252 -0.3952  0.3154
 6949SOL    HW132309   2.023   2.521   6.759 -2.1443 -2.7387  0.8323
 6949SOL    HW232310   2.053   2.624   6.857 -1.6254 -0.0582  0.2292
 6950SOL     OW32311   4.679   0.917   5.851  0.6963  0.3859  0.2528
 6950SOL    HW132312   4.586   0.942   5.858  0.1180 -1.3875 -1.0813
 6950SOL    HW232313   4.677   0.826   5.821  0.9566  1.0856 -1.8989
 6951SOL     OW32314   2.020   0.857   6.677 -0.4226 -0.5060 -0.2445
 6951SOL    HW132315   1.972   0.781   6.709 -1.1205 -0.7848 -1.9585
 6951SOL    HW232316   2.071   0.834   6.600  2.1025 -0.0242  1.2692
 6952SOL     OW32317   4.064   1.888   3.676  0.5385 -0.0925 -0.5162
 6952SOL    HW132318   4.060   1.982   3.693 -4.9699  0.2715 -3.8270
 6952SOL    HW232319   4.018   1.873   3.593 -1.3962  1.0604  0.3408
 6953SOL     OW32320   2.080   0.697   3.304  0.3204  0.2415 -0.2718
 6953SOL    HW132321   2.126   0.766   3.257  1.2270  0.2225  0.5840
 6953SOL    HW232322   1.993   0.701   3.264  0.6453  1.9042 -0.7988
 6954SOL     OW32323   1.529   2.731   8.561  0.0545  0.5132  0.0974
 6954SOL    HW132324   1.521   2.649   8.609 -0.0764 -1.4966 -3.3129
 6954SOL    HW232325   1.557   2.801   8.620 -3.6010  1.6782  0.4471
 6955SOL     OW32326   3.484   4.023   7.605  0.3448  0.1526  0.3761
 6955SOL    HW132327   3.515   3.938   7.571 -0.4786  0.3879 -0.9494
 6955SOL    HW232328   3.479   4.071   7.523 -1.3641 -1.1750 -0.2921
 6956SOL     OW32329   3.037   4.707   9.073  0.0276  0.4990 -0.2112
 6956SOL    HW132330   3.075   4.690   9.159  1.7844 -0.0951 -1.0955
 6956SOL    HW232331   3.074   0.072   9.049  1.4050 -0.3541 -1.0898
 6957SOL     OW32332   3.010   4.609   3.222  0.1187  0.2013 -0.0107
 6957SOL    HW132333   2.994   4.657   3.140  3.1998 -0.0365 -0.7581
 6957SOL    HW232334   3.067   4.669   3.270  2.1519 -0.2380 -1.8861
 6958SOL     OW32335   3.407   0.562   5.590 -0.2832  0.6698  0.3093
 6958SOL    HW132336   3.428   0.653   5.611  2.9722  0.2110 -0.9288
 6958SOL    HW232337   3.370   0.534   5.673 -1.8344  1.2488 -0.1911
 6959SOL     OW32338   0.398   0.558   3.364  0.1056  0.5028 -0.0889
 6959SOL    HW132339   0.325   0.517   3.318 -0.2335  0.5359  0.4186
 6959SOL    HW232340   0.478   0.525   3.323  0.2942  0.2394  0.5049
 6960SOL     OW32341   4.670   0.166  13.803  0.6876 -0.5495  0.3564
 6960SOL    HW132342   0.033   0.205  13.830 -0.0606  0.3997  1.2918
 6960SOL    HW232343   4.666   0.102  13.874 -0.2278  0.5268  1.2897
 6961SOL     OW32344   0.450   3.128   7.372 -0.4201 -0.2695  0.7725
 6961SOL    HW132345   0.522   3.073   7.402 -0.5330 -0.6287  0.3785
 6961SOL    HW232346   0.429   3.176   7.452 -1.4699  0.6393 -0.0379
 6962SOL     OW32347   2.802   4.103   7.979 -0.0509  0.2627 -0.3320
 6962SOL    HW132348   2.885   4.134   7.942 -1.0236  2.7365 -0.4269
 6962SOL    HW232349   2.734   4.158   7.940 -0.4943 -0.6632 -0.8781
 6963SOL     OW32350   2.759   0.725   8.592 -0.0964  0.1898  0.4935
 6963SOL    HW132351   2.811   0.651   8.560 -1.6304 -1.2202  1.2598
 6963SOL    HW232352   2.711   0.738   8.510 -1.6165  0.0273  1.3731
 6964SOL     OW32353   2.036   1.118   3.397  0.2285  0.2051 -0.1952
 6964SOL    HW132354   2.085   1.059   3.340  0.1526 -0.7097  0.6814
 6964SOL    HW232355   2.099   1.131   3.468  0.2238 -1.3477  0.1044
 6965SOL     OW32356   0.767   1.911   8.853  0.6028 -0.1132  0.2074
 6965SOL    HW132357   0.793   1.820   8.861 -0.9767 -0.5205  0.4928
 6965SOL    HW232358   0.712   1.937   8.927 -0.2314  0.0258 -0.4600
 6966SOL     OW32359   4.537   1.408   0.020 -0.7267  0.2396  0.2309
 6966SOL    HW132360   4.620   1.363   0.036 -0.7108  0.6462  1.3037
 6966SOL    HW232361   4.568   1.497   0.004 -1.7971  0.1757 -2.2119
 6967SOL     OW32362   4.159   1.978   8.183 -0.9088  0.4178  0.1616
 6967SOL    HW132363   4.130   1.962   8.273 -1.7644 -1.6774 -0.4875
 6967SOL    HW232364   4.081   2.023   8.152 -1.2513 -0.1389  0.2009
 6968SOL     OW32365   2.358   2.764   1.962 -0.0362  0.2655 -0.1894
 6968SOL    HW132366   2.339   2.796   2.051  1.0717  0.1593  0.0986
 6968SOL    HW232367   2.447   2.731   1.980 -0.0751 -0.2494 -0.9758
 6969SOL     OW32368   2.090   3.968   8.148  0.2225  0.2476 -0.4785
 6969SOL    HW132369   2.009   3.998   8.189 -0.6987 -1.0191 -1.3740
 6969SOL    HW232370   2.079   3.873   8.150  1.0246  0.1572 -0.1435
 6970SOL     OW32371   0.803   1.525   6.756  0.2509 -0.5446  0.5041
 6970SOL    HW132372   0.839   1.459   6.698 -0.6173  0.2181 -0.8914
 6970SOL    HW232373   0.854   1.601   6.729 -0.6098  0.4051  1.5161
 6971SOL     OW32374   4.052   4.124   6.882 -0.3943  0.5681  0.6566
 6971SOL    HW132375   4.037   4.030   6.873 -1.3660  0.8185 -0.2763
 6971SOL    HW232376   4.125   4.121   6.820  0.1557  0.5461  1.3044
 6972SOL     OW32377   3.293   0.771   5.309 -0.0086 -0.1147 -0.4273
 6972SOL    HW132378   3.291   0.802   5.219  0.7551  1.9686  0.2666
 6972SOL    HW232379   3.315   0.679   5.294 -1.4497 -0.4912 -0.2177
 6973SOL     OW32380   0.403   3.028   2.779  0.2407  0.0779  0.2706
 6973SOL    HW132381   0.484   3.014   2.828  0.4015 -1.2190 -0.3603
 6973SOL    HW232382   0.367   3.107   2.819  2.3202  1.3199 -0.3380
 6974SOL     OW32383   2.779   0.830   3.437  0.1215 -0.1358 -0.8489
 6974SOL    HW132384   2.872   0.820   3.457  0.2895 -2.0211 -2.5508
 6974SOL    HW232385   2.744   0.756   3.486  0.0354  0.8696  0.5845
 6975SOL     OW32386   0.008   2.622  17.069 -0.2841  0.7751 -0.5302
 6975SOL    HW132387   0.029   2.659  16.984  1.9875  0.1773 -0.2295
 6975SOL    HW232388   0.080   2.559  17.075 -0.2771  0.7444 -0.9482
 6976SOL     OW32389   3.273   1.049   7.019  0.4083  0.0795 -0.3819
 6976SOL    HW132390   3.364   1.075   7.008  1.1854 -3.8205 -3.2638
 6976SOL    HW232391   3.268   1.067   7.113 -0.6261  1.9048 -0.7954
 6977SOL     OW32392   1.020   0.688   6.345 -0.1201  0.2708  0.4075
 6977SOL    HW132393   0.939   0.640   6.362 -0.6393  0.8782 -0.3332
 6977SOL    HW232394   0.982   0.767   6.306 -1.0644 -0.9101 -1.0710
 6978SOL     OW32395   1.621   2.045  11.862 -0.4280  0.5540  0.0140
 6978SOL    HW132396   1.596   2.107  11.931  1.5666  0.6537  0.6577
 6978SOL    HW232397   1.648   1.970  11.915  2.1482  0.4049 -1.5138
 6979SOL     OW32398   0.052   4.475   2.551 -0.2974  0.6570  0.2683
 6979SOL    HW132399   4.691   4.489   2.500  1.0665 -0.2766 -2.1611
 6979SOL    HW232400   0.090   4.563   2.558 -2.0349  1.4931 -0.8181
 6980SOL     OW32401   2.728   2.632   9.526  0.1024 -0.6393 -0.6399
 6980SOL    HW132402   2.639   2.664   9.509 -0.2348 -2.2441 -1.9788
 6980SOL    HW232403   2.743   2.591   9.440  1.4777 -0.7805 -0.3196
 6981SOL     OW32404   3.746   1.120  16.119  0.0035 -0.4435  0.3964
 6981SOL    HW132405   3.690   1.048  16.147  0.1874  0.1091  2.1314
 6981SOL    HW232406   3.678   1.188  16.124  0.3060 -0.2433  1.6026
 6982SOL     OW32407   2.063   0.914   3.813 -0.8552 -0.2893 -0.2749
 6982SOL    HW132408   2.033   0.861   3.739 -2.6722  1.0965 -0.5239
 6982SOL    HW232409   2.063   0.849   3.884  1.3284 -1.9593 -1.7973
 6983SOL     OW32410   1.686   3.720   8.116 -0.0734 -0.3618 -0.4996
 6983SOL    HW132411   1.650   3.633   8.098  2.6123 -1.4278 -0.7529
 6983SOL    HW232412   1.682   3.764   8.031  2.8922  1.9038  0.5455
 6984SOL     OW32413   1.192   1.618   2.084 -0.1441  0.2696 -0.9335
 6984SOL    HW132414   1.163   1.708   2.066 -0.9882  0.5259  1.6828
 6984SOL    HW232415   1.189   1.575   1.999  0.0371 -1.0423 -0.2828
 6985SOL     OW32416   3.000   3.471   0.019 -0.3466 -0.2087  0.1740
 6985SOL    HW132417   3.095   3.463   0.022 -0.0515  3.6835  0.7440
 6985SOL    HW232418   2.977   3.445   0.108 -0.3554 -0.6226  0.0530
 6986SOL     OW32419   2.453   4.330   2.247  0.0507 -0.3890  0.1123
 6986SOL    HW132420   2.496   4.267   2.190  0.2270 -1.1502  1.0969
 6986SOL    HW232421   2.530   4.384   2.266  1.8226 -2.6931 -0.5829
 6987SOL     OW32422   0.899   3.536   3.249 -0.2375  0.0975  0.1923
 6987SOL    HW132423   0.860   3.484   3.179 -0.5379  1.1451 -0.4265
 6987SOL    HW232424   0.990   3.515   3.229  0.4529  2.6176  0.5844
 6988SOL     OW32425   0.517   3.851   6.398 -0.0590 -0.3733  0.0199
 6988SOL    HW132426   0.502   3.931   6.347 -0.4665  0.1146  0.8993
 6988SOL    HW232427   0.432   3.851   6.443 -0.0934 -0.3450 -0.0443
 6989SOL     OW32428   4.375   1.747   3.344 -0.5970 -0.0271  0.0436
 6989SOL    HW132429   4.342   1.746   3.254 -3.6655  1.5762  1.1646
 6989SOL    HW232430   4.393   1.841   3.348  1.5361 -0.4547  0.5519
 6990SOL     OW32431   3.881   2.428   0.058 -0.2163 -0.0741 -0.8859
 6990SOL    HW132432   3.888   2.352   0.001  0.3635 -2.1733  1.9728
 6990SOL    HW232433   3.941   2.486   0.011  1.2064 -0.2663  0.6823
 6991SOL     OW32434   0.946   0.101   1.242  0.0547  0.0756 -0.3871
 6991SOL    HW132435   0.992   0.131   1.320 -1.6751  1.1498  0.2123
 6991SOL    HW232436   1.020   0.073   1.188  0.5716  1.0727 -0.1948
 6992SOL     OW32437   1.404   0.986   5.148  0.0242  0.6916 -0.6624
 6992SOL    HW132438   1.441   1.036   5.221 -0.2576  3.4818 -2.4161
 6992SOL    HW232439   1.327   0.950   5.191  0.0533  0.3625 -0.8870
 6993SOL     OW32440   1.656   4.049  11.595  0.0170  0.1593 -0.6694
 6993SOL    HW132441   1.688   4.019  11.510 -1.0690 -0.0075 -1.0250
 6993SOL    HW232442   1.718   4.116  11.621 -1.4541 -0.1125  3.6650
 6994SOL     OW32443   2.774   2.379  11.788 -0.0387  0.0692  0.1100
 6994SOL    HW132444   2.734   2.466  11.792  1.2616  0.7294 -1.0238
 6994SOL    HW232445   2.701   2.320  11.805  0.7728 -0.7762  0.6277
 6995SOL     OW32446   1.625   4.119  13.222  0.1936 -0.5535  0.6537
 6995SOL    HW132447   1.659   4.116  13.132 -0.0937 -1.2960  0.5676
 6995SOL    HW232448   1.633   4.210  13.250 -3.0998 -0.3606  0.9422
 6996SOL     OW32449   0.272   3.267  15.496 -0.2805  0.4154  0.5052
 6996SOL    HW132450   0.350   3.219  15.526 -1.6915 -1.8200  0.5631
 6996SOL    HW232451   0.301   3.304  15.412  2.8784  0.7087  1.6939
 6997SOL     OW32452   3.156   2.634   7.869 -0.1924  0.0166 -0.3142
 6997SOL    HW132453   3.122   2.717   7.837 -1.4282 -0.5324 -0.4134
 6997SOL    HW232454   3.247   2.664   7.861  0.1126 -0.6718  0.5727
 6998SOL     OW32455   3.571   2.792   3.912 -0.2972  0.1418 -0.2577
 6998SOL    HW132456   3.519   2.721   3.874  2.6635 -2.2788  0.1757
 6998SOL    HW232457   3.631   2.812   3.839 -0.7857  0.0095 -0.6954
 6999SOL     OW32458   2.061   2.460   5.566 -0.6270 -0.5049 -0.0965
 6999SOL    HW132459   2.076   2.496   5.654  0.2207  0.0158 -0.4547
 6999SOL    HW232460   2.043   2.369   5.593  0.3945 -1.2285 -1.8819
 7000SOL     OW32461   3.498   0.826  17.478 -0.1638 -0.2196 -0.2871
 7000SOL    HW132462   3.458   0.912  17.485  0.1881  0.0053 -1.0580
 7000SOL    HW232463   3.521   0.835  17.386 -2.2527  0.3957 -0.7413
 7001SOL     OW32464   0.243   1.396  10.557 -0.2472  0.1180  0.2434
 7001SOL    HW132465   0.185   1.442  10.497 -0.3123 -1.0534 -0.5987
 7001SOL    HW232466   0.244   1.448  10.637 -3.6796 -1.3509  1.2485
 7002SOL     OW32467   0.203   2.203   8.714  0.0331 -0.5230  0.3535
 7002SOL    HW132468   0.224   2.127   8.767 -0.4352 -2.0912 -1.6981
 7002SOL    HW232469   0.198   2.280   8.770 -0.3254  0.1059 -0.5387
 7003SOL     OW32470   2.965   0.782   1.246  0.3743  0.3099  0.3676
 7003SOL    HW132471   2.947   0.824   1.162  0.8471 -1.1574 -0.4717
 7003SOL    HW232472   2.904   0.811   1.314  0.5177 -1.3259  1.2083
 7004SOL     OW32473   3.104   2.432   7.708 -0.1476  1.0449 -0.2984
 7004SOL    HW132474   3.123   2.466   7.796  2.7501  0.4036 -0.6813
 7004SOL    HW232475   3.172   2.474   7.656  0.9352 -1.4975 -0.9321
 7005SOL     OW32476   0.475   0.475   1.627  0.2386 -1.2187 -0.0206
 7005SOL    HW132477   0.488   0.381   1.615  2.7259 -1.0258  1.1677
 7005SOL    HW232478   0.388   0.480   1.666 -0.4432 -2.5302 -1.3893
 7006SOL     OW32479   2.284   4.555   2.176 -0.1777 -0.5085  0.3362
 7006SOL    HW132480   2.284   4.537   2.082  3.0719 -1.9025  0.5897
 7006SOL    HW232481   2.331   4.478   2.209 -0.0978 -0.6906 -0.2157
 7007SOL     OW32482   2.849   3.172   5.266 -0.2969  0.3938  0.8724
 7007SOL    HW132483   2.889   3.182   5.179  1.4032  0.6732  1.6830
 7007SOL    HW232484   2.897   3.091   5.284 -1.6077 -0.6888 -0.5404
 7008SOL     OW32485   3.935   1.274  12.363  0.3887  0.1586  0.1591
 7008SOL    HW132486   3.928   1.296  12.456  0.8698  0.3874  0.1426
 7008SOL    HW232487   4.007   1.332  12.340  0.6808 -0.1109  0.3822
 7009SOL     OW32488   1.339   0.433   7.179  0.4833 -0.0637  0.9985
 7009SOL    HW132489   1.264   0.400   7.129  2.1263 -1.4797 -0.5719
 7009SOL    HW232490   1.294   0.496   7.234 -3.3644 -2.7302  0.9359
 7010SOL     OW32491   0.066   1.007   6.245  0.3247 -0.3362  0.7599
 7010SOL    HW132492   0.100   0.934   6.193 -1.2466  0.7719 -1.7811
 7010SOL    HW232493   4.692   1.007   6.227  0.4778 -0.6180 -0.0381
 7011SOL     OW32494   2.247   4.204   2.443  0.3398 -0.7456 -0.2176
 7011SOL    HW132495   2.185   4.265   2.484  1.3435  0.3346 -0.3049
 7011SOL    HW232496   2.284   4.257   2.373  2.0967  0.6265  1.7600
 7012SOL     OW32497   0.484   1.124   6.392 -0.4374  0.0926  0.0866
 7012SOL    HW132498   0.412   1.069   6.422 -2.3300  2.2657 -0.3937
 7012SOL    HW232499   0.475   1.183   6.467 -0.5124  0.4103 -0.1685
 7013SOL     OW32500   0.176   3.676  12.162 -0.1969  0.2249 -0.2847
 7013SOL    HW132501   0.144   3.751  12.212 -0.4032 -0.7594  1.0844
 7013SOL    HW232502   0.154   3.604  12.221 -1.9885  1.2460  0.2987
 7014SOL     OW32503   3.234   1.123   7.265 -0.2883 -0.1682  0.5172
 7014SOL    HW132504   3.280   1.199   7.231  0.6161 -1.0564 -0.2524
 7014SOL    HW232505   3.189   1.155   7.343 -0.3811 -0.1721  0.4655
 7015SOL     OW32506   1.775   2.497   1.414 -0.1505  0.8313 -0.1547
 7015SOL    HW132507   1.862   2.457   1.419 -0.5902 -0.2267 -0.8951
 7015SOL    HW232508   1.767   2.498   1.319  0.1431  1.2653 -0.1742
 7016SOL     OW32509   0.557   0.728   5.928  0.4681  0.2618 -0.4928
 7016SOL    HW132510   0.502   0.657   5.961 -1.1186  0.7446 -2.1256
 7016SOL    HW232511   0.498   0.757   5.859 -0.1179 -1.5417 -0.7470
 7017SOL     OW32512   0.830   0.304   6.039  0.1235 -0.1825 -0.2785
 7017SOL    HW132513   0.781   0.248   5.979 -0.6935 -0.7873  0.9603
 7017SOL    HW232514   0.803   0.261   6.120  0.0617 -1.4415 -0.9641
 7018SOL     OW32515   2.134   4.383   1.397 -0.4120  0.1760  0.2020
 7018SOL    HW132516   2.052   4.427   1.421 -2.3945 -1.8889 -2.7802
 7018SOL    HW232517   2.110   4.341   1.315 -3.0642  3.2627 -0.6027
 7019SOL     OW32518   1.979   2.053  16.132 -0.2667  0.0604 -0.0675
 7019SOL    HW132519   1.932   2.055  16.049  1.3947 -0.1060 -1.0228
 7019SOL    HW232520   2.026   2.137  16.124  0.6412 -0.2244  2.3808
 7020SOL     OW32521   2.747   1.534   7.910  0.6377 -0.4333 -0.0829
 7020SOL    HW132522   2.670   1.577   7.947  0.0464 -2.2104  0.7252
 7020SOL    HW232523   2.704   1.456   7.877  0.5152 -0.2632 -0.3263
 7021SOL     OW32524   3.194   4.403   5.256 -0.4895 -0.2028 -1.1373
 7021SOL    HW132525   3.202   4.494   5.227  1.2801 -0.5782 -1.8824
 7021SOL    HW232526   3.187   4.346   5.179  0.9878  0.7092 -1.9592
 7022SOL     OW32527   0.137   3.124  14.020 -0.2506  0.2490  0.3240
 7022SOL    HW132528   0.154   3.034  14.047 -0.9223 -0.4116 -1.4390
 7022SOL    HW232529   0.194   3.174  14.079 -1.5152  1.2807  0.6536
 7023SOL     OW32530   0.784   2.093   3.441 -0.1428 -0.2481  0.5520
 7023SOL    HW132531   0.766   2.186   3.456 -1.1594 -0.2902 -0.3832
 7023SOL    HW232532   0.851   2.076   3.508  0.9885 -1.5090 -0.8996
 7024SOL     OW32533   4.649   2.187   3.775 -0.9176  0.5727 -0.6691
 7024SOL    HW132534   4.719   2.252   3.764 -0.2221  0.1315  1.2130
 7024SOL    HW232535   4.588   2.227   3.836 -2.0877 -1.4872 -0.5075
 7025SOL     OW32536   3.447   0.335   2.887 -0.7787 -0.4315  0.3070
 7025SOL    HW132537   3.406   0.346   2.801  0.7295 -0.6004 -0.4296
 7025SOL    HW232538   3.380   0.282   2.931 -1.0405 -0.1681  0.2243
 7026SOL     OW32539   2.022   1.666   5.202 -0.2070  0.3748  0.4178
 7026SOL    HW132540   2.026   1.612   5.281  0.0384  0.6002  0.5598
 7026SOL    HW232541   2.111   1.698   5.210  0.3032 -1.4124  1.9323
 7027SOL     OW32542   2.621   3.565  13.023 -0.2936  0.0583 -0.5184
 7027SOL    HW132543   2.584   3.488  12.981  2.6872 -0.7847 -1.5783
 7027SOL    HW232544   2.654   3.611  12.946  0.4019  3.0909  1.5644
 7028SOL     OW32545   0.654   0.657   8.112  0.2314 -0.3136 -0.0039
 7028SOL    HW132546   0.563   0.641   8.086  0.7522 -3.0197 -0.1460
 7028SOL    HW232547   0.650   0.753   8.118 -3.1172 -0.3619 -1.3688
 7029SOL     OW32548   1.306   2.159   3.116  0.0755 -0.1122 -0.5570
 7029SOL    HW132549   1.302   2.072   3.076 -3.8597 -0.9051  1.5511
 7029SOL    HW232550   1.257   2.141   3.196 -0.3178 -1.6077 -1.1435
 7030SOL     OW32551   3.496   4.168   9.215  0.0384 -0.0563  0.1058
 7030SOL    HW132552   3.411   4.153   9.256  1.3805 -2.8532  1.8878
 7030SOL    HW232553   3.534   4.226   9.282  0.8220 -0.5784  0.1109
 7031SOL     OW32554   0.686   1.958   8.267  0.1413  0.1388  0.0151
 7031SOL    HW132555   0.679   2.017   8.192  2.6973 -0.1389 -0.4109
 7031SOL    HW232556   0.758   1.902   8.239 -0.0408  0.2084 -0.5925
 7032SOL     OW32557   0.444   3.196  14.510 -0.6374 -0.1534  0.1747
 7032SOL    HW132558   0.525   3.217  14.557 -0.9525  2.0534 -0.2897
 7032SOL    HW232559   0.436   3.261  14.440  0.5128  0.8297  0.9515
 7033SOL     OW32560   3.207   1.520   5.987 -0.5098 -0.2936 -0.1834
 7033SOL    HW132561   3.159   1.566   6.056 -0.5713  0.9812 -1.0781
 7033SOL    HW232562   3.166   1.555   5.907  2.6256  2.2426 -0.6894
 7034SOL     OW32563   3.056   0.349  12.910 -0.1772  0.0596  0.0932
 7034SOL    HW132564   3.096   0.340  12.823  0.0496 -0.7498  0.2806
 7034SOL    HW232565   2.986   0.411  12.890  1.3022  1.7855  0.2841
 7035SOL     OW32566   2.166   1.172  17.089  0.0694 -0.7495 -0.0409
 7035SOL    HW132567   2.223   1.124  17.149 -1.7732 -2.2415  0.4977
 7035SOL    HW232568   2.241   1.209  17.042 -2.0278  3.0270 -0.4241
 7036SOL     OW32569   0.896   0.913   6.597 -0.3094  1.0012  0.3849
 7036SOL    HW132570   0.885   0.829   6.642  2.9269 -0.2730 -1.1749
 7036SOL    HW232571   0.817   0.912   6.543  0.3801  2.6437 -0.6655
 7037SOL     OW32572   1.057   0.897   2.724  0.1876 -0.4217  0.4612
 7037SOL    HW132573   1.022   0.949   2.652  0.4884 -2.3162 -1.0504
 7037SOL    HW232574   1.059   0.813   2.678 -1.2656  0.0844 -0.5127
 7038SOL     OW32575   0.444   4.657   3.130  0.4247 -1.3317  0.2915
 7038SOL    HW132576   0.445   0.032   3.143 -0.4367 -1.0616 -1.5907
 7038SOL    HW232577   0.499   4.643   3.053  0.0201 -0.1930 -0.1931
 7039SOL     OW32578   0.322   2.223   5.220  0.1001  0.1325 -0.5606
 7039SOL    HW132579   0.395   2.209   5.160  0.0837  0.0830 -0.5694
 7039SOL    HW232580   0.358   2.228   5.308 -1.8677 -2.4111  0.3710
 7040SOL     OW32581   2.888   3.705  17.564 -0.6639 -0.4299  0.2890
 7040SOL    HW132582   2.966   3.689  17.510 -1.8814 -0.0509 -1.5695
 7040SOL    HW232583   2.882   3.619  17.606  0.7702 -1.1857 -1.0256
 7041SOL     OW32584   4.069   1.833  15.426  0.2567  0.1963 -0.2699
 7041SOL    HW132585   3.981   1.797  15.416 -0.5601  1.9660  0.6250
 7041SOL    HW232586   4.103   1.834  15.337  2.0988  1.2666  0.4442
 7042SOL     OW32587   4.373   1.879   9.275  0.1434  0.1558  0.1333
 7042SOL    HW132588   4.463   1.863   9.302  0.5606  2.3711  0.0145
 7042SOL    HW232589   4.333   1.799   9.311 -1.5335 -0.0618 -2.1914
 7043SOL     OW32590   2.456   1.603   8.343  0.3685  0.4343  0.1027
 7043SOL    HW132591   2.504   1.580   8.422  4.0032  2.0373 -1.6435
 7043SOL    HW232592   2.445   1.698   8.341 -0.7230  0.3084  0.2273
 7044SOL     OW32593   1.059   1.529   7.151 -0.2323 -0.2067 -0.2134
 7044SOL    HW132594   0.972   1.507   7.117  0.7780 -1.3842 -2.0141
 7044SOL    HW232595   1.102   1.547   7.067 -3.1143  1.9591 -1.2399
 7045SOL     OW32596   2.817   2.858   4.625  0.7936 -0.3987  0.2517
 7045SOL    HW132597   2.778   2.857   4.537 -0.7460  0.6251  0.9316
 7045SOL    HW232598   2.908   2.839   4.601  0.7191  0.9865 -1.1435
 7046SOL     OW32599   0.322   4.365  11.793  0.8071  0.3976  0.1056
 7046SOL    HW132600   0.375   4.406  11.861  0.9363  1.9276 -0.9218
 7046SOL    HW232601   0.346   4.273  11.809 -0.9466 -0.3666 -1.7479
 7047SOL     OW32602   3.334   0.030  12.042  0.0414  0.2231  0.3582
 7047SOL    HW132603   3.415   0.077  12.059  0.5387 -0.2950 -0.5752
 7047SOL    HW232604   3.375   4.672  12.003  0.6585 -0.7333  2.9268
 7048SOL     OW32605   1.329   1.728   4.484 -0.2861  0.4106 -0.2308
 7048SOL    HW132606   1.398   1.780   4.525 -0.1314  1.0590 -1.3108
 7048SOL    HW232607   1.387   1.673   4.431 -0.9042 -2.6714  2.3192
 7049SOL     OW32608   0.847   1.450   9.250 -0.0491  0.2182  0.2807
 7049SOL    HW132609   0.841   1.361   9.286 -2.4468  0.2063 -0.0839
 7049SOL    HW232610   0.908   1.432   9.178  0.0499 -3.8060  1.3980
 7050SOL     OW32611   4.711   2.336   0.605 -0.6983 -0.1232 -0.1571
 7050SOL    HW132612   0.021   2.332   0.695  1.1277 -0.8659 -0.7959
 7050SOL    HW232613   0.037   2.263   0.563  0.5034 -0.2860  1.4390
 7051SOL     OW32614   0.279   4.253   4.286  0.4127  0.6737  0.2769
 7051SOL    HW132615   0.199   4.305   4.293 -1.3589 -1.8089 -1.9514
 7051SOL    HW232616   0.315   4.277   4.200 -1.2968  0.6035 -0.4450
 7052SOL     OW32617   3.360   3.683   3.358 -0.5590 -0.2134 -0.3542
 7052SOL    HW132618   3.345   3.626   3.282 -0.7016  0.9865 -1.2186
 7052SOL    HW232619   3.451   3.710   3.350 -0.0326 -1.9888 -0.5444
 7053SOL     OW32620   3.809   2.548  13.613  0.2454  0.2939 -0.2203
 7053SOL    HW132621   3.824   2.642  13.605  2.8960 -0.2172 -1.4330
 7053SOL    HW232622   3.811   2.539  13.709  0.0541  0.6680 -0.1811
 7054SOL     OW32623   1.512   3.248  15.102  0.1733 -0.0443  0.3874
 7054SOL    HW132624   1.481   3.183  15.039 -0.3286  0.0476  0.5394
 7054SOL    HW232625   1.581   3.203  15.151  1.4779  1.1676 -0.3423
 7055SOL     OW32626   3.939   4.588   5.516 -0.0007 -0.2729 -0.4412
 7055SOL    HW132627   3.858   4.563   5.562  1.0724  0.2018  1.6912
 7055SOL    HW232628   3.937   4.681   5.541  0.2569 -0.2413 -0.5407
 7056SOL     OW32629   4.443   1.945  17.516 -0.4360  0.1881  0.8312
 7056SOL    HW132630   4.455   1.898  17.433 -1.3210  0.1198  0.7379
 7056SOL    HW232631   4.448   1.872  17.577  0.8615  0.2940  0.8428
 7057SOL     OW32632   3.961   2.300   7.952 -0.0475  0.4023 -0.0119
 7057SOL    HW132633   3.879   2.321   7.996 -1.0143 -0.4926 -1.3766
 7057SOL    HW232634   4.010   2.377   7.980  1.3665 -0.7806  0.7674
 7058SOL     OW32635   3.894   0.711   7.828 -0.0444  0.0780  0.4804
 7058SOL    HW132636   3.890   0.618   7.804  1.6742  0.6458 -2.0009
 7058SOL    HW232637   3.806   0.731   7.795 -0.2159 -1.2225  0.1307
 7059SOL     OW32638   1.250   4.396   0.880  0.6778 -0.3208  0.0356
 7059SOL    HW132639   1.247   4.315   0.830  1.0145  0.4942 -1.3092
 7059SOL    HW232640   1.295   4.458   0.822  1.2818 -1.1649 -0.3939
 7060SOL     OW32641   0.231   0.501  11.342 -0.3659  0.2997  0.2957
 7060SOL    HW132642   0.306   0.558  11.323 -0.5344  0.7586  1.0391
 7060SOL    HW232643   0.248   0.469  11.430  0.4467  1.0595  0.4187
 7061SOL     OW32644   3.178   1.038   8.670  0.0805 -0.2406 -0.7939
 7061SOL    HW132645   3.183   1.093   8.748  0.9804 -2.7299  0.9115
 7061SOL    HW232646   3.262   1.050   8.625  1.2997  0.2479  1.6259
 7062SOL     OW32647   4.131   0.878   1.994 -0.0358 -0.0409 -0.4106
 7062SOL    HW132648   4.123   0.870   1.899  0.6434  2.2807 -0.6569
 7062SOL    HW232649   4.123   0.972   2.007 -0.7693 -0.1225 -0.2759
 7063SOL     OW32650   3.856   4.503   2.232 -0.0322  0.2303 -0.1712
 7063SOL    HW132651   3.829   4.579   2.180  2.6830  0.4877 -1.1984
 7063SOL    HW232652   3.921   4.469   2.171  0.4960 -3.2286  2.3331
 7064SOL     OW32653   3.703   0.622   3.699 -0.0717  0.7538  0.2080
 7064SOL    HW132654   3.771   0.586   3.756  0.1625 -1.8124 -1.6941
 7064SOL    HW232655   3.739   0.575   3.624 -1.8920 -0.8314  0.3049
 7065SOL     OW32656   2.688   0.769   0.703 -0.4350  0.5700  0.3686
 7065SOL    HW132657   2.610   0.802   0.658  0.5555  2.5231  0.0912
 7065SOL    HW232658   2.701   0.703   0.635  1.7418  0.3151  1.0384
 7066SOL     OW32659   0.448   3.572   3.958 -0.4251  0.0191  0.0503
 7066SOL    HW132660   0.401   3.573   3.875  0.0934 -0.5618 -0.2573
 7066SOL    HW232661   0.538   3.572   3.924 -0.5355  1.8266 -0.2271
 7067SOL     OW32662   1.414   1.770   9.471 -0.0769 -0.6957  0.2723
 7067SOL    HW132663   1.489   1.816   9.509 -0.2734  0.0588 -0.2372
 7067SOL    HW232664   1.387   1.713   9.543 -1.7282 -0.1936  0.0410
 7068SOL     OW32665   4.459   4.090  14.359  0.1644 -0.5834  0.8228
 7068SOL    HW132666   4.501   4.056  14.280  1.0727  1.3290  0.4929
 7068SOL    HW232667   4.524   4.142  14.407  1.0121 -0.7864 -0.1114
 7069SOL     OW32668   4.240   3.914   8.067  0.3949 -0.4226  0.7870
 7069SOL    HW132669   4.277   4.002   8.061  1.6295 -0.9108  1.2592
 7069SOL    HW232670   4.316   3.864   8.096  0.6928 -0.3017  0.2003
 7070SOL     OW32671   1.996   4.672   7.574 -0.0228 -0.1417  0.3703
 7070SOL    HW132672   2.050   0.020   7.616 -0.3223  0.7880 -0.7657
 7070SOL    HW232673   2.036   4.596   7.616 -1.4256  0.4997  2.8538
 7071SOL     OW32674   3.040   2.451   4.643 -0.5361 -0.2838  0.8423
 7071SOL    HW132675   3.073   2.539   4.630  1.1431 -0.9184  0.8544
 7071SOL    HW232676   3.095   2.425   4.717  0.9361 -0.8746 -0.4744
 7072SOL     OW32677   1.940   3.172   3.931 -0.8701  0.1615 -0.1205
 7072SOL    HW132678   1.933   3.085   3.891 -2.0793 -0.1793  0.8151
 7072SOL    HW232679   1.894   3.235   3.874 -0.8424 -0.0198 -0.3449
 7073SOL     OW32680   3.214   4.426   8.011  0.1181  0.3418  0.1945
 7073SOL    HW132681   3.138   4.390   7.964  2.0826 -1.1200 -1.8474
 7073SOL    HW232682   3.289   4.373   7.983  1.4419  1.7720  1.0639
 7074SOL     OW32683   3.275   3.475   6.860  0.0351  0.1335  0.3132
 7074SOL    HW132684   3.293   3.538   6.790  2.0598 -0.1745  0.5335
 7074SOL    HW232685   3.183   3.450   6.854 -0.4435  1.9522 -0.1411
 7075SOL     OW32686   3.577   1.354  13.265 -0.2317 -0.5022  0.6896
 7075SOL    HW132687   3.590   1.431  13.211 -2.6901  0.4105  1.4078
 7075SOL    HW232688   3.662   1.347  13.308  0.6456  0.2798 -0.9275
 7076SOL     OW32689   4.621   0.753   1.046  0.1193 -0.2073  0.7554
 7076SOL    HW132690   4.607   0.690   0.975 -0.3652 -1.1860  1.7192
 7076SOL    HW232691   4.538   0.741   1.091 -0.6398 -1.0885 -0.8791
 7077SOL     OW32692   3.767   0.663   3.083  0.0396 -0.0359 -0.3870
 7077SOL    HW132693   3.826   0.722   3.035  1.1079 -1.2274 -0.5511
 7077SOL    HW232694   3.683   0.706   3.068 -0.0237 -0.1984 -0.4955
 7078SOL     OW32695   4.183   4.149   6.339 -0.1264 -0.2444  0.0487
 7078SOL    HW132696   4.100   4.184   6.370  0.1906 -0.9612  1.7034
 7078SOL    HW232697   4.173   4.155   6.244  0.7939  1.5780  0.0534
 7079SOL     OW32698   0.205   2.268   3.663 -0.5891 -0.2528  1.1221
 7079SOL    HW132699   0.263   2.339   3.636  1.3146 -2.7264 -1.3526
 7079SOL    HW232700   0.266   2.204   3.700 -0.7405 -1.1153 -0.1130
 7080SOL     OW32701   2.104   4.472   6.611  0.1765 -0.1604 -0.6558
 7080SOL    HW132702   2.128   4.430   6.528 -1.8077  0.7243 -1.6759
 7080SOL    HW232703   2.151   4.554   6.603 -0.2223  0.3274  2.0469
 7081SOL     OW32704   3.891   0.413   5.995 -0.4355  0.6088  0.2712
 7081SOL    HW132705   3.893   0.371   5.909  3.3563  0.4173  0.4313
 7081SOL    HW232706   3.847   0.492   5.963  2.1601  2.5229  1.3413
 7082SOL     OW32707   0.855   2.167   0.085 -0.1949  0.2167  0.5776
 7082SOL    HW132708   0.844   2.079   0.050  0.4171  0.1442  0.5694
 7082SOL    HW232709   0.905   2.144   0.163 -1.0338  0.3948  1.1702
 7083SOL     OW32710   4.347   2.267   6.492 -0.2343 -0.0347  0.1396
 7083SOL    HW132711   4.268   2.267   6.438  0.4162  3.8873 -0.8062
 7083SOL    HW232712   4.299   2.229   6.566  1.0526 -2.8023 -0.4631
 7084SOL     OW32713   1.450   4.645   5.380 -0.0281 -0.0669 -0.6596
 7084SOL    HW132714   1.525   4.587   5.389  0.2428  0.1610 -1.4616
 7084SOL    HW232715   1.396   4.602   5.313 -0.5310 -0.2307 -0.1461
 7085SOL     OW32716   0.356   3.411  16.862 -0.2045 -0.7885 -0.4835
 7085SOL    HW132717   0.366   3.384  16.953  1.1270 -0.3443 -0.5000
 7085SOL    HW232718   0.446   3.418  16.831 -0.5292 -0.6691 -1.3884
 7086SOL     OW32719   2.044   1.009   7.843 -0.1138 -0.7255 -0.8510
 7086SOL    HW132720   2.023   1.018   7.751  0.3786 -0.7704 -0.9701
 7086SOL    HW232721   2.053   1.099   7.874  2.6579 -1.4029  0.3648
 7087SOL     OW32722   3.932   4.715   6.546 -0.4262  0.0816 -0.5477
 7087SOL    HW132723   3.918   0.039   6.630  1.8717 -0.1923 -0.0306
 7087SOL    HW232724   3.982   0.054   6.490 -1.2151 -0.6341 -2.0000
 7088SOL     OW32725   1.030   2.635   1.019 -0.2329 -0.2091  0.5314
 7088SOL    HW132726   0.972   2.697   1.063 -1.3625  0.2243 -1.5771
 7088SOL    HW232727   0.962   2.569   1.028 -1.0752  0.7083  0.8850
 7089SOL     OW32728   3.126   3.223   6.749  0.0729  0.2192  0.1990
 7089SOL    HW132729   3.037   3.249   6.772 -0.1204  0.2764 -0.5991
 7089SOL    HW232730   3.129   3.138   6.705 -3.9550  1.3923 -2.3318
 7090SOL     OW32731   4.619   1.390   7.413 -0.4622  0.4557 -0.1267
 7090SOL    HW132732   4.599   1.324   7.347 -1.0312  0.5426 -0.0339
 7090SOL    HW232733   4.565   1.363   7.488 -0.7814  0.1526 -0.4686
 7091SOL     OW32734   0.645   1.523   3.422  0.4345 -0.3945 -0.0346
 7091SOL    HW132735   0.677   1.595   3.477  2.7055 -1.5061  0.1054
 7091SOL    HW232736   0.729   1.477   3.414 -0.6031 -2.1594 -0.7229
 7092SOL     OW32737   1.074   4.202   6.224  0.0694 -0.8808  0.3734
 7092SOL    HW132738   1.170   4.205   6.232 -0.0165  0.3353  0.8968
 7092SOL    HW232739   1.063   4.144   6.300 -1.0483  0.0591  0.9289
 7093SOL     OW32740   4.267   3.602   6.443 -0.2918 -0.1821 -0.0125
 7093SOL    HW132741   4.235   3.691   6.452 -1.2037 -0.3482 -1.6525
 7093SOL    HW232742   4.203   3.570   6.380  0.5064 -0.9951 -0.4133
 7094SOL     OW32743   0.859   3.520   2.649 -0.4292 -0.0946 -0.4553
 7094SOL    HW132744   0.778   3.478   2.678  1.0018 -2.2609  0.3332
 7094SOL    HW232745   0.901   3.524   2.734  2.7105 -1.0921 -1.9565
 7095SOL     OW32746   2.710   3.838  15.404 -0.0252 -0.8368 -0.1142
 7095SOL    HW132747   2.634   3.879  15.363 -0.6423 -3.0060 -1.1656
 7095SOL    HW232748   2.710   3.889  15.485  2.3690  0.1492 -0.7615
 7096SOL     OW32749   2.641   3.933   6.135 -0.0810  0.4359 -0.2036
 7096SOL    HW132750   2.608   3.941   6.224  0.9752 -0.7025  0.2830
 7096SOL    HW232751   2.720   3.985   6.145  2.4561 -3.4491 -0.2242
 7097SOL     OW32752   3.693   4.675   7.755 -0.3468 -0.1218  0.1689
 7097SOL    HW132753   3.696   0.044   7.789 -1.2290 -0.2112  0.4806
 7097SOL    HW232754   3.786   4.651   7.764 -0.2450  0.8328  1.4628
 7098SOL     OW32755   2.010   2.034  16.963  0.8254  0.3528  0.1789
 7098SOL    HW132756   1.925   2.026  17.006 -0.1415  1.0689 -1.5827
 7098SOL    HW232757   1.984   2.015  16.873 -1.8269 -0.7916  1.1861
 7099SOL     OW32758   2.529   4.119   4.279  0.3484 -0.1007 -0.1706
 7099SOL    HW132759   2.625   4.122   4.274  0.2982  1.3055 -0.0780
 7099SOL    HW232760   2.511   4.189   4.217  1.4658  1.0328  0.7998
 7100SOL     OW32761   2.186   1.978   4.745  0.6024 -0.0052 -0.2323
 7100SOL    HW132762   2.159   1.924   4.819  1.1621  0.0805  0.0349
 7100SOL    HW232763   2.260   1.924   4.718 -0.5091 -1.5508 -0.2024
 7101SOL     OW32764   4.405   1.900   4.921 -0.6074 -0.3307  0.0588
 7101SOL    HW132765   4.448   1.866   5.000  0.9592  0.0680 -0.6302
 7101SOL    HW232766   4.310   1.896   4.931 -0.4891 -0.8166  1.0331
 7102SOL     OW32767   3.225   0.247   3.880  0.2994  0.0387 -0.5563
 7102SOL    HW132768   3.286   0.304   3.834  0.7480 -0.5276 -0.6670
 7102SOL    HW232769   3.219   0.175   3.818  2.0088 -0.6858  0.1284
 7103SOL     OW32770   3.121   0.515  12.038 -0.0664 -0.0330  0.3140
 7103SOL    HW132771   3.160   0.547  11.957  0.9436 -0.1298  0.7547
 7103SOL    HW232772   3.183   0.545  12.105 -0.7893  3.2775 -0.4799
 7104SOL     OW32773   4.383   3.938   8.356  0.2320 -0.2607  0.2353
 7104SOL    HW132774   4.353   3.857   8.315  0.6276  0.4973 -1.5294
 7104SOL    HW232775   4.464   3.972   8.318  1.5211 -0.1027  3.1344
 7105SOL     OW32776   3.306   4.053   6.525 -0.2894 -0.0701  0.4094
 7105SOL    HW132777   3.324   3.990   6.595  0.5334 -0.6768 -0.3483
 7105SOL    HW232778   3.276   4.127   6.578 -1.8574 -1.0663  0.9264
 7106SOL     OW32779   2.798   0.305  13.889 -0.3963 -0.0270  0.1274
 7106SOL    HW132780   2.808   0.397  13.864  0.0198 -0.9153 -2.9943
 7106SOL    HW232781   2.749   0.273  13.813  1.9819  0.7314 -1.7510
 7107SOL     OW32782   1.224   1.325  12.991  0.7613  0.5926  0.0889
 7107SOL    HW132783   1.258   1.317  13.080  2.2416 -1.6412 -0.6838
 7107SOL    HW232784   1.155   1.384  13.022  0.6986 -0.1019  1.2671
 7108SOL     OW32785   0.664   0.523   5.697  0.5269  0.0371 -0.5761
 7108SOL    HW132786   0.629   0.589   5.757 -4.2169 -2.1955 -0.8281
 7108SOL    HW232787   0.597   0.540   5.630  0.0509 -1.8271 -0.5892
 7109SOL     OW32788   3.549   2.690  13.522  0.3130  0.1220 -0.1066
 7109SOL    HW132789   3.632   2.659  13.487  1.2465  1.5661  0.8164
 7109SOL    HW232790   3.564   2.654  13.610  0.3144 -0.1419 -0.2165
 7110SOL     OW32791   4.086   1.325   3.153  0.1564  0.4880  0.6922
 7110SOL    HW132792   4.148   1.321   3.226  0.0407 -0.7975  0.7165
 7110SOL    HW232793   4.085   1.235   3.120 -1.4361 -0.4565  3.3618
 7111SOL     OW32794   0.523   1.311   4.606  0.0559 -0.1777 -0.4832
 7111SOL    HW132795   0.606   1.291   4.649  1.1758  2.6910 -1.3127
 7111SOL    HW232796   0.461   1.301   4.679 -1.7960  1.5505 -1.8208
 7112SOL     OW32797   4.363   3.280   5.990  0.7097  0.1515 -0.6018
 7112SOL    HW132798   4.395   3.205   6.040 -2.4679  0.7575  2.2946
 7112SOL    HW232799   4.335   3.250   5.903  0.4983  0.8274 -0.7613
 7113SOL     OW32800   2.293   0.566   5.468  0.1294  0.4858  0.5891
 7113SOL    HW132801   2.204   0.544   5.440  0.4482  0.5637 -0.5105
 7113SOL    HW232802   2.338   0.599   5.390 -1.4314 -1.3713 -1.1147
 7114SOL     OW32803   3.036   0.530  16.460 -0.0323  0.1917 -0.3275
 7114SOL    HW132804   3.055   0.466  16.391 -0.0070  0.9717 -1.0332
 7114SOL    HW232805   2.951   0.560  16.429 -0.0886  0.4022  0.0339
 7115SOL     OW32806   2.227   4.330  11.932  0.4288 -0.2067  0.3205
 7115SOL    HW132807   2.277   4.337  12.013  0.7006  0.6392  0.0742
 7115SOL    HW232808   2.252   4.409  11.884 -1.5340  0.6578  0.7262
 7116SOL     OW32809   2.431   2.097  10.391 -0.0326 -0.4760 -0.2954
 7116SOL    HW132810   2.387   2.066  10.471 -2.4494  0.8629 -1.1107
 7116SOL    HW232811   2.396   2.186  10.384  0.9544  0.0105  0.8746
 7117SOL     OW32812   0.268   3.044   4.266 -0.5623  0.3500 -0.1097
 7117SOL    HW132813   0.181   3.062   4.301 -0.6594  0.0397 -0.1924
 7117SOL    HW232814   0.250   3.049   4.172 -1.4984  1.6560  0.1400
 7118SOL     OW32815   3.044   4.595   5.789  0.9652  0.5393  0.3379
 7118SOL    HW132816   3.024   4.502   5.794 -1.8423  1.0614 -1.2147
 7118SOL    HW232817   3.137   4.595   5.812  0.7487 -2.9521  1.1698
 7119SOL     OW32818   1.019   3.049   6.947  0.4608 -0.1407  0.0724
 7119SOL    HW132819   1.100   2.998   6.955  1.1274  0.5998 -2.0011
 7119SOL    HW232820   1.003   3.079   7.037  2.0892  0.3982  0.1774
 7120SOL     OW32821   1.018   2.012   8.886  0.2572  0.2864  0.0243
 7120SOL    HW132822   0.985   1.994   8.974  2.2835  2.2593  1.2072
 7120SOL    HW232823   0.945   1.986   8.830  0.7735 -0.2507 -0.4087
 7121SOL     OW32824   4.070   3.805   6.228  0.4256  0.2171 -0.3033
 7121SOL    HW132825   4.071   3.841   6.316 -0.8672 -1.1423  0.2638
 7121SOL    HW232826   4.048   3.883   6.177  2.7810  0.5088 -0.8520
 7122SOL     OW32827   2.667   3.867  17.562 -0.2908  0.1931 -0.3114
 7122SOL    HW132828   2.746   3.814  17.551 -0.7731 -0.5819 -0.0420
 7122SOL    HW232829   2.629   3.859  17.474  1.5636  0.1051 -1.1128
 7123SOL     OW32830   3.445   0.390  17.147 -0.2713 -0.3594  0.5169
 7123SOL    HW132831   3.365   0.394  17.200  0.1328 -0.9217  1.1673
 7123SOL    HW232832   3.505   0.342  17.204  0.2434  2.3042  2.2400
 7124SOL     OW32833   0.781   3.233   2.309 -0.2669  0.6535  0.5174
 7124SOL    HW132834   0.728   3.303   2.348 -2.3964 -1.3980  1.3361
 7124SOL    HW232835   0.714   3.168   2.330 -1.1079  1.0611 -0.8438
 7125SOL     OW32836   4.702   2.120  17.379  0.4139 -0.6605  0.0689
 7125SOL    HW132837   0.047   2.166  17.433  1.3737 -0.5262 -1.1728
 7125SOL    HW232838   0.017   2.134  17.291 -1.7036 -2.2902 -1.0064
 7126SOL     OW32839   1.089   2.918   8.398 -0.1112 -0.0260 -0.1483
 7126SOL    HW132840   1.103   2.932   8.304  0.6083 -2.2904 -0.3929
 7126SOL    HW232841   0.993   2.917   8.400 -0.1261 -1.0109 -0.9786
 7127SOL     OW32842   1.784   2.499  14.862 -0.1114 -0.3404  0.1542
 7127SOL    HW132843   1.786   2.410  14.827  0.3964  0.5472 -2.0671
 7127SOL    HW232844   1.844   2.550  14.807  0.8772 -1.5636  0.0923
 7128SOL     OW32845   1.172   2.836   0.511 -0.0526 -0.5473 -0.3236
 7128SOL    HW132846   1.257   2.877   0.492 -0.9136  1.2259 -0.3802
 7128SOL    HW232847   1.138   2.886   0.586  0.6112 -2.5317  1.2803
 7129SOL     OW32848   3.867   1.273   1.376 -0.3048  0.0710  0.2119
 7129SOL    HW132849   3.822   1.342   1.328 -1.0634 -0.6458 -0.1169
 7129SOL    HW232850   3.825   1.270   1.462  2.5192  3.1457  1.6771
 7130SOL     OW32851   0.575   1.889  13.667  0.2520 -0.1231  0.3039
 7130SOL    HW132852   0.643   1.853  13.610 -0.3998 -0.4004 -0.2900
 7130SOL    HW232853   0.497   1.836  13.652 -1.2940  3.2275 -3.4505
 7131SOL     OW32854   0.391   4.647  12.982 -0.1914  0.0549 -0.5384
 7131SOL    HW132855   0.456   4.620  13.046  2.3315  2.3635 -2.1213
 7131SOL    HW232856   0.425   4.614  12.899  0.8116  0.3204 -0.2283
 7132SOL     OW32857   1.732   2.857   9.853  0.1918 -0.7088  0.0282
 7132SOL    HW132858   1.644   2.851   9.817 -0.5291  0.1701  1.6106
 7132SOL    HW232859   1.718   2.859   9.948 -0.3678 -2.2993 -0.0172
 7133SOL     OW32860   2.188   4.132  14.890 -0.2940  0.2615  0.2958
 7133SOL    HW132861   2.130   4.074  14.840  1.0163 -1.4790  0.7756
 7133SOL    HW232862   2.131   4.196  14.931 -3.6287 -1.1958 -2.0325
 7134SOL     OW32863   1.195   4.624   4.047 -0.2454  0.1817  0.1165
 7134SOL    HW132864   1.111   4.668   4.031 -0.2015  0.4352  0.6031
 7134SOL    HW232865   1.258   4.694   4.028  1.8323 -1.9021 -0.6664
 7135SOL     OW32866   1.641   0.510   8.263 -0.4545 -0.3290  0.0119
 7135SOL    HW132867   1.551   0.510   8.229  0.0156  0.7266 -1.2362
 7135SOL    HW232868   1.691   0.524   8.182 -1.8381  1.0862 -0.5973
 7136SOL     OW32869   0.904   0.136   4.232  0.9917  0.5836  0.2328
 7136SOL    HW132870   0.839   0.205   4.222 -0.8649 -1.2023 -0.1340
 7136SOL    HW232871   0.960   0.155   4.157 -1.3029 -1.3545 -1.9912
 7137SOL     OW32872   0.721   4.285  10.721  0.1822  0.3646  0.3662
 7137SOL    HW132873   0.680   4.203  10.693  1.2786 -0.2009  0.3768
 7137SOL    HW232874   0.811   4.253  10.724 -0.4220 -1.2394  1.1936
 7138SOL     OW32875   3.578   0.274  15.452 -0.3432  0.3631  0.0918
 7138SOL    HW132876   3.512   0.304  15.514  2.7743  2.6630  2.3059
 7138SOL    HW232877   3.551   0.183  15.446  0.4074  0.2363 -1.3681
 7139SOL     OW32878   0.945   0.163   7.205 -0.1316  0.1151 -0.6873
 7139SOL    HW132879   0.990   0.151   7.121 -1.0701 -1.8073 -0.9296
 7139SOL    HW232880   0.922   0.255   7.210  0.0073  0.2098 -1.8264
 7140SOL     OW32881   3.016   4.582   0.676  0.5934 -0.3503  0.4561
 7140SOL    HW132882   2.996   4.566   0.584  0.3276  0.9145  0.2952
 7140SOL    HW232883   2.966   4.663   0.689  1.9974  0.5712  0.1458
 7141SOL     OW32884   1.270   3.796   3.822  0.0281 -0.2866  1.2721
 7141SOL    HW132885   1.231   3.813   3.908  1.6153 -0.3710  1.9947
 7141SOL    HW232886   1.207   3.838   3.763 -0.6487  1.5440  3.2704
 7142SOL     OW32887   4.562   3.769   7.238  0.0116 -0.2909 -0.5164
 7142SOL    HW132888   4.517   3.718   7.305  2.4151 -1.5681  0.0901
 7142SOL    HW232889   4.587   3.843   7.293 -0.7852 -0.2610 -0.1971
 7143SOL     OW32890   3.128   1.264   7.484 -0.3641  1.0509  0.2514
 7143SOL    HW132891   3.191   1.286   7.553 -2.0490 -0.8529  2.3868
 7143SOL    HW232892   3.052   1.238   7.537  0.2077  0.0668  0.5836
 7144SOL     OW32893   2.899   0.758   2.766  1.0442  0.1902 -0.1928
 7144SOL    HW132894   2.944   0.722   2.689  0.2825 -0.9398 -0.1022
 7144SOL    HW232895   2.854   0.819   2.709  1.3098 -0.6947 -1.3485
 7145SOL     OW32896   4.128   2.478   3.656  0.2675  0.1570 -0.4733
 7145SOL    HW132897   4.193   2.424   3.700  0.0615  0.7599  0.5664
 7145SOL    HW232898   4.156   2.566   3.680  0.9819 -0.0057 -0.7351
 7146SOL     OW32899   1.584   1.937   1.075  0.1963  0.4594 -0.0128
 7146SOL    HW132900   1.509   1.944   1.135 -0.8217  1.8329 -1.4586
 7146SOL    HW232901   1.618   1.856   1.113  0.2573 -0.2952 -1.7037
 7147SOL     OW32902   3.828   3.748  10.064  0.1111  0.4344 -0.0658
 7147SOL    HW132903   3.801   3.818  10.004  1.1886  0.5623 -0.3986
 7147SOL    HW232904   3.912   3.722  10.026  0.3968 -0.1727  0.9705
 7148SOL     OW32905   2.844   3.659   2.379  0.3244 -0.4384  0.1632
 7148SOL    HW132906   2.907   3.683   2.310  0.7674 -0.5406  0.5282
 7148SOL    HW232907   2.900   3.669   2.456  0.4419 -0.1264  0.0421
 7149SOL     OW32908   2.901   4.471   3.730  0.2089  0.2100  0.2228
 7149SOL    HW132909   2.966   4.421   3.779 -0.3431 -0.0667  0.6759
 7149SOL    HW232910   2.872   4.412   3.660  1.2985 -1.5907  1.3078
 7150SOL     OW32911   2.694   4.501   2.296  0.1149  0.1469  0.3634
 7150SOL    HW132912   2.734   4.586   2.279 -0.1979 -0.1641 -1.8955
 7150SOL    HW232913   2.757   4.452   2.349 -0.4211  0.9831  1.7858
 7151SOL     OW32914   3.390   2.294   7.774  0.1925  0.3249 -0.3806
 7151SOL    HW132915   3.395   2.370   7.715  1.0574  0.4340 -0.1683
 7151SOL    HW232916   3.315   2.246   7.740  1.9598 -1.9139 -1.1168
 7152SOL     OW32917   3.433   4.174   4.075 -0.6435  0.2451 -0.6089
 7152SOL    HW132918   3.521   4.193   4.109 -0.6962 -0.6976  0.0666
 7152SOL    HW232919   3.402   4.261   4.051 -0.8666  0.0432 -1.0437
 7153SOL     OW32920   2.702   4.475   4.044  0.2837  0.3017 -0.6752
 7153SOL    HW132921   2.658   4.520   3.972 -0.3615  1.9553  0.7458
 7153SOL    HW232922   2.667   4.526   4.117  0.7836 -0.0664 -0.1826
 7154SOL     OW32923   3.640   2.938  17.192  0.3423 -0.7825 -0.3963
 7154SOL    HW132924   3.630   3.011  17.253  0.9976  0.0241 -1.2507
 7154SOL    HW232925   3.563   2.888  17.219  2.1449 -2.9519  0.7160
 7155SOL     OW32926   0.755   0.147   3.853 -0.2186 -0.1328 -0.5125
 7155SOL    HW132927   0.761   0.231   3.898 -0.8384 -1.1728  1.5176
 7155SOL    HW232928   0.746   0.167   3.759 -2.3952 -1.9983 -0.7058
 7156SOL     OW32929   0.637   0.831   3.251  0.2844 -0.4859 -0.5219
 7156SOL    HW132930   0.593   0.876   3.180  1.3092 -1.0161 -1.4951
 7156SOL    HW232931   0.681   0.901   3.299  0.6274 -2.1431  1.6013
 7157SOL     OW32932   4.230   0.763   5.763  0.2707  0.2997  0.2736
 7157SOL    HW132933   4.272   0.679   5.784 -0.9344 -0.4830 -0.3981
 7157SOL    HW232934   4.139   0.734   5.760  0.5648 -0.7950  1.6254
 7158SOL     OW32935   0.128   2.732  14.825  0.2235 -0.5564  0.1357
 7158SOL    HW132936   0.046   2.736  14.775 -1.8055 -0.6593  3.4348
 7158SOL    HW232937   0.140   2.827  14.823 -1.1771 -0.4107 -1.5841
 7159SOL     OW32938   2.403   2.764   8.850 -0.5816  0.2604 -0.2855
 7159SOL    HW132939   2.317   2.733   8.822 -0.3973  0.2939 -0.8825
 7159SOL    HW232940   2.409   2.846   8.802 -1.1816  0.1082 -0.6145
 7160SOL     OW32941   0.011   4.236   7.434  0.3897 -0.7503  0.2378
 7160SOL    HW132942   4.677   4.239   7.513  1.5991 -0.0868  1.0354
 7160SOL    HW232943   4.691   4.307   7.383 -0.0861  0.3879  2.1707
 7161SOL     OW32944   0.284   0.497  12.966  0.3901  0.3395  0.3991
 7161SOL    HW132945   0.312   0.412  13.000 -1.3823  0.0936  1.2645
 7161SOL    HW232946   0.315   0.545  13.043  0.8611  0.3615  0.1935
 7162SOL     OW32947   3.114   0.547   4.743  0.3885  0.0755  0.2421
 7162SOL    HW132948   3.053   0.580   4.809  2.0922  1.0952  1.2872
 7162SOL    HW232949   3.061   0.490   4.686  0.3599  0.6685 -0.3225
 7163SOL     OW32950   2.978   0.358  14.604  0.5234  0.0863  0.7800
 7163SOL    HW132951   2.997   0.448  14.631  0.5540  0.2271  0.2864
 7163SOL    HW232952   2.935   0.372  14.520 -0.2560 -0.5877  1.0618
 7164SOL     OW32953   2.473   4.191   3.734  0.8039 -0.3217  0.1926
 7164SOL    HW132954   2.464   4.229   3.647  1.2725  0.2642  0.3919
 7164SOL    HW232955   2.386   4.211   3.769 -0.2953  0.7667 -3.2052
 7165SOL     OW32956   0.250   0.898   2.382  0.2042  0.1123  0.3406
 7165SOL    HW132957   0.265   0.915   2.289  1.0367  0.6615  0.5751
 7165SOL    HW232958   0.181   0.963   2.393  0.1572 -0.0590  1.0584
 7166SOL     OW32959   0.952   1.529   4.033 -0.3155  0.3642 -0.5700
 7166SOL    HW132960   0.904   1.455   4.071  1.5607 -0.2352  0.6381
 7166SOL    HW232961   1.015   1.545   4.104  1.5497  0.9863 -2.3682
 7167SOL     OW32962   1.576   0.029   2.403 -1.0422 -0.2564 -0.8575
 7167SOL    HW132963   1.622   0.044   2.486  1.4747 -0.4404 -2.2307
 7167SOL    HW232964   1.632   4.680   2.367 -0.5415  0.1870 -0.9081
 7168SOL     OW32965   1.407   0.988   0.896  0.0480  0.0008 -0.3215
 7168SOL    HW132966   1.391   1.028   0.810 -2.1516  0.4340  0.2945
 7168SOL    HW232967   1.457   1.052   0.946  0.5874 -1.7635  1.4005
 7169SOL     OW32968   3.772   3.986   7.986 -0.3250  0.0229  0.4311
 7169SOL    HW132969   3.840   3.957   8.047 -0.1205 -2.1687 -0.8520
 7169SOL    HW232970   3.753   3.901   7.947  1.3638  0.8249 -2.1725
 7170SOL     OW32971   3.431   0.221   0.668 -0.4866 -0.3410  0.4423
 7170SOL    HW132972   3.428   0.240   0.761 -2.6099  1.6714 -0.0513
 7170SOL    HW232973   3.400   0.131   0.662  0.0872 -0.5111  0.0182
 7171SOL     OW32974   0.394   4.323   4.006 -0.5888 -0.2658 -0.5576
 7171SOL    HW132975   0.333   4.391   4.036  0.2861 -0.4139  1.5279
 7171SOL    HW232976   0.474   4.367   3.977 -0.1433 -0.0053  1.1009
 7172SOL     OW32977   1.020   3.090   7.429  0.1127 -0.0476 -0.0743
 7172SOL    HW132978   1.060   3.117   7.346  2.1757 -1.4236  0.4767
 7172SOL    HW232979   0.932   3.080   7.393 -0.4749  0.7520  1.1404
 7173SOL     OW32980   1.694   1.900   8.174 -0.4623  0.0099 -0.2459
 7173SOL    HW132981   1.602   1.875   8.172 -0.1828 -0.9995 -0.7494
 7173SOL    HW232982   1.716   1.946   8.092 -1.4193 -1.4834 -1.3392
 7174SOL     OW32983   2.604   1.210  11.814 -0.5490  0.6400  0.2818
 7174SOL    HW132984   2.525   1.163  11.842 -0.9585  0.1686 -1.6340
 7174SOL    HW232985   2.565   1.229  11.729  0.2272 -1.6183 -0.5930
 7175SOL     OW32986   1.902   4.634  10.374  0.0878  0.4181  0.2012
 7175SOL    HW132987   1.953   4.566  10.331  0.4187  2.2200 -2.2958
 7175SOL    HW232988   1.875   4.587  10.452  0.1878  0.3093  0.1711
 7176SOL     OW32989   3.978   4.361   8.032 -0.3485  0.2133  0.4813
 7176SOL    HW132990   3.925   4.292   7.992 -0.1395  2.1735 -3.2110
 7176SOL    HW232991   3.962   4.341   8.124 -0.6754  0.3172  0.4483
 7177SOL     OW32992   4.075   1.191   0.191  0.2392  0.1107  0.0162
 7177SOL    HW132993   4.165   1.221   0.178 -1.1444  3.0575 -2.7895
 7177SOL    HW232994   4.100   1.100   0.172 -2.2652 -1.0252  2.2269
 7178SOL     OW32995   1.632   0.149   4.118  0.1692  0.3644  0.1577
 7178SOL    HW132996   1.590   0.138   4.203  0.9481 -0.2098  0.4749
 7178SOL    HW232997   1.664   0.239   4.111  0.4902  0.1865 -0.6602
 7179SOL     OW32998   0.079   3.658   7.330  0.1867 -0.2103  0.2528
 7179SOL    HW132999   0.074   3.600   7.254  0.7512  2.3488 -1.7528
 7179SOL    HW233000   4.715   3.703   7.314  0.0268 -0.3833  0.5871
 7180SOL     OW33001   2.912   3.811   4.126  0.2070 -0.4987 -0.3405
 7180SOL    HW133002   2.888   3.898   4.093  2.3332  1.1395  2.4199
 7180SOL    HW233003   2.885   3.750   4.058 -0.5713  0.4504 -0.8737
 7181SOL     OW33004   0.561   4.168   6.916  0.1766 -0.4873  0.1652
 7181SOL    HW133005   0.542   4.195   7.006  0.3106 -0.3642  0.1560
 7181SOL    HW233006   0.476   4.140   6.881 -0.5427  0.1768  1.3773
 7182SOL     OW33007   1.482   2.472  13.439 -0.7226  0.4312 -0.7235
 7182SOL    HW133008   1.552   2.534  13.420 -0.2445  0.5947  1.5956
 7182SOL    HW233009   1.416   2.503  13.376 -0.7578  0.9472 -0.4389
 7183SOL     OW33010   1.549   2.096   8.354  0.3498 -0.0650 -0.4647
 7183SOL    HW133011   1.606   2.043   8.298  1.8257 -1.0348  1.9521
 7183SOL    HW233012   1.599   2.163   8.402 -0.6069 -0.5718  1.2274
 7184SOL     OW33013   0.644   4.048   5.435 -0.1696 -0.0260 -0.4153
 7184SOL    HW133014   0.656   4.026   5.342  0.2494  2.5324 -0.9525
 7184SOL    HW233015   0.719   4.108   5.430 -1.0247  1.0634 -0.0687
 7185SOL     OW33016   3.958   3.544  15.472  0.2957 -0.3135 -0.2485
 7185SOL    HW133017   3.999   3.623  15.508 -3.4468  1.7466 -0.5528
 7185SOL    HW233018   3.988   3.477  15.533 -2.0929 -0.3594  0.8697
 7186SOL     OW33019   1.315   4.121   5.913 -0.1474 -0.0790 -0.3000
 7186SOL    HW133020   1.342   4.130   5.821 -2.7159 -0.3856 -1.0918
 7186SOL    HW233021   1.316   4.214   5.936  0.7819  0.3168 -1.9340
 7187SOL     OW33022   1.864   3.904   7.335 -0.6510  0.6380  0.5403
 7187SOL    HW133023   1.902   3.918   7.422  0.3462 -0.4859  0.2913
 7187SOL    HW233024   1.850   3.810   7.350  0.1453  0.6897  1.5884
 7188SOL     OW33025   4.339   3.410   3.090 -0.1646 -0.2893 -0.6164
 7188SOL    HW133026   4.261   3.417   3.034 -0.0147  3.1764 -0.4042
 7188SOL    HW233027   4.370   3.327   3.055 -0.1508 -0.3755 -0.3982
 7189SOL     OW33028   4.005   2.772  15.329  0.0637  0.4419 -0.1127
 7189SOL    HW133029   4.095   2.798  15.347  0.2788  0.3464 -1.0567
 7189SOL    HW233030   3.961   2.853  15.357 -1.4036 -0.3922  0.0249
 7190SOL     OW33031   4.184   0.279   7.615 -0.2795 -0.2004 -0.2678
 7190SOL    HW133032   4.181   0.299   7.708 -1.2513 -2.1888  0.1271
 7190SOL    HW233033   4.276   0.256   7.608  0.1986  1.7431 -0.3414
 7191SOL     OW33034   2.095   0.546  11.975  0.4009  0.4388 -0.1213
 7191SOL    HW133035   2.168   0.592  11.936 -0.8728  3.8902  1.5966
 7191SOL    HW233036   2.043   0.616  12.013  0.1440  0.8210 -1.1798
 7192SOL     OW33037   1.153   1.523  15.312  0.2784  0.1702 -0.6455
 7192SOL    HW133038   1.064   1.559  15.313  0.6642  1.1174 -0.5864
 7192SOL    HW233039   1.154   1.517  15.408 -2.4998  3.7575 -0.4275
 7193SOL     OW33040   0.558   1.202   5.559 -0.6267 -0.6540  0.5937
 7193SOL    HW133041   0.478   1.158   5.533 -0.2621  1.0656 -3.3941
 7193SOL    HW233042   0.546   1.292   5.529 -1.5426 -0.8004  0.5294
 7194SOL     OW33043   3.679   0.240   7.795 -0.1048  0.0285  0.3898
 7194SOL    HW133044   3.594   0.274   7.823 -0.8573  0.0467 -1.8792
 7194SOL    HW233045   3.698   0.295   7.719 -1.0988  1.2412  1.0215
 7195SOL     OW33046   0.596   0.988   3.578 -0.3788 -0.1767 -0.2793
 7195SOL    HW133047   0.525   1.033   3.532 -1.2832  1.2015  2.4930
 7195SOL    HW233048   0.611   1.041   3.656  0.3626 -3.2019  1.6165
 7196SOL     OW33049   2.207   1.004  15.443 -0.0308  0.6535  0.1505
 7196SOL    HW133050   2.184   0.913  15.427 -0.8676  0.7160  0.9806
 7196SOL    HW233051   2.126   1.049  15.423 -0.6783 -1.1390 -1.2622
 7197SOL     OW33052   2.206   2.194   2.603 -0.1084 -0.5445 -0.4803
 7197SOL    HW133053   2.268   2.258   2.569  0.1928 -0.3991  0.3340
 7197SOL    HW233054   2.122   2.239   2.602 -0.0464 -0.4424 -1.0560
 7198SOL     OW33055   0.976   0.152  14.038  0.3891 -0.3071 -0.5515
 7198SOL    HW133056   0.882   0.149  14.053  0.4885  0.0739  0.1614
 7198SOL    HW233057   0.978   0.235  13.990 -0.4346 -0.1327 -0.2763
 7199SOL     OW33058   3.137   4.402   5.538  0.0695 -0.0080  0.2558
 7199SOL    HW133059   3.109   4.311   5.525  0.6265 -0.0284 -0.8291
 7199SOL    HW233060   3.103   4.433   5.454 -0.4265  1.1223  0.8690
 7200SOL     OW33061   2.986   2.566  16.328 -0.1700 -0.3859 -0.6438
 7200SOL    HW133062   2.911   2.580  16.387 -2.0824 -4.2863 -2.1367
 7200SOL    HW233063   3.041   2.501  16.371 -0.4305  1.1287  2.0248
 7201SOL     OW33064   2.138   4.313  10.433  0.4693 -0.2395  0.4651
 7201SOL    HW133065   2.085   4.357  10.366  0.9764 -0.8348 -0.3318
 7201SOL    HW233066   2.197   4.261  10.377  1.1261  0.4648  0.5020
 7202SOL     OW33067   0.097   2.404   3.994 -0.4665  0.4454 -0.5921
 7202SOL    HW133068   0.048   2.359   4.063 -0.2926 -0.5468 -1.1105
 7202SOL    HW233069   0.187   2.403   4.026 -1.4646 -0.9038  2.1597
 7203SOL     OW33070   1.279   4.519   3.126 -0.1760  0.0212 -0.4423
 7203SOL    HW133071   1.359   4.485   3.166 -0.2356  2.4541  1.7749
 7203SOL    HW233072   1.275   4.447   3.064  0.6049 -0.4375  0.0301
 7204SOL     OW33073   3.085   0.469   5.717  0.0080  0.6530 -0.2040
 7204SOL    HW133074   3.077   0.474   5.622 -1.9813 -1.0286 -0.1255
 7204SOL    HW233075   2.992   0.463   5.742 -0.4031 -1.3696 -2.2765
 7205SOL     OW33076   0.861   3.270   4.935  0.1449 -0.3725  0.2154
 7205SOL    HW133077   0.875   3.334   4.865  1.0676 -1.7023 -0.8158
 7205SOL    HW233078   0.916   3.195   4.911  0.7735  0.5616 -1.2669
 7206SOL     OW33079   2.548   2.188  11.689  0.6293  0.2662  0.1289
 7206SOL    HW133080   2.558   2.183  11.594  1.9003 -1.8722  0.3708
 7206SOL    HW233081   2.489   2.263  11.694 -0.2976 -0.2875 -2.4334
 7207SOL     OW33082   4.140   4.522   2.187 -0.0750 -0.0386  0.2358
 7207SOL    HW133083   4.205   4.469   2.141 -0.9694 -1.2868  0.4205
 7207SOL    HW233084   4.098   4.569   2.116 -0.1725  2.1856  1.7660
 7208SOL     OW33085   2.776   2.573  16.523 -0.4461 -0.5497  0.0450
 7208SOL    HW133086   2.800   2.537  16.608 -0.0283 -0.8169 -0.1843
 7208SOL    HW233087   2.693   2.619  16.536 -0.5778 -0.9321  0.5698
 7209SOL     OW33088   1.652   2.222   9.192 -0.4534  0.1345 -0.0325
 7209SOL    HW133089   1.653   2.280   9.268 -1.0646 -0.2840  0.2953
 7209SOL    HW233090   1.558   2.206   9.202  0.0150 -1.8289  1.0888
 7210SOL     OW33091   3.342   3.013   6.032 -0.0444 -0.3088  0.3461
 7210SOL    HW133092   3.268   2.957   6.057 -0.7080 -0.0552 -0.9948
 7210SOL    HW233093   3.412   2.955   6.062  2.6793  1.1910 -3.1440
 7211SOL     OW33094   4.427   0.325   9.404 -0.1020 -0.0333  0.2321
 7211SOL    HW133095   4.390   0.409   9.430 -0.3733 -0.9314  2.7419
 7211SOL    HW233096   4.493   0.346   9.337 -1.3903  2.0632 -0.3775
 7212SOL     OW33097   4.412   4.311   6.874  0.4572  0.4435 -0.0293
 7212SOL    HW133098   4.341   4.339   6.817  0.2280 -1.2090 -0.5604
 7212SOL    HW233099   4.472   4.384   6.861  1.6483 -0.1012  2.2869
 7213SOL     OW33100   1.847   1.210   6.976  0.1948 -0.2123  0.1212
 7213SOL    HW133101   1.759   1.212   6.937 -0.7640  2.9691  2.4608
 7213SOL    HW233102   1.883   1.125   6.952 -0.8478 -0.5756 -0.1369
 7214SOL     OW33103   1.202   3.525   5.051 -0.1210 -0.0692 -0.4047
 7214SOL    HW133104   1.107   3.536   5.047 -0.1772 -0.1838  0.8601
 7214SOL    HW233105   1.233   3.561   5.134 -0.7919  0.7900 -0.5343
 7215SOL     OW33106   1.636   2.057   2.239  0.2288 -0.0064  0.2879
 7215SOL    HW133107   1.711   1.998   2.243 -0.6055 -1.2321 -1.7889
 7215SOL    HW233108   1.572   1.996   2.201 -0.3909  0.9125 -0.1377
 7216SOL     OW33109   4.635   4.475  12.762  0.4662  0.4597  0.5923
 7216SOL    HW133110   4.658   4.391  12.722 -2.9175  1.0521 -2.6123
 7216SOL    HW233111   4.712   4.481  12.819  0.9345  1.7820 -0.1772
 7217SOL     OW33112   4.419   1.173  16.754 -0.1406 -0.2617  0.3449
 7217SOL    HW133113   4.466   1.130  16.825 -0.1659 -2.1180 -0.7744
 7217SOL    HW233114   4.484   1.235  16.720 -1.0313  0.0234 -0.8456
 7218SOL     OW33115   2.293   3.641   8.647  0.2406 -0.6210 -0.1934
 7218SOL    HW133116   2.301   3.554   8.609 -0.5446 -0.6867 -0.1955
 7218SOL    HW233117   2.297   3.699   8.571 -0.8865  0.4948  0.6082
 7219SOL     OW33118   3.131   2.714  17.046 -0.0547  0.2597 -0.4722
 7219SOL    HW133119   3.052   2.763  17.025 -0.3911 -0.5479 -1.1220
 7219SOL    HW233120   3.096   2.662  17.118 -0.9027  0.5906 -0.6570
 7220SOL     OW33121   2.691   2.629   4.688 -0.1909  0.3222  0.1700
 7220SOL    HW133122   2.717   2.719   4.673  0.9898  0.2518  1.7761
 7220SOL    HW233123   2.645   2.598   4.610 -0.4174  2.0204 -0.3646
 7221SOL     OW33124   1.589   3.616  11.035  0.4068  0.1767 -0.0522
 7221SOL    HW133125   1.660   3.554  11.051 -1.8471 -1.8959  1.8196
 7221SOL    HW233126   1.549   3.633  11.120  1.5225 -1.0774  0.7237
 7222SOL     OW33127   2.207   2.602  13.782  0.0769  0.5958 -0.2133
 7222SOL    HW133128   2.286   2.655  13.767  0.7645 -0.0630  1.0993
 7222SOL    HW233129   2.143   2.640  13.722 -0.2618  1.1565  0.4956
 7223SOL     OW33130   2.877   0.943   4.693  0.4763 -0.1464  0.0274
 7223SOL    HW133131   2.856   0.868   4.750  0.3387  0.4752  0.7919
 7223SOL    HW233132   2.809   1.004   4.721  1.5648 -0.1606  2.6930
 7224SOL     OW33133   0.850   1.694   0.285 -0.0138 -0.1223  0.4951
 7224SOL    HW133134   0.779   1.661   0.340 -2.7230 -0.3735 -3.1610
 7224SOL    HW233135   0.833   1.645   0.205 -0.1101  0.7686 -0.0248
 7225SOL     OW33136   4.666   2.644   1.863  0.1429  0.6330 -0.2692
 7225SOL    HW133137   4.587   2.673   1.908  0.1143  1.2641 -0.7144
 7225SOL    HW233138   4.692   2.573   1.921  0.9113 -0.2385 -1.6696
 7226SOL     OW33139   2.391   1.753   2.724 -0.3362  0.2192 -0.0335
 7226SOL    HW133140   2.383   1.799   2.807  2.0183  0.1098  0.2582
 7226SOL    HW233141   2.320   1.799   2.679 -0.7426 -0.1976  0.1737
 7227SOL     OW33142   3.267   2.098   8.525  0.3790 -0.1542 -0.2886
 7227SOL    HW133143   3.290   2.107   8.618  0.3962  2.6751 -0.5666
 7227SOL    HW233144   3.206   2.025   8.528 -1.0560  1.0128 -1.4428
 7228SOL     OW33145   3.396   3.018   8.250 -0.2165  0.4228 -0.3150
 7228SOL    HW133146   3.388   3.047   8.341 -0.8921 -0.7156 -0.0144
 7228SOL    HW233147   3.307   3.035   8.219 -0.0561  2.9972  0.6750
 7229SOL     OW33148   1.459   1.649   5.629  0.3252 -0.3920 -0.2067
 7229SOL    HW133149   1.368   1.627   5.650 -0.0629  1.1580 -0.2735
 7229SOL    HW233150   1.450   1.736   5.589 -1.1413  0.2340  1.5020
 7230SOL     OW33151   4.367   1.887   6.103  0.3909  0.0140  0.0431
 7230SOL    HW133152   4.405   1.848   6.025 -0.1365  1.1369 -0.7689
 7230SOL    HW233153   4.279   1.905   6.070  1.0213 -1.8321 -2.5592
 7231SOL     OW33154   2.367   1.261   4.864  0.2285  0.2360 -0.1578
 7231SOL    HW133155   2.400   1.173   4.886  1.9465  0.6237 -1.1558
 7231SOL    HW233156   2.447   1.300   4.830 -0.1252  1.8888  0.9154
 7232SOL     OW33157   3.705   0.157  16.555  0.1233 -0.5625 -0.2462
 7232SOL    HW133158   3.708   0.212  16.477 -2.3592 -2.5227 -1.7257
 7232SOL    HW233159   3.799   0.141  16.565 -0.0807 -3.6286 -3.4633
 7233SOL     OW33160   3.347   0.095  11.355  0.4707 -0.4183  0.1640
 7233SOL    HW133161   3.428   0.126  11.396  0.7070 -1.8661  0.8033
 7233SOL    HW233162   3.356   0.001  11.372  1.8512 -0.2890  0.2133
 7234SOL     OW33163   2.245   1.182  12.507  0.0246 -0.1673  0.0664
 7234SOL    HW133164   2.255   1.162  12.414 -1.4814 -2.1040  0.3083
 7234SOL    HW233165   2.187   1.257  12.496 -0.3890 -0.0316  3.0684
 7235SOL     OW33166   0.618   1.993   2.394 -0.1445 -0.2631 -0.4144
 7235SOL    HW133167   0.606   1.904   2.427 -1.5453  0.0605 -0.0232
 7235SOL    HW233168   0.604   2.046   2.473  1.6791  0.9366 -0.9080
 7236SOL     OW33169   1.124   4.351   2.747 -0.3193 -0.5105  0.2831
 7236SOL    HW133170   1.143   4.345   2.653  0.4101 -1.1306  0.4744
 7236SOL    HW233171   1.138   4.445   2.755  0.2059 -0.4321 -1.5004
 7237SOL     OW33172   1.730   2.836  10.113  0.2538 -0.2483  0.4255
 7237SOL    HW133173   1.807   2.789  10.147 -0.3852 -0.3658  1.6886
 7237SOL    HW233174   1.712   2.901  10.181 -0.6770  1.6071 -1.6005
 7238SOL     OW33175   3.193   0.545  11.769  0.5685  0.1963 -0.4778
 7238SOL    HW133176   3.127   0.483  11.737  0.0434 -1.0386  3.0388
 7238SOL    HW233177   3.222   0.577  11.684 -1.4621  0.6568 -1.0037
 7239SOL     OW33178   0.185   3.628   1.529 -0.3622 -0.1012 -0.0064
 7239SOL    HW133179   0.174   3.620   1.434 -1.2323 -1.1122  0.1850
 7239SOL    HW233180   0.099   3.662   1.553  0.2185  0.2659  1.5787
 7240SOL     OW33181   3.534   4.691  11.105  0.0817  0.4602  0.9158
 7240SOL    HW133182   3.502   0.061  11.094 -2.1563 -0.2303  1.9318
 7240SOL    HW233183   3.622   4.714  11.137  0.9078  0.9735 -1.7269
 7241SOL     OW33184   2.047   1.416   5.901 -0.5807 -0.1177  0.4418
 7241SOL    HW133185   2.087   1.433   5.815 -0.4630  1.4557  0.8107
 7241SOL    HW233186   2.090   1.338   5.935  0.0275  0.1322  0.2405
 7242SOL     OW33187   0.637   4.696  12.781 -0.8328 -0.1723 -0.2518
 7242SOL    HW133188   0.608   0.039  12.847  0.5322  0.2196 -0.0260
 7242SOL    HW233189   0.629   4.610  12.823 -0.3648 -0.8100 -1.4564
 7243SOL     OW33190   4.554   4.145  12.914  0.2765 -0.3029  0.0276
 7243SOL    HW133191   4.599   4.129  12.997 -0.2098  2.9327  0.9231
 7243SOL    HW233192   4.509   4.228  12.928  2.9885  1.3572 -1.1014
 7244SOL     OW33193   0.958   2.039   6.386  0.1116 -0.5723  0.5674
 7244SOL    HW133194   1.001   2.115   6.346  0.4195 -1.1089 -0.1379
 7244SOL    HW233195   0.958   1.976   6.313  1.7230 -1.0311  0.9764
 7245SOL     OW33196   3.769   2.201   3.927 -0.3483 -0.5062  0.1453
 7245SOL    HW133197   3.760   2.158   3.842  1.5595 -0.6187  0.0186
 7245SOL    HW233198   3.678   2.209   3.955 -0.9692 -0.1158 -1.9747
 7246SOL     OW33199   0.152   3.378  13.728  0.0670  0.1830 -0.2084
 7246SOL    HW133200   0.078   3.320  13.714  0.9344 -0.2115 -3.0228
 7246SOL    HW233201   0.199   3.382  13.645  1.1783 -1.7247  0.3351
 7247SOL     OW33202   0.690   1.749  10.169  0.2517 -0.4768 -0.7179
 7247SOL    HW133203   0.706   1.657  10.192 -0.3821  0.1927  2.3797
 7247SOL    HW233204   0.712   1.798  10.248 -0.8427  0.4993 -1.0081
 7248SOL     OW33205   0.214   0.008   7.538 -0.0212 -0.5167  0.3196
 7248SOL    HW133206   0.286   0.037   7.483 -0.6053 -1.9069 -1.1804
 7248SOL    HW233207   0.149   4.711   7.469 -1.7624 -0.0591  1.8462
 7249SOL     OW33208   4.621   0.291   8.071 -0.3261 -0.0997  0.7962
 7249SOL    HW133209   4.701   0.272   8.120  0.4922  1.2466 -0.0311
 7249SOL    HW233210   4.573   0.321   8.147 -0.6681  0.2321  0.4475
 7250SOL     OW33211   3.857   4.109   3.576 -0.3224 -0.0310 -0.0291
 7250SOL    HW133212   3.820   4.144   3.657  0.3398 -0.5858  0.5047
 7250SOL    HW233213   3.878   4.018   3.598  1.3262 -0.4802 -3.4210
 7251SOL     OW33214   3.271   0.822   7.387  0.3924 -0.0019  0.2037
 7251SOL    HW133215   3.240   0.912   7.395  0.5340 -0.0522  1.2903
 7251SOL    HW233216   3.362   0.828   7.416  0.9077 -2.0055 -0.9951
 7252SOL     OW33217   4.428   4.597  16.210  0.4597  0.0674 -0.2538
 7252SOL    HW133218   4.359   4.654  16.176  0.1611  0.1248  0.4418
 7252SOL    HW233219   4.504   4.617  16.155 -1.7854  2.7469 -2.3752
 7253SOL     OW33220   2.101   0.232   4.442  0.2491  0.0353  0.1657
 7253SOL    HW133221   2.050   0.174   4.385 -0.1574  1.6380 -1.1199
 7253SOL    HW233222   2.169   0.257   4.379 -1.1106  1.4709 -0.7248
 7254SOL     OW33223   3.228   4.619   3.440 -0.4581 -0.0820 -0.0070
 7254SOL    HW133224   3.178   4.543   3.470  1.2187 -0.9955  0.4530
 7254SOL    HW233225   3.317   4.598   3.469 -0.2344  3.3691  1.9159
 7255SOL     OW33226   2.117   3.456   9.473  0.0408  0.2590  0.1741
 7255SOL    HW133227   2.074   3.494   9.396  1.0059 -0.3856 -0.6854
 7255SOL    HW233228   2.206   3.490   9.463  0.6102 -0.7449  1.7946
 7256SOL     OW33229   3.800   1.480   0.003  0.4808  0.6005 -0.3249
 7256SOL    HW133230   3.875   1.503  17.629  0.3532 -0.9926 -1.1793
 7256SOL    HW233231   3.825   1.509   0.090 -0.8924  3.0969 -0.7715
 7257SOL     OW33232   3.708   4.018  11.339  0.0207  0.4093 -0.0943
 7257SOL    HW133233   3.755   3.980  11.414  0.7631  0.6758 -0.4254
 7257SOL    HW233234   3.650   4.068  11.397 -0.4896 -0.1153 -0.1486
 7258SOL     OW33235   0.989   4.691   5.822 -0.3978  0.3006  0.2917
 7258SOL    HW133236   0.953   0.005   5.739 -0.1009  0.1058  0.0822
 7258SOL    HW233237   1.068   4.650   5.789  0.1485  0.8661  0.8983
 7259SOL     OW33238   1.660   2.557   8.222  0.1362  0.4935 -0.3607
 7259SOL    HW133239   1.656   2.497   8.147 -0.2249  1.9771 -1.5317
 7259SOL    HW233240   1.717   2.508   8.281  1.9442  3.6531  0.4501
 7260SOL     OW33241   2.147   0.175   1.149  0.5081 -0.6473 -0.2211
 7260SOL    HW133242   2.113   0.203   1.234  0.8492  2.3959 -1.0991
 7260SOL    HW233243   2.237   0.207   1.156  0.4065 -0.0475 -1.5800
 7261SOL     OW33244   1.673   1.184   8.545  0.1092  0.3502  0.2070
 7261SOL    HW133245   1.761   1.181   8.582  0.5744 -3.2966 -1.1498
 7261SOL    HW233246   1.637   1.096   8.562 -1.2622  0.7300 -0.7594
 7262SOL     OW33247   2.493   3.524   1.636  0.1546  0.2146 -0.3234
 7262SOL    HW133248   2.504   3.429   1.630 -0.7985  0.2021 -1.8326
 7262SOL    HW233249   2.476   3.550   1.545  2.9583  0.2957 -0.8206
 7263SOL     OW33250   0.664   1.901   7.883  0.2940 -0.1720 -0.0470
 7263SOL    HW133251   0.713   1.973   7.923  0.2050  0.3148 -0.8030
 7263SOL    HW233252   0.585   1.951   7.864  0.7215  1.0026  1.2994
 7264SOL     OW33253   2.963   0.680   9.201  0.2489  0.3763 -0.6940
 7264SOL    HW133254   2.924   0.735   9.133 -0.0415 -0.1157 -0.9189
 7264SOL    HW233255   3.054   0.707   9.188  0.0096  0.6753 -1.7676
 7265SOL     OW33256   2.891   0.857  17.206 -0.5276  0.0118  0.6118
 7265SOL    HW133257   2.881   0.765  17.182  0.8487  0.9614 -3.6556
 7265SOL    HW233258   2.963   0.850  17.270  0.1542  1.3268 -0.0045
 7266SOL     OW33259   4.561   0.951   7.033  0.0726 -0.2751  0.0079
 7266SOL    HW133260   4.593   1.037   7.058 -1.3884  0.5574 -1.0059
 7266SOL    HW233261   4.560   0.902   7.115 -2.0449  1.2061  0.8459
 7267SOL     OW33262   4.656   1.907   5.069 -0.2065  0.4394  0.1323
 7267SOL    HW133263   4.652   1.853   5.149  2.3313 -1.7737 -1.2362
 7267SOL    HW233264   0.006   1.967   5.093 -0.0229  1.0659 -1.9809
 7268SOL     OW33265   0.577   3.232  11.105  0.0237 -0.1673 -0.1919
 7268SOL    HW133266   0.634   3.288  11.053 -0.9377 -0.1823 -1.2585
 7268SOL    HW233267   0.590   3.147  11.061  2.1669  1.0661 -1.9632
 7269SOL     OW33268   4.040   4.502   8.544 -0.2179 -0.2041 -0.1750
 7269SOL    HW133269   4.106   4.570   8.529 -0.7178  0.0688 -1.0896
 7269SOL    HW233270   4.005   4.489   8.456 -0.0971  0.0423 -0.2590
 7270SOL     OW33271   0.146   2.955   5.973 -0.1884  0.3309 -0.2067
 7270SOL    HW133272   0.098   2.879   5.942  1.3228 -0.1556 -1.3516
 7270SOL    HW233273   0.150   2.929   6.065 -2.5075  0.5740 -0.0359
 7271SOL     OW33274   4.321   4.305   2.193  0.0105  0.0436 -0.5718
 7271SOL    HW133275   4.343   4.226   2.144  2.1125  0.6188 -0.5366
 7271SOL    HW233276   4.391   4.365   2.168  0.5110  0.3981  1.6441
 7272SOL     OW33277   2.334   4.141   6.638  0.0203 -0.1292  0.0178
 7272SOL    HW133278   2.242   4.168   6.633  0.5041  1.7113  0.9462
 7272SOL    HW233279   2.330   4.087   6.559 -0.3405 -0.7397  0.4542
 7273SOL     OW33280   3.371   1.982  17.334 -0.3835 -0.4196 -0.0458
 7273SOL    HW133281   3.391   2.008  17.244 -1.7737  2.4920  0.4683
 7273SOL    HW233282   3.423   1.903  17.344 -0.2170 -0.1452  1.2479
 7274SOL     OW33283   2.339   0.989   5.966 -0.2413 -0.7663  0.0399
 7274SOL    HW133284   2.346   0.925   6.036  1.9856  0.8817  1.3321
 7274SOL    HW233285   2.347   0.935   5.887 -0.6676 -0.5200 -0.1738
 7275SOL     OW33286   2.058   3.576  17.509 -0.1860 -0.3071 -0.2458
 7275SOL    HW133287   2.047   3.639  17.581 -2.7942 -0.6257 -0.3825
 7275SOL    HW233288   2.039   3.634  17.435  1.7299  0.5300 -0.0816
 7276SOL     OW33289   4.366   4.656   5.674 -0.2409  0.6621  0.7410
 7276SOL    HW133290   4.428   4.588   5.698  0.4606  0.7101 -0.9233
 7276SOL    HW233291   4.305   4.655   5.748  0.2837 -1.7690  1.1275
 7277SOL     OW33292   1.085   1.743  13.106  0.4028 -0.2014 -0.6304
 7277SOL    HW133293   1.161   1.742  13.049  1.2948 -0.5035  0.5702
 7277SOL    HW233294   1.057   1.654  13.084  0.6010 -0.1625 -1.0330
 7278SOL     OW33295   0.434   3.056   3.833  0.1878  0.2216 -0.4151
 7278SOL    HW133296   0.411   3.076   3.742  0.9352 -1.1478 -0.8943
 7278SOL    HW233297   0.356   3.093   3.874 -0.5856 -1.1468 -0.6621
 7279SOL     OW33298   0.239   0.625   3.720  0.3899 -0.0816 -0.2042
 7279SOL    HW133299   0.157   0.578   3.705 -1.6342  2.6104  2.2250
 7279SOL    HW233300   0.241   0.691   3.651 -0.0197 -0.6446 -0.7488
 7280SOL     OW33301   4.099   4.661   4.862  0.3914  0.2639  0.8364
 7280SOL    HW133302   4.139   4.575   4.847  3.1336  1.6234  0.4781
 7280SOL    HW233303   4.065   4.678   4.774 -0.0663  0.0861  0.9788
 7281SOL     OW33304   3.503   0.792   3.640 -0.3880 -0.1972 -0.9964
 7281SOL    HW133305   3.467   0.744   3.565  1.3723 -0.7165 -1.4955
 7281SOL    HW233306   3.571   0.732   3.670 -0.6033  0.0739  0.0163
 7282SOL     OW33307   1.582   0.600   9.640 -0.2767 -0.4701  0.2825
 7282SOL    HW133308   1.665   0.640   9.617 -0.9545  1.2207  0.8006
 7282SOL    HW233309   1.589   0.523   9.583 -1.6763  0.0127 -0.5617
 7283SOL     OW33310   3.932   2.755   5.712 -0.2567 -0.0748 -0.1141
 7283SOL    HW133311   3.994   2.691   5.676 -1.4632 -1.5134  0.3855
 7283SOL    HW233312   3.989   2.822   5.750 -1.3654  0.0951  1.2455
 7284SOL     OW33313   4.012   2.926   1.237  0.1605 -0.4722  0.3695
 7284SOL    HW133314   3.979   2.896   1.322  1.0360 -0.7443  0.6100
 7284SOL    HW233315   3.937   2.982   1.219  0.8052  0.4341  0.5242
 7285SOL     OW33316   1.845   2.438   8.391  0.1904 -0.1327  0.1262
 7285SOL    HW133317   1.921   2.395   8.353 -1.1571 -1.4430 -1.1199
 7285SOL    HW233318   1.862   2.443   8.485  1.1166  0.2172 -0.0619
 7286SOL     OW33319   2.193   2.789  16.733  0.3546 -0.0704  0.4247
 7286SOL    HW133320   2.163   2.722  16.794  0.6637 -1.9368 -1.4379
 7286SOL    HW233321   2.218   2.857  16.795  2.6707  0.8350 -1.4969
 7287SOL     OW33322   2.251   1.632   2.184  0.6236  0.2579  0.1905
 7287SOL    HW133323   2.317   1.682   2.233 -0.8624  2.3019  0.0839
 7287SOL    HW233324   2.266   1.540   2.208  0.4324  0.6095  1.6547
 7288SOL     OW33325   2.498   0.484   3.538 -0.7137 -0.4386  0.4668
 7288SOL    HW133326   2.440   0.526   3.474  2.3242  1.6128 -0.9261
 7288SOL    HW233327   2.545   0.556   3.581  0.7991 -1.6589  0.8348
 7289SOL     OW33328   3.857   0.789  16.020  0.6731  0.3891 -0.5306
 7289SOL    HW133329   3.780   0.831  16.057  1.5701  0.1055  1.6541
 7289SOL    HW233330   3.917   0.801  16.094 -1.5549 -0.6719  1.4398
 7290SOL     OW33331   0.579   0.721   7.627 -0.1334 -0.4043  0.0890
 7290SOL    HW133332   0.584   0.633   7.664  0.6919  0.0377  1.0230
 7290SOL    HW233333   0.607   0.772   7.703  0.6259  0.5396 -0.8216
 7291SOL     OW33334   3.627   2.384  12.020 -0.1527 -0.0339  1.0407
 7291SOL    HW133335   3.680   2.305  12.024  0.5063  0.2510 -2.2932
 7291SOL    HW233336   3.574   2.356  11.945  2.7105  2.4291 -1.8963
 7292SOL     OW33337   0.240   0.309  17.054  0.2715  0.6644 -0.6967
 7292SOL    HW133338   0.311   0.358  17.014 -0.0150  0.6805 -1.1793
 7292SOL    HW233339   0.173   0.371  17.083  0.6265 -0.6819  2.9965
 7293SOL     OW33340   0.485   1.710   5.194  0.1258  0.5806 -0.5951
 7293SOL    HW133341   0.577   1.696   5.171  0.4764 -1.6030  2.0906
 7293SOL    HW233342   0.455   1.734   5.106  0.6233 -2.1433 -1.5373
 7294SOL     OW33343   2.290   0.786  13.139 -0.0054  0.0074 -0.9507
 7294SOL    HW133344   2.282   0.690  13.137 -0.8040  0.0723 -0.9563
 7294SOL    HW233345   2.224   0.814  13.075 -0.8188 -3.7584 -1.7949
 7295SOL     OW33346   2.438   0.078   5.300 -0.0035  0.0963 -0.1148
 7295SOL    HW133347   2.512   0.058   5.358  0.4669  1.0590 -0.3901
 7295SOL    HW233348   2.364   0.061   5.358 -0.4982  1.2792 -0.4063
 7296SOL     OW33349   1.650   3.777   7.841  0.3761  0.0535  0.2864
 7296SOL    HW133350   1.567   3.797   7.798  0.7174  0.6078 -0.1099
 7296SOL    HW233351   1.689   3.863   7.828  0.9267 -0.3332 -0.5886
 7297SOL     OW33352   0.122   0.560   1.777  0.1116 -1.0182  0.0081
 7297SOL    HW133353   0.083   0.473   1.768  1.0329 -1.4215 -0.1405
 7297SOL    HW233354   0.075   0.582   1.858 -0.4349  1.0259 -0.8665
 7298SOL     OW33355   2.034   1.947   3.925 -0.6232 -0.5899  0.1816
 7298SOL    HW133356   2.022   2.019   3.864  1.6934  0.0782  0.5340
 7298SOL    HW233357   1.979   1.972   4.000 -1.2584  0.2483 -0.5580
 7299SOL     OW33358   4.227   0.073   1.814 -0.1385 -0.0867  0.6547
 7299SOL    HW133359   4.174   0.117   1.880 -2.0383 -0.7824 -0.4255
 7299SOL    HW233360   4.197   4.702   1.810 -1.9847  0.4916  1.5650
 7300SOL     OW33361   0.615   4.204  15.393 -0.0434  0.0973 -0.2280
 7300SOL    HW133362   0.592   4.117  15.427  0.5666 -0.4935 -1.3292
 7300SOL    HW233363   0.678   4.186  15.324  0.5201  0.9234  0.0684
 7301SOL     OW33364   2.814   3.650   7.422  0.0658 -0.3500  0.4600
 7301SOL    HW133365   2.826   3.670   7.515  1.4064  3.9483 -0.6787
 7301SOL    HW233366   2.730   3.606   7.410  1.0334 -2.3655  0.8916
 7302SOL     OW33367   2.959   1.617  16.819 -1.2368  0.7718  0.2491
 7302SOL    HW133368   3.018   1.691  16.833  0.1136  0.2327 -2.6706
 7302SOL    HW233369   3.001   1.595  16.736  0.8659  0.4900  1.4025
 7303SOL     OW33370   4.008   0.235  11.278 -0.4151 -0.6342  0.3367
 7303SOL    HW133371   3.978   0.260  11.365  0.9744 -3.3339  1.5637
 7303SOL    HW233372   4.101   0.223  11.294 -0.3129 -0.3570 -0.0441
 7304SOL     OW33373   0.878   0.335  17.560  0.3003  0.0569  0.3241
 7304SOL    HW133374   0.810   0.320  17.626  1.0360 -0.0708  1.0608
 7304SOL    HW233375   0.933   0.390  17.617  0.7497 -0.6492  0.5706
 7305SOL     OW33376   4.286   4.619   8.114  0.3376  0.4503 -0.5095
 7305SOL    HW133377   4.191   4.620   8.112  0.3359  1.4894  0.2562
 7305SOL    HW233378   4.308   4.698   8.064  1.3538  1.2033  1.1405
 7306SOL     OW33379   3.322   3.582   5.336 -0.6091 -0.3264 -0.6709
 7306SOL    HW133380   3.281   3.505   5.298 -0.3311  0.2588 -2.1718
 7306SOL    HW233381   3.251   3.620   5.388 -0.0741  0.4337 -0.4991
 7307SOL     OW33382   0.693   3.195   3.901 -0.3238 -0.0754 -0.3592
 7307SOL    HW133383   0.718   3.224   3.813  1.3133 -0.6077 -0.0696
 7307SOL    HW233384   0.614   3.144   3.883  0.1452 -0.5516 -1.0910
 7308SOL     OW33385   1.155   1.794   2.714 -0.2514 -0.4436 -0.5306
 7308SOL    HW133386   1.249   1.814   2.704 -0.5751  0.6695 -1.4740
 7308SOL    HW233387   1.123   1.869   2.764  0.4006  0.1827 -1.0323
 7309SOL     OW33388   2.445   1.550  11.239  0.5012  0.1688  0.5567
 7309SOL    HW133389   2.401   1.503  11.168  0.2497 -0.0942  0.8850
 7309SOL    HW233390   2.519   1.491  11.251 -0.7021 -1.2411  1.1196
 7310SOL     OW33391   2.316   4.634   1.623 -0.0899 -0.1844  0.0642
 7310SOL    HW133392   2.233   4.659   1.664 -0.0692 -1.5894  0.9778
 7310SOL    HW233393   2.291   4.676   1.541 -1.3108  1.6059  1.3358
 7311SOL     OW33394   0.229   4.073   8.242  0.8812 -0.1938  0.0303
 7311SOL    HW133395   0.268   3.989   8.269 -0.5872 -0.6918  0.6295
 7311SOL    HW233396   0.135   4.059   8.255  0.9121 -0.7552 -0.3171
 7312SOL     OW33397   0.728   0.569   2.675  0.0451  0.0455 -0.0676
 7312SOL    HW133398   0.670   0.537   2.606  0.0686 -2.5164  1.1128
 7312SOL    HW233399   0.762   0.652   2.642 -0.3387 -0.1471 -0.9408
 7313SOL     OW33400   0.774   1.743   6.376  0.1409  0.3994 -0.0789
 7313SOL    HW133401   0.761   1.792   6.294 -2.4648 -1.4917 -0.7837
 7313SOL    HW233402   0.766   1.655   6.340  1.5041 -0.7560  2.4462
 7314SOL     OW33403   0.932   2.305   6.638 -0.4534 -0.5235  0.6446
 7314SOL    HW133404   1.013   2.321   6.591 -1.5737 -1.1096 -1.4900
 7314SOL    HW233405   0.949   2.328   6.729 -0.5303  2.4021 -0.0684
 7315SOL     OW33406   3.852   1.791   3.073  0.8822  0.2143  0.2413
 7315SOL    HW133407   3.888   1.704   3.053 -3.8295 -1.3228 -1.3592
 7315SOL    HW233408   3.928   1.833   3.113 -0.2096  1.7949  0.6525
 7316SOL     OW33409   3.439   0.772   1.411  0.1736  0.2943  0.3721
 7316SOL    HW133410   3.489   0.820   1.476  0.4233  1.4928 -0.7090
 7316SOL    HW233411   3.512   0.717   1.382  2.5404  3.0525  1.1930
 7317SOL     OW33412   1.695   2.394   7.654  0.1888 -0.4316  0.9288
 7317SOL    HW133413   1.763   2.344   7.698  0.3631 -1.1510 -0.1606
 7317SOL    HW233414   1.707   2.349   7.571 -0.1021 -0.7030  1.0311
 7318SOL     OW33415   1.831   2.694  15.457 -0.0777  0.2714 -0.1804
 7318SOL    HW133416   1.788   2.761  15.510 -5.0520 -2.7644 -0.3186
 7318SOL    HW233417   1.889   2.653  15.520  0.6584  1.8999  0.1965
 7319SOL     OW33418   2.263   2.098   1.941 -0.3593 -0.2849  0.3079
 7319SOL    HW133419   2.241   2.069   2.029  0.0406  1.9033  1.1069
 7319SOL    HW233420   2.220   2.183   1.931  0.7817 -0.0531 -2.7353
 7320SOL     OW33421   3.779   4.106   4.863 -0.4960 -0.3711  0.6372
 7320SOL    HW133422   3.796   4.160   4.940  0.0783 -2.7639  2.1683
 7320SOL    HW233423   3.792   4.019   4.899 -0.2802  0.1176  1.7532
 7321SOL     OW33424   0.998   3.095   2.386 -0.2265 -0.3626  0.2475
 7321SOL    HW133425   0.919   3.147   2.367 -0.1670  0.0220  1.0840
 7321SOL    HW233426   1.066   3.161   2.378  1.4387 -1.8451  2.0034
 7322SOL     OW33427   1.156   0.052  14.212 -0.4750 -0.1486  0.3575
 7322SOL    HW133428   1.235   0.095  14.180 -1.5667 -1.3524 -3.9017
 7322SOL    HW233429   1.098   0.091  14.147 -1.3200 -0.9839  0.6176
 7323SOL     OW33430   2.836   1.373   3.250  0.4776  0.3466 -0.5080
 7323SOL    HW133431   2.920   1.373   3.203  0.2547  0.9650 -0.9153
 7323SOL    HW233432   2.863   1.382   3.341  0.5408  1.5576 -0.6403
 7324SOL     OW33433   3.127   1.277   4.933 -0.3874 -0.3048  0.6149
 7324SOL    HW133434   3.166   1.352   4.889  0.2927 -0.4654  0.9431
 7324SOL    HW233435   3.141   1.213   4.863 -0.8354 -2.2118  2.2696
 7325SOL     OW33436   1.062   2.264  10.093  0.0341 -0.1355 -0.5961
 7325SOL    HW133437   1.013   2.239  10.015 -1.7498  1.5447  0.0035
 7325SOL    HW233438   1.155   2.251  10.077  0.0792 -1.0808  0.3968
 7326SOL     OW33439   2.088   2.335   7.559 -0.0111 -0.5083  0.5822
 7326SOL    HW133440   1.996   2.326   7.582 -0.0465  1.0369  1.0535
 7326SOL    HW233441   2.093   2.256   7.506 -2.8626 -0.1505 -0.2060
 7327SOL     OW33442   2.223   3.783   9.085  0.0457  0.2648  0.0723
 7327SOL    HW133443   2.159   3.767   9.154  0.3491  0.4596  0.4053
 7327SOL    HW233444   2.294   3.829   9.131  1.6930 -1.2755 -0.9051
 7328SOL     OW33445   1.211   2.863  10.864  0.4402  0.4984  0.0255
 7328SOL    HW133446   1.291   2.815  10.843  0.3905 -0.2895  1.6308
 7328SOL    HW233447   1.201   2.929  10.795  1.7252  0.0884 -0.5529
 7329SOL     OW33448   3.836   0.037  11.197  0.0581 -0.1039  0.3248
 7329SOL    HW133449   3.886   0.117  11.211  1.1957 -0.8001  0.2240
 7329SOL    HW233450   3.882   4.719  11.122  0.9242  1.9277 -0.1449
 7330SOL     OW33451   1.619   1.756  12.541  0.3131 -0.2334  0.4466
 7330SOL    HW133452   1.536   1.759  12.493  0.4393 -0.8073  0.1982
 7330SOL    HW233453   1.598   1.757  12.634 -1.4985 -0.8357  0.0286
 7331SOL     OW33454   4.031   0.955   5.518  0.0406 -0.6757  0.2585
 7331SOL    HW133455   3.975   1.033   5.509 -0.6446 -1.2015 -0.0336
 7331SOL    HW233456   4.020   0.917   5.431  2.1534  1.9914 -1.1901
 7332SOL     OW33457   0.930   2.815   5.867  0.0537 -0.2611 -0.3890
 7332SOL    HW133458   0.851   2.825   5.920 -0.0987 -1.4102 -0.4111
 7332SOL    HW233459   0.923   2.727   5.829  1.5785 -0.7250  0.3988
 7333SOL     OW33460   1.911   0.975   2.614 -0.2321 -0.5914  0.2947
 7333SOL    HW133461   1.851   0.901   2.627 -2.6971  1.4362  0.4163
 7333SOL    HW233462   1.857   1.048   2.585  2.8355  1.0091 -1.3750
 7334SOL     OW33463   1.630   2.699   6.011 -0.4667  0.3603 -0.4733
 7334SOL    HW133464   1.536   2.688   5.999 -0.7231 -1.0358  2.5494
 7334SOL    HW233465   1.634   2.780   5.961  0.9756  1.3703  1.2740
 7335SOL     OW33466   0.570   0.686   3.573 -0.1528 -0.2260  0.2847
 7335SOL    HW133467   0.537   0.672   3.484  2.0948 -0.1876 -0.5656
 7335SOL    HW233468   0.589   0.779   3.571  0.7786 -0.4202 -0.2823
 7336SOL     OW33469   4.589   0.154   9.210  0.4069 -0.2332 -0.0807
 7336SOL    HW133470   4.605   0.173   9.118  1.2785  1.1234  0.3621
 7336SOL    HW233471   4.657   0.090   9.233  0.7871  0.8042  1.7427
 7337SOL     OW33472   1.372   4.306   2.491 -0.1470  0.2671  0.2088
 7337SOL    HW133473   1.444   4.327   2.550  1.5005  1.0902 -2.1146
 7337SOL    HW233474   1.316   4.379   2.517  2.3442  1.8546  1.0739
 7338SOL     OW33475   0.717   3.539  11.581 -0.0117 -0.4080 -0.2954
 7338SOL    HW133476   0.752   3.554  11.668  2.0473  2.1235 -1.5420
 7338SOL    HW233477   0.770   3.604  11.535  0.0747  0.1677  0.6235
 7339SOL     OW33478   4.278   0.528   9.484 -0.2725  0.6267  0.0992
 7339SOL    HW133479   4.246   0.619   9.488  0.3830  0.7721  1.9363
 7339SOL    HW233480   4.230   0.489   9.557 -1.6553 -0.4000 -1.3693
 7340SOL     OW33481   2.978   0.084   7.592  0.2765  0.2118 -0.7444
 7340SOL    HW133482   2.933   0.030   7.528  1.9937  0.5307 -2.2177
 7340SOL    HW233483   3.067   0.051   7.582 -0.6041 -2.5319  0.5141
 7341SOL     OW33484   2.197   4.096   6.402  0.3039 -0.1793 -0.0875
 7341SOL    HW133485   2.210   4.079   6.309 -0.3225 -0.5342 -0.1090
 7341SOL    HW233486   2.138   4.171   6.390 -0.8815 -0.9240  1.0358
 7342SOL     OW33487   4.510   0.946  13.493 -0.0559 -0.0203 -0.8475
 7342SOL    HW133488   4.538   0.933  13.584  0.4336  1.1746 -0.8284
 7342SOL    HW233489   4.487   0.862  13.453  1.8379 -1.0394  0.1959
 7343SOL     OW33490   0.124   3.364   6.913 -0.0542 -0.0526 -0.2332
 7343SOL    HW133491   0.075   3.343   6.833 -0.0792 -1.2608  0.1066
 7343SOL    HW233492   0.213   3.335   6.890 -0.8715 -2.7041  0.0493
 7344SOL     OW33493   4.598   3.027   2.328  0.3424 -0.1799 -0.8593
 7344SOL    HW133494   4.529   2.985   2.380  2.3507 -0.1520  1.8597
 7344SOL    HW233495   4.661   2.956   2.317 -0.3029 -0.7308 -1.0159
 7345SOL     OW33496   2.613   2.897   6.893  0.4379 -0.5434  0.5262
 7345SOL    HW133497   2.663   2.920   6.971 -1.1261  2.2689  0.7151
 7345SOL    HW233498   2.588   2.806   6.911 -1.3810  0.1045  1.2768
 7346SOL     OW33499   0.746   3.699  13.810 -0.4747 -0.2906 -0.7637
 7346SOL    HW133500   0.659   3.734  13.830 -0.1593  0.0568 -0.0087
 7346SOL    HW233501   0.795   3.779  13.791 -0.0191  0.3176  3.0390
 7347SOL     OW33502   1.689   0.393   6.803  0.0898 -0.3377  0.2291
 7347SOL    HW133503   1.750   0.323   6.828  0.6970 -0.0025 -0.3306
 7347SOL    HW233504   1.694   0.455   6.877  0.7491 -0.0423 -0.0650
 7348SOL     OW33505   0.965   4.306   4.353  0.8742 -0.5135 -0.2359
 7348SOL    HW133506   0.962   4.326   4.259 -1.5725  1.8191  0.3197
 7348SOL    HW233507   1.006   4.375   4.405 -0.7317 -0.4768  0.9792
 7349SOL     OW33508   3.974   4.449   1.379  0.5485  0.4021 -0.5564
 7349SOL    HW133509   4.043   4.398   1.422 -0.1379 -0.9319 -1.0510
 7349SOL    HW233510   3.903   4.420   1.437  0.9572  0.9061  0.1967
 7350SOL     OW33511   4.615   1.887   2.796  0.4496  0.2398 -0.2491
 7350SOL    HW133512   4.629   1.805   2.749  0.7974 -0.2713  0.7487
 7350SOL    HW233513   4.702   1.902   2.832 -0.0615 -0.8019  1.4137
 7351SOL     OW33514   4.419   3.330   0.632 -0.0554 -0.0868 -0.0471
 7351SOL    HW133515   4.384   3.369   0.712  0.0658 -0.9728  0.4402
 7351SOL    HW233516   4.373   3.246   0.632 -1.4632  0.6832  0.9495
 7352SOL     OW33517   2.593   4.090   5.411 -0.3612 -0.2830 -0.4029
 7352SOL    HW133518   2.688   4.084   5.421 -0.7429 -3.8807  1.2904
 7352SOL    HW233519   2.578   4.150   5.484 -2.5645 -0.4125 -0.7385
 7353SOL     OW33520   1.441   4.006   3.711  0.1736 -0.0048 -0.4436
 7353SOL    HW133521   1.390   3.988   3.632 -0.4608  0.0413 -0.0439
 7353SOL    HW233522   1.383   3.966   3.774  0.1789  0.9843  0.1936
 7354SOL     OW33523   2.412   1.853   9.147 -0.2455  0.0419  0.1920
 7354SOL    HW133524   2.321   1.827   9.161 -0.4982  1.0909  0.4390
 7354SOL    HW233525   2.462   1.780   9.183 -0.4200 -0.2956 -0.2481
 7355SOL     OW33526   3.418   3.487   8.824  0.7298  0.8940 -0.2589
 7355SOL    HW133527   3.502   3.464   8.864 -0.2644  2.5378  2.7321
 7355SOL    HW233528   3.442   3.559   8.765 -1.0444  0.2845 -1.7191
 7356SOL     OW33529   0.491   2.608   2.869 -0.2011 -0.0900 -0.9860
 7356SOL    HW133530   0.562   2.640   2.814  0.0451  0.9782 -0.0430
 7356SOL    HW233531   0.451   2.693   2.886  0.0156 -0.2100  0.1620
 7357SOL     OW33532   2.405   1.171   7.762  0.3616  0.5281 -0.2890
 7357SOL    HW133533   2.409   1.174   7.858  0.6954 -4.2173 -0.1573
 7357SOL    HW233534   2.394   1.077   7.750 -2.8384  0.7927  0.3976
 7358SOL     OW33535   3.959   1.914   8.599 -0.2051  0.2575 -0.0076
 7358SOL    HW133536   4.014   1.855   8.651 -0.8723  0.4619  0.9391
 7358SOL    HW233537   3.943   1.988   8.658 -0.5309  0.6276 -0.5664
 7359SOL     OW33538   0.897   3.524   6.335  0.5720  0.6205 -0.0055
 7359SOL    HW133539   0.900   3.527   6.431 -2.6423  0.3800  0.0759
 7359SOL    HW233540   0.986   3.545   6.305  0.6453  0.5856  0.1845
 7360SOL     OW33541   0.419   0.949   7.568 -0.6592 -0.1111  0.0886
 7360SOL    HW133542   0.499   0.896   7.570  0.1386  1.1852  2.5445
 7360SOL    HW233543   0.413   0.948   7.472 -0.3740 -1.1243  0.0761
 7361SOL     OW33544   3.338   3.578   7.420 -0.3740  0.9034 -0.3539
 7361SOL    HW133545   3.309   3.663   7.389 -0.1988  1.2532  0.4178
 7361SOL    HW233546   3.299   3.578   7.508  1.5529  0.2407  0.5248
 7362SOL     OW33547   1.431   3.476   8.470 -0.3706  0.0898 -0.1815
 7362SOL    HW133548   1.421   3.509   8.380 -0.1011  0.7842  0.0487
 7362SOL    HW233549   1.381   3.536   8.525  0.4784 -0.0466  0.7294
 7363SOL     OW33550   4.114   0.855   1.456 -0.0792  0.4753 -0.0825
 7363SOL    HW133551   4.056   0.926   1.427 -2.0466 -0.3621  1.8256
 7363SOL    HW233552   4.077   0.776   1.416 -2.3215  1.5407 -0.1584
 7364SOL     OW33553   0.276   2.607  15.664  0.3580  0.0637 -0.3012
 7364SOL    HW133554   0.304   2.655  15.586 -0.7162  2.0922  0.5750
 7364SOL    HW233555   0.344   2.622  15.728  1.9934 -0.8494 -1.8174
 7365SOL     OW33556   1.432   4.516   4.691  0.1484 -0.6483 -1.2392
 7365SOL    HW133557   1.483   4.437   4.674 -0.1388 -1.1037  0.0218
 7365SOL    HW233558   1.464   4.554   4.773 -0.0440  1.3144 -2.0803
 7366SOL     OW33559   1.129   1.394  10.966 -0.5841 -0.2077  0.6876
 7366SOL    HW133560   1.132   1.300  10.951  0.4905 -0.5132  2.7538
 7366SOL    HW233561   1.181   1.421  10.890 -1.9538 -0.3769 -0.2902
 7367SOL     OW33562   4.675   1.139   7.251 -0.4001  0.0405  0.3772
 7367SOL    HW133563   4.718   1.099   7.326  1.9511 -1.8065 -1.9328
 7367SOL    HW233564   0.009   1.219   7.246  0.0626 -0.4014 -2.0109
 7368SOL     OW33565   1.517   0.885   5.641 -0.2624 -0.3020 -0.2805
 7368SOL    HW133566   1.487   0.798   5.613 -0.1272  0.2915 -2.1958
 7368SOL    HW233567   1.535   0.874   5.735 -2.4861 -0.5357  0.1104
 7369SOL     OW33568   3.430   2.923  13.531  0.2309  0.2378  0.1744
 7369SOL    HW133569   3.461   2.833  13.520 -3.2065 -1.1665  1.9915
 7369SOL    HW233570   3.484   2.947  13.607 -0.7466 -1.5633  1.4221
 7370SOL     OW33571   3.660   0.604   5.952 -0.2418 -0.0848 -0.0660
 7370SOL    HW133572   3.662   0.696   5.926  2.6310  0.2172  1.2622
 7370SOL    HW233573   3.672   0.619   6.046  0.1525 -1.7966  0.1541
 7371SOL     OW33574   0.910   4.599  13.486  0.1449 -0.5564 -0.4766
 7371SOL    HW133575   0.825   4.641  13.502  0.1434 -0.7782  0.0821
 7371SOL    HW233576   0.972   4.672  13.486  0.1906 -0.5922  0.4527
 7372SOL     OW33577   3.396   2.349   4.482 -0.1234  0.3277 -0.7357
 7372SOL    HW133578   3.397   2.255   4.501  0.1635  0.7714  1.4872
 7372SOL    HW233579   3.396   2.333   4.388 -0.7685  1.7100 -0.9669
 7373SOL     OW33580   1.748   2.845   5.099  0.2761  0.2664  0.5210
 7373SOL    HW133581   1.800   2.889   5.166  1.3258 -0.3230  0.0887
 7373SOL    HW233582   1.804   2.769   5.083 -2.6522 -1.1094 -3.2393
 7374SOL     OW33583   3.104   2.745   8.861 -0.3098 -0.4841 -0.6862
 7374SOL    HW133584   3.197   2.752   8.837 -0.5410 -1.3497 -1.8398
 7374SOL    HW233585   3.069   2.827   8.826 -1.0429 -0.1094  0.9450
 7375SOL     OW33586   0.878   3.580  12.823 -0.1283  0.1340  0.2751
 7375SOL    HW133587   0.895   3.511  12.888 -1.6690 -1.0745 -0.5945
 7375SOL    HW233588   0.963   3.623  12.837 -0.9817  2.1800 -0.8697
 7376SOL     OW33589   0.825   0.551   4.661 -0.0300 -0.6834 -0.3515
 7376SOL    HW133590   0.757   0.519   4.720  1.0008 -1.6665  0.2947
 7376SOL    HW233591   0.845   0.637   4.699  0.6542 -1.5167  1.1639
 7377SOL     OW33592   0.308   2.515  11.807  0.4100 -0.2447 -0.8764
 7377SOL    HW133593   0.312   2.595  11.756 -1.7068 -0.7985 -1.8988
 7377SOL    HW233594   0.396   2.512  11.846 -0.2871  1.3161  0.7932
 7378SOL     OW33595   4.054   2.172   2.604  0.5634  0.2239 -0.6398
 7378SOL    HW133596   4.076   2.236   2.537 -0.6090  1.7339  0.4139
 7378SOL    HW233597   4.065   2.088   2.561  0.9018  0.3429 -0.7861
 7379SOL     OW33598   3.666   1.150   7.537  0.5177 -0.4661 -0.4358
 7379SOL    HW133599   3.696   1.237   7.563  0.5620 -0.7552  0.4804
 7379SOL    HW233600   3.643   1.116   7.624  3.0024 -2.1856 -0.4373
 7380SOL     OW33601   2.527   0.443   9.255  0.6706 -0.3958 -0.1896
 7380SOL    HW133602   2.521   0.359   9.300 -0.9361  0.0943  0.5143
 7380SOL    HW233603   2.435   0.451   9.229  0.3649 -1.1237  0.6763
 7381SOL     OW33604   1.271   4.518   4.954  0.4175  0.1139  0.3792
 7381SOL    HW133605   1.323   4.455   4.903 -0.6823 -0.7817  0.3650
 7381SOL    HW233606   1.192   4.467   4.973 -0.1640  0.3010 -1.5464
 7382SOL     OW33607   3.393   2.529   5.006  0.2172  0.4825  0.1361
 7382SOL    HW133608   3.304   2.499   4.985  0.6891 -0.2472 -0.8086
 7382SOL    HW233609   3.450   2.477   4.949  2.6899  2.1493  1.0970
 7383SOL     OW33610   1.924   0.101   8.165  0.1857 -0.0248 -0.0633
 7383SOL    HW133611   1.975   0.059   8.235 -1.7030 -0.5483  1.0046
 7383SOL    HW233612   1.840   0.060   8.187  0.2168 -0.5289 -0.8959
 7384SOL     OW33613   1.345   3.469   4.072 -0.2703  0.3350  0.2247
 7384SOL    HW133614   1.437   3.448   4.053  0.1011  0.9302  1.3721
 7384SOL    HW233615   1.361   3.521   4.151  1.6101 -1.1008  0.7820
 7385SOL     OW33616   0.599   3.391  13.641 -0.5352 -0.5582 -0.1576
 7385SOL    HW133617   0.601   3.295  13.640  1.1731 -0.5302  0.3699
 7385SOL    HW233618   0.534   3.419  13.707 -1.0366 -0.0598 -0.8634
 7386SOL     OW33619   2.481   3.757  15.828 -0.8098 -0.2527 -0.1645
 7386SOL    HW133620   2.544   3.797  15.768 -1.6161 -1.2362 -1.6828
 7386SOL    HW233621   2.409   3.821  15.831  1.1771  2.1127 -2.7322
 7387SOL     OW33622   2.743   1.573  16.106 -0.4723  0.4893 -0.4665
 7387SOL    HW133623   2.745   1.660  16.067 -1.5100  1.0929  0.8561
 7387SOL    HW233624   2.656   1.542  16.083 -0.0967 -0.3578 -0.7443
 7388SOL     OW33625   4.538   4.352   0.717 -1.0569 -0.2898 -0.3570
 7388SOL    HW133626   4.581   4.281   0.765 -2.2266  0.7052  2.1644
 7388SOL    HW233627   4.521   4.424   0.778  0.2356 -0.3529  0.0844
 7389SOL     OW33628   0.507   1.606   4.744 -0.1324  0.1715  0.0207
 7389SOL    HW133629   0.597   1.590   4.714  0.5669 -1.4547  3.0496
 7389SOL    HW233630   0.468   1.635   4.661 -1.4005 -0.7849  0.2890
 7390SOL     OW33631   4.158   1.705   4.613 -0.1492 -0.1859  0.5836
 7390SOL    HW133632   4.170   1.760   4.690 -1.6755  0.6446  0.2404
 7390SOL    HW233633   4.070   1.730   4.585 -0.6937 -0.8198  1.6974
 7391SOL     OW33634   1.862   2.804   6.601 -0.0365  0.4453  0.5046
 7391SOL    HW133635   1.853   2.862   6.526  1.6795  1.1797  0.8573
 7391SOL    HW233636   1.803   2.838   6.667 -1.5427 -3.3854  1.1402
 7392SOL     OW33637   0.030   0.332   5.807  0.0333  0.4917  0.0637
 7392SOL    HW133638   4.686   0.270   5.770 -0.2704  1.2751 -0.7272
 7392SOL    HW233639   0.114   0.311   5.765 -0.5116 -0.9123 -0.3385
 7393SOL     OW33640   0.575   3.727   5.180  0.2313 -1.0930  0.1529
 7393SOL    HW133641   0.641   3.673   5.222  0.3222  0.2982  1.7985
 7393SOL    HW233642   0.509   3.662   5.154 -0.4188 -0.6242  0.6102
 7394SOL     OW33643   1.379   4.381   5.937  0.1662  0.2552  0.4612
 7394SOL    HW133644   1.388   4.420   6.024  1.9708  2.4228 -0.6906
 7394SOL    HW233645   1.359   4.461   5.888 -0.7444  1.1173  2.2405
 7395SOL     OW33646   3.191   3.823   9.087 -0.1336  0.6118  1.2611
 7395SOL    HW133647   3.128   3.755   9.062 -0.8997  1.6498  0.3896
 7395SOL    HW233648   3.265   3.783   9.041 -0.1961  0.3744  1.3642
 7396SOL     OW33649   2.777   3.552   1.982  0.0290  0.7574 -0.9644
 7396SOL    HW133650   2.735   3.632   2.014  0.8106  0.8791 -0.2397
 7396SOL    HW233651   2.735   3.489   2.041  0.5593 -0.9974 -2.4532
 7397SOL     OW33652   3.247   3.791   2.163  0.2279 -0.3995  0.2196
 7397SOL    HW133653   3.339   3.768   2.177 -0.3137 -1.3614  2.1480
 7397SOL    HW233654   3.263   3.883   2.140 -0.4178  0.3700  2.9140
 7398SOL     OW33655   0.068   2.895   6.855  0.0914  0.4257 -0.3674
 7398SOL    HW133656   0.135   2.869   6.917 -1.0536  0.4999  0.8929
 7398SOL    HW233657   0.106   2.856   6.776 -0.6641  1.8087 -1.4268
 7399SOL     OW33658   2.985   1.790   1.759  0.1617 -0.0709  0.1241
 7399SOL    HW133659   2.981   1.872   1.709 -0.3149 -0.1583  0.0102
 7399SOL    HW233660   2.937   1.809   1.840 -1.4783 -0.0714 -0.8392
 7400SOL     OW33661   0.052   3.987   5.707  0.1494 -0.1696  0.1621
 7400SOL    HW133662   0.084   3.985   5.617  0.9278  0.0384  0.4393
 7400SOL    HW233663   0.126   3.947   5.752 -0.7520 -0.3541  1.4631
 7401SOL     OW33664   1.861   1.212   5.296  0.0880 -0.6340  0.1729
 7401SOL    HW133665   1.828   1.125   5.316  2.5683 -1.4155  0.8190
 7401SOL    HW233666   1.954   1.200   5.276 -0.4178 -3.1801 -0.5602
 7402SOL     OW33667   0.562   4.177   4.874 -0.4541 -0.1927  0.2705
 7402SOL    HW133668   0.498   4.219   4.931 -1.2609 -0.4344 -0.4495
 7402SOL    HW233669   0.497   4.135   4.818  0.2075 -1.0469  0.1299
 7403SOL     OW33670   4.307   0.477   0.354 -0.2192  0.5747 -0.0791
 7403SOL    HW133671   4.223   0.502   0.393 -1.4906 -3.2839 -0.3150
 7403SOL    HW233672   4.293   0.488   0.260 -0.3769 -0.1472 -0.1427
 7404SOL     OW33673   0.559   3.696   4.575 -0.0860 -0.2960 -0.2426
 7404SOL    HW133674   0.595   3.783   4.559 -0.6020  0.2294  1.4577
 7404SOL    HW233675   0.603   3.662   4.654  0.2738  0.0533 -0.2946
 7405SOL     OW33676   2.981   4.149   4.498  0.4116 -0.7074  0.2759
 7405SOL    HW133677   2.981   4.095   4.577  1.4562 -0.8880  0.1527
 7405SOL    HW233678   3.075   4.149   4.481  0.4499 -1.6995  0.4553
 7406SOL     OW33679   1.658   1.845  12.045  0.2313  0.1500  0.0483
 7406SOL    HW133680   1.610   1.799  12.114 -2.8919  2.4725 -0.6091
 7406SOL    HW233681   1.664   1.776  11.979 -0.8683 -0.4529  0.5779
 7407SOL     OW33682   3.364   2.305   3.842  0.1027 -0.1591  0.1995
 7407SOL    HW133683   3.407   2.300   3.757 -0.9463 -3.0240 -0.1843
 7407SOL    HW233684   3.368   2.214   3.871 -1.5693 -0.4322 -0.4300
 7408SOL     OW33685   0.785   0.744   2.473 -0.2864  0.5855  0.2038
 7408SOL    HW133686   0.698   0.780   2.457 -0.5147  0.4888  1.2197
 7408SOL    HW233687   0.843   0.799   2.420 -0.8618  1.6339  0.6531
 7409SOL     OW33688   3.139   4.634   8.749 -0.1097  0.3284 -0.2151
 7409SOL    HW133689   3.089   4.706   8.710 -1.2955 -0.5072 -0.2583
 7409SOL    HW233690   3.153   4.673   8.835 -1.1072 -0.8965  0.5111
 7410SOL     OW33691   2.116   1.601   2.958 -0.0255  0.4607 -0.6182
 7410SOL    HW133692   2.104   1.695   2.958  1.2074  0.6279 -1.1189
 7410SOL    HW233693   2.056   1.584   2.885 -1.6045 -0.3787  0.8963
 7411SOL     OW33694   3.983   0.943   6.744  0.3091  0.5873  0.3406
 7411SOL    HW133695   3.998   1.017   6.802 -0.0069  0.8844  0.0442
 7411SOL    HW233696   3.895   0.916   6.772  0.7122  0.0172  1.0514
 7412SOL     OW33697   2.584   0.231   6.398 -0.0457 -0.0333 -0.7392
 7412SOL    HW133698   2.559   0.323   6.384 -0.8000 -0.4125 -1.8960
 7412SOL    HW233699   2.679   0.236   6.390 -0.0420  0.0695 -0.6283
 7413SOL     OW33700   3.221   4.064   3.463  0.3812  0.1278  0.1462
 7413SOL    HW133701   3.250   4.136   3.520 -0.1328 -1.1008  1.9615
 7413SOL    HW233702   3.135   4.043   3.498 -0.7993  1.6755 -1.8554
 7414SOL     OW33703   3.671   2.933  14.182 -0.1637 -0.2143  0.4392
 7414SOL    HW133704   3.731   3.007  14.184  0.7863 -0.9593 -0.3954
 7414SOL    HW233705   3.728   2.867  14.142 -0.0941 -0.2028  0.5203
 7415SOL     OW33706   4.637   2.841   4.411 -0.0077  0.2024  0.2323
 7415SOL    HW133707   0.013   2.841   4.419 -0.0527 -0.6285  0.8159
 7415SOL    HW233708   4.621   2.747   4.397 -1.5133  0.1902  2.1151
 7416SOL     OW33709   0.635   3.120   5.033  0.1117  0.0072 -0.0442
 7416SOL    HW133710   0.710   3.180   5.034 -0.1731  0.3724 -0.3234
 7416SOL    HW233711   0.684   3.040   5.017  3.0797  1.5267  1.4760
 7417SOL     OW33712   2.649   3.101  11.471  0.1265  0.4895 -0.5344
 7417SOL    HW133713   2.720   3.091  11.534  1.2078 -1.1477 -2.0043
 7417SOL    HW233714   2.617   3.188  11.496 -0.9455  0.4228 -1.6533
 7418SOL     OW33715   4.257   2.501   7.641 -0.1305  0.1503 -0.5362
 7418SOL    HW133716   4.348   2.530   7.639 -0.5406  1.4208 -0.7338
 7418SOL    HW233717   4.217   2.567   7.584 -1.3342  0.6376  0.8702
 7419SOL     OW33718   2.866   1.431   6.361 -0.1360 -0.0278 -0.2544
 7419SOL    HW133719   2.796   1.475   6.409 -0.7005  0.6056 -1.6387
 7419SOL    HW233720   2.886   1.351   6.411  0.1504  1.0893  1.4049
 7420SOL     OW33721   0.907   2.741   6.993 -0.3538  0.1005  0.2939
 7420SOL    HW133722   0.966   2.742   6.917  0.1479 -1.0422  0.6837
 7420SOL    HW233723   0.969   2.700   7.053 -2.1160 -1.5325  0.9801
 7421SOL     OW33724   0.530   2.104   2.022 -0.0529  0.1751  0.8866
 7421SOL    HW133725   0.622   2.103   2.048  0.4621 -0.2133 -0.9180
 7421SOL    HW233726   0.538   2.050   1.943  2.0531  0.8611  0.6326
 7422SOL     OW33727   1.198   0.839   4.266  0.4822 -0.8149  0.5248
 7422SOL    HW133728   1.119   0.841   4.212  0.2897  0.4412  0.8615
 7422SOL    HW233729   1.268   0.873   4.211 -1.6153 -0.1189 -1.7021
 7423SOL     OW33730   0.345   3.774   0.509  0.1866 -0.2225 -0.0562
 7423SOL    HW133731   0.304   3.693   0.540 -0.9545  0.4633  0.2344
 7423SOL    HW233732   0.299   3.782   0.425 -1.6869  0.3658  1.0243
 7424SOL     OW33733   3.839   0.213  15.424  0.2140 -0.3409  1.0285
 7424SOL    HW133734   3.747   0.239  15.432 -0.3856 -1.7088 -1.4245
 7424SOL    HW233735   3.830   0.156  15.347  1.3327  0.2815  0.4447
 7425SOL     OW33736   4.028   2.166   3.717 -0.3130 -0.0867 -0.4242
 7425SOL    HW133737   3.960   2.230   3.699  0.2628  0.4134 -0.8435
 7425SOL    HW233738   4.104   2.217   3.748 -0.9760  0.3917  0.3948
 7426SOL     OW33739   1.235   2.748   9.277  0.5906  0.4010  0.2032
 7426SOL    HW133740   1.213   2.655   9.273  0.1403  0.4896  0.5664
 7426SOL    HW233741   1.290   2.753   9.355  2.4988 -2.6626 -0.9482
 7427SOL     OW33742   4.022   3.652   2.044  0.6539 -0.0172  0.3176
 7427SOL    HW133743   4.087   3.709   2.086 -0.7982  1.7189  0.2140
 7427SOL    HW233744   4.048   3.655   1.952  2.7942 -1.4700  0.8615
 7428SOL     OW33745   1.816   3.580   7.900  0.0901  0.4448  0.2034
 7428SOL    HW133746   1.770   3.661   7.878 -0.2530 -0.1860 -1.4079
 7428SOL    HW233747   1.796   3.550   7.989 -2.0837 -1.2857 -0.8632
 7429SOL     OW33748   4.351   3.172   6.397 -0.5013 -0.8703  0.0938
 7429SOL    HW133749   4.337   3.131   6.312 -2.1744 -0.2281  0.0623
 7429SOL    HW233750   4.447   3.169   6.402 -0.4440 -1.4559 -1.5886
 7430SOL     OW33751   0.216   0.092   8.965 -0.1646  0.0094 -0.3731
 7430SOL    HW133752   0.140   0.066   9.017  1.9014 -2.1715  1.5921
 7430SOL    HW233753   0.209   0.044   8.883  0.5753 -0.4308 -0.1822
 7431SOL     OW33754   3.825   4.318   6.888 -0.4205  0.1427 -0.4334
 7431SOL    HW133755   3.894   4.252   6.896 -0.9137 -0.1821  1.0592
 7431SOL    HW233756   3.778   4.287   6.810 -1.1967  0.9635 -0.2924
 7432SOL     OW33757   0.533   2.335   2.796 -0.6519  0.0178  0.0522
 7432SOL    HW133758   0.600   2.307   2.858  0.4830  0.0065 -1.1799
 7432SOL    HW233759   0.522   2.428   2.816  0.3036  0.8525 -3.3075
 7433SOL     OW33760   2.564   0.169   4.197  0.1576  0.0052  0.3918
 7433SOL    HW133761   2.615   0.158   4.117 -0.1275  0.9183  0.0793
 7433SOL    HW233762   2.614   0.114   4.257  0.9311 -0.5043 -0.7127
 7434SOL     OW33763   4.029   2.665   2.338  0.2995  0.4340 -0.1515
 7434SOL    HW133764   4.084   2.663   2.416  0.6693  0.3888 -0.4167
 7434SOL    HW233765   4.013   2.759   2.325 -2.4714  0.2037  1.6180
 7435SOL     OW33766   1.595   3.166   5.446 -0.0935 -0.0981 -0.0699
 7435SOL    HW133767   1.594   3.227   5.520  2.7175 -0.3891  0.2290
 7435SOL    HW233768   1.525   3.202   5.392  1.2656  1.8447 -0.5282
 7436SOL     OW33769   1.732   2.516   8.785 -0.1679  0.2102  0.0983
 7436SOL    HW133770   1.641   2.486   8.784  0.1828 -0.8240 -1.2599
 7436SOL    HW233771   1.748   2.539   8.877 -1.3972  0.5832  0.2179
 7437SOL     OW33772   2.733   4.190  10.529  0.5475 -0.0363 -0.1549
 7437SOL    HW133773   2.726   4.237  10.446  2.1516  0.3983 -0.0624
 7437SOL    HW233774   2.778   4.109  10.505  2.2213  1.3266 -1.6229
 7438SOL     OW33775   1.064   1.869   8.578  0.1629  0.0643  0.1129
 7438SOL    HW133776   1.083   1.960   8.556  1.0800 -0.0214  0.5210
 7438SOL    HW233777   1.127   1.855   8.649  0.4523  1.0934  0.0536
 7439SOL     OW33778   3.548   3.911   3.917  0.5539  0.6496 -0.3881
 7439SOL    HW133779   3.473   3.912   3.977  0.4546  0.3300 -0.5080
 7439SOL    HW233780   3.618   3.899   3.982 -0.6654 -0.1343  0.7781
 7440SOL     OW33781   1.080   0.135  10.668 -0.3806 -0.3562 -0.2623
 7440SOL    HW133782   1.059   0.227  10.648 -1.6964 -0.3079  1.3669
 7440SOL    HW233783   1.155   0.149  10.726 -0.3654 -2.2095  0.1491
 7441SOL     OW33784   2.159   2.596   0.980 -0.3285  0.7903 -0.0529
 7441SOL    HW133785   2.192   2.582   0.891  1.2682  0.4860  0.5966
 7441SOL    HW233786   2.087   2.656   0.962  0.3953  1.0539 -2.1567
 7442SOL     OW33787   0.805   1.612   8.765 -0.2669  0.0157  0.1050
 7442SOL    HW133788   0.878   1.550   8.769  0.1774  0.5917  0.9986
 7442SOL    HW233789   0.760   1.590   8.847 -1.7835  0.6215 -0.5674
 7443SOL     OW33790   0.900   2.721   6.521  0.2799  0.1876  0.0038
 7443SOL    HW133791   0.830   2.668   6.559  1.1857 -0.5103  0.7075
 7443SOL    HW233792   0.855   2.801   6.495 -1.0987 -1.0144 -1.2589
 7444SOL     OW33793   2.967   3.597   7.141 -0.2990  0.2748  0.4375
 7444SOL    HW133794   2.983   3.685   7.108  0.6269  0.1531  0.5758
 7444SOL    HW233795   2.938   3.609   7.231 -2.5247  2.8547 -0.6253
 7445SOL     OW33796   0.279   3.801   6.545 -0.2068  0.4320  0.3179
 7445SOL    HW133797   0.192   3.775   6.514  0.8331 -2.2064 -0.4544
 7445SOL    HW233798   0.317   3.716   6.568  1.2160  1.0667  0.2757
 7446SOL     OW33799   1.376   3.724   9.011  0.6420 -0.3636  0.2225
 7446SOL    HW133800   1.302   3.774   9.045 -0.3866 -2.6877  1.3291
 7446SOL    HW233801   1.340   3.643   9.045 -2.4659  0.8219 -0.1877
 7447SOL     OW33802   4.180   3.680   8.610  0.6283  0.1007  0.0563
 7447SOL    HW133803   4.179   3.587   8.589  1.0466  0.1619 -0.2294
 7447SOL    HW233804   4.276   3.689   8.609  0.4628  1.8948  1.7809
 7448SOL     OW33805   3.569   3.974  16.316 -0.3346  0.1448 -0.0598
 7448SOL    HW133806   3.635   3.943  16.378 -2.3939 -1.7768  1.1813
 7448SOL    HW233807   3.508   3.900  16.322 -0.7739  0.3164 -2.2095
 7449SOL     OW33808   2.765   0.810   6.112 -0.6784 -0.0163 -0.5658
 7449SOL    HW133809   2.709   0.815   6.034 -0.8781  1.0360 -0.3540
 7449SOL    HW233810   2.804   0.898   6.118 -1.8709  0.6372 -2.1248
 7450SOL     OW33811   1.766   1.280   7.709 -0.1477 -0.4353  0.9234
 7450SOL    HW133812   1.751   1.191   7.740  0.2155 -0.9249 -0.3213
 7450SOL    HW233813   1.741   1.325   7.790 -1.3037  0.9672 -0.2001
 7451SOL     OW33814   1.290   4.214   7.622 -0.0782  0.4748 -0.0911
 7451SOL    HW133815   1.197   4.233   7.606 -0.0519  0.4204 -0.2974
 7451SOL    HW233816   1.295   4.144   7.687  0.1571  0.8543  0.3050
 7452SOL     OW33817   3.952   4.497   1.971  0.3747  0.3346  0.2133
 7452SOL    HW133818   3.862   4.498   1.939 -0.1239  1.8988  1.6843
 7452SOL    HW233819   3.999   4.523   1.891  1.0781 -1.4276  0.0555
 7453SOL     OW33820   2.460   1.934  11.404 -0.8361 -0.0290  0.5237
 7453SOL    HW133821   2.556   1.931  11.401 -0.8171 -0.2576  1.4239
 7453SOL    HW233822   2.443   1.918  11.497 -2.2669 -0.4951  0.1799
 7454SOL     OW33823   1.751   1.712   5.181  0.3827  0.7654 -0.6183
 7454SOL    HW133824   1.750   1.806   5.195 -2.9252  0.4818  1.0805
 7454SOL    HW233825   1.846   1.694   5.179 -0.7443 -5.1172 -2.3511
 7455SOL     OW33826   3.604   0.669   4.780 -0.4905 -0.2485  0.0270
 7455SOL    HW133827   3.510   0.683   4.786 -0.6451 -1.7624  1.2315
 7455SOL    HW233828   3.602   0.578   4.748 -3.1819 -0.2417  0.1897
 7456SOL     OW33829   4.536   2.669  10.455 -0.0011  0.8600 -0.0531
 7456SOL    HW133830   4.475   2.624  10.514  1.6748 -0.9278  0.3015
 7456SOL    HW233831   4.580   2.723  10.520 -0.7836  0.7933  0.5254
 7457SOL     OW33832   1.179   1.475   5.788 -0.2124 -0.1955  0.0249
 7457SOL    HW133833   1.111   1.408   5.775 -1.2179 -0.0049  4.3340
 7457SOL    HW233834   1.133   1.559   5.789  0.2704  0.0773 -0.4791
 7458SOL     OW33835   0.479   0.815   6.352 -0.0227 -0.5629 -0.0221
 7458SOL    HW133836   0.571   0.829   6.330 -0.3962 -1.3543 -2.0144
 7458SOL    HW233837   0.445   0.842   6.267 -4.1633 -1.7767  1.2365
 7459SOL     OW33838   4.044   0.204  11.006  0.3026 -0.4887 -0.0009
 7459SOL    HW133839   4.022   0.232  11.094 -0.9434  0.8589 -0.7322
 7459SOL    HW233840   4.135   0.235  11.006  0.3609 -0.6025 -2.5798
 7460SOL     OW33841   4.610   2.484   2.684  0.6450  0.3866 -0.2938
 7460SOL    HW133842   4.657   2.427   2.745 -1.1644  2.0602  2.6870
 7460SOL    HW233843   4.523   2.448   2.704  0.3040  0.4447 -1.6878
 7461SOL     OW33844   3.948   0.869   3.705  0.3166  0.2922  0.2147
 7461SOL    HW133845   4.002   0.942   3.736 -0.6383  1.1189 -0.0647
 7461SOL    HW233846   4.006   0.794   3.693  3.4333  3.0190 -1.9416
 7462SOL     OW33847   0.405   4.569   7.272  0.4931 -0.2482  0.3539
 7462SOL    HW133848   0.315   4.541   7.290  1.0867 -1.1158  1.9294
 7462SOL    HW233849   0.396   4.663   7.289  0.6753 -0.5917  2.3425
 7463SOL     OW33850   2.881   4.082   2.583  0.7331 -0.2366 -0.4161
 7463SOL    HW133851   2.962   4.076   2.634  0.6169 -1.1605 -0.3369
 7463SOL    HW233852   2.817   4.054   2.648  3.1269 -1.7019  1.3511
 7464SOL     OW33853   0.077   0.479   8.775  0.2447  0.1651 -0.3043
 7464SOL    HW133854   0.019   0.490   8.700 -2.3358  0.0021  1.6683
 7464SOL    HW233855   0.013   0.477   8.847  0.5905 -0.1049 -0.0035
 7465SOL     OW33856   4.137   2.446   4.540 -0.1724 -0.0613 -0.4911
 7465SOL    HW133857   4.082   2.397   4.600  1.9236 -1.2830  0.4515
 7465SOL    HW233858   4.225   2.416   4.564 -0.7310 -0.6703  0.7861
 7466SOL     OW33859   0.088   3.964   4.014  0.0898 -0.1683 -0.4141
 7466SOL    HW133860   0.175   4.002   4.024  0.7708 -1.7851 -0.2828
 7466SOL    HW233861   0.035   4.016   4.075  1.2204  0.5323 -0.0330
 7467SOL     OW33862   1.366   4.642   1.528 -0.3095 -0.3466  0.3927
 7467SOL    HW133863   1.398   4.579   1.463  3.2822  0.8286  1.0687
 7467SOL    HW233864   1.449   4.665   1.570 -1.1508  1.8563  0.8116
 7468SOL     OW33865   1.386   0.976   0.498  0.0425  0.6366  0.3127
 7468SOL    HW133866   1.437   1.040   0.549 -0.8049  0.4043  1.4566
 7468SOL    HW233867   1.395   1.012   0.410  2.1499  0.7877  0.5956
 7469SOL     OW33868   0.946   2.358  14.360 -0.5048 -0.5042  0.4156
 7469SOL    HW133869   0.953   2.267  14.330 -2.1888 -0.5562  0.1652
 7469SOL    HW233870   0.907   2.345  14.447  2.0297 -2.9838  1.1947
 7470SOL     OW33871   1.490   0.476   3.335 -0.4097  0.1505 -0.2538
 7470SOL    HW133872   1.583   0.462   3.354 -0.2213  0.3496 -1.0056
 7470SOL    HW233873   1.461   0.469   3.426  2.6510 -0.0338  0.6927
 7471SOL     OW33874   2.131   1.470   1.260 -0.0054 -0.7008 -0.1093
 7471SOL    HW133875   2.166   1.558   1.265 -3.1138  0.5766 -0.9568
 7471SOL    HW233876   2.037   1.490   1.263  0.4850  1.3225  1.2336
 7472SOL     OW33877   0.093   0.958   3.260  0.0389  0.0077  0.1933
 7472SOL    HW133878   0.169   0.900   3.269  1.0076  1.0791 -1.1781
 7472SOL    HW233879   0.130   1.044   3.278 -1.6993  1.2399 -2.2071
 7473SOL     OW33880   1.153   1.481   1.856  0.2636  0.3704 -0.2285
 7473SOL    HW133881   1.066   1.486   1.817  0.9184  1.4447 -1.5280
 7473SOL    HW233882   1.210   1.489   1.780 -1.9088  0.9149 -1.7895
 7474SOL     OW33883   3.729   3.229   7.031 -0.3888 -0.2226 -0.5071
 7474SOL    HW133884   3.678   3.304   7.060 -0.3275 -0.6806  0.7906
 7474SOL    HW233885   3.818   3.254   7.056  0.5083 -0.7130 -3.1846
 7475SOL     OW33886   2.824   2.636   7.766  0.3426 -0.1696  0.8581
 7475SOL    HW133887   2.858   2.725   7.768 -1.3797  0.5785 -1.9922
 7475SOL    HW233888   2.907   2.589   7.774  0.3714 -0.1121  0.8954
 7476SOL     OW33889   0.799   2.465   7.790  0.1380  0.0571 -0.0333
 7476SOL    HW133890   0.782   2.552   7.756  1.3722 -0.0264 -0.8639
 7476SOL    HW233891   0.860   2.431   7.725  1.1755 -0.8701  1.4199
 7477SOL     OW33892   1.362   1.893   6.185  0.0230  0.0385 -0.0838
 7477SOL    HW133893   1.350   1.953   6.111 -0.6859  0.8439  0.6871
 7477SOL    HW233894   1.419   1.832   6.139  2.1749  1.7640  0.2686
 7478SOL     OW33895   0.193   2.523  15.027 -0.1199  0.3043  0.2898
 7478SOL    HW133896   0.178   2.612  15.061  0.5926  0.1048  1.1223
 7478SOL    HW233897   0.157   2.545  14.941 -0.9308 -0.1557  0.5075
 7479SOL     OW33898   0.011   1.933   6.062 -0.2338 -0.8346  0.6987
 7479SOL    HW133899   0.019   1.954   5.969 -2.0943  1.6703  1.1204
 7479SOL    HW233900   4.711   1.839   6.056  1.6802 -1.2713  1.3852
 7480SOL     OW33901   2.393   2.404  15.634  0.0977 -0.6936 -0.5301
 7480SOL    HW133902   2.476   2.452  15.641 -1.0467  1.1964 -0.1680
 7480SOL    HW233903   2.418   2.353  15.557 -1.4174 -1.8281 -0.2703
 7481SOL     OW33904   3.827   1.059   8.612  0.1746  0.4630 -0.5329
 7481SOL    HW133905   3.749   1.065   8.668  1.0901 -1.8972  0.9605
 7481SOL    HW233906   3.855   1.151   8.617  0.7734  0.3278 -1.3607
 7482SOL     OW33907   4.406   0.398   4.105  0.4282 -0.2451 -0.2390
 7482SOL    HW133908   4.470   0.328   4.096  0.8454  0.2562 -1.1382
 7482SOL    HW233909   4.327   0.343   4.106 -0.1692  0.6112  0.1878
 7483SOL     OW33910   4.533   0.168   5.767  0.0580 -0.4782  0.1212
 7483SOL    HW133911   4.506   0.100   5.705  1.8634  0.5955 -1.8252
 7483SOL    HW233912   4.463   0.173   5.833  0.0819 -0.9892  0.1847
 7484SOL     OW33913   0.019   3.729   5.480  0.1444 -0.2140  0.2132
 7484SOL    HW133914   0.063   3.726   5.565  0.6656 -0.0573 -0.0541
 7484SOL    HW233915   0.073   3.785   5.424 -0.8938 -0.2686 -0.8319
 7485SOL     OW33916   3.818   3.748   4.333 -0.6725  0.0963 -0.1874
 7485SOL    HW133917   3.858   3.717   4.414  1.5707  1.1750 -0.8697
 7485SOL    HW233918   3.779   3.826   4.372 -0.2361  1.3470 -2.2178
 7486SOL     OW33919   2.602   1.638   5.585 -0.0534  0.3132 -0.4709
 7486SOL    HW133920   2.621   1.731   5.572  0.7670  0.2372  0.2124
 7486SOL    HW233921   2.564   1.640   5.673  4.5586  2.2996  1.4888
 7487SOL     OW33922   4.156   2.843   4.162  0.0376  0.6477  0.4319
 7487SOL    HW133923   4.145   2.822   4.069 -0.6296  1.5802  0.2994
 7487SOL    HW233924   4.234   2.793   4.183 -0.5891 -0.4525  0.1607
 7488SOL     OW33925   2.792   0.281  16.859  0.6029 -0.3692  0.4766
 7488SOL    HW133926   2.830   0.257  16.944 -1.4780 -1.5859  1.0488
 7488SOL    HW233927   2.790   0.376  16.861 -2.3937 -0.3862 -2.7227
 7489SOL     OW33928   1.447   2.386   3.169 -0.3963 -0.8360 -0.3183
 7489SOL    HW133929   1.379   2.453   3.181 -0.3084 -0.4763 -1.8123
 7489SOL    HW233930   1.393   2.310   3.146 -0.4988 -1.2167  1.1475
 7490SOL     OW33931   3.823   3.875   2.135  0.5865 -0.6326  0.3435
 7490SOL    HW133932   3.839   3.808   2.068 -1.0182  1.9528 -2.5636
 7490SOL    HW233933   3.903   3.927   2.138 -0.7812  1.4633 -0.1251
 7491SOL     OW33934   1.421   3.176   8.605  0.7903  0.6124 -0.0627
 7491SOL    HW133935   1.361   3.239   8.645  0.6616  0.9170 -0.7202
 7491SOL    HW233936   1.474   3.146   8.679  0.0882  1.9191  0.9647
 7492SOL     OW33937   2.293   3.002  15.386 -0.3448  0.0080  0.3138
 7492SOL    HW133938   2.198   3.007  15.377 -0.6822 -0.9916  3.4290
 7492SOL    HW233939   2.321   3.071  15.326 -0.6536 -0.3449 -0.2317
 7493SOL     OW33940   2.317   1.414  13.523  0.4745  0.3497  0.1945
 7493SOL    HW133941   2.403   1.385  13.494  0.1241  1.4539 -1.9589
 7493SOL    HW233942   2.260   1.357  13.472  0.3035 -0.9581  1.8395
 7494SOL     OW33943   1.772   4.577  10.889  0.3909  0.1089 -1.3838
 7494SOL    HW133944   1.767   4.631  10.810  2.2840 -0.9304 -2.2353
 7494SOL    HW233945   1.679   4.555  10.893  0.5160  0.5133  3.1118
 7495SOL     OW33946   0.619   3.891   1.942  0.0286  0.1317 -0.2739
 7495SOL    HW133947   0.633   3.797   1.937  0.6429  0.2983 -1.6334
 7495SOL    HW233948   0.709   3.922   1.953  0.2626  0.2096 -2.4118
 7496SOL     OW33949   1.453   4.186   5.671 -0.3710  0.2528 -0.2405
 7496SOL    HW133950   1.404   4.109   5.644 -0.1632 -0.7321  2.1818
 7496SOL    HW233951   1.415   4.260   5.623  1.6156  1.3621 -0.1174
 7497SOL     OW33952   1.763   1.544   4.710  0.1975 -0.2378  0.2014
 7497SOL    HW133953   1.729   1.535   4.800  2.3420  2.3975  1.2782
 7497SOL    HW233954   1.844   1.592   4.724  0.2505  0.4527 -2.6383
 7498SOL     OW33955   3.428   3.410   0.048  0.0480 -0.5812  0.2571
 7498SOL    HW133956   3.473   3.416   0.132 -0.4742  1.0781  0.4068
 7498SOL    HW233957   3.363   3.480   0.042  1.0427  0.3566  0.3627
 7499SOL     OW33958   1.408   2.994   4.366 -0.0414  0.8922 -0.3896
 7499SOL    HW133959   1.480   2.978   4.305  0.0718  1.3174 -0.3688
 7499SOL    HW233960   1.424   3.082   4.401  0.8036  0.8524 -0.6716
 7500SOL     OW33961   0.039   4.088   4.827 -0.1810 -0.3184 -0.3317
 7500SOL    HW133962   4.698   4.014   4.819 -1.7481  1.1481 -2.0083
 7500SOL    HW233963   0.071   4.079   4.916 -1.0125 -1.6121 -0.1741
 7501SOL     OW33964   2.443   1.642   5.912 -0.3328  0.5557 -0.2132
 7501SOL    HW133965   2.412   1.728   5.883  0.5804  1.6330  2.0603
 7501SOL    HW233966   2.397   1.635   5.995 -0.0494  0.6202 -0.0523
 7502SOL     OW33967   0.237   3.099  15.827  0.4063  0.2231 -0.2738
 7502SOL    HW133968   0.307   3.147  15.781  0.5003 -0.3105 -0.6864
 7502SOL    HW233969   0.215   3.037  15.758 -0.8510  2.4326 -1.8937
 7503SOL     OW33970   0.262   0.814   7.790 -0.7495  0.4753  0.2686
 7503SOL    HW133971   0.197   0.883   7.806  1.5971  2.4567  1.4742
 7503SOL    HW233972   0.322   0.834   7.718 -2.0041  0.6093 -0.7329
 7504SOL     OW33973   1.313   4.362  11.210 -0.9286  0.8217 -0.2629
 7504SOL    HW133974   1.394   4.394  11.251  0.2222 -0.4917 -1.5036
 7504SOL    HW233975   1.319   4.270  11.233 -1.2498  0.8287 -0.1534
 7505SOL     OW33976   4.233   1.663   0.498  0.1063  0.6619 -0.1201
 7505SOL    HW133977   4.146   1.624   0.495  0.0538  0.7716 -0.0065
 7505SOL    HW233978   4.248   1.658   0.403  0.6837 -2.1887  0.1236
 7506SOL     OW33979   2.291   4.322   8.034  0.4363  0.5996 -0.0685
 7506SOL    HW133980   2.360   4.384   8.011 -0.4935  1.9672  0.8349
 7506SOL    HW233981   2.219   4.384   8.024  0.0517  0.0253 -0.8138
 7507SOL     OW33982   1.145   0.852  11.759  0.6298 -0.0205  0.5636
 7507SOL    HW133983   1.152   0.883  11.669  0.3896 -0.3371  0.4342
 7507SOL    HW233984   1.227   0.804  11.759 -0.8967 -2.6328 -2.3542
 7508SOL     OW33985   2.052   1.281  15.123  0.0406  0.4996 -0.1485
 7508SOL    HW133986   2.092   1.358  15.164  1.4995 -0.9616  1.1645
 7508SOL    HW233987   1.996   1.333  15.066 -1.6026 -0.5367  0.5343
 7509SOL     OW33988   2.260   3.315   6.088 -0.3245  0.2565  0.0831
 7509SOL    HW133989   2.186   3.332   6.029 -0.8270  1.3194  1.0215
 7509SOL    HW233990   2.288   3.232   6.049  2.9641  1.3299  0.1479
 7510SOL     OW33991   3.513   2.708   7.622  0.0430 -0.1056  0.3808
 7510SOL    HW133992   3.607   2.707   7.606 -0.1752 -2.5843 -0.7263
 7510SOL    HW233993   3.516   2.745   7.710 -1.2555  1.4647 -0.2285
 7511SOL     OW33994   2.506   4.708   4.919  0.3080  0.6386  0.5595
 7511SOL    HW133995   2.423   4.661   4.924 -0.4677  1.8331 -1.2787
 7511SOL    HW233996   2.543   4.649   4.853 -1.7932 -1.1338  0.9885
 7512SOL     OW33997   0.954   3.955   5.272  0.4565 -0.2010 -0.4429
 7512SOL    HW133998   0.932   3.991   5.186  1.1130  1.3735  0.0547
 7512SOL    HW233999   0.923   3.866   5.253  0.2069 -0.4969  1.2935
 7513SOL     OW34000   1.008   0.037  12.396 -0.4132  0.0572  0.4108
 7513SOL    HW134001   0.964   4.718  12.472 -0.1386  1.1199  1.1012
 7513SOL    HW234002   1.045   0.113  12.440 -0.0643 -0.0486  0.2992
 7514SOL     OW34003   4.235   3.780   5.618  0.5523 -0.1735  0.4397
 7514SOL    HW134004   4.321   3.822   5.613  0.5204 -0.1698 -0.1561
 7514SOL    HW234005   4.235   3.744   5.529 -0.3664  1.3851 -0.1879
 7515SOL     OW34006   3.902   0.824  14.419  0.2345 -0.3321  0.1702
 7515SOL    HW134007   3.852   0.810  14.500  0.5166 -1.1939  0.1942
 7515SOL    HW234008   3.852   0.882  14.361  1.6761  1.5051  0.7588
 7516SOL     OW34009   4.253   0.502   2.053  0.3941  0.0983 -0.5339
 7516SOL    HW134010   4.329   0.476   2.105  0.5218  2.3573  0.3922
 7516SOL    HW234011   4.250   0.597   2.044 -1.8087  0.0311 -0.5006
 7517SOL     OW34012   1.362   2.119   9.197  0.4259  0.3067 -0.2938
 7517SOL    HW134013   1.294   2.171   9.155 -0.1561  0.8561  1.3410
 7517SOL    HW234014   1.324   2.090   9.280  0.0635 -2.7505 -1.5048
 7518SOL     OW34015   2.830   0.870   3.816  0.3511 -0.1163  0.4991
 7518SOL    HW134016   2.758   0.931   3.799  0.3932  0.1478  1.3052
 7518SOL    HW234017   2.875   0.900   3.894 -1.0737 -0.8233  1.5931
 7519SOL     OW34018   3.813   1.189   4.595  0.1367 -0.2414 -0.1273
 7519SOL    HW134019   3.897   1.174   4.551 -0.1766 -0.2682 -0.7247
 7519SOL    HW234020   3.768   1.109   4.569 -0.3081 -0.8527  2.5773
 7520SOL     OW34021   0.490   3.377  11.728  0.2606  0.0942  0.1939
 7520SOL    HW134022   0.529   3.290  11.717  1.2452  0.6984 -1.1530
 7520SOL    HW234023   0.570   3.426  11.748 -0.2151  2.2254 -3.1560
 7521SOL     OW34024   4.205   3.181  11.339 -0.0761  0.5856 -0.6448
 7521SOL    HW134025   4.190   3.197  11.245 -0.6538 -1.8540 -0.9528
 7521SOL    HW234026   4.156   3.247  11.389 -0.0452  0.0242  0.1271
 7522SOL     OW34027   1.001   4.422   5.313 -0.2196 -0.4903 -0.1970
 7522SOL    HW134028   1.085   4.448   5.276  0.2180 -2.0943 -0.3291
 7522SOL    HW234029   0.994   4.467   5.397  1.7277 -0.9773  0.2151
 7523SOL     OW34030   4.658   0.378  16.182  0.0730  0.4270 -0.3501
 7523SOL    HW134031   4.689   0.305  16.236 -1.0963  0.4998  0.4028
 7523SOL    HW234032   4.706   0.350  16.104 -0.1258 -1.4528  0.2082
 7524SOL     OW34033   0.352   0.219  13.614 -0.4426 -0.3209  0.1654
 7524SOL    HW134034   0.322   0.209  13.524 -0.0160  1.2385 -0.1592
 7524SOL    HW234035   0.392   0.306  13.614 -0.3483 -0.3673  2.1075
 7525SOL     OW34036   4.510   3.651   5.958 -0.0734  0.1339 -0.2436
 7525SOL    HW134037   4.580   3.658   6.023  0.7007  1.3039 -1.2078
 7525SOL    HW234038   4.435   3.612   6.003 -0.6563  2.3961  0.7292
 7526SOL     OW34039   3.843   2.523  14.417 -0.1114  0.1323 -0.1899
 7526SOL    HW134040   3.762   2.472  14.416 -0.6142  0.8286  3.0792
 7526SOL    HW234041   3.883   2.502  14.333 -2.2677  1.4713 -1.5484
 7527SOL     OW34042   1.908   4.609   2.527 -0.2511 -0.0177 -0.0256
 7527SOL    HW134043   1.969   4.675   2.495 -1.3507  1.5336  1.1028
 7527SOL    HW234044   1.847   4.598   2.454 -0.7497 -0.9003  0.5138
 7528SOL     OW34045   3.659   0.829  14.177 -0.2698 -0.3795 -0.0094
 7528SOL    HW134046   3.645   0.912  14.222 -1.0205 -0.7902  0.5288
 7528SOL    HW234047   3.586   0.779  14.214 -1.7023  1.5068 -0.3082
 7529SOL     OW34048   2.070   0.502  14.929 -0.0399  0.4528 -0.3937
 7529SOL    HW134049   2.102   0.592  14.937 -2.0995  1.1504  0.1570
 7529SOL    HW234050   2.068   0.491  14.834  0.1312 -0.8751 -0.2352
 7530SOL     OW34051   4.526   1.310   5.426  0.1622  0.0210  0.0256
 7530SOL    HW134052   4.490   1.271   5.346  0.1100  1.1645 -0.5071
 7530SOL    HW234053   4.518   1.233   5.483 -1.2401  0.4405  0.3959
 7531SOL     OW34054   4.146   3.249   6.608  0.0625 -0.2285  0.3560
 7531SOL    HW134055   4.211   3.183   6.584 -0.6204 -0.8602  0.2204
 7531SOL    HW234056   4.069   3.205   6.571  0.7117 -0.5190 -0.6550
 7532SOL     OW34057   0.148   2.200  11.264  0.3314  0.0310  0.1075
 7532SOL    HW134058   0.238   2.225  11.283  0.7875 -0.8644 -0.9000
 7532SOL    HW234059   0.161   2.140  11.191 -0.6434 -0.5847  0.4432
 7533SOL     OW34060   3.545   2.394  13.596 -0.3378 -0.5349 -0.1435
 7533SOL    HW134061   3.523   2.306  13.627  0.3763 -0.6702 -0.0155
 7533SOL    HW234062   3.620   2.379  13.537 -0.1015  0.0098  0.0223
 7534SOL     OW34063   2.476   3.586   0.387  0.1437 -0.6324  0.2544
 7534SOL    HW134064   2.520   3.668   0.410  1.1073 -0.5837 -1.7448
 7534SOL    HW234065   2.454   3.556   0.475 -0.5200 -3.3962 -0.8438
 7535SOL     OW34066   1.876   2.361   1.713  0.2184  0.1396  0.0641
 7535SOL    HW134067   1.847   2.271   1.726 -0.6295  0.3667 -0.2119
 7535SOL    HW234068   1.942   2.355   1.643  1.5874  1.5474  1.2454
 7536SOL     OW34069   3.547   0.945  17.228  0.9081 -0.2334  0.1042
 7536SOL    HW134070   3.525   1.034  17.203 -0.1105 -0.3878  0.4557
 7536SOL    HW234071   3.507   0.893  17.158 -3.2318  1.4072  1.2559
 7537SOL     OW34072   3.464   3.485   9.832 -0.2260  0.3000 -0.0012
 7537SOL    HW134073   3.535   3.448   9.883 -1.1088 -0.4205  0.6960
 7537SOL    HW234074   3.499   3.574   9.823  0.6275  0.2049  2.5143
 7538SOL     OW34075   3.065   1.201   6.941 -0.0424  0.0575  0.0525
 7538SOL    HW134076   2.994   1.146   6.907  0.7171 -0.1612 -1.1622
 7538SOL    HW234077   3.125   1.134   6.974  0.8166  2.0213  2.5102
 7539SOL     OW34078   4.415   1.980   7.414  0.3425 -0.5272 -0.1598
 7539SOL    HW134079   4.345   2.005   7.354  0.3001  0.2181  0.1929
 7539SOL    HW234080   4.368   1.966   7.496 -1.6684 -1.6062 -1.5038
 7540SOL     OW34081   3.415   1.120  12.348 -0.0842 -0.5687  0.2763
 7540SOL    HW134082   3.411   1.086  12.259  1.0603  0.2724 -0.1071
 7540SOL    HW234083   3.378   1.208  12.345  1.7330  0.1740 -0.6584
 7541SOL     OW34084   3.106   4.676   7.023 -0.3895  0.1993 -0.0465
 7541SOL    HW134085   3.066   4.704   7.105  0.8404 -1.0282  0.9582
 7541SOL    HW234086   3.033   4.687   6.962 -0.1810 -1.4805 -0.5990
 7542SOL     OW34087   1.545   4.074   8.088  0.5155  0.0998 -0.0005
 7542SOL    HW134088   1.619   4.017   8.071  0.9719  0.3067  1.2314
 7542SOL    HW234089   1.524   4.061   8.181 -1.7505  0.5979 -0.4316
 7543SOL     OW34090   2.381   3.963   8.517 -0.2501  0.1832  0.4366
 7543SOL    HW134091   2.399   4.006   8.433  1.5899  1.2195  1.3679
 7543SOL    HW234092   2.326   3.888   8.493  2.9880 -1.3458 -2.2019
 7544SOL     OW34093   3.932   0.058   7.215  0.4295 -0.0791 -0.0867
 7544SOL    HW134094   3.873   0.010   7.272 -0.0599 -0.0498 -0.5619
 7544SOL    HW234095   3.977   4.704   7.173  0.7953  1.1012 -1.7724
 7545SOL     OW34096   0.619   4.453   3.348 -0.2255 -0.4875 -0.3416
 7545SOL    HW134097   0.633   4.411   3.263  0.4125 -0.6841 -0.1414
 7545SOL    HW234098   0.535   4.499   3.340  1.0989  1.5259 -2.6669
 7546SOL     OW34099   0.679   3.975   7.984 -0.0666  0.0935  0.4129
 7546SOL    HW134100   0.646   3.914   8.050 -3.1097  1.3248  0.0546
 7546SOL    HW234101   0.665   4.056   8.034  0.6732  0.9389 -0.7450
 7547SOL     OW34102   1.164   1.035   0.734 -0.6814  0.0591  0.3221
 7547SOL    HW134103   1.216   1.001   0.661 -1.8094  0.9609 -0.8898
 7547SOL    HW234104   1.192   1.126   0.733  0.3662 -0.2521  0.4920
 7548SOL     OW34105   2.255   1.391   3.268  0.2898 -0.1837  0.1627
 7548SOL    HW134106   2.330   1.333   3.273  0.5246  0.1061  0.0439
 7548SOL    HW234107   2.272   1.422   3.179 -1.0265  1.3997  0.4532
 7549SOL     OW34108   2.987   4.657  10.965 -0.0086  0.4531  0.3877
 7549SOL    HW134109   2.910   4.602  10.950  0.0846  0.8555 -1.4995
 7549SOL    HW234110   3.016   4.649  11.056  1.4346 -1.5933 -0.2632
 7550SOL     OW34111   3.711   3.418  15.325 -0.3205 -0.6980  0.4572
 7550SOL    HW134112   3.728   3.484  15.391  0.1560  0.0552 -0.4279
 7550SOL    HW234113   3.731   3.473  15.249  1.3980 -1.6056  0.2621
 7551SOL     OW34114   0.042   4.104  17.651 -0.4185  0.1206 -0.1418
 7551SOL    HW134115   4.671   4.077  17.669  0.1114 -1.6112  0.0051
 7551SOL    HW234116   0.082   4.136   0.052 -1.0955 -1.9884  1.0206
 7552SOL     OW34117   1.499   0.673   4.827 -0.0550 -0.0461  0.2260
 7552SOL    HW134118   1.494   0.768   4.817 -0.7903  0.1721  2.7095
 7552SOL    HW234119   1.417   0.649   4.784 -0.5776  1.6951  0.2373
 7553SOL     OW34120   4.687   1.710  11.748 -0.0396 -0.3039  0.1643
 7553SOL    HW134121   4.679   1.805  11.750  0.3260 -0.2696 -0.0161
 7553SOL    HW234122   0.023   1.693  11.824 -0.4415 -1.0249  0.3013
 7554SOL     OW34123   3.117   3.032   8.422 -0.2971 -0.1112 -0.4525
 7554SOL    HW134124   3.197   3.066   8.462 -0.6898  0.6005 -0.2624
 7554SOL    HW234125   3.127   2.937   8.423 -0.7048 -0.1057  2.3973
 7555SOL     OW34126   1.377   4.164  16.523 -0.3347  0.1367 -0.4304
 7555SOL    HW134127   1.471   4.144  16.518 -0.3034 -0.1331  1.1479
 7555SOL    HW234128   1.352   4.114  16.601  1.7504 -0.7611 -0.3343
 7556SOL     OW34129   2.093   2.579   3.216  0.0999  0.2296 -0.0016
 7556SOL    HW134130   2.055   2.592   3.130  2.1964  1.0355 -0.7910
 7556SOL    HW234131   2.160   2.511   3.208  1.7872  1.6848  1.6021
 7557SOL     OW34132   2.466   2.961   3.884 -0.0156 -0.4439 -0.2171
 7557SOL    HW134133   2.371   2.972   3.881  0.0613  0.3403  0.0664
 7557SOL    HW234134   2.485   2.868   3.896  0.1001 -0.2967  0.7903
 7558SOL     OW34135   1.983   0.098   3.580  0.0942  0.0508 -0.2279
 7558SOL    HW134136   2.022   0.121   3.664  0.5931 -2.0593  0.1186
 7558SOL    HW234137   1.970   0.003   3.574  0.3369 -0.1005  1.5167
 7559SOL     OW34138   2.071   2.045   9.128  0.3399  0.4994 -0.5695
 7559SOL    HW134139   2.024   2.076   9.051 -0.2367  1.5741  0.2189
 7559SOL    HW234140   2.091   2.135   9.156  1.0761  0.3462 -0.6139
 7560SOL     OW34141   2.018   1.979   0.978  0.0080 -0.5514  0.0607
 7560SOL    HW134142   1.960   1.907   0.951 -1.0487  0.2934  0.0817
 7560SOL    HW234143   2.047   1.960   1.067  2.0462 -0.7992 -0.6642
 7561SOL     OW34144   3.072   3.220   1.253  0.2665  0.6003 -0.2842
 7561SOL    HW134145   3.022   3.172   1.318  2.5562 -0.0574  0.9946
 7561SOL    HW234146   3.011   3.213   1.179  0.1087 -1.0947  0.0087
 7562SOL     OW34147   3.453   3.742  16.343 -0.3253  0.4924 -0.2239
 7562SOL    HW134148   3.495   3.667  16.385  0.5070  1.9489  1.5409
 7562SOL    HW234149   3.367   3.740  16.386 -1.0548  2.2029 -1.5981
 7563SOL     OW34150   4.381   2.564   8.570  0.3210 -0.3804  0.3790
 7563SOL    HW134151   4.371   2.481   8.524 -1.2128 -0.5243  0.9682
 7563SOL    HW234152   4.419   2.533   8.652 -1.1641 -0.4596  1.0465
 7564SOL     OW34153   4.519   2.399   5.565 -1.0903  0.0198  0.7349
 7564SOL    HW134154   4.451   2.443   5.616 -1.0291 -0.4085  1.1817
 7564SOL    HW234155   4.569   2.475   5.533  0.2306  0.0145  2.7584
 7565SOL     OW34156   4.432   2.632   6.286 -0.2076  0.4370 -0.2489
 7565SOL    HW134157   4.367   2.624   6.217  0.0516  1.3138 -0.6050
 7565SOL    HW234158   4.492   2.561   6.263 -1.1415 -1.3892  2.9541
 7566SOL     OW34159   1.672   2.208  13.678 -0.1633 -0.0258 -0.2502
 7566SOL    HW134160   1.759   2.239  13.656  0.1265 -1.8264 -1.6499
 7566SOL    HW234161   1.709   2.134  13.726 -0.0767  0.2832  0.1638
 7567SOL     OW34162   4.239   4.078   4.425 -0.3163 -0.3832  0.0649
 7567SOL    HW134163   4.236   3.996   4.473 -2.6088  0.0806  0.6909
 7567SOL    HW234164   4.200   4.064   4.338  0.2232  0.0508 -0.2460
 7568SOL     OW34165   4.092   1.299   8.141 -0.1011 -0.3349 -0.3353
 7568SOL    HW134166   4.074   1.365   8.073 -0.4285  0.6484  0.7152
 7568SOL    HW234167   4.147   1.235   8.095  0.1876 -0.4265  0.1355
 7569SOL     OW34168   0.028   2.933   3.407 -0.1326 -0.2341  0.6025
 7569SOL    HW134169   0.082   2.941   3.486  1.0016 -0.9896 -0.0956
 7569SOL    HW234170   0.016   2.838   3.404 -0.2194 -0.3015  2.9560
 7570SOL     OW34171   0.408   2.775  11.719 -0.2337  0.8470  0.2112
 7570SOL    HW134172   0.490   2.733  11.695 -1.0295 -2.0458  2.6114
 7570SOL    HW234173   0.408   2.770  11.815 -1.1960  0.6946  0.2048
 7571SOL     OW34174   4.561   1.391   9.142  0.4421  0.1764 -0.0811
 7571SOL    HW134175   4.635   1.427   9.093  2.0263  0.1720  2.3330
 7571SOL    HW234176   4.523   1.331   9.077  0.8052  0.6828 -0.7593
 7572SOL     OW34177   0.900   1.895   5.843  0.2085 -0.4255 -0.2667
 7572SOL    HW134178   0.821   1.899   5.789  0.3631  2.5968 -0.2329
 7572SOL    HW234179   0.939   1.973   5.804  0.8386 -1.4517 -1.6848
 7573SOL     OW34180   0.260   0.388  12.264 -0.0997  0.0949  0.3172
 7573SOL    HW134181   0.266   0.406  12.358 -1.1462 -0.1033  0.4226
 7573SOL    HW234182   0.188   0.439  12.228  2.1787  2.2607 -1.1824
 7574SOL     OW34183   2.966   2.262   4.358  0.1281  0.0533 -0.3896
 7574SOL    HW134184   2.885   2.287   4.313  0.1582  0.9375  0.0594
 7574SOL    HW234185   2.937   2.274   4.449  0.2826 -0.8906 -0.2151
 7575SOL     OW34186   4.353   0.574   2.842  0.5646  0.1658  0.4315
 7575SOL    HW134187   4.407   0.615   2.774 -1.3025  0.4365 -0.8544
 7575SOL    HW234188   4.322   0.651   2.890 -1.7855 -0.2278 -0.4674
 7576SOL     OW34189   2.533   4.341   4.677 -0.0854 -0.8173  0.5569
 7576SOL    HW134190   2.596   4.279   4.639 -1.1974 -0.4829 -1.8037
 7576SOL    HW234191   2.576   4.355   4.761  2.3735  1.6800 -1.0853
 7577SOL     OW34192   0.714   2.421  13.765 -0.3240 -0.1398 -0.0254
 7577SOL    HW134193   0.771   2.497  13.753  1.0308 -1.0628  0.4929
 7577SOL    HW234194   0.738   2.397  13.855 -1.6481  1.4874  0.7683
 7578SOL     OW34195   0.250   0.327   3.004  0.3644 -0.4296  0.2903
 7578SOL    HW134196   0.209   0.378   3.074  0.2692  0.8705 -0.7063
 7578SOL    HW234197   0.303   0.272   3.062 -1.4659 -1.3622  1.1004
 7579SOL     OW34198   1.874   1.340   2.054  0.2261 -0.9203  0.0483
 7579SOL    HW134199   1.879   1.414   1.994 -1.4468 -0.9009 -0.0945
 7579SOL    HW234200   1.900   1.277   1.986  2.8026  1.8719 -1.5196
 7580SOL     OW34201   0.475   3.796  11.976  0.7891  0.0850 -0.9783
 7580SOL    HW134202   0.457   3.852  11.900  1.5568  1.1162 -0.4020
 7580SOL    HW234203   0.494   3.871  12.033 -3.2329  1.0855 -0.9139
 7581SOL     OW34204   0.752   2.281   6.412 -0.1754 -0.1020  0.0352
 7581SOL    HW134205   0.807   2.304   6.487 -0.2197  2.3825 -0.7100
 7581SOL    HW234206   0.777   2.188   6.403 -0.9365 -0.2205 -0.8716
 7582SOL     OW34207   2.041   0.578   9.157 -0.1510 -0.2035  0.1876
 7582SOL    HW134208   2.049   0.587   9.252  0.3691  0.5699  0.0665
 7582SOL    HW234209   2.026   0.666   9.123  2.9409  0.7267  1.2486
 7583SOL     OW34210   3.321   2.185   4.809  0.6395  0.2902 -0.1935
 7583SOL    HW134211   3.229   2.179   4.785  0.9936 -1.2265 -1.1737
 7583SOL    HW234212   3.332   2.118   4.877  0.1509 -1.5305 -1.9175
 7584SOL     OW34213   3.313   2.486   5.670  0.0816 -0.9619 -0.0052
 7584SOL    HW134214   3.379   2.445   5.725  2.2865 -0.8524 -2.6122
 7584SOL    HW234215   3.348   2.471   5.582  3.3253 -0.0438  1.1478
 7585SOL     OW34216   1.187   0.080   1.991  0.0968 -0.0313  0.0576
 7585SOL    HW134217   1.188   0.169   1.956  0.9027  0.1438  0.5440
 7585SOL    HW234218   1.149   0.101   2.077  0.8914  1.6226  0.0022
 7586SOL     OW34219   1.884   2.914   2.011 -0.6034  0.0091  0.0919
 7586SOL    HW134220   1.917   3.004   2.023 -0.9381  0.3560 -1.6107
 7586SOL    HW234221   1.834   2.893   2.090  1.1013 -1.4971  0.7667
 7587SOL     OW34222   4.178   4.564   5.881  0.3560 -0.2514  0.2065
 7587SOL    HW134223   4.090   4.588   5.853 -0.0363 -2.4128 -0.4280
 7587SOL    HW234224   4.168   4.490   5.942  2.0352 -1.2296 -0.6989
 7588SOL     OW34225   3.549   3.447   2.479  0.0644 -0.3712  0.4480
 7588SOL    HW134226   3.636   3.407   2.476  0.3449  0.2230  0.6058
 7588SOL    HW234227   3.559   3.518   2.416 -0.6388 -1.4703 -0.8982
 7589SOL     OW34228   4.073   3.030   4.715 -0.5985  0.6312  0.1691
 7589SOL    HW134229   4.043   3.087   4.786 -1.9837  1.6151 -1.2035
 7589SOL    HW234230   4.008   2.959   4.716  0.4941 -0.3431  0.9538
 7590SOL     OW34231   2.656   0.498  16.700 -0.4707  0.0995 -0.4292
 7590SOL    HW134232   2.665   0.413  16.657  1.6316  0.4832 -0.7590
 7590SOL    HW234233   2.734   0.545  16.669 -2.0912  1.6488 -2.1986
 7591SOL     OW34234   0.890   3.687   5.185 -0.1660 -0.5058  0.4510
 7591SOL    HW134235   0.927   3.739   5.112 -1.5930 -0.2652 -0.1005
 7591SOL    HW234236   0.824   3.633   5.141  0.1751 -0.6486  0.1122
 7592SOL     OW34237   1.646   1.659   8.571  0.0016 -0.3708  0.2551
 7592SOL    HW134238   1.702   1.714   8.516 -3.3141  2.0222 -0.7398
 7592SOL    HW234239   1.615   1.725   8.633  1.8938 -1.3921  2.2888
 7593SOL     OW34240   1.983   1.787   7.471 -0.4984  0.1780 -0.1358
 7593SOL    HW134241   2.051   1.719   7.463  1.2024  1.9886 -1.0943
 7593SOL    HW234242   1.967   1.787   7.377 -0.8769 -1.1056 -0.0766
 7594SOL     OW34243   0.278   3.723  13.542 -0.0407  0.3138  0.6442
 7594SOL    HW134244   0.334   3.788  13.501  1.6891 -1.7681 -0.3036
 7594SOL    HW234245   0.291   3.647  13.485 -1.3589  1.5322 -1.2822
 7595SOL     OW34246   3.939   3.047   1.653 -0.1078 -0.2950 -0.5099
 7595SOL    HW134247   3.940   2.995   1.572  1.7124  0.3319 -0.8850
 7595SOL    HW234248   3.969   3.132   1.621 -0.6152 -1.7255 -4.7839
 7596SOL     OW34249   0.369   2.296   6.308  0.4305  0.0239 -0.4156
 7596SOL    HW134250   0.320   2.318   6.229 -1.2030  1.3506  0.9670
 7596SOL    HW234251   0.293   2.278   6.363  1.3489 -1.0023  0.5013
 7597SOL     OW34252   2.515   1.783   3.447  0.0983  0.2397  0.0882
 7597SOL    HW134253   2.558   1.729   3.381 -1.9542 -1.3354  0.0442
 7597SOL    HW234254   2.461   1.715   3.487  0.3105 -0.1231 -0.2414
 7598SOL     OW34255   3.720   2.623   4.097  0.4465  0.1191 -0.0524
 7598SOL    HW134256   3.644   2.592   4.145  0.3612 -1.8143 -1.4003
 7598SOL    HW234257   3.683   2.683   4.032 -0.4099 -1.0391 -0.6387
 7599SOL     OW34258   4.127   0.639   7.954  0.0453 -0.6782 -0.3974
 7599SOL    HW134259   4.041   0.660   7.916  0.1762 -0.2605 -0.4700
 7599SOL    HW234260   4.104   0.579   8.025 -0.6762 -0.7224 -0.6624
 7600SOL     OW34261   4.116   2.337  10.133  0.0653  0.1754 -0.0628
 7600SOL    HW134262   4.034   2.385  10.124  0.3746  0.7657  0.2152
 7600SOL    HW234263   4.186   2.403  10.134 -1.4411  1.7829 -0.0315
 7601SOL     OW34264   3.223   4.061  11.250 -0.0294 -0.0782 -0.1638
 7601SOL    HW134265   3.208   4.136  11.193 -2.9020  0.4157  1.2445
 7601SOL    HW234266   3.286   4.010  11.199 -0.0508 -0.3771  0.1086
 7602SOL     OW34267   2.134   1.225   6.353  0.4617  0.0604  0.7865
 7602SOL    HW134268   2.149   1.304   6.302  1.4300 -1.4492 -1.2529
 7602SOL    HW234269   2.079   1.257   6.425 -1.2864 -0.8276 -0.1435
 7603SOL     OW34270   2.105   1.239   1.142  0.3917  0.2065  0.6889
 7603SOL    HW134271   2.098   1.271   1.052  0.9616  1.9682  1.2630
 7603SOL    HW234272   2.119   1.323   1.185  1.5623 -0.0982  0.8983
 7604SOL     OW34273   4.152   0.440   4.630  0.3865  0.2660  0.1673
 7604SOL    HW134274   4.149   0.473   4.720  0.2120 -1.1844  0.7013
 7604SOL    HW234275   4.098   0.364   4.655  1.3548 -1.0505 -1.7553
 7605SOL     OW34276   3.009   0.810  13.798 -0.7553  0.4096  0.2093
 7605SOL    HW134277   2.976   0.796  13.887  0.2512 -1.1771  0.3413
 7605SOL    HW234278   3.104   0.806  13.811 -0.7633 -0.9121 -0.1071
 7606SOL     OW34279   2.835   3.496  13.371  0.3417  0.3118 -0.4050
 7606SOL    HW134280   2.778   3.432  13.328  0.2644  0.5292 -0.6231
 7606SOL    HW234281   2.855   3.556  13.299  0.3244  1.1364  0.2761
 7607SOL     OW34282   2.506   3.599   3.124  0.1578  0.5421  0.4272
 7607SOL    HW134283   2.553   3.555   3.053 -0.6779  0.3314  0.0044
 7607SOL    HW234284   2.434   3.641   3.076 -0.2587  1.1834  1.6054
 7608SOL     OW34285   3.575   1.514   5.025 -0.4953  0.1773 -0.1706
 7608SOL    HW134286   3.634   1.456   4.978 -0.3456 -0.2121  0.4976
 7608SOL    HW234287   3.591   1.472   5.109  0.2107  0.3510 -0.2222
 7609SOL     OW34288   1.133   3.529   3.558 -0.0408 -0.0194  0.6037
 7609SOL    HW134289   1.050   3.571   3.537 -0.6131 -2.2003 -1.5253
 7609SOL    HW234290   1.142   3.541   3.653  1.5950 -3.0048  0.8506
 7610SOL     OW34291   0.393   3.554   6.232 -0.1149  0.2174  0.0755
 7610SOL    HW134292   0.451   3.571   6.306  0.5121 -1.1279 -0.1023
 7610SOL    HW234293   0.466   3.563   6.171 -0.6610 -1.6896 -0.8598
 7611SOL     OW34294   1.181   3.512   3.840  0.0208 -0.3014  0.0833
 7611SOL    HW134295   1.225   3.461   3.907  0.3169  0.8771  0.7902
 7611SOL    HW234296   1.219   3.598   3.859 -1.6644  0.0926  1.6923
 7612SOL     OW34297   3.308   1.892   1.761 -0.0284  0.2284 -0.2411
 7612SOL    HW134298   3.322   1.904   1.667 -0.6594 -1.6433 -0.5601
 7612SOL    HW234299   3.241   1.960   1.773  0.5386  0.4526  1.7328
 7613SOL     OW34300   2.056   2.897  14.571  0.6656 -0.0824  0.4362
 7613SOL    HW134301   2.119   2.863  14.507 -1.7404  0.0590 -2.0267
 7613SOL    HW234302   2.084   2.985  14.594 -0.0290  0.1903  0.2191
 7614SOL     OW34303   2.828   4.107   8.419  0.3876 -0.0524 -0.4522
 7614SOL    HW134304   2.879   4.098   8.500  1.3734  2.1944 -0.8283
 7614SOL    HW234305   2.830   4.201   8.399  0.1908 -0.0197 -0.3261
 7615SOL     OW34306   2.308   3.335  10.158 -0.2684  0.6441  0.1360
 7615SOL    HW134307   2.263   3.273  10.100 -0.7545  2.8849 -1.8815
 7615SOL    HW234308   2.238   3.367  10.214 -1.1579 -0.8797 -0.0930
 7616SOL     OW34309   0.162   0.154  12.150  0.0118 -0.5209 -0.4989
 7616SOL    HW134310   0.230   0.216  12.175 -1.7093  0.8121  0.9121
 7616SOL    HW234311   0.094   0.218  12.127 -0.4526 -0.7983  0.0804
 7617SOL     OW34312   2.895   1.286   5.700  0.0912 -0.0286 -0.3958
 7617SOL    HW134313   2.851   1.342   5.764 -0.6876 -2.7984  1.5130
 7617SOL    HW234314   2.923   1.357   5.642  0.0290  0.6871  0.4441
 7618SOL     OW34315   2.823   2.099   9.980  0.2652 -0.1808 -0.5426
 7618SOL    HW134316   2.811   2.188  10.014  1.2974 -0.3428  0.2492
 7618SOL    HW234317   2.734   2.070   9.964 -0.2546  0.8953  0.4362
 7619SOL     OW34318   3.549   0.221   2.095 -0.1858 -0.3432 -0.5464
 7619SOL    HW134319   3.582   0.138   2.060  1.1277  0.1853 -0.5365
 7619SOL    HW234320   3.608   0.282   2.051  0.7794 -1.1400 -0.3651
 7620SOL     OW34321   4.554   4.225   5.421  0.3867  0.1444  0.3410
 7620SOL    HW134322   4.458   4.224   5.416  0.5490 -1.4320 -2.6112
 7620SOL    HW234323   4.564   4.132   5.401 -1.6971 -0.3094  1.3117
 7621SOL     OW34324   4.280   1.699  17.639  0.2149 -0.3032  0.1797
 7621SOL    HW134325   4.186   1.706  17.657 -0.3224 -3.5741 -1.4140
 7621SOL    HW234326   4.274   1.660  17.552 -1.1363  1.4673 -0.5316
 7622SOL     OW34327   3.846   1.480   6.241  0.6730  0.7267  0.0920
 7622SOL    HW134328   3.825   1.387   6.229  1.0777  0.5475  0.7967
 7622SOL    HW234329   3.827   1.497   6.333 -1.6267  0.4550 -0.3295
 7623SOL     OW34330   3.519   1.290   2.826 -0.8866 -0.0680 -0.5997
 7623SOL    HW134331   3.467   1.328   2.897 -3.2341  0.0256 -2.3630
 7623SOL    HW234332   3.446   1.279   2.764  0.1383  1.3421 -2.0619
 7624SOL     OW34333   0.562   0.407  12.296 -0.7137  0.5932  0.2055
 7624SOL    HW134334   0.467   0.419  12.291 -0.6528  1.6052  1.6106
 7624SOL    HW234335   0.569   0.312  12.290  0.5058  0.6239  1.2947
 7625SOL     OW34336   0.194   3.779  14.100 -0.3049 -0.2254  0.0869
 7625SOL    HW134337   0.128   3.746  14.039 -2.3940  1.5631  1.3530
 7625SOL    HW234338   0.258   3.823  14.045 -0.7918 -1.0899 -1.1772
 7626SOL     OW34339   1.214   2.904   2.638  0.0145 -0.2115  0.0720
 7626SOL    HW134340   1.160   2.867   2.568 -0.9570  0.6411  0.3840
 7626SOL    HW234341   1.169   2.853   2.704  2.2969  0.3064  2.0302
 7627SOL     OW34342   4.218   4.388  15.583  0.0287  0.1080  0.4028
 7627SOL    HW134343   4.124   4.373  15.586  0.1694 -0.6379  1.1873
 7627SOL    HW234344   4.222   4.474  15.625  0.4034  0.0281  0.5289
 7628SOL     OW34345   2.950   0.939   4.050  0.6761  0.2565 -0.3653
 7628SOL    HW134346   2.876   0.928   4.110  3.1020 -0.2570  2.5260
 7628SOL    HW234347   3.014   0.880   4.088 -0.4735 -0.4142  0.5165
 7629SOL     OW34348   0.813   1.930  12.837  0.0884  0.5884 -0.2277
 7629SOL    HW134349   0.753   1.972  12.899 -0.5784 -0.3949 -0.2023
 7629SOL    HW234350   0.816   1.992  12.764 -1.5660  1.5530  0.5236
 7630SOL     OW34351   0.613   0.112   8.885  0.7364 -0.6374  0.2406
 7630SOL    HW134352   0.542   0.157   8.931  1.0617 -2.3568  2.3944
 7630SOL    HW234353   0.685   0.172   8.907 -0.5038  1.1656 -0.6462
 7631SOL     OW34354   2.820   2.259   2.149 -0.0195 -0.2366 -0.0077
 7631SOL    HW134355   2.903   2.248   2.104 -0.5688  0.1652 -1.1223
 7631SOL    HW234356   2.841   2.234   2.239 -1.7195  1.0786  0.7504
 7632SOL     OW34357   0.274   2.122   8.241 -0.1430  0.4031 -0.1942
 7632SOL    HW134358   0.329   2.157   8.171  2.6912 -2.8224  0.3965
 7632SOL    HW234359   0.345   2.080   8.291  0.7272  1.9207 -0.1755
 7633SOL     OW34360   3.298   3.534  12.425  0.1298 -0.3347  0.3151
 7633SOL    HW134361   3.310   3.549  12.331 -0.3102 -2.0511 -0.0224
 7633SOL    HW234362   3.214   3.577  12.442  0.1008 -0.0063 -0.6502
 7634SOL     OW34363   0.761   1.441  12.917 -0.3994  0.3265  0.0783
 7634SOL    HW134364   0.810   1.425  12.836  0.2305 -0.2906  0.5866
 7634SOL    HW234365   0.731   1.532  12.905  1.0113  0.8948  0.8940
 7635SOL     OW34366   2.118   3.547   3.937  0.0743 -0.2005 -0.1086
 7635SOL    HW134367   2.039   3.541   3.990  1.1203 -2.6529  1.1561
 7635SOL    HW234368   2.161   3.624   3.974  0.1311  2.3210 -5.3997
 7636SOL     OW34369   2.774   4.492   6.690  0.3715  0.3830 -0.2731
 7636SOL    HW134370   2.703   4.538   6.646  0.6323 -1.6140 -2.7380
 7636SOL    HW234371   2.808   4.552   6.757  0.3094 -1.0059  1.0025
 7637SOL     OW34372   2.961   0.992   9.384 -0.0147 -0.1215 -0.0792
 7637SOL    HW134373   2.870   1.015   9.368  0.0445 -0.8037 -1.4010
 7637SOL    HW234374   2.951   0.928   9.454 -0.2576 -2.5097 -2.2782
 7638SOL     OW34375   1.928   0.313   6.945  0.3691  0.5221 -0.0151
 7638SOL    HW134376   1.995   0.333   7.010  0.0137 -1.9145  1.0700
 7638SOL    HW234377   1.942   0.388   6.886  0.2629  1.7414  1.5287
 7639SOL     OW34378   0.174   3.375   4.444  0.0060  0.5690  0.3387
 7639SOL    HW134379   0.251   3.426   4.416 -0.8411 -0.6842 -4.1942
 7639SOL    HW234380   0.110   3.445   4.459  0.5724  1.4105 -1.1746
 7640SOL     OW34381   3.596   1.860  16.955  0.0133  0.0904  0.3794
 7640SOL    HW134382   3.506   1.867  16.985 -0.6488 -1.7757 -1.2292
 7640SOL    HW234383   3.616   1.767  16.953  4.1914  0.9817 -0.1639
 7641SOL     OW34384   2.633   3.475   4.469 -0.0571  0.6064  0.4317
 7641SOL    HW134385   2.727   3.486   4.488  0.4066 -0.7841 -1.0543
 7641SOL    HW234386   2.643   3.467   4.374  0.2689 -0.1254  0.5230
 7642SOL     OW34387   2.432   3.477   9.750  0.1945  0.4373  0.4899
 7642SOL    HW134388   2.469   3.497   9.836  0.0206 -0.4797  0.7787
 7642SOL    HW234389   2.339   3.495   9.764  0.3363 -0.1235  2.2287
 7643SOL     OW34390   0.369   4.214  11.422 -0.2389  0.2430 -0.7419
 7643SOL    HW134391   0.322   4.297  11.434  0.2482  0.3046  0.8108
 7643SOL    HW234392   0.452   4.236  11.465 -2.3433  2.2718  2.3575
 7644SOL     OW34393   3.130   1.760   7.372  0.4977  0.0762  0.6350
 7644SOL    HW134394   3.163   1.825   7.311  1.1267 -0.8637 -0.0322
 7644SOL    HW234395   3.040   1.792   7.379  0.2459 -0.9740  2.1576
 7645SOL     OW34396   4.494   3.171   7.866 -0.4858  0.6393 -0.9158
 7645SOL    HW134397   4.542   3.247   7.833  0.1055  0.7851  0.2973
 7645SOL    HW234398   4.485   3.181   7.961  1.3513 -1.3922 -0.5403
 7646SOL     OW34399   3.492   3.453   1.709 -0.3033  0.6488  0.0216
 7646SOL    HW134400   3.499   3.513   1.635  0.2746  1.4075  0.7006
 7646SOL    HW234401   3.411   3.407   1.684 -0.6681  0.4655  1.5492
 7647SOL     OW34402   3.421   3.207   5.394  0.0670 -0.5701 -0.2058
 7647SOL    HW134403   3.482   3.173   5.329  0.5768  0.3333 -0.2118
 7647SOL    HW234404   3.341   3.202   5.342 -0.0309 -1.6260  0.0455
 7648SOL     OW34405   0.200   2.569   4.380  0.0712 -0.2872  0.7817
 7648SOL    HW134406   0.205   2.643   4.440 -0.2485 -0.2498  0.7637
 7648SOL    HW234407   0.163   2.497   4.431  0.7725 -1.1992 -0.0010
 7649SOL     OW34408   1.200   0.719   9.156 -0.2804 -0.7777  0.3773
 7649SOL    HW134409   1.204   0.769   9.074  1.3686 -1.0619  0.2891
 7649SOL    HW234410   1.203   0.790   9.219 -0.5849 -0.9631  0.6009
 7650SOL     OW34411   4.198   4.186  14.892 -0.5379 -0.4771 -0.1986
 7650SOL    HW134412   4.207   4.199  14.798 -1.8020  1.9383  0.0400
 7650SOL    HW234413   4.104   4.199  14.902 -0.3542  0.4917  0.2649
 7651SOL     OW34414   4.045   3.232   8.868 -0.3474 -0.0847 -0.1432
 7651SOL    HW134415   4.086   3.314   8.896  1.6022 -1.6899  1.6881
 7651SOL    HW234416   4.103   3.207   8.796  0.2728 -0.1644  0.3875
 7652SOL     OW34417   0.776   2.174  12.714 -0.1658 -0.2817 -0.2452
 7652SOL    HW134418   0.829   2.251  12.732 -1.6782  0.5109  0.8914
 7652SOL    HW234419   0.745   2.195  12.625 -0.2031  0.3460 -0.0862
 7653SOL     OW34420   0.208   4.706   9.796 -0.2738 -0.3713 -0.0840
 7653SOL    HW134421   0.303   4.716   9.790 -0.2285 -0.9505 -0.3610
 7653SOL    HW234422   0.184   4.711   9.888  0.8372  1.0170  0.1179
 7654SOL     OW34423   4.568   2.770   7.159 -0.2636  0.4324 -0.1012
 7654SOL    HW134424   4.548   2.850   7.208  2.0910  1.5676 -0.9803
 7654SOL    HW234425   4.548   2.795   7.069 -0.4102  0.7941  0.0285
 7655SOL     OW34426   3.359   1.667  11.986 -0.6487 -0.1239 -0.1216
 7655SOL    HW134427   3.399   1.624  12.062  0.1177 -0.2234 -0.5809
 7655SOL    HW234428   3.435   1.675  11.929 -1.1626  0.7495 -0.6745
 7656SOL     OW34429   1.972   0.898   5.728  0.1523 -0.4460  0.0158
 7656SOL    HW134430   1.960   0.981   5.774  0.7834 -0.6390  0.5246
 7656SOL    HW234431   1.910   0.840   5.772  2.0500 -1.2701  1.6015
 7657SOL     OW34432   3.648   4.162   2.823 -0.0789 -0.0546  0.4444
 7657SOL    HW134433   3.708   4.093   2.851 -0.5148 -0.3663  0.6108
 7657SOL    HW234434   3.602   4.152   2.906 -0.0478  1.0490  0.5983
 7658SOL     OW34435   2.989   0.953   6.323  0.2195  0.1089  0.4384
 7658SOL    HW134436   3.052   0.933   6.254 -1.7423 -1.5759 -0.8493
 7658SOL    HW234437   3.013   0.882   6.383  0.8080  1.5485  1.9211
 7659SOL     OW34438   0.338   1.234   7.404  0.2031  0.1842  0.3059
 7659SOL    HW134439   0.326   1.287   7.325  0.0884 -2.7822 -1.6526
 7659SOL    HW234440   0.272   1.270   7.462  0.5070  1.0309  0.1256
 7660SOL     OW34441   3.046   2.133   2.026 -0.0180  0.1538  0.0285
 7660SOL    HW134442   3.139   2.118   2.012 -0.0369 -0.4576  0.5352
 7660SOL    HW234443   3.031   2.041   2.049 -0.9658  1.0232  2.8455
 7661SOL     OW34444   4.491   0.202   6.682  0.7112 -0.3484 -0.0151
 7661SOL    HW134445   4.496   0.288   6.724 -0.9469 -0.4645  0.4323
 7661SOL    HW234446   4.407   0.209   6.637  0.5833 -1.1090  0.1033
 7662SOL     OW34447   3.446   1.472   9.334 -0.0138 -0.3666  0.0902
 7662SOL    HW134448   3.461   1.433   9.248 -2.7421 -2.3710  0.5049
 7662SOL    HW234449   3.523   1.529   9.342 -0.8235  1.0091 -2.0885
 7663SOL     OW34450   2.730   2.060   6.261  0.3079 -0.0705 -0.1222
 7663SOL    HW134451   2.694   2.149   6.259  0.2262 -0.1155 -0.6202
 7663SOL    HW234452   2.699   2.032   6.347  2.3492  0.7183  0.8960
 7664SOL     OW34453   1.170   4.318   8.763 -0.2651  0.2004  0.0264
 7664SOL    HW134454   1.214   4.349   8.842 -1.6268 -0.1969  0.9317
 7664SOL    HW234455   1.135   4.397   8.721 -0.1464  0.4500  0.3982
 7665SOL     OW34456   3.806   0.640   1.585 -0.1865  0.2221 -0.4214
 7665SOL    HW134457   3.779   0.732   1.593 -0.9194 -0.2279  2.2200
 7665SOL    HW234458   3.840   0.646   1.496 -1.1209 -0.7414 -0.8529
 7666SOL     OW34459   1.603   1.961   9.565 -0.4745  0.1427  0.1597
 7666SOL    HW134460   1.656   2.016   9.508  0.2983 -0.8565 -0.0846
 7666SOL    HW234461   1.656   1.949   9.643  0.5144  2.7582 -0.1227
 7667SOL     OW34462   3.491   1.492   7.436  0.5095 -0.0826  0.0100
 7667SOL    HW134463   3.574   1.526   7.469  1.3458  0.0742 -2.2756
 7667SOL    HW234464   3.429   1.508   7.507 -0.4756 -0.8467 -0.6709
 7668SOL     OW34465   2.563   1.249   0.954  0.5486  0.1695  0.3742
 7668SOL    HW134466   2.470   1.234   0.934  1.2027 -2.6792 -0.5625
 7668SOL    HW234467   2.558   1.300   1.035 -0.3163  0.2552  0.2672
 7669SOL     OW34468   0.712   0.104  12.549  1.1123  0.4131 -0.0538
 7669SOL    HW134469   0.683   0.071  12.634 -1.9882 -2.5647 -2.2432
 7669SOL    HW234470   0.768   0.031  12.523  1.0440  0.1563  0.5146
 7670SOL     OW34471   2.500   3.085   5.618  0.0065  0.2549 -0.4090
 7670SOL    HW134472   2.544   3.022   5.676 -0.3374 -1.6435 -2.2262
 7670SOL    HW234473   2.428   3.030   5.587 -3.5406  4.2228  0.7956
 7671SOL     OW34474   3.717   0.772   6.854  0.3754  0.1658  0.4964
 7671SOL    HW134475   3.683   0.689   6.821  0.2386  0.7728 -0.8885
 7671SOL    HW234476   3.683   0.821   6.779 -0.4064 -0.1378  0.6574
 7672SOL     OW34477   2.060   4.451   8.496  0.0423 -0.1645 -0.5412
 7672SOL    HW134478   1.984   4.427   8.444 -0.9539 -3.3243  2.3958
 7672SOL    HW234479   2.030   4.434   8.586  0.2185 -0.5951 -0.5621
 7673SOL     OW34480   1.896   3.566   2.291 -0.2036 -0.3116 -0.3047
 7673SOL    HW134481   1.904   3.658   2.318 -1.0928 -0.5914  0.9228
 7673SOL    HW234482   1.802   3.563   2.270 -0.6240  1.9410  1.2546
 7674SOL     OW34483   0.907   4.523   7.732  0.0137 -0.5863 -0.6452
 7674SOL    HW134484   0.820   4.515   7.692 -0.6849  3.8037 -0.1084
 7674SOL    HW234485   0.960   4.493   7.659 -0.5320  2.7382 -2.3975
 7675SOL     OW34486   2.297   3.954  13.107 -0.0396  0.3932  0.7477
 7675SOL    HW134487   2.233   4.016  13.071  0.3321  0.5662  0.3768
 7675SOL    HW234488   2.261   3.925  13.190  1.5265  1.0100  1.6336
 7676SOL     OW34489   4.011   1.042   5.224 -0.0635  0.5935 -0.2582
 7676SOL    HW134490   3.949   1.026   5.153  0.7200  1.4024 -1.1294
 7676SOL    HW234491   4.077   0.975   5.207 -0.1478  0.3466  0.4264
 7677SOL     OW34492   3.071   3.304   9.946  0.2273 -0.3920  0.0260
 7677SOL    HW134493   3.047   3.254  10.025  0.4321  2.0742  1.6654
 7677SOL    HW234494   2.990   3.348   9.919  2.2975  2.1781 -1.9392
 7678SOL     OW34495   2.708   1.921   2.887  0.1035 -0.1052  0.6960
 7678SOL    HW134496   2.767   1.936   2.961 -0.1850 -1.3351  1.1821
 7678SOL    HW234497   2.636   1.977   2.915  0.9483 -0.1304  2.9727
 7679SOL     OW34498   1.936   3.193  10.405 -0.3461 -0.1623 -0.1825
 7679SOL    HW134499   1.954   3.285  10.385 -2.6737  0.3516  0.1655
 7679SOL    HW234500   1.984   3.196  10.488 -0.5412 -1.9770  0.0022
 7680SOL     OW34501   0.636   3.639   7.877  0.3913  0.3830 -0.2792
 7680SOL    HW134502   0.572   3.610   7.943  0.5449 -0.7940 -0.6451
 7680SOL    HW234503   0.719   3.637   7.925  0.3727 -0.5171 -0.2756
 7681SOL     OW34504   0.980   4.477   5.593  0.1503 -0.2527  0.2008
 7681SOL    HW134505   0.887   4.464   5.614  0.0896  0.2493  0.2234
 7681SOL    HW234506   1.011   4.387   5.605  0.9239 -0.0044  0.0347
 7682SOL     OW34507   1.360   3.633   7.219 -0.2206  0.6805  0.0094
 7682SOL    HW134508   1.413   3.558   7.246  0.0245  0.7973 -0.1477
 7682SOL    HW234509   1.371   3.699   7.288  1.3731  0.0883  0.3239
 7683SOL     OW34510   2.733   1.406   5.250  0.4320  0.1504  0.4759
 7683SOL    HW134511   2.747   1.345   5.322  3.0232 -1.4780 -1.4191
 7683SOL    HW234512   2.771   1.351   5.182 -0.5592 -0.5343  0.4719
 7684SOL     OW34513   2.906   0.339  11.008  0.5034  0.2249  0.1057
 7684SOL    HW134514   2.862   0.423  11.012  0.1861  0.0182  1.0569
 7684SOL    HW234515   2.883   0.297  10.925  0.0830  0.1649  0.2538
 7685SOL     OW34516   3.204   2.624   3.548 -0.3333 -0.2094  0.1581
 7685SOL    HW134517   3.289   2.630   3.503  0.1065  0.9383  1.1618
 7685SOL    HW234518   3.144   2.643   3.476  0.9801  3.3719  0.0262
 7686SOL     OW34519   3.290   0.910  12.852  0.3953  0.6798  0.1018
 7686SOL    HW134520   3.324   0.944  12.769 -0.3626  0.2082 -0.3975
 7686SOL    HW234521   3.359   0.932  12.915  0.3842  1.0527 -0.0120
 7687SOL     OW34522   0.694   2.663   5.801  0.2399 -0.3421  0.3478
 7687SOL    HW134523   0.739   2.636   5.721  1.0110  2.1486 -0.0448
 7687SOL    HW234524   0.713   2.588   5.858 -2.4755 -0.8668  0.5646
 7688SOL     OW34525   0.892   2.121   7.452 -0.2227  0.1971 -0.4054
 7688SOL    HW134526   0.949   2.192   7.423 -1.5917  1.8256  0.8877
 7688SOL    HW234527   0.920   2.045   7.401 -0.9460 -1.5145  1.7025
 7689SOL     OW34528   4.611   2.672   3.587  0.1702  0.3737 -0.4295
 7689SOL    HW134529   4.635   2.641   3.500 -1.6926  1.3315 -1.2995
 7689SOL    HW234530   4.659   2.608   3.640  0.8678 -0.6290 -2.2782
 7690SOL     OW34531   2.331   2.917   4.492 -0.2881 -0.6926  0.5794
 7690SOL    HW134532   2.373   2.914   4.578 -0.9596  0.1338  0.9396
 7690SOL    HW234533   2.259   2.977   4.508 -1.0166 -1.5733  0.5735
 7691SOL     OW34534   1.799   4.412   7.733  0.4356  0.0203 -0.5925
 7691SOL    HW134535   1.740   4.467   7.785  0.1849  0.4132 -1.2979
 7691SOL    HW234536   1.838   4.468   7.665 -0.7767 -1.1058 -2.2123
 7692SOL     OW34537   0.599   3.095  14.207 -0.0111 -0.6794 -0.1973
 7692SOL    HW134538   0.647   3.016  14.180 -1.8483 -1.3477 -1.5434
 7692SOL    HW234539   0.662   3.155  14.167  1.6292 -1.7856  0.7189
 7693SOL     OW34540   3.073   2.663   7.173  0.8226  0.0575 -0.1204
 7693SOL    HW134541   3.010   2.640   7.105 -1.8525  2.1288  1.6506
 7693SOL    HW234542   3.025   2.706   7.243  2.7906  1.8846  0.0805
 7694SOL     OW34543   3.017   3.863   5.914 -0.2323  0.3062 -0.0387
 7694SOL    HW134544   3.058   3.782   5.946  1.0721  1.3752  0.9872
 7694SOL    HW234545   3.078   3.932   5.941  0.3632 -0.4924  0.6580
 7695SOL     OW34546   4.162   4.239  14.629 -0.3432 -0.0126 -0.3074
 7695SOL    HW134547   4.086   4.253  14.684 -0.6065 -2.3880 -0.0479
 7695SOL    HW234548   4.122   4.208  14.547 -1.1716 -0.2822  0.2009
 7696SOL     OW34549   2.005   3.451   6.667 -0.0053 -0.2936  0.1142
 7696SOL    HW134550   1.911   3.459   6.649 -0.0103 -0.9136 -0.1417
 7696SOL    HW234551   1.997   3.409   6.753  0.4334  1.3482  0.9527
 7697SOL     OW34552   4.358   1.095   7.257 -0.5103  0.2070  0.2270
 7697SOL    HW134553   4.446   1.100   7.294 -0.7337  0.3898  0.7366
 7697SOL    HW234554   4.349   1.004   7.227 -1.7127  0.8843 -1.4346
 7698SOL     OW34555   4.195   0.650   6.081  0.2025  0.7371 -0.0816
 7698SOL    HW134556   4.202   0.568   6.032  0.7271  0.8147 -0.1424
 7698SOL    HW234557   4.278   0.697   6.076  0.1719  0.9079  1.0099
 7699SOL     OW34558   2.570   2.708   5.535 -0.3952 -0.4939 -0.3659
 7699SOL    HW134559   2.608   2.634   5.488  1.4398 -0.1524  0.5664
 7699SOL    HW234560   2.601   2.787   5.491  0.3298 -0.6489 -0.1389
 7700SOL     OW34561   1.707   0.395   0.736 -0.2327 -0.6578  0.0202
 7700SOL    HW134562   1.693   0.364   0.825 -0.8626 -0.8037 -0.1310
 7700SOL    HW234563   1.686   0.487   0.753 -1.7256 -0.9776 -0.0876
 7701SOL     OW34564   3.148   3.541  14.868 -0.2492 -0.5736 -0.1172
 7701SOL    HW134565   3.205   3.555  14.792  1.5841 -2.7833  0.8485
 7701SOL    HW234566   3.198   3.570  14.943  1.4263  2.3356 -2.3675
 7702SOL     OW34567   4.476   0.471   7.896  0.2998 -0.4565 -0.6085
 7702SOL    HW134568   4.531   0.415   7.951 -1.3916 -1.1392  0.3875
 7702SOL    HW234569   4.535   0.543   7.873 -0.3285  0.6438  1.2559
 7703SOL     OW34570   0.525   0.821   6.632 -0.4019  0.0388  0.3065
 7703SOL    HW134571   0.617   0.835   6.609 -0.0808 -1.9744  0.3156
 7703SOL    HW234572   0.489   0.793   6.548  0.1378  0.0711  0.0633
 7704SOL     OW34573   3.447   4.012   3.314  0.1499 -0.2186  0.6512
 7704SOL    HW134574   3.427   4.087   3.259  0.2264 -2.1941 -2.0953
 7704SOL    HW234575   3.366   4.005   3.364  0.2717 -0.8302  0.7643
 7705SOL     OW34576   3.583   1.860  13.114 -0.0976 -0.2422  0.0638
 7705SOL    HW134577   3.489   1.879  13.111  0.6323  3.4231  0.6863
 7705SOL    HW234578   3.585   1.764  13.113 -1.4686 -0.2807  0.5772
 7706SOL     OW34579   0.259   4.428   6.430 -0.1200  0.0324  0.4956
 7706SOL    HW134580   0.228   4.452   6.342 -0.4331  1.9073  1.1294
 7706SOL    HW234581   0.252   4.511   6.477 -0.4748  0.8781 -1.0374
 7707SOL     OW34582   3.282   2.719   0.500 -0.2322  0.6799  0.3043
 7707SOL    HW134583   3.237   2.715   0.585  0.2277 -1.6411  0.4434
 7707SOL    HW234584   3.273   2.814   0.495  1.8944  0.8707  0.0454
 7708SOL     OW34585   2.898   2.085  13.506 -0.0014  0.4055 -0.0125
 7708SOL    HW134586   2.826   2.134  13.546 -1.6737  0.3601 -3.0195
 7708SOL    HW234587   2.935   2.036  13.580  0.1253  1.1599  0.4300
 7709SOL     OW34588   2.318   3.509   5.006  0.5694  0.3678 -0.5531
 7709SOL    HW134589   2.325   3.596   5.046 -0.6926 -0.9587  2.5716
 7709SOL    HW234590   2.352   3.447   5.071  0.6472 -2.2875 -3.1369
 7710SOL     OW34591   3.679   4.363  16.516 -0.4339 -0.0530  0.6620
 7710SOL    HW134592   3.771   4.388  16.516 -0.5534  0.3921  0.3843
 7710SOL    HW234593   3.664   4.344  16.423 -1.6581  0.2047  0.8027
 7711SOL     OW34594   4.461   1.465   7.031  0.1256 -0.2698  0.7613
 7711SOL    HW134595   4.388   1.522   7.005  0.5622  0.3990  1.0004
 7711SOL    HW234596   4.519   1.520   7.083  0.9224  0.1274 -0.5637
 7712SOL     OW34597   3.887   0.187   3.283 -0.3706  0.1639  0.1802
 7712SOL    HW134598   3.828   0.170   3.210 -0.1494 -1.1368  0.3015
 7712SOL    HW234599   3.955   0.229   3.230 -1.3920  2.6615  0.8365
 7713SOL     OW34600   1.405   2.552   6.251  0.4205  0.1319 -0.0815
 7713SOL    HW134601   1.326   2.551   6.305  1.8153 -0.4336  1.9526
 7713SOL    HW234602   1.371   2.600   6.176  0.4685  1.4043  0.7059
 7714SOL     OW34603   3.147   0.075  17.024 -0.1238  0.1760 -0.7381
 7714SOL    HW134604   3.209   0.006  17.048  0.7811  0.7627 -1.3536
 7714SOL    HW234605   3.118   0.039  16.940 -3.1970 -0.5823  0.6745
 7715SOL     OW34606   3.138   2.944   3.930 -0.1923 -0.8736 -0.4961
 7715SOL    HW134607   3.050   2.951   3.892  0.1845  0.0927 -1.1804
 7715SOL    HW234608   3.198   2.933   3.857 -1.1208 -0.2883 -1.3481
 7716SOL     OW34609   1.660   1.209  15.376 -0.5024  0.4431  0.1774
 7716SOL    HW134610   1.752   1.183  15.382 -1.3135 -2.0160  2.1937
 7716SOL    HW234611   1.634   1.182  15.465 -1.6953  0.9580 -0.0088
 7717SOL     OW34612   1.143   0.516   8.592 -0.2456 -0.2442 -0.3884
 7717SOL    HW134613   1.222   0.483   8.634  0.3314 -0.3379 -1.5351
 7717SOL    HW234614   1.087   0.439   8.580  0.0849 -0.9600  2.7358
 7718SOL     OW34615   1.718   4.443   1.830 -0.8955 -0.0335  0.1621
 7718SOL    HW134616   1.780   4.509   1.798  2.7524 -2.7209  1.6157
 7718SOL    HW234617   1.683   4.473   1.914  1.0718  1.2733  0.5201
 7719SOL     OW34618   3.119   0.736  11.587  0.0623  0.2530  0.1520
 7719SOL    HW134619   3.126   0.809  11.648  1.7158  0.8165 -0.7069
 7719SOL    HW234620   3.031   0.701  11.600  0.0433 -0.2874 -1.4546
 7720SOL     OW34621   1.823   0.097  15.769 -0.3464  0.5800  0.2241
 7720SOL    HW134622   1.789   0.054  15.691  2.5428  0.5993 -1.0439
 7720SOL    HW234623   1.771   0.177  15.775  0.0526  0.8522  0.0402
 7721SOL     OW34624   2.122   3.932   3.040  0.5883 -0.4386  0.4354
 7721SOL    HW134625   2.178   3.987   2.984  1.1336 -3.3366 -1.8922
 7721SOL    HW234626   2.083   3.996   3.099 -3.1342 -0.2447 -2.2563
 7722SOL     OW34627   4.136   2.241   8.722 -0.8129 -0.8514  0.2600
 7722SOL    HW134628   4.120   2.325   8.764 -0.3107  0.2590 -1.7903
 7722SOL    HW234629   4.045   2.216   8.706 -1.6330  1.2074  1.6921
 7723SOL     OW34630   4.024   3.340   5.525  0.0446 -0.0294  0.2918
 7723SOL    HW134631   4.060   3.252   5.510 -0.8601 -0.2283 -0.6777
 7723SOL    HW234632   4.092   3.374   5.584  0.1194  0.5827 -0.1479
 7724SOL     OW34633   3.848   2.356   3.656 -0.0885 -0.7638 -0.0860
 7724SOL    HW134634   3.882   2.435   3.613  0.3915  0.7493  3.0776
 7724SOL    HW234635   3.764   2.384   3.692  1.0091  1.8124  0.4678
 7725SOL     OW34636   1.873   2.103   2.918 -0.5266 -0.1817 -0.5666
 7725SOL    HW134637   1.856   2.108   2.824 -1.6125 -1.8423 -0.4535
 7725SOL    HW234638   1.785   2.111   2.953 -0.2085  0.2958  0.1173
 7726SOL     OW34639   2.635   3.178   7.862  0.0386  0.5388  0.1536
 7726SOL    HW134640   2.578   3.245   7.900 -2.0391 -2.0968  1.6705
 7726SOL    HW234641   2.694   3.235   7.812 -0.0889  1.4208  1.0004
 7727SOL     OW34642   4.198   4.155  14.316 -0.2400  0.2057  0.1815
 7727SOL    HW134643   4.179   4.081  14.259  1.4848 -0.9567  1.1248
 7727SOL    HW234644   4.294   4.157  14.308 -0.3746  1.3209 -1.1861
 7728SOL     OW34645   0.354   4.260   3.263  0.3623  0.1707 -0.0990
 7728SOL    HW134646   0.396   4.222   3.185 -1.2416 -0.3182 -0.7140
 7728SOL    HW234647   0.388   4.209   3.337  0.0872  0.1984  0.0452
 7729SOL     OW34648   4.442   3.712   8.638  0.7660 -0.7973 -0.0953
 7729SOL    HW134649   4.522   3.672   8.673 -0.4465 -0.8288  2.5803
 7729SOL    HW234650   4.428   3.785   8.698 -1.0873 -0.9105 -0.3766
 7730SOL     OW34651   2.117   0.749  15.431 -0.1962  0.2981 -0.0540
 7730SOL    HW134652   2.115   0.684  15.500  1.2447  2.9011  2.4587
 7730SOL    HW234653   2.038   0.728  15.381 -0.0288  2.6811 -1.3685
 7731SOL     OW34654   3.477   1.093  12.082  0.0844 -0.1415 -0.0205
 7731SOL    HW134655   3.486   1.011  12.032 -0.4193  0.7644 -1.5924
 7731SOL    HW234656   3.567   1.120  12.097 -0.1018  0.1767  0.5394
 7732SOL     OW34657   1.446   2.116  15.586  0.8008  0.5892 -0.1004
 7732SOL    HW134658   1.478   2.037  15.542  0.6139  1.3016 -1.5298
 7732SOL    HW234659   1.352   2.108  15.568  1.0965  0.2512 -1.5070
 7733SOL     OW34660   2.128   2.956  10.140 -0.1592  0.8201  0.1667
 7733SOL    HW134661   2.108   2.912  10.222  0.5168  0.4863  0.1449
 7733SOL    HW234662   2.183   2.894  10.092 -1.0154 -0.8713  1.4000
 7734SOL     OW34663   0.443   1.705   4.503  0.6631 -0.2889  0.6579
 7734SOL    HW134664   0.467   1.687   4.412  0.8802  0.9771  0.4619
 7734SOL    HW234665   0.351   1.680   4.510  0.1417  1.1413 -0.9357
 7735SOL     OW34666   3.424   2.745   7.341 -0.3821  1.0330 -0.1382
 7735SOL    HW134667   3.491   2.809   7.317  0.1918  0.1030 -1.0135
 7735SOL    HW234668   3.443   2.733   7.435  1.1808 -0.5144 -0.6576
 7736SOL     OW34669   3.477   3.136   3.541  0.2352 -0.1837  0.7086
 7736SOL    HW134670   3.421   3.213   3.533  1.7334  0.7309 -1.1761
 7736SOL    HW234671   3.481   3.103   3.451 -1.9810  1.9328 -0.1510
 7737SOL     OW34672   1.793   4.429   5.711 -0.6381 -0.8439  0.1716
 7737SOL    HW134673   1.736   4.352   5.711  0.6862 -1.8337 -0.9448
 7737SOL    HW234674   1.732   4.502   5.699 -0.4639 -0.5588  1.0447
 7738SOL     OW34675   0.968   1.089   4.002  0.1297  0.1628 -0.1358
 7738SOL    HW134676   0.945   1.052   3.917  0.7726  1.6436 -0.9564
 7738SOL    HW234677   1.058   1.120   3.989  0.2849  0.3014  1.2263
 7739SOL     OW34678   0.283   3.020   8.290 -0.5041  0.4567  0.1759
 7739SOL    HW134679   0.206   3.004   8.344 -1.1945 -2.1047 -1.5675
 7739SOL    HW234680   0.332   2.938   8.298  1.2578  1.6286  1.3239
 7740SOL     OW34681   1.659   1.472   0.140 -0.1263 -0.2213  0.4523
 7740SOL    HW134682   1.751   1.446   0.137 -0.5736 -1.9360  1.2017
 7740SOL    HW234683   1.672   1.565   0.125  0.9675 -0.0071  2.6929
 7741SOL     OW34684   0.784   3.287   5.858 -0.3191  0.7385  0.1540
 7741SOL    HW134685   0.809   3.290   5.950  0.6646  0.6446 -0.1164
 7741SOL    HW234686   0.716   3.219   5.859 -0.1480  0.5624 -0.7423
 7742SOL     OW34687   4.660   3.625   4.732  0.2741 -0.4690  0.3390
 7742SOL    HW134688   4.674   3.581   4.648 -4.5415 -0.2220 -0.5849
 7742SOL    HW234689   0.026   3.668   4.737  1.0541 -1.9327 -0.3626
 7743SOL     OW34690   4.302   2.883  17.059 -0.3360  0.6360  0.0052
 7743SOL    HW134691   4.335   2.929  17.136  1.5333  1.4353 -1.2915
 7743SOL    HW234692   4.329   2.792  17.077  0.8610  1.1662  0.8785
 7744SOL     OW34693   0.925   1.705  16.603  0.0727 -0.4292  0.0875
 7744SOL    HW134694   0.959   1.623  16.569  0.4608 -0.4006  0.4163
 7744SOL    HW234695   0.834   1.709  16.573  0.1975  3.1463  0.1845
 7745SOL     OW34696   0.972   4.708   6.602 -0.0882  0.5278  0.1866
 7745SOL    HW134697   0.950   0.067   6.552  0.7628 -0.3757 -1.6254
 7745SOL    HW234698   0.888   4.664   6.585 -0.3761  1.8963 -1.8721
 7746SOL     OW34699   0.007   2.514   5.859  0.5011  0.4487 -0.0410
 7746SOL    HW134700   4.638   2.479   5.869  0.5674  0.2542 -0.1326
 7746SOL    HW234701   4.715   2.608   5.847  0.6356  0.5777  0.7939
 7747SOL     OW34702   4.419   2.902   8.096  0.0013  0.7320 -0.1334
 7747SOL    HW134703   4.415   2.836   8.165  0.2127 -1.2458 -1.9963
 7747SOL    HW234704   4.469   2.974   8.135  0.6987 -0.3600  0.9816
 7748SOL     OW34705   2.254   2.918   7.640 -0.6922 -0.1670 -0.0687
 7748SOL    HW134706   2.318   2.904   7.709  0.1151 -2.9722 -1.4064
 7748SOL    HW234707   2.235   3.012   7.648  1.0342  0.1712 -0.0079
 7749SOL     OW34708   2.334   0.878   5.734  0.1428 -0.1233 -0.1907
 7749SOL    HW134709   2.339   0.904   5.642 -0.9066 -1.2593 -0.5714
 7749SOL    HW234710   2.291   0.793   5.725  2.7871 -1.2746 -1.6104
 7750SOL     OW34711   2.218   2.969  13.626  0.2976 -0.3012  0.5024
 7750SOL    HW134712   2.251   3.050  13.586 -0.4531  0.2741  1.0550
 7750SOL    HW234713   2.154   2.943  13.561  0.2637  0.1569  0.3488
 7751SOL     OW34714   2.378   1.063  11.918 -0.0407 -0.4065 -0.0996
 7751SOL    HW134715   2.303   1.007  11.899  1.0819 -1.6765 -0.7542
 7751SOL    HW234716   2.353   1.090  12.007  0.1225  1.5198 -0.6298
 7752SOL     OW34717   0.544   3.716   5.919 -0.3752  0.1676  0.2968
 7752SOL    HW134718   0.495   3.641   5.886  0.6422 -1.0962  1.6974
 7752SOL    HW234719   0.613   3.676   5.971  0.5295  1.4024  0.0459
 7753SOL     OW34720   2.576   2.216   8.885 -0.0436  0.0287 -0.0965
 7753SOL    HW134721   2.544   2.305   8.892  0.3994  0.1769  0.0508
 7753SOL    HW234722   2.576   2.193   8.978  0.0087  2.1312  0.4227
 7754SOL     OW34723   1.132   0.892   8.187 -0.4253  0.6081  0.0127
 7754SOL    HW134724   1.167   0.909   8.274 -0.9489 -2.1030  0.7336
 7754SOL    HW234725   1.118   0.979   8.149  0.4955  1.3730  1.4209
 7755SOL     OW34726   3.542   3.019   9.638 -0.6407 -0.1764 -0.0507
 7755SOL    HW134727   3.598   3.083   9.683 -2.5402  1.0788  0.5026
 7755SOL    HW234728   3.546   2.942   9.695 -1.4180  2.0770  3.0659
 7756SOL     OW34729   4.208   3.278   3.530  0.4928 -0.5333 -0.3223
 7756SOL    HW134730   4.265   3.204   3.548 -1.2002 -1.6169  0.5245
 7756SOL    HW234731   4.122   3.242   3.551  0.6802 -0.1197  1.1588
 7757SOL     OW34732   3.699   0.115  12.844 -0.2135  0.0959  0.2139
 7757SOL    HW134733   3.730   0.025  12.832 -2.6252 -0.7598  0.4032
 7757SOL    HW234734   3.621   0.099  12.791  0.3394  0.7499 -0.7837
 7758SOL     OW34735   1.851   0.069  11.022  0.2888 -0.3898 -0.4406
 7758SOL    HW134736   1.831   4.707  10.976  0.0028 -1.2793  1.2893
 7758SOL    HW234737   1.780   0.070  11.086 -1.0835 -1.3569 -1.9368
 7759SOL     OW34738   4.438   3.246   3.937  0.2756 -0.0508  0.5100
 7759SOL    HW134739   4.424   3.181   3.867 -2.1109  1.5064 -0.4441
 7759SOL    HW234740   4.524   3.223   3.972  0.3851 -1.4053 -0.6407
 7760SOL     OW34741   2.123   0.049   3.276 -0.0720 -0.0340  0.4927
 7760SOL    HW134742   2.075   0.054   3.358  1.4998 -1.2605  1.4643
 7760SOL    HW234743   2.052   0.087   3.223 -2.2588 -1.2367  2.5767
 7761SOL     OW34744   1.758   3.292  13.496  0.0362  0.5423 -0.2418
 7761SOL    HW134745   1.677   3.342  13.507 -1.0681 -1.9287  2.6134
 7761SOL    HW234746   1.767   3.315  13.403  2.9843  1.2710  0.2450
 7762SOL     OW34747   2.833   4.054   8.899  0.1918 -0.4763 -0.5929
 7762SOL    HW134748   2.785   4.005   8.832 -0.0083  0.0143 -0.8058
 7762SOL    HW234749   2.877   4.115   8.840 -1.2968 -0.6764 -1.9218
 7763SOL     OW34750   0.437   4.198   4.536  0.2305  0.8529  0.5818
 7763SOL    HW134751   0.512   4.208   4.477 -0.0460  0.2929  0.1354
 7763SOL    HW234752   0.365   4.191   4.473 -0.0994  1.3627  0.9021
 7764SOL     OW34753   1.066   2.682  15.109 -0.5147  0.0121 -0.0718
 7764SOL    HW134754   1.115   2.764  15.115 -3.1170  1.7501 -2.2724
 7764SOL    HW234755   1.055   2.673  15.203 -2.1477  0.4734 -0.2214
 7765SOL     OW34756   4.636   3.510   8.599  0.8219  0.0830  0.3538
 7765SOL    HW134757   4.560   3.455   8.621  0.2012  0.6809 -0.2806
 7765SOL    HW234758   4.617   3.526   8.506  1.9531  2.3590  0.5209
 7766SOL     OW34759   1.883   1.877   6.928  0.2466  0.1723 -0.1308
 7766SOL    HW134760   1.816   1.829   6.880  0.6167 -1.8742  1.3796
 7766SOL    HW234761   1.942   1.882   6.853 -0.0343 -2.3571 -0.5107
 7767SOL     OW34762   1.283   1.491   5.168  0.1989 -0.9516  0.2057
 7767SOL    HW134763   1.298   1.500   5.074  2.5681  3.0653  1.0029
 7767SOL    HW234764   1.309   1.576   5.201 -1.6028 -0.4921  0.4774
 7768SOL     OW34765   0.553   4.490   2.150  0.1471  0.5156 -0.0085
 7768SOL    HW134766   0.627   4.550   2.142  1.5824 -1.2750 -0.3778
 7768SOL    HW234767   0.543   4.424   2.081  1.7889 -1.5002  1.6708
 7769SOL     OW34768   0.501   1.433   9.208  0.2478  0.5904  0.4766
 7769SOL    HW134769   0.538   1.425   9.295 -0.6932  1.4909  0.9577
 7769SOL    HW234770   0.563   1.371   9.170  0.9499  1.2722  0.5072
 7770SOL     OW34771   0.975   3.315  11.848  0.4215 -0.4228 -0.0096
 7770SOL    HW134772   0.890   3.272  11.858 -0.6402  1.4980 -0.6539
 7770SOL    HW234773   0.971   3.331  11.753 -1.4101  0.4151  0.1967
 7771SOL     OW34774   4.441   0.354  10.311  0.1872 -0.1944 -0.4487
 7771SOL    HW134775   4.510   0.418  10.327 -0.4989  0.7115 -1.0895
 7771SOL    HW234776   4.479   0.277  10.353 -0.6615 -0.3291  0.0661
 7772SOL     OW34777   4.596   2.780   8.593 -0.0642 -0.2209  0.5388
 7772SOL    HW134778   4.531   2.716   8.563  0.6372 -1.3214  1.3608
 7772SOL    HW234779   4.658   2.724   8.640  1.3897  2.7724  2.1801
 7773SOL     OW34780   2.446   0.724   8.583  0.0839 -0.2310 -0.1246
 7773SOL    HW134781   2.471   0.734   8.675  0.4527 -0.8793 -0.1609
 7773SOL    HW234782   2.536   0.721   8.552  0.1659 -0.1591  0.1023
 7774SOL     OW34783   1.992   4.322   4.331  1.3145 -0.1490 -0.2967
 7774SOL    HW134784   2.051   4.367   4.270 -0.8302  0.5167 -1.9072
 7774SOL    HW234785   2.039   4.325   4.414 -0.5146  0.3916  0.7232
 7775SOL     OW34786   4.703   1.276   9.396  0.6043 -0.2989 -0.1083
 7775SOL    HW134787   0.015   1.191   9.365 -2.0087 -0.5364 -2.1304
 7775SOL    HW234788   4.679   1.310   9.310  0.8025  1.2370  0.4412
 7776SOL     OW34789   2.861   0.871   9.608 -0.6217 -0.6489  0.1479
 7776SOL    HW134790   2.851   0.938   9.676  2.6198  1.2808 -1.2871
 7776SOL    HW234791   2.782   0.819   9.623 -0.5640 -0.6865  0.3189
 7777SOL     OW34792   0.030   2.563   8.833  0.1917  0.2843  0.6338
 7777SOL    HW134793   0.073   2.487   8.872 -0.8189  0.7359  2.6705
 7777SOL    HW234794   0.102   2.604   8.786 -1.0825  0.3397 -1.2656
 7778SOL     OW34795   3.539   2.776   8.525  0.1760  0.4321 -0.3985
 7778SOL    HW134796   3.483   2.800   8.451 -0.6441 -3.0810 -0.9334
 7778SOL    HW234797   3.555   2.862   8.564  3.7092  0.2523 -1.4822
 7779SOL     OW34798   1.471   3.023  14.949 -0.0019  0.4575 -0.5385
 7779SOL    HW134799   1.538   2.966  14.911  0.3015  1.6408 -1.7938
 7779SOL    HW234800   1.394   2.987  14.904  0.7219  1.6821 -2.7465
 7780SOL     OW34801   4.592   2.013   9.036  0.2338  0.1071  0.1234
 7780SOL    HW134802   4.531   2.025   9.108  1.9375 -2.9897  2.1048
 7780SOL    HW234803   4.659   2.077   9.061  0.3136 -0.1685  0.6250
 7781SOL     OW34804   2.548   3.505  15.909 -0.1065 -0.6182  0.3496
 7781SOL    HW134805   2.619   3.559  15.945  0.1786 -0.6028 -0.2362
 7781SOL    HW234806   2.515   3.585  15.867  1.2798 -0.0306  0.3765
 7782SOL     OW34807   3.934   2.956   4.031 -0.3688  0.1183  0.3562
 7782SOL    HW134808   3.999   3.014   3.990 -1.3047 -0.0600 -1.3505
 7782SOL    HW234809   3.971   2.933   4.116  0.0975  0.0578  0.1376
 7783SOL     OW34810   3.163   0.841   6.120  0.0527 -0.1850 -0.0540
 7783SOL    HW134811   3.220   0.826   6.044 -1.2025  0.5232 -1.1156
 7783SOL    HW234812   3.093   0.777   6.108  0.3687 -0.6099  0.3488
 7784SOL     OW34813   2.014   1.825  14.423 -0.6632  0.2050  0.4801
 7784SOL    HW134814   2.018   1.734  14.453  0.5788 -0.3304 -1.2687
 7784SOL    HW234815   2.007   1.878  14.502 -3.6792  1.9118 -0.9130
 7785SOL     OW34816   3.605   4.143   5.870 -0.2763 -0.3841 -0.5489
 7785SOL    HW134817   3.660   4.069   5.844 -2.1076 -2.0293  0.1732
 7785SOL    HW234818   3.575   4.113   5.956 -0.8927  0.3795 -0.4992
 7786SOL     OW34819   2.797   3.246   1.122 -0.3529  0.0180 -0.7089
 7786SOL    HW134820   2.840   3.332   1.128  1.0652 -0.5337 -2.8461
 7786SOL    HW234821   2.781   3.241   1.028 -0.6688 -0.1728 -0.6430
 7787SOL     OW34822   3.435   0.056   9.573  0.5080  0.2899  0.5600
 7787SOL    HW134823   3.474   0.050   9.661  1.5835 -2.5622 -0.1068
 7787SOL    HW234824   3.467   0.139   9.538 -2.9201  0.9882 -0.8466
 7788SOL     OW34825   0.950   1.875   1.869 -0.5277  1.1106  0.5159
 7788SOL    HW134826   0.987   1.869   1.957  0.7991  1.9275  0.0218
 7788SOL    HW234827   0.894   1.950   1.889 -1.1265  1.0509 -0.9355
 7789SOL     OW34828   1.517   0.180   5.335 -0.0755 -0.1690  0.1150
 7789SOL    HW134829   1.442   0.218   5.381 -0.3366  0.2225 -0.6338
 7789SOL    HW234830   1.497   0.092   5.368 -0.5259  0.6621  2.0167
 7790SOL     OW34831   0.295   0.215   6.670 -0.4724 -0.2273  0.0972
 7790SOL    HW134832   0.271   0.250   6.756 -1.5883 -0.6834 -0.0197
 7790SOL    HW234833   0.234   0.278   6.632  0.3233  1.2992  1.3891
 7791SOL     OW34834   3.884   2.018   8.165  0.0401  0.7484  0.1209
 7791SOL    HW134835   3.860   2.069   8.242 -1.8810 -2.0094  1.3412
 7791SOL    HW234836   3.857   2.085   8.102 -2.3558  0.6171  1.0106
 7792SOL     OW34837   2.363   1.156   8.040  0.1194 -0.0422 -0.1087
 7792SOL    HW134838   2.353   1.198   8.126 -1.7113 -0.9167  0.1247
 7792SOL    HW234839   2.347   1.067   8.073 -0.0856 -0.5058 -1.4908
 7793SOL     OW34840   0.872   2.115   1.972 -0.1606  0.1723 -0.0589
 7793SOL    HW134841   0.857   2.053   2.043 -2.3549 -0.8695 -1.4094
 7793SOL    HW234842   0.814   2.189   1.989  1.1591  1.0803  0.4435
 7794SOL     OW34843   4.045   0.792  13.792  0.3328 -0.0959  0.7130
 7794SOL    HW134844   3.960   0.801  13.835 -1.5051 -2.8424 -2.3952
 7794SOL    HW234845   4.032   0.829  13.705 -0.5289 -3.0014 -0.3570
 7795SOL     OW34846   1.887   3.632   4.363 -0.0588 -0.2191 -0.0370
 7795SOL    HW134847   1.976   3.659   4.387  0.1573 -0.2534 -0.8046
 7795SOL    HW234848   1.852   3.721   4.359 -0.7815 -0.4118  1.6922
 7796SOL     OW34849   2.354   3.025   8.757  0.2707 -0.6157 -0.3738
 7796SOL    HW134850   2.353   3.117   8.782  0.6682 -0.6484 -0.2369
 7796SOL    HW234851   2.296   3.028   8.682  0.6014  0.3178 -0.5902
 7797SOL     OW34852   3.774   0.354  17.474  0.2069  0.1713  0.4519
 7797SOL    HW134853   3.781   0.404  17.393 -2.2896 -1.5308 -0.8296
 7797SOL    HW234854   3.679   0.341  17.476  0.5722 -2.3508  1.9122
 7798SOL     OW34855   2.341   0.901   7.750  0.1747 -0.3307 -0.1005
 7798SOL    HW134856   2.250   0.898   7.779  0.6218  2.3813  1.5578
 7798SOL    HW234857   2.335   0.894   7.655  1.1165  0.6754 -0.2218
 7799SOL     OW34858   0.603   0.338   7.412 -0.4023  0.3676  0.0142
 7799SOL    HW134859   0.654   0.419   7.415  0.9377 -0.4862  0.2876
 7799SOL    HW234860   0.636   0.278   7.479 -1.1111 -2.7342 -2.3799
 7800SOL     OW34861   2.169   0.518   3.023 -0.7047  0.4073  0.6676
 7800SOL    HW134862   2.108   0.494   2.953 -1.4504  1.3233  1.0069
 7800SOL    HW234863   2.226   0.441   3.028 -1.9367 -0.6180 -0.8287
 7801SOL     OW34864   3.213   1.066   5.104  0.2705  1.1017 -0.9147
 7801SOL    HW134865   3.287   1.068   5.164 -0.2754  1.8994 -0.2552
 7801SOL    HW234866   3.218   1.155   5.069  0.6456  0.9432 -1.2584
 7802SOL     OW34867   1.041   0.222   5.636 -0.4327  0.1739  0.8906
 7802SOL    HW134868   1.000   0.304   5.608 -0.7009 -1.4788 -3.5660
 7802SOL    HW234869   1.032   0.232   5.731  0.6165 -0.0328  1.0104
 7803SOL     OW34870   1.363   4.000   2.870 -0.0933 -0.1827  0.2469
 7803SOL    HW134871   1.337   3.934   2.934  0.1968 -2.2951 -1.8053
 7803SOL    HW234872   1.458   3.992   2.879 -0.1096  0.4107  0.9587
 7804SOL     OW34873   4.294   2.273   3.767  0.2902  0.2579 -0.2343
 7804SOL    HW134874   4.302   2.180   3.789  2.2722  0.8861  1.5977
 7804SOL    HW234875   4.358   2.270   3.696 -1.3914 -0.0782 -1.7557
 7805SOL     OW34876   3.964   3.702   7.527 -0.9671 -0.5015 -0.2373
 7805SOL    HW134877   3.959   3.754   7.447 -0.4662  1.2744  0.8722
 7805SOL    HW234878   4.013   3.623   7.506  0.3379  0.9610 -2.6985
 7806SOL     OW34879   0.309   1.583   6.429  0.2911  0.4420  0.4788
 7806SOL    HW134880   0.337   1.638   6.503 -1.8452 -0.5405  2.0216
 7806SOL    HW234881   0.216   1.569   6.447  0.2688 -0.3822 -0.3439
 7807SOL     OW34882   0.409   2.238   4.346  0.4364 -0.0680 -0.1212
 7807SOL    HW134883   0.501   2.228   4.369  0.4612  1.5911  0.4961
 7807SOL    HW234884   0.400   2.150   4.308 -0.3173 -0.3305  0.6496
 7808SOL     OW34885   1.509   3.094   2.987  0.2448  0.6160  0.5097
 7808SOL    HW134886   1.585   3.060   3.034  1.0673 -0.1013 -1.3258
 7808SOL    HW234887   1.472   3.017   2.943 -0.0386  0.8992  0.2530
 7809SOL     OW34888   2.550   2.136   2.582  0.1873  0.5444  0.2517
 7809SOL    HW134889   2.506   2.182   2.511 -1.3578  0.1866  0.9794
 7809SOL    HW234890   2.536   2.046   2.553 -0.2115  1.2979 -1.8782
 7810SOL     OW34891   0.210   2.450   5.590  0.2766  0.4310 -0.3195
 7810SOL    HW134892   0.165   2.526   5.628 -0.8293 -0.7944  0.8144
 7810SOL    HW234893   0.152   2.442   5.514 -1.2759 -1.1794  1.0355
 7811SOL     OW34894   3.780   4.522  15.125  0.0567  0.0261  0.4878
 7811SOL    HW134895   3.801   4.479  15.042  0.2177 -1.9713  1.5612
 7811SOL    HW234896   3.842   4.480  15.184  0.3268 -1.4337 -0.8343
 7812SOL     OW34897   2.038   2.505   0.208 -0.4864  0.3266  0.2284
 7812SOL    HW134898   2.124   2.474   0.236 -0.2589  0.6263 -0.1411
 7812SOL    HW234899   2.024   2.425   0.157 -0.4011 -0.1795  1.0063
 7813SOL     OW34900   3.980   1.535   7.529  0.1241 -0.4499 -0.7876
 7813SOL    HW134901   4.071   1.512   7.508  0.0834 -0.8987 -0.4628
 7813SOL    HW234902   3.956   1.590   7.455 -0.4073  0.9820  0.4539
 7814SOL     OW34903   0.102   4.576  10.624  0.5647 -0.3859  0.0811
 7814SOL    HW134904   0.051   4.528  10.690 -1.8719  1.5611 -0.3908
 7814SOL    HW234905   0.172   4.614  10.678 -0.2935  1.7155 -0.2959
 7815SOL     OW34906   0.328   2.682  10.993  0.1404 -0.3988 -0.0880
 7815SOL    HW134907   0.280   2.718  10.919  1.8083  1.7831 -0.0717
 7815SOL    HW234908   0.417   2.686  10.958  1.2564 -2.0460  2.5520
 7816SOL     OW34909   4.549   2.479   7.537  0.6232  1.1724 -0.7974
 7816SOL    HW134910   4.570   2.571   7.519 -1.6372  1.9927  0.7412
 7816SOL    HW234911   4.525   2.447   7.450 -1.3737  2.6333 -0.7944
 7817SOL     OW34912   3.494   1.980   7.514 -0.6949 -0.1917  0.4383
 7817SOL    HW134913   3.570   1.947   7.561  0.2722  3.4752  1.4011
 7817SOL    HW234914   3.485   1.908   7.451 -0.1552  1.1716 -1.2082
 7818SOL     OW34915   2.440   2.284   4.344  0.4010  0.4943  0.0709
 7818SOL    HW134916   2.448   2.189   4.354 -1.2854  0.3745  0.3053
 7818SOL    HW234917   2.413   2.293   4.253  4.2935 -2.0571 -1.3549
 7819SOL     OW34918   1.577   4.705   6.463 -0.1143  0.6478  0.0509
 7819SOL    HW134919   1.646   4.697   6.529 -1.6322  0.1917  1.5686
 7819SOL    HW234920   1.607   0.051   6.400 -1.3423  2.9864  1.9435
 7820SOL     OW34921   2.658   1.306   8.652  0.3941  0.0801  0.2297
 7820SOL    HW134922   2.682   1.214   8.641 -1.0037 -0.2307 -0.2203
 7820SOL    HW234923   2.693   1.344   8.571 -0.3934  2.8786  1.2070
 7821SOL     OW34924   2.909   1.374  15.281  0.5874 -0.3030 -1.1097
 7821SOL    HW134925   2.953   1.453  15.249  1.4013  0.2801  1.4048
 7821SOL    HW234926   2.869   1.397  15.365  1.7572 -0.3511 -0.5404
 7822SOL     OW34927   3.848   4.345   9.881 -0.0653 -0.4768 -0.2771
 7822SOL    HW134928   3.818   4.263   9.921 -0.2476 -0.9359 -1.3459
 7822SOL    HW234929   3.944   4.338   9.887 -0.0554 -0.8651 -0.9015
 7823SOL     OW34930   0.819   1.082  11.971  0.4343  0.4379  0.4013
 7823SOL    HW134931   0.888   1.016  11.973 -0.9712 -1.0721 -0.0555
 7823SOL    HW234932   0.766   1.051  11.897 -0.5078 -0.1631  1.3313
 7824SOL     OW34933   0.455   1.699  14.754  0.3661  0.1716 -0.2013
 7824SOL    HW134934   0.538   1.709  14.799  1.3685 -2.0083 -1.5595
 7824SOL    HW234935   0.472   1.754  14.678  4.1920  0.4748  0.9133
 7825SOL     OW34936   2.320   0.369   8.057 -0.4625  0.2650 -0.2040
 7825SOL    HW134937   2.330   0.292   8.111 -0.4801  2.1428  2.4794
 7825SOL    HW234938   2.352   0.331   7.975 -0.4927  0.6308 -0.3899
 7826SOL     OW34939   3.805   2.841   8.400  0.2696 -0.4296  0.2907
 7826SOL    HW134940   3.835   2.891   8.476  2.5248  1.1021 -1.6308
 7826SOL    HW234941   3.754   2.774   8.445 -1.2309  0.6099  0.1378
 7827SOL     OW34942   2.562   1.779   7.546 -0.4213 -0.0628 -0.2578
 7827SOL    HW134943   2.627   1.819   7.489  1.0112 -1.5452  0.3253
 7827SOL    HW234944   2.529   1.848   7.604 -2.1032 -1.4713  0.4749
 7828SOL     OW34945   4.088   0.095   0.588  0.1879 -0.1186  0.2163
 7828SOL    HW134946   4.159   0.031   0.596 -0.1350 -0.3987  0.8800
 7828SOL    HW234947   4.033   0.070   0.514 -1.7603  2.8247  0.6703
 7829SOL     OW34948   4.010   1.112   5.794 -0.5490  0.2995  0.5893
 7829SOL    HW134949   3.984   1.157   5.874 -0.2788 -0.1414  0.9221
 7829SOL    HW234950   3.979   1.023   5.811  1.2904 -0.2237  1.1046
 7830SOL     OW34951   4.051   4.058   2.882  0.2341 -0.1204 -0.0231
 7830SOL    HW134952   4.063   3.974   2.836  0.9951  0.7725 -1.4646
 7830SOL    HW234953   3.961   4.047   2.914 -0.4895  0.8729 -1.6556
 7831SOL     OW34954   2.188   3.237   3.875 -0.6105  1.0613  0.1289
 7831SOL    HW134955   2.093   3.237   3.879 -0.6368 -1.2402 -0.3787
 7831SOL    HW234956   2.214   3.170   3.939  0.4149 -1.5281 -3.0007
 7832SOL     OW34957   1.794   4.168  13.012 -0.3923  0.2275  0.4063
 7832SOL    HW134958   1.858   4.220  12.963  0.6961  0.3749  1.9914
 7832SOL    HW234959   1.843   4.098  13.055 -0.4782 -0.2435 -0.2650
 7833SOL     OW34960   1.299   2.338   2.721 -0.2564 -0.2113  0.4484
 7833SOL    HW134961   1.366   2.287   2.766 -0.0723 -1.0524 -0.7789
 7833SOL    HW234962   1.294   2.423   2.765 -1.9577  0.3046 -0.7371
 7834SOL     OW34963   1.571   3.194   9.797  0.1520  0.1035 -0.4113
 7834SOL    HW134964   1.529   3.135   9.859 -0.4697  0.0583 -0.8848
 7834SOL    HW234965   1.614   3.131   9.738 -0.1234 -1.5140  1.1200
 7835SOL     OW34966   0.119   1.038   9.397  0.1155  0.0880 -0.2573
 7835SOL    HW134967   0.078   0.978   9.335 -0.1510 -1.0763  1.0401
 7835SOL    HW234968   0.159   0.974   9.456 -0.6956 -0.1034  0.0886
 7836SOL     OW34969   1.007   4.323   6.671 -0.3981 -0.0793 -0.1804
 7836SOL    HW134970   0.959   4.406   6.667  1.5586  0.9110 -2.6932
 7836SOL    HW234971   0.929   4.269   6.682  0.7946 -1.1406  3.2276
 7837SOL     OW34972   3.929   0.557   6.566 -0.2050  0.0095  0.1622
 7837SOL    HW134973   3.986   0.568   6.490 -0.4297  1.8568  0.2574
 7837SOL    HW234974   3.979   0.500   6.624 -1.7023 -2.4986 -0.9825
 7838SOL     OW34975   4.366   2.692  14.599 -0.5713  0.0623  0.2067
 7838SOL    HW134976   4.303   2.621  14.615  0.7728 -1.0892  0.4056
 7838SOL    HW234977   4.311   2.754  14.551  2.1815  1.6050 -0.9169
 7839SOL     OW34978   1.473   0.162   3.074 -0.2697  0.0792 -0.3909
 7839SOL    HW134979   1.437   0.251   3.082 -0.6433 -0.1250  0.2147
 7839SOL    HW234980   1.390   0.115   3.081 -0.0965 -0.1610  0.0011
 7840SOL     OW34981   2.768   3.465   8.417  0.5889  0.0065 -0.7058
 7840SOL    HW134982   2.852   3.454   8.461  0.2545  0.5310  0.0709
 7840SOL    HW234983   2.770   3.558   8.397  2.5150  0.6396  2.5085
 7841SOL     OW34984   4.007   1.655  14.758 -0.2437  0.7532  0.0960
 7841SOL    HW134985   4.046   1.586  14.704 -1.9185 -0.1589  0.0544
 7841SOL    HW234986   4.081   1.681  14.813 -0.8271 -0.2704  1.3662
 7842SOL     OW34987   3.828   3.194   2.255  0.8646 -0.4155 -0.2033
 7842SOL    HW134988   3.912   3.217   2.217 -0.3231  0.8590 -2.0161
 7842SOL    HW234989   3.765   3.195   2.184 -0.2247  0.2082  0.7686
 7843SOL     OW34990   2.332   3.028   8.142  0.2286 -0.0955 -0.4189
 7843SOL    HW134991   2.378   3.014   8.059  0.6269 -1.1794 -0.0118
 7843SOL    HW234992   2.355   3.119   8.165  0.1296 -0.2739  0.3725
 7844SOL     OW34993   1.804   2.152  15.948 -0.3118 -0.7325 -0.1016
 7844SOL    HW134994   1.716   2.132  15.916 -0.4419 -1.1992  0.5460
 7844SOL    HW234995   1.803   2.247  15.950 -0.3725 -0.6773 -2.9997
 7845SOL     OW34996   0.589   1.557   9.442 -0.9684  0.9364  0.0505
 7845SOL    HW134997   0.579   1.615   9.518  1.5873 -0.8617  1.7537
 7845SOL    HW234998   0.637   1.614   9.382 -0.3246  0.1316 -0.1966
 7846SOL     OW34999   0.183   3.987   5.468  0.0014  0.0981  0.2126
 7846SOL    HW135000   0.181   3.938   5.386 -0.7536  1.2721 -0.4788
 7846SOL    HW235001   0.273   3.965   5.492 -0.0545  0.1788  0.4924
 7847SOL     OW35002   0.102   3.939  12.234  0.3983 -0.2904 -0.0125
 7847SOL    HW135003   0.172   3.985  12.279  0.5976  0.0144 -0.6230
 7847SOL    HW235004   0.039   4.004  12.265 -1.7092 -2.6329  0.6161
 7848SOL     OW35005   1.277   0.363   9.120  0.0197 -0.0192  0.1686
 7848SOL    HW135006   1.345   0.308   9.081 -1.0188 -1.2699  0.1672
 7848SOL    HW235007   1.311   0.367   9.209 -0.4468 -0.3437  0.3568
 7849SOL     OW35008   1.001   0.861  12.010 -0.3237 -0.4305 -0.2061
 7849SOL    HW135009   1.056   0.860  11.932 -2.1649  1.3312 -1.5345
 7849SOL    HW235010   0.998   0.770  12.039 -1.0511 -0.4202 -0.2330
 7850SOL     OW35011   1.604   4.412   5.406  0.5412  0.1132 -0.4415
 7850SOL    HW135012   1.536   4.348   5.387  0.4919 -0.0934  0.4274
 7850SOL    HW235013   1.689   4.378   5.377  0.9444 -0.8155  1.7870
 7851SOL     OW35014   2.205   0.836   2.725  0.1577  0.3091  0.0278
 7851SOL    HW135015   2.202   0.909   2.787 -0.4979 -2.1748  2.9134
 7851SOL    HW235016   2.143   0.777   2.768 -0.2286  1.0125  0.4389
 7852SOL     OW35017   2.897   0.333   0.203  0.3788 -0.7159 -0.3299
 7852SOL    HW135018   2.946   0.406   0.241 -1.1669  1.9538 -3.5255
 7852SOL    HW235019   2.967   0.268   0.209  1.7697  0.7480 -0.7237
 7853SOL     OW35020   1.478   3.972   6.558  0.2273  0.5726  0.0737
 7853SOL    HW135021   1.389   4.003   6.546 -0.0061 -0.5915 -1.2191
 7853SOL    HW235022   1.480   3.895   6.615  1.0630  0.1345 -0.5438
 7854SOL     OW35023   2.446   3.140   2.208  0.0121  0.1336 -0.5620
 7854SOL    HW135024   2.423   3.083   2.134 -1.9135  0.8149 -0.4919
 7854SOL    HW235025   2.387   3.213   2.189 -1.2186 -0.6958  0.0392
 7855SOL     OW35026   0.446   0.922  17.371  0.1966  0.5494 -0.3650
 7855SOL    HW135027   0.541   0.913  17.384  0.0628 -0.9996 -0.4665
 7855SOL    HW235028   0.444   0.895  17.279 -3.3724  1.4776 -0.5451
 7856SOL     OW35029   1.694   1.155  14.577  0.1788 -0.6877 -0.7761
 7856SOL    HW135030   1.758   1.154  14.506 -0.8331  0.3355 -1.6938
 7856SOL    HW235031   1.639   1.079  14.559 -1.6794  0.8610 -1.5588
 7857SOL     OW35032   3.326   1.314   3.352 -0.0787 -0.4614 -0.0810
 7857SOL    HW135033   3.310   1.229   3.392  0.4230 -1.0001 -1.0225
 7857SOL    HW235034   3.325   1.371   3.428 -0.4706  1.2996 -1.4027
 7858SOL     OW35035   3.771   0.472  17.226 -0.1808 -0.1692 -0.3376
 7858SOL    HW135036   3.701   0.531  17.198 -2.4497 -2.7344 -0.1531
 7858SOL    HW235037   3.746   0.394  17.175 -2.0082  1.6012 -2.1759
 7859SOL     OW35038   1.389   0.659   6.940 -0.1244 -0.2224 -0.1253
 7859SOL    HW135039   1.463   0.679   6.997  0.5541  0.3168 -1.1911
 7859SOL    HW235040   1.349   0.581   6.979 -1.5250 -0.8499 -2.7825
 7860SOL     OW35041   0.941   1.107   2.919  0.6383 -0.5047 -0.1205
 7860SOL    HW135042   0.935   1.042   2.850  0.4437  0.5356 -1.0962
 7860SOL    HW235043   0.854   1.147   2.925  1.0220  0.0983  1.6450
 7861SOL     OW35044   1.995   0.109   5.781  0.1435  0.7824 -0.3173
 7861SOL    HW135045   2.059   0.039   5.794  0.8060  0.8092 -3.4153
 7861SOL    HW235046   1.993   0.126   5.687 -0.9306 -2.4829 -0.8929
 7862SOL     OW35047   0.745   1.589   0.970  0.1051  0.2842  0.3961
 7862SOL    HW135048   0.758   1.632   1.055 -0.0622 -1.4983  1.3154
 7862SOL    HW235049   0.825   1.620   0.928  0.3945 -0.5496  0.3399
 7863SOL     OW35050   2.868   3.355   4.877 -0.7209 -0.1426 -0.1236
 7863SOL    HW135051   2.779   3.389   4.873 -0.4095  0.4269 -2.3972
 7863SOL    HW235052   2.845   3.264   4.861 -2.5220  0.1146  1.0155
 7864SOL     OW35053   2.276   0.003  14.327  0.0686  0.1807  0.1814
 7864SOL    HW135054   2.305   4.672  14.403  0.1789  0.4494  0.3206
 7864SOL    HW235055   2.182   4.705  14.337  0.0756  0.9664  1.7686
 7865SOL     OW35056   1.343   3.883   7.699  0.1779 -0.1546 -0.5106
 7865SOL    HW135057   1.311   3.865   7.787 -0.0711 -1.4361 -0.8624
 7865SOL    HW235058   1.380   3.798   7.675 -0.0220 -0.1711 -0.7595
 7866SOL     OW35059   4.333   3.481   2.275 -0.1006  0.1219 -0.3973
 7866SOL    HW135060   4.319   3.470   2.181  0.5503 -2.4308 -0.2041
 7866SOL    HW235061   4.384   3.406   2.306  0.2042 -0.3649 -2.1186
 7867SOL     OW35062   1.348   0.934   4.600  0.1425  0.1894  0.1266
 7867SOL    HW135063   1.295   0.856   4.590  0.9014 -0.2911 -0.1396
 7867SOL    HW235064   1.416   0.907   4.538 -0.8929  0.1561 -0.9955
 7868SOL     OW35065   2.008   2.954   4.816 -0.3114 -0.6702  0.0460
 7868SOL    HW135066   2.071   3.021   4.790 -2.7093  1.4650 -0.2458
 7868SOL    HW235067   1.992   2.975   4.908 -1.0812  1.6709 -0.6212
 7869SOL     OW35068   2.792   3.302   8.887  0.2220  0.0168  0.0911
 7869SOL    HW135069   2.842   3.281   8.808 -0.6974  1.4881 -0.8706
 7869SOL    HW235070   2.840   3.259   8.958  1.0554 -2.4482 -1.9473
 7870SOL     OW35071   3.757   2.318   5.012  0.3793  0.1481  0.2481
 7870SOL    HW135072   3.679   2.349   4.965 -0.6621 -0.5367  1.4998
 7870SOL    HW235073   3.784   2.255   4.945  2.3503  1.2258  0.0242
 7871SOL     OW35074   1.112   3.399   0.396  0.5532  0.5330  0.3739
 7871SOL    HW135075   1.195   3.422   0.354 -0.1277  1.3898 -0.4949
 7871SOL    HW235076   1.120   3.458   0.471  1.1479  1.5583 -0.4946
 7872SOL     OW35077   0.500   4.035  14.597 -0.4894 -0.0179 -0.3556
 7872SOL    HW135078   0.498   3.945  14.630 -2.0771 -0.1105 -0.6955
 7872SOL    HW235079   0.583   4.031  14.550 -1.0265 -3.1100 -1.0625
 7873SOL     OW35080   1.898   4.129  13.368  0.6601  0.0346 -0.6011
 7873SOL    HW135081   1.957   4.157  13.438 -0.1898  0.1688  0.0685
 7873SOL    HW235082   1.821   4.101  13.417 -0.2799  0.3459 -1.8990
 7874SOL     OW35083   1.728   1.513  12.649 -0.0122  0.7451  0.2002
 7874SOL    HW135084   1.794   1.480  12.588  0.8573  1.5892  0.6701
 7874SOL    HW235085   1.693   1.589  12.601 -0.6367 -0.3571 -1.0779
 7875SOL     OW35086   2.958   2.994   1.925  0.2181 -0.5140  0.7192
 7875SOL    HW135087   2.938   2.915   1.976 -0.4960 -0.8868 -0.1336
 7875SOL    HW235088   2.920   3.062   1.981  0.3886  1.0496 -1.0623
 7876SOL     OW35089   1.885   0.389   4.420 -0.3456  0.6193 -0.1146
 7876SOL    HW135090   1.821   0.323   4.447  0.6961 -0.9274 -1.4209
 7876SOL    HW235091   1.961   0.331   4.428  0.2463  1.6127  1.3104
 7877SOL     OW35092   4.108   4.345   6.059  0.5860 -0.2154 -0.0370
 7877SOL    HW135093   4.046   4.274   6.075  0.9823 -0.5022  0.2312
 7877SOL    HW235094   4.181   4.298   6.020 -0.8035  0.2723 -3.2520
 7878SOL     OW35095   4.711   0.693   1.328 -0.1215 -0.9633 -0.4619
 7878SOL    HW135096   4.669   0.708   1.243 -0.7052 -0.9954 -0.1760
 7878SOL    HW235097   0.053   0.623   1.303 -1.3269 -2.1527 -0.0946
 7879SOL     OW35098   4.306   2.177   5.767 -0.2922  0.4879  0.2901
 7879SOL    HW135099   4.294   2.083   5.755  0.7440  0.2738  0.9557
 7879SOL    HW235100   4.401   2.186   5.779 -0.2366  1.7164 -1.0957
 7880SOL     OW35101   1.018   0.632   7.050  0.4395 -0.1165  0.4569
 7880SOL    HW135102   1.028   0.603   6.959  2.2337 -1.3838  1.0608
 7880SOL    HW235103   0.984   0.719   7.028 -0.3502 -0.8654 -1.2750
 7881SOL     OW35104   3.555   4.186   8.305 -0.3893  0.3835 -0.1649
 7881SOL    HW135105   3.473   4.177   8.353  0.1219  2.2652  1.0508
 7881SOL    HW235106   3.617   4.213   8.372 -1.8405 -0.7370  1.6247
 7882SOL     OW35107   0.743   0.574  12.411  1.0156 -0.0050 -0.4264
 7882SOL    HW135108   0.681   0.533  12.351  0.3316  1.7461 -0.9119
 7882SOL    HW235109   0.774   0.495  12.456 -0.9352 -0.6044 -0.1621
 7883SOL     OW35110   1.351   1.919   2.968  0.7224 -0.0356  0.2169
 7883SOL    HW135111   1.314   1.952   2.886  1.0723 -2.2296 -0.8065
 7883SOL    HW235112   1.309   1.833   2.978  1.0541 -0.1762  0.3850
 7884SOL     OW35113   2.102   3.477   5.343  0.0461 -0.6823 -0.0036
 7884SOL    HW135114   2.163   3.548   5.323 -0.5847 -0.0653  0.2625
 7884SOL    HW235115   2.127   3.458   5.434  0.8550 -2.2103 -0.5360
 7885SOL     OW35116   2.127   2.092  10.285 -0.4341 -0.3374 -0.1963
 7885SOL    HW135117   2.083   2.155  10.343  1.2623  1.0745 -0.4782
 7885SOL    HW235118   2.157   2.029  10.350 -0.6584  2.0853  2.2887
 7886SOL     OW35119   3.239   4.006   6.014 -0.3723 -0.3761 -0.1054
 7886SOL    HW135120   3.294   3.943   5.966  4.0565  3.2621  0.2192
 7886SOL    HW235121   3.254   3.973   6.103 -1.6883  0.8672  0.5847
 7887SOL     OW35122   1.473   0.733   0.131 -0.1750 -0.6385 -0.3588
 7887SOL    HW135123   1.536   0.756   0.200  0.0711 -0.6912 -0.5633
 7887SOL    HW235124   1.528   0.749   0.054 -2.7610  1.2345 -1.7948
 7888SOL     OW35125   4.307   2.052   1.991 -0.1745  0.3145 -0.5103
 7888SOL    HW135126   4.326   2.140   1.958  2.2744  0.7181  2.0166
 7888SOL    HW235127   4.386   2.030   2.040 -0.9218  0.9371  0.9747
 7889SOL     OW35128   0.282   1.683   7.299 -0.1581  0.7131  0.1314
 7889SOL    HW135129   0.357   1.725   7.256  0.1247  0.8659  0.7818
 7889SOL    HW235130   0.233   1.765   7.307 -3.1407 -0.9300 -1.7058
 7890SOL     OW35131   1.465   4.335   6.793 -0.2966  0.3301  0.4047
 7890SOL    HW135132   1.371   4.314   6.794  0.1468 -1.5436  1.9078
 7890SOL    HW235133   1.460   4.429   6.813 -2.0329  0.3581 -0.1302
 7891SOL     OW35134   4.552   3.647   2.394  0.6413  0.3974 -0.1039
 7891SOL    HW135135   4.614   3.644   2.321  1.2163  0.7570  0.3652
 7891SOL    HW235136   4.478   3.600   2.357  1.4791  0.6846 -2.1694
 7892SOL     OW35137   1.619   3.446   4.009 -0.5558  0.9303  0.2173
 7892SOL    HW135138   1.671   3.416   3.935  0.1851  1.3978  0.5475
 7892SOL    HW235139   1.682   3.483   4.071 -0.6133  1.7172 -0.1970
 7893SOL     OW35140   3.824   0.531   4.492 -0.0020  0.2872 -0.5603
 7893SOL    HW135141   3.737   0.572   4.490 -0.0430  0.3420  2.8146
 7893SOL    HW235142   3.876   0.610   4.505 -1.9193  1.1915  1.5798
 7894SOL     OW35143   4.180   0.993  13.554 -0.1074  0.4805 -0.3344
 7894SOL    HW135144   4.230   0.999  13.636 -0.4925 -3.8180  0.2209
 7894SOL    HW235145   4.223   0.918  13.512 -3.0099 -0.6239 -1.3015
 7895SOL     OW35146   0.388   2.944   4.766 -0.0475  0.4407  0.3361
 7895SOL    HW135147   0.453   3.014   4.764  1.6407 -1.1606 -1.0547
 7895SOL    HW235148   0.337   2.979   4.839  0.4540  0.2693  0.7690
 7896SOL     OW35149   3.338   0.084   7.655 -0.3541  0.0734  0.7786
 7896SOL    HW135150   3.406   0.127   7.602 -1.0082  0.8951  0.6100
 7896SOL    HW235151   3.375   0.095   7.742  1.9224  1.1580 -0.3302
 7897SOL     OW35152   0.757   2.422   9.679  0.5023 -0.0924 -0.4289
 7897SOL    HW135153   0.696   2.412   9.752  4.3910  1.1430  2.9887
 7897SOL    HW235154   0.698   2.445   9.608 -0.4221 -2.4543 -0.4480
 7898SOL     OW35155   2.073   3.402  15.518 -0.1755 -0.2623 -0.6503
 7898SOL    HW135156   2.143   3.341  15.496  0.0698  0.1420 -1.0056
 7898SOL    HW235157   2.108   3.481  15.477 -0.9360  1.0651  1.2319
 7899SOL     OW35158   1.247   0.896   9.358 -0.7532 -0.2295 -0.3345
 7899SOL    HW135159   1.243   0.974   9.413 -0.7061  0.6516 -1.5800
 7899SOL    HW235160   1.312   0.844   9.406 -0.5200  0.2065 -0.1832
 7900SOL     OW35161   0.194   3.924  10.196 -0.3320  0.2944  0.0738
 7900SOL    HW135162   0.216   3.909  10.104 -1.6273  0.9176 -0.3483
 7900SOL    HW235163   0.112   3.972  10.182 -0.1619  0.6545  0.2959
 7901SOL     OW35164   2.106   2.074   0.280  0.1276  0.8909  0.0041
 7901SOL    HW135165   2.095   2.060   0.374 -3.3990 -1.7404 -0.8090
 7901SOL    HW235166   2.190   2.033   0.261 -0.2950  0.8727 -1.8209
 7902SOL     OW35167   4.671   2.446   6.911 -0.5198  0.1369  0.4035
 7902SOL    HW135168   4.582   2.470   6.886 -1.4157 -2.6357  0.8827
 7902SOL    HW235169   4.690   2.502   6.985 -1.6302  0.2762  0.5827
 7903SOL     OW35170   4.285   1.027   4.975 -0.2386 -0.0285 -0.2721
 7903SOL    HW135171   4.278   0.934   4.958  0.3315 -0.0209 -0.5389
 7903SOL    HW235172   4.205   1.053   4.929 -0.9328  1.2452  1.6030
 7904SOL     OW35173   4.661   0.525  10.403  0.3503  0.5071  0.1919
 7904SOL    HW135174   4.701   0.555  10.322 -1.1623  0.5077 -0.5453
 7904SOL    HW235175   0.008   0.461  10.428 -1.4510 -1.3693  0.2036
 7905SOL     OW35176   2.947   1.307   9.100 -0.4990 -0.0703  0.2164
 7905SOL    HW135177   2.936   1.393   9.140 -3.0687 -0.4246  0.2560
 7905SOL    HW235178   3.042   1.296   9.106 -0.3810  0.6981 -0.1680
 7906SOL     OW35179   1.586   1.837  16.870  0.2513 -0.2754 -0.0600
 7906SOL    HW135180   1.516   1.772  16.861  1.6198 -2.1073  2.5076
 7906SOL    HW235181   1.536   1.907  16.912 -0.0910 -0.8285  0.4574
 7907SOL     OW35182   1.456   1.751   9.088 -1.2455  0.1446  0.1398
 7907SOL    HW135183   1.378   1.707   9.123 -2.2672  0.7786 -1.3700
 7907SOL    HW235184   1.509   1.674   9.067 -2.3338 -1.0048  1.5484
 7908SOL     OW35185   4.512   4.631   6.325 -0.8497  0.3930 -0.4531
 7908SOL    HW135186   4.480   4.620   6.235  2.3512 -0.9974 -1.4104
 7908SOL    HW235187   4.589   4.683   6.307 -1.5334  1.5701  0.0186
 7909SOL     OW35188   2.148   0.635   7.418  0.0086  0.2423  0.2489
 7909SOL    HW135189   2.103   0.703   7.467  1.9963  1.4310  0.4063
 7909SOL    HW235190   2.241   0.656   7.417 -0.5757  2.7418  0.0558
 7910SOL     OW35191   4.255   0.433   0.932 -0.4856  0.1123 -0.2312
 7910SOL    HW135192   4.288   0.511   0.887  3.5539 -2.1891 -1.2260
 7910SOL    HW235193   4.225   0.378   0.860 -0.4666  0.1163 -0.2421
 7911SOL     OW35194   1.431   4.020  13.371 -0.5310 -0.2755 -0.1985
 7911SOL    HW135195   1.507   4.056  13.327 -0.4320  1.3290  1.2763
 7911SOL    HW235196   1.374   4.093  13.346 -1.8332 -0.6713  1.5724
 7912SOL     OW35197   0.764   2.341  10.181 -0.4860 -0.0415  0.2156
 7912SOL    HW135198   0.844   2.364  10.133 -0.4377  0.7577  0.6992
 7912SOL    HW235199   0.786   2.251  10.206  0.9433 -0.0352 -0.9802
 7913SOL     OW35200   3.360   4.317  14.604 -0.3537 -0.1561  0.1790
 7913SOL    HW135201   3.410   4.301  14.684 -2.3229  1.1256  1.6911
 7913SOL    HW235202   3.333   4.409  14.611 -1.9932 -0.7229  1.4545
 7914SOL     OW35203   1.795   4.663  13.626 -0.5618 -0.6982 -0.1525
 7914SOL    HW135204   1.825   0.014  13.569  0.0539 -1.6365 -1.0034
 7914SOL    HW235205   1.862   4.595  13.619  0.2789 -0.0490  1.5886
 7915SOL     OW35206   1.730   3.470   6.597  0.0402 -0.5497  0.1816
 7915SOL    HW135207   1.637   3.463   6.618  0.2621 -0.8553  1.0638
 7915SOL    HW235208   1.731   3.565   6.584 -0.9700 -0.1511  2.8340
 7916SOL     OW35209   2.886   4.290   6.970 -0.2485 -0.0685  0.1563
 7916SOL    HW135210   2.977   4.320   6.977  0.8265 -3.0465 -0.7935
 7916SOL    HW235211   2.868   4.264   7.061  1.3545 -0.5899  0.3272
 7917SOL     OW35212   3.106   3.615   1.933  0.3604 -0.4280 -0.8717
 7917SOL    HW135213   3.055   3.546   1.976  2.1713 -0.1489  1.7116
 7917SOL    HW235214   3.197   3.585   1.942 -0.1271 -2.8229 -4.0030
 7918SOL     OW35215   4.270   4.244   3.253  0.8242  0.0218  0.1173
 7918SOL    HW135216   4.184   4.228   3.291  1.1836  2.2914  1.8865
 7918SOL    HW235217   4.315   4.163   3.276 -1.1120 -1.3333 -0.9081
 7919SOL     OW35218   2.412   0.135  15.047 -0.1473  0.3836 -0.2669
 7919SOL    HW135219   2.422   0.229  15.063 -0.6388  0.2752  0.7217
 7919SOL    HW235220   2.502   0.110  15.029 -0.0235  1.3112 -0.9175
 7920SOL     OW35221   1.929   4.448  10.659  0.2015 -0.4279 -0.1178
 7920SOL    HW135222   1.852   4.409  10.618  0.5293 -0.7412 -0.4331
 7920SOL    HW235223   1.892   4.461  10.747 -2.9021  2.4075 -1.8424
 7921SOL     OW35224   4.387   4.605   0.658  0.3516 -0.0547  0.2007
 7921SOL    HW135225   4.318   4.560   0.705 -0.0104  1.7474  1.3878
 7921SOL    HW235226   4.463   4.608   0.716  2.8751  1.4741 -3.1948
 7922SOL     OW35227   2.529   2.620   6.916 -0.2105 -0.2780  0.0155
 7922SOL    HW135228   2.594   2.556   6.887  0.2119  0.6793 -1.1187
 7922SOL    HW235229   2.453   2.562   6.918  0.3399 -1.0076 -0.1515
 7923SOL     OW35230   3.533   4.271   9.881  0.0874  0.2139 -0.3420
 7923SOL    HW135231   3.582   4.333   9.827 -0.1902  1.8039  1.2635
 7923SOL    HW235232   3.517   4.328   9.956  2.1216 -1.2406  1.1790
 7924SOL     OW35233   1.635   2.306   7.145  0.0229 -0.1891  0.0421
 7924SOL    HW135234   1.672   2.221   7.119  1.0465 -0.1217  1.3353
 7924SOL    HW235235   1.675   2.323   7.229 -0.8499  0.7525  0.2585
 7925SOL     OW35236   2.231   4.683   4.658 -0.0422  0.7743 -0.0890
 7925SOL    HW135237   2.259   4.623   4.589  0.1638  0.6517  0.1019
 7925SOL    HW235238   2.233   4.620   4.730  0.7405  0.4078 -0.4354
 7926SOL     OW35239   2.346   1.909   5.470 -0.1037  0.0449  0.0550
 7926SOL    HW135240   2.372   1.997   5.497  2.0691 -1.1225  1.7121
 7926SOL    HW235241   2.427   1.859   5.478 -0.2361 -0.4100 -1.4119
 7927SOL     OW35242   4.523   0.240   2.766 -0.6771  0.7515 -0.1459
 7927SOL    HW135243   4.451   0.185   2.799 -0.4316 -1.2321 -2.9270
 7927SOL    HW235244   4.584   0.237   2.840  0.5239 -1.2654 -1.2145
 7928SOL     OW35245   3.666   4.540   0.577  0.0031 -0.5853  0.7085
 7928SOL    HW135246   3.641   4.452   0.606 -2.7867  0.2578  0.9107
 7928SOL    HW235247   3.679   4.584   0.661  0.4750 -1.2686  0.9954
 7929SOL     OW35248   1.469   1.101   6.504  0.5857 -0.0788 -0.2624
 7929SOL    HW135249   1.426   1.031   6.553  0.6604  0.5806  0.7395
 7929SOL    HW235250   1.400   1.165   6.517  0.3500 -0.9633  2.7647
 7930SOL     OW35251   4.353   3.248   8.123 -0.0672  0.5592 -0.2208
 7930SOL    HW135252   4.391   3.223   8.207  0.0733  0.3714 -0.3394
 7930SOL    HW235253   4.264   3.216   8.132  0.5447 -0.9331  0.4193
 7931SOL     OW35254   2.971   0.073  10.121 -0.7554  0.1244  0.0219
 7931SOL    HW135255   3.066   0.081  10.133 -0.4441 -0.0668 -2.2790
 7931SOL    HW235256   2.966   0.101  10.030 -0.2503  1.5236  0.4271
 7932SOL     OW35257   3.330   1.330   7.632 -0.1451 -0.3289 -0.1315
 7932SOL    HW135258   3.403   1.340   7.693 -1.2493 -1.9405  1.4314
 7932SOL    HW235259   3.323   1.421   7.600  2.0660 -0.2353 -0.3315
 7933SOL     OW35260   1.990   2.341   2.636 -0.0692  0.1295 -0.2933
 7933SOL    HW135261   1.993   2.382   2.549  1.3203  2.4286  0.8281
 7933SOL    HW235262   2.048   2.399   2.685 -1.2726  1.4036 -0.3542
 7934SOL     OW35263   1.244   0.739   7.257  0.2612 -0.0788 -0.2502
 7934SOL    HW135264   1.183   0.703   7.192 -0.0567 -0.4836  0.2704
 7934SOL    HW235265   1.272   0.821   7.218 -0.2015 -0.4909 -1.4767
 7935SOL     OW35266   2.936   2.622  17.230 -0.7085  0.3239  0.0197
 7935SOL    HW135267   2.917   2.710  17.196 -0.2124  1.5715  2.9432
 7935SOL    HW235268   2.940   2.637  17.325 -1.9975 -0.4861  0.1959
 7936SOL     OW35269   1.271   2.215   7.195 -0.1465  0.2673  0.2186
 7936SOL    HW135270   1.356   2.170   7.190  0.0384  0.5039  1.1631
 7936SOL    HW235271   1.235   2.186   7.111 -0.5774  3.3100 -0.6201
 7937SOL     OW35272   1.320   2.226   4.921  0.2163 -0.2756 -0.1300
 7937SOL    HW135273   1.369   2.307   4.930  0.8390 -0.8451  1.6583
 7937SOL    HW235274   1.230   2.246   4.948  0.0771 -2.0918  0.7906
 7938SOL     OW35275   1.238   3.234   8.818 -0.1425  0.1493  0.0351
 7938SOL    HW135276   1.145   3.241   8.838 -0.0167 -1.5351  1.2474
 7938SOL    HW235277   1.246   3.141   8.842  3.1103  0.0550 -1.3977
 7939SOL     OW35278   1.961   3.181   0.049 -0.0320 -0.0257 -0.1039
 7939SOL    HW135279   1.880   3.136   0.027 -1.4911  0.8885  3.4234
 7939SOL    HW235280   1.996   3.109   0.101 -1.0660 -0.1942  0.3591
 7940SOL     OW35281   4.501   2.051  11.914  1.2306  0.1832  0.0830
 7940SOL    HW135282   4.554   2.044  11.834  2.3604  1.1005  0.7555
 7940SOL    HW235283   4.546   2.015  11.990  0.7333 -3.1001 -1.1445
 7941SOL     OW35284   1.840   4.637   4.724 -0.4248  0.8017 -0.4062
 7941SOL    HW135285   1.912   4.700   4.717 -0.0693  0.7284  2.6488
 7941SOL    HW235286   1.837   4.601   4.635 -0.8029  0.8880 -0.4273
 7942SOL     OW35287   4.541   0.912  16.018 -0.0618 -0.7034  0.4631
 7942SOL    HW135288   4.492   0.934  16.098  0.1366 -1.6082  0.8396
 7942SOL    HW235289   4.471   0.892  15.956 -0.7860  1.9784  0.4355
 7943SOL     OW35290   0.581   0.239   0.134 -0.4381  0.3524 -0.0735
 7943SOL    HW135291   0.574   0.331   0.161 -1.4656 -0.7373  3.3662
 7943SOL    HW235292   0.571   0.242   0.039  0.4900 -0.7224 -0.2072
 7944SOL     OW35293   4.262   2.678   8.151 -0.6791  0.0111  0.1919
 7944SOL    HW135294   4.205   2.602   8.148 -0.4660 -0.1221 -0.4701
 7944SOL    HW235295   4.259   2.700   8.244 -0.0782 -0.6528  0.3683
 7945SOL     OW35296   0.144   1.178   2.403  0.1140  0.2834  0.0765
 7945SOL    HW135297   0.157   1.231   2.324  1.9595 -0.5283 -0.1643
 7945SOL    HW235298   0.056   1.204   2.431 -0.5446 -2.0261  0.0809
 7946SOL     OW35299   0.108   4.003  13.556  0.4333  0.0556 -0.5006
 7946SOL    HW135300   0.124   3.923  13.505 -0.9320 -0.8138  0.4285
 7946SOL    HW235301   0.030   4.025  13.504  0.5804  0.6732 -0.4551
 7947SOL     OW35302   4.632   2.117   4.900 -0.7566  0.2149  0.0590
 7947SOL    HW135303   4.607   2.045   4.957 -2.3175  0.4146 -0.3617
 7947SOL    HW235304   4.703   2.155   4.951 -0.0288 -0.2956 -0.5827
 7948SOL     OW35305   4.384   3.446  13.246  0.7474 -0.5949  0.8228
 7948SOL    HW135306   4.374   3.456  13.341 -0.6141 -0.9145  0.7115
 7948SOL    HW235307   4.480   3.440  13.247  0.7117 -1.0320  2.0737
 7949SOL     OW35308   3.857   3.810  13.586 -0.4143  0.2685 -0.0957
 7949SOL    HW135309   3.866   3.888  13.640 -2.2206  0.3447  0.0803
 7949SOL    HW235310   3.863   3.736  13.648 -0.5831  1.4244  1.3030
 7950SOL     OW35311   1.429   0.152   7.764  0.3953  0.3410 -0.7412
 7950SOL    HW135312   1.420   0.127   7.856 -0.0001  0.9904 -0.5971
 7950SOL    HW235313   1.433   0.068   7.719  1.3723  0.8701 -1.6385
 7951SOL     OW35314   4.427   3.795  17.149 -0.8940  0.2763 -0.0890
 7951SOL    HW135315   4.370   3.745  17.091  0.4460 -0.3380 -0.8732
 7951SOL    HW235316   4.439   3.870  17.090  0.1488  0.0833 -0.1173
 7952SOL     OW35317   0.897   0.597  13.060  0.5320  0.0349  0.8112
 7952SOL    HW135318   0.883   0.679  13.013 -0.2509 -0.3667  0.3603
 7952SOL    HW235319   0.826   0.589  13.124  0.7216  0.5646  1.0942
 7953SOL     OW35320   2.871   4.153   0.668 -0.6170  0.1179  0.3864
 7953SOL    HW135321   2.933   4.209   0.716 -0.6806  0.4323  0.1012
 7953SOL    HW235322   2.797   4.214   0.663  0.6696  1.5879 -0.8069
 7954SOL     OW35323   3.681   3.970   4.368 -0.9354  0.0769  0.4163
 7954SOL    HW135324   3.718   4.054   4.343 -0.7109 -0.6540 -1.6681
 7954SOL    HW235325   3.592   3.998   4.391 -0.6774 -0.7287  2.4756
 7955SOL     OW35326   3.739   2.048   8.430 -0.5957  0.0078 -0.2075
 7955SOL    HW135327   3.810   2.028   8.491 -0.6614  0.9420  0.1735
 7955SOL    HW235328   3.674   2.064   8.499 -0.1477  1.0332 -0.0255
 7956SOL     OW35329   0.660   2.163   3.879 -0.7049  0.2666 -0.0234
 7956SOL    HW135330   0.746   2.198   3.899  0.0571 -1.3640 -0.3867
 7956SOL    HW235331   0.688   2.078   3.844  0.7900  0.8783 -0.2864
 7957SOL     OW35332   3.170   1.367   1.017 -0.3573 -0.4046  0.0972
 7957SOL    HW135333   3.155   1.276   1.045 -3.7180  0.3125  0.5807
 7957SOL    HW235334   3.167   1.364   0.922 -0.4345 -0.0332  0.0890
 7958SOL     OW35335   2.956   4.289  11.262  0.4886 -0.1202 -0.0233
 7958SOL    HW135336   3.035   4.315  11.216 -1.0181  1.3961 -1.7348
 7958SOL    HW235337   2.880   4.315  11.210  0.9368  1.5071  0.1427
 7959SOL     OW35338   0.640   3.747  17.255 -0.0333  0.3259 -0.3733
 7959SOL    HW135339   0.693   3.814  17.211  2.7035 -1.0079  0.8638
 7959SOL    HW235340   0.599   3.792  17.329 -1.2819 -1.8634  0.2529
 7960SOL     OW35341   1.632   0.360   8.514 -0.9028  0.6932  0.0350
 7960SOL    HW135342   1.638   0.400   8.428 -2.4296 -0.7990 -0.7711
 7960SOL    HW235343   1.650   0.270   8.488  1.5197  1.1628  0.1046
 7961SOL     OW35344   0.257   0.083   8.065 -0.2234  0.0722  0.1970
 7961SOL    HW135345   0.319   0.021   8.104 -0.9163 -1.2633 -0.8264
 7961SOL    HW235346   0.255   0.155   8.127 -1.1565 -0.0191  0.2676
 7962SOL     OW35347   3.144   0.187   6.359  0.9735 -0.1805  0.2268
 7962SOL    HW135348   3.196   0.106   6.363 -0.0960 -0.9787 -2.0373
 7962SOL    HW235349   3.082   0.151   6.296 -0.0243  0.8442  0.6229
 7963SOL     OW35350   2.896   2.011   9.715  0.5690  0.1074 -0.4952
 7963SOL    HW135351   2.940   1.999   9.799 -0.4862 -0.5586 -0.0363
 7963SOL    HW235352   2.833   1.938   9.722 -1.7332  2.1508  0.1421
 7964SOL     OW35353   0.775   4.331  12.208  0.2988  0.9229 -0.1196
 7964SOL    HW135354   0.842   4.388  12.171  2.3496 -2.3158 -1.4371
 7964SOL    HW235355   0.830   4.274  12.263 -2.6809 -1.9279 -0.1018
 7965SOL     OW35356   3.102   0.230   0.008  0.1364 -0.0919 -0.1232
 7965SOL    HW135357   3.082   0.310  17.640 -2.0121 -1.9231 -2.2231
 7965SOL    HW235358   3.193   0.221  17.660 -0.2393 -0.0689 -1.2971
 7966SOL     OW35359   2.333   0.967  15.097  0.2320  0.0087  0.5172
 7966SOL    HW135360   2.396   0.959  15.025  0.0036 -1.2278  0.4635
 7966SOL    HW235361   2.387   0.932  15.167  1.5655  0.3755 -0.3361
 7967SOL     OW35362   3.627   1.834   7.954  0.6225 -0.2708 -0.3753
 7967SOL    HW135363   3.540   1.832   7.912  0.5467  2.5920 -0.3857
 7967SOL    HW235364   3.621   1.902   8.022 -0.8058 -0.4497 -0.3076
 7968SOL     OW35365   0.102   1.445   5.169 -0.2356 -0.1828 -0.4193
 7968SOL    HW135366   0.025   1.397   5.137 -0.2240  0.8894 -2.0293
 7968SOL    HW235367   0.112   1.396   5.251  1.2603 -0.6260 -0.8591
 7969SOL     OW35368   2.355   0.978  16.527 -0.3060 -0.1612  0.1406
 7969SOL    HW135369   2.263   0.952  16.536 -0.1729 -0.1305  1.7089
 7969SOL    HW235370   2.363   1.025  16.610  1.0272  0.2046 -0.2051
 7970SOL     OW35371   2.414   2.838   1.710 -0.6348 -0.1820 -0.0851
 7970SOL    HW135372   2.492   2.886   1.737 -0.6291  0.1515 -0.6989
 7970SOL    HW235373   2.376   2.806   1.792  0.3871 -1.7419 -0.2104
 7971SOL     OW35374   3.550   3.040  16.937  0.4160  0.0589 -0.4806
 7971SOL    HW135375   3.479   2.985  16.971 -0.4667  0.3387 -1.8584
 7971SOL    HW235376   3.621   3.010  16.993 -3.2528 -2.5597  2.7727
 7972SOL     OW35377   0.455   1.908   9.216 -0.2586  0.3848 -0.7253
 7972SOL    HW135378   0.466   1.974   9.284 -0.5815 -0.3598  0.0526
 7972SOL    HW235379   0.359   1.904   9.218 -0.3169  1.7200 -0.9848
 7973SOL     OW35380   0.890   1.468   2.004  0.4117 -0.2936 -0.4104
 7973SOL    HW135381   0.918   1.521   1.928  2.4405  0.5560  0.9272
 7973SOL    HW235382   0.962   1.408   2.022  0.7520  0.0588 -0.5734
 7974SOL     OW35383   3.835   4.512   4.907 -0.7701 -0.2084  0.1423
 7974SOL    HW135384   3.884   4.434   4.882  0.2242  1.1949 -2.2458
 7974SOL    HW235385   3.911   4.548   4.952  0.1337  0.0930 -1.6290
 7975SOL     OW35386   0.642   0.857   7.841 -0.2243  0.2021  0.0596
 7975SOL    HW135387   0.646   0.884   7.933  0.1980  0.2474  0.0272
 7975SOL    HW235388   0.654   0.939   7.793  1.9263 -1.1874 -1.7163
 7976SOL     OW35389   3.253   2.320   3.129  0.7139 -0.2134  0.1990
 7976SOL    HW135390   3.304   2.251   3.085 -1.4634 -1.5456 -0.2251
 7976SOL    HW235391   3.224   2.347   3.042 -1.6379 -1.0204  0.7425
 7977SOL     OW35392   0.447   1.863   1.311  0.3918 -0.3134 -0.3169
 7977SOL    HW135393   0.446   1.851   1.216  0.5448 -0.9572 -0.2343
 7977SOL    HW235394   0.361   1.903   1.325  0.4996  0.6930 -2.5767
 7978SOL     OW35395   1.810   3.844  12.101 -0.3095 -0.1458 -0.1200
 7978SOL    HW135396   1.884   3.811  12.049  2.4251  4.2552  1.0019
 7978SOL    HW235397   1.845   3.834  12.190 -0.0974  0.7943 -0.0999
 7979SOL     OW35398   2.810   2.583   6.807  0.0827 -0.3121 -0.2172
 7979SOL    HW135399   2.789   2.491   6.823  0.6454 -0.1898  1.2023
 7979SOL    HW235400   2.811   2.604   6.900  0.4342  1.2125 -0.5621
 7980SOL     OW35401   0.101   2.675   3.354 -0.2664 -0.0947  0.8447
 7980SOL    HW135402   0.160   2.695   3.281 -1.8770 -0.8954 -0.6764
 7980SOL    HW235403   0.062   2.597   3.315 -3.9439  1.8135  0.6787
 7981SOL     OW35404   2.292   4.504   4.904 -0.1238 -0.0844  0.5160
 7981SOL    HW135405   2.204   4.467   4.890 -0.3028  0.9750 -1.0738
 7981SOL    HW235406   2.316   4.448   4.979 -0.1678 -0.1096  0.5114
 7982SOL     OW35407   2.346   1.011   5.472 -0.2993  0.1591 -0.2769
 7982SOL    HW135408   2.398   1.084   5.506 -1.0826  1.1102 -1.1205
 7982SOL    HW235409   2.262   1.049   5.448 -0.4208 -1.5602 -2.5756
 7983SOL     OW35410   1.439   0.802   9.550 -0.0519  0.0889 -0.1760
 7983SOL    HW135411   1.506   0.737   9.570 -0.7603 -0.0024  1.9869
 7983SOL    HW235412   1.357   0.764   9.582  0.7014 -0.2291  1.4161
 7984SOL     OW35413   1.630   4.385  13.946 -0.1506 -0.3651 -0.7783
 7984SOL    HW135414   1.650   4.300  13.905  0.6654 -1.5710  2.1293
 7984SOL    HW235415   1.538   4.380  13.969  0.0598  1.7475  0.4674
 7985SOL     OW35416   0.891   4.102   7.116 -0.1425  0.0727  0.4443
 7985SOL    HW135417   0.799   4.085   7.132 -0.3880  2.9295  2.0872
 7985SOL    HW235418   0.926   4.088   7.204  1.3179 -1.0600 -0.3174
 7986SOL     OW35419   2.299   4.197  10.635  0.3558  0.1264 -0.3115
 7986SOL    HW135420   2.391   4.185  10.662  1.0121 -0.0873 -2.6816
 7986SOL    HW235421   2.258   4.136  10.697  0.1441 -1.3728 -1.9418
 7987SOL     OW35422   0.644   4.393   4.242  0.4751  0.6550  0.4686
 7987SOL    HW135423   0.626   4.359   4.329  0.8350 -1.2811 -0.2052
 7987SOL    HW235424   0.691   4.324   4.195 -1.1755 -0.9801  1.1879
 7988SOL     OW35425   2.531   2.372   3.212  0.2523 -0.7354 -0.1969
 7988SOL    HW135426   2.546   2.445   3.271 -0.4604 -1.5160  0.9345
 7988SOL    HW235427   2.441   2.344   3.230 -0.4420 -1.3512 -4.5951
 7989SOL     OW35428   0.561   2.543   4.806 -0.2676  0.0540  0.1589
 7989SOL    HW135429   0.577   2.472   4.743 -0.2375  0.0799  0.1377
 7989SOL    HW235430   0.532   2.617   4.753 -1.1894  1.0068  2.0217
 7990SOL     OW35431   0.603   2.431  16.007 -0.1186 -0.8422 -0.4616
 7990SOL    HW135432   0.694   2.411  15.990  1.3887  3.5392  2.1922
 7990SOL    HW235433   0.566   2.343  16.005 -0.0230 -0.9561  1.9064
 7991SOL     OW35434   1.972   3.279  16.491  0.0301 -0.3150  0.0143
 7991SOL    HW135435   2.016   3.198  16.465 -0.1370  1.3175 -5.2773
 7991SOL    HW235436   1.927   3.255  16.572  2.3678 -1.9052  0.8379
 7992SOL     OW35437   0.955   2.771  13.139 -0.0506  0.0046  0.5298
 7992SOL    HW135438   0.950   2.862  13.110  0.4467 -0.3872 -0.7765
 7992SOL    HW235439   1.045   2.752  13.113 -0.3394 -0.2995 -0.2372
 7993SOL     OW35440   4.477   2.681   4.679  0.0897 -0.3246 -0.3116
 7993SOL    HW135441   4.383   2.698   4.683  0.2500  0.2476  1.0893
 7993SOL    HW235442   4.506   2.707   4.767  2.2454 -1.0310 -0.8210
 7994SOL     OW35443   1.374   2.187   1.199  0.1524 -0.6861 -0.2651
 7994SOL    HW135444   1.454   2.233   1.174 -2.0551  2.2273 -1.8888
 7994SOL    HW235445   1.395   2.162   1.289 -0.6018 -0.8140 -0.1269
 7995SOL     OW35446   2.163   3.154   3.591  0.4053 -0.2376 -1.1387
 7995SOL    HW135447   2.248   3.110   3.581  0.2585 -0.9341  0.7255
 7995SOL    HW235448   2.147   3.150   3.685 -0.3855 -3.0235 -1.3762
 7996SOL     OW35449   4.276   1.027   6.355  0.0601 -0.1366  0.1332
 7996SOL    HW135450   4.194   1.057   6.315 -1.0696 -3.4173  0.0465
 7996SOL    HW235451   4.255   0.990   6.440 -0.4441  0.2242  0.1692
 7997SOL     OW35452   1.584   0.133  16.597  0.1465 -0.0626 -0.1876
 7997SOL    HW135453   1.507   0.161  16.648 -0.3269  0.0097 -0.9383
 7997SOL    HW235454   1.604   0.044  16.627  1.4562 -0.0720 -1.1090
 7998SOL     OW35455   0.319   2.332   4.112 -0.1476  0.0023  0.3417
 7998SOL    HW135456   0.351   2.297   4.195  0.6706  0.9245  0.4176
 7998SOL    HW235457   0.401   2.371   4.081 -0.5093  0.4662 -0.0342
 7999SOL     OW35458   0.888   4.599   3.984  0.8161 -0.4061 -0.5329
 7999SOL    HW135459   0.799   4.567   3.996  0.9582 -1.0043 -1.0643
 7999SOL    HW235460   0.875   4.642   3.899  0.4933  0.7539  0.1081
 8000SOL     OW35461   1.234   1.597   7.403 -0.0242 -0.4975  0.4132
 8000SOL    HW135462   1.277   1.667   7.354 -1.3944  0.8256  1.0821
 8000SOL    HW235463   1.154   1.574   7.355  0.0880  0.9010 -0.4257
 8001SOL     OW35464   1.917   0.971  12.766  0.5355 -0.4914  0.2120
 8001SOL    HW135465   1.991   1.009  12.718  0.2397 -0.8466 -0.5264
 8001SOL    HW235466   1.897   1.052  12.813  1.5113 -0.8258  1.1955
 8002SOL     OW35467   4.257   4.030   6.689  0.7130 -0.0859 -0.8196
 8002SOL    HW135468   4.323   3.980   6.737  0.2682  0.3023  0.2109
 8002SOL    HW235469   4.308   4.104   6.655 -1.5121  0.8422 -2.1697
 8003SOL     OW35470   3.816   4.036   8.678 -0.2358 -0.1448 -0.0862
 8003SOL    HW135471   3.794   4.002   8.764  2.0635  0.4666  0.7407
 8003SOL    HW235472   3.899   3.994   8.655 -0.0275  0.9016 -1.2749
 8004SOL     OW35473   3.402   1.030   7.619 -0.2692 -0.1531 -0.1754
 8004SOL    HW135474   3.445   1.052   7.702  1.4241 -0.3510 -1.0067
 8004SOL    HW235475   3.407   1.113   7.572 -0.8314 -0.4570 -0.7649
 8005SOL     OW35476   2.084   1.065   5.471 -0.2897  0.1119 -0.2785
 8005SOL    HW135477   2.095   0.974   5.442 -0.8421  0.1985 -0.7567
 8005SOL    HW235478   2.010   1.055   5.530 -0.8947  0.7910 -0.9199
 8006SOL     OW35479   0.160   3.663   9.821 -0.0535  0.3697  0.2769
 8006SOL    HW135480   0.119   3.594   9.874  1.8365 -0.0676  1.1683
 8006SOL    HW235481   0.178   3.624   9.735 -1.0070 -1.1264  0.7570
 8007SOL     OW35482   3.720   3.888   2.620  0.0686 -0.0559  0.0344
 8007SOL    HW135483   3.697   3.946   2.548  1.0566  1.6135  1.0612
 8007SOL    HW235484   3.742   3.805   2.578  1.1976  0.8398 -1.1293
 8008SOL     OW35485   3.728   2.160   5.385 -0.0842 -0.1755  0.4200
 8008SOL    HW135486   3.806   2.142   5.438 -0.2587 -0.6992  0.4999
 8008SOL    HW235487   3.676   2.086   5.417 -3.6655  3.1466  2.2337
 8009SOL     OW35488   2.057   4.311   3.440  0.0770  0.1835 -0.1334
 8009SOL    HW135489   2.139   4.261   3.439  1.4939  2.5369 -1.9549
 8009SOL    HW235490   1.998   4.262   3.384 -0.7292  0.0253  0.8633
 8010SOL     OW35491   2.938   2.775   2.126 -0.3314 -0.1641 -0.0805
 8010SOL    HW135492   2.912   2.690   2.090  0.6794 -0.6518  0.3197
 8010SOL    HW235493   3.033   2.759   2.122 -0.2988  0.2422 -0.7405
 8011SOL     OW35494   3.556   3.130  16.681 -0.9597 -0.1140 -0.2126
 8011SOL    HW135495   3.493   3.201  16.692 -0.0525  0.2012  2.9321
 8011SOL    HW235496   3.544   3.078  16.760 -2.0523  0.5202  0.0332
 8012SOL     OW35497   1.081   2.269  10.373  0.5680 -0.4955 -0.2674
 8012SOL    HW135498   1.118   2.182  10.357  3.0806  0.4769  0.2277
 8012SOL    HW235499   1.046   2.288  10.286 -1.9869  1.2051  1.1370
 8013SOL     OW35500   1.322   2.507   2.479 -1.1584  0.7179 -0.2233
 8013SOL    HW135501   1.230   2.488   2.460 -1.1833  0.2582  0.3847
 8013SOL    HW235502   1.349   2.450   2.551  0.8230  1.3032 -0.4892
 8014SOL     OW35503   0.985   3.911   3.222  0.1292 -0.1357 -0.4886
 8014SOL    HW135504   0.990   3.886   3.130 -0.8632 -0.8520 -0.3376
 8014SOL    HW235505   1.056   3.976   3.227  1.6562 -1.7965 -0.4575
 8015SOL     OW35506   1.265   2.124  15.914  0.3537  0.0876 -0.1983
 8015SOL    HW135507   1.230   2.163  15.834 -0.4217 -0.0151  0.0931
 8015SOL    HW235508   1.221   2.178  15.980 -1.2656 -0.5718 -0.7362
 8016SOL     OW35509   3.405   3.456   1.994 -0.3146 -0.0124 -0.0118
 8016SOL    HW135510   3.488   3.487   2.031 -0.4086  0.2136  0.0130
 8016SOL    HW235511   3.431   3.439   1.904 -1.9389 -0.8072 -0.3129
 8017SOL     OW35512   2.534   2.935   4.683  0.5431  0.6621  0.1967
 8017SOL    HW135513   2.582   2.905   4.606  0.3060  0.4359  0.1331
 8017SOL    HW235514   2.606   2.986   4.720  0.5572 -0.3621  1.6068
 8018SOL     OW35515   4.292   1.415   2.362 -0.1062 -0.7172 -0.0213
 8018SOL    HW135516   4.267   1.361   2.288 -2.0984 -0.7021  0.6355
 8018SOL    HW235517   4.344   1.480   2.316  3.7363 -1.3914  3.2936
 8019SOL     OW35518   3.409   1.793   6.547  0.4423  0.3316  0.2995
 8019SOL    HW135519   3.388   1.788   6.640  2.3672 -2.2084  0.6024
 8019SOL    HW235520   3.438   1.704   6.525  0.4966 -0.2901  2.8447
 8020SOL     OW35521   0.886   3.537   2.263  0.5343 -0.4324 -0.0362
 8020SOL    HW135522   0.950   3.540   2.334  0.1253 -0.3444  0.3296
 8020SOL    HW235523   0.824   3.476   2.302  0.8486 -2.3550 -2.5667
 8021SOL     OW35524   1.141   0.375   1.271  0.7428  0.1863 -0.2198
 8021SOL    HW135525   1.136   0.289   1.229 -0.4264 -0.0954  0.4812
 8021SOL    HW235526   1.219   0.367   1.326  0.2059 -3.7354  0.0056
 8022SOL     OW35527   1.223   2.883   3.689  0.5293 -0.3496 -0.8539
 8022SOL    HW135528   1.164   2.807   3.690  0.9884 -0.6719  2.5804
 8022SOL    HW235529   1.300   2.858   3.739 -1.1370  0.4143  2.0824
 8023SOL     OW35530   1.092   0.223  16.255 -0.0270  0.1664  0.5664
 8023SOL    HW135531   1.136   0.155  16.204  0.4416  1.6756 -1.0300
 8023SOL    HW235532   1.068   0.171  16.331  3.2804 -0.2961  1.3005
 8024SOL     OW35533   0.159   2.877   3.639  0.4163  0.9203  0.1619
 8024SOL    HW135534   0.083   2.884   3.696  0.0492 -0.5325 -0.1582
 8024SOL    HW235535   0.223   2.827   3.691  0.4042 -0.3180 -1.0005
 8025SOL     OW35536   3.589   1.799   2.779 -0.2624  0.6865 -0.2378
 8025SOL    HW135537   3.671   1.818   2.734  0.6752 -2.5529  0.0698
 8025SOL    HW235538   3.573   1.711   2.744 -0.3391  0.5904  0.0394
 8026SOL     OW35539   0.341   1.777   0.581 -0.4891 -0.1524  0.0497
 8026SOL    HW135540   0.299   1.795   0.664 -1.0462  3.0394 -0.9224
 8026SOL    HW235541   0.337   1.681   0.576 -1.2223 -0.1591  0.9667
 8027SOL     OW35542   4.189   2.074   4.420 -0.0114 -0.3604 -0.2545
 8027SOL    HW135543   4.102   2.087   4.458  0.2805 -1.3429  0.7554
 8027SOL    HW235544   4.205   2.156   4.374 -0.3992  0.4659  1.0585
 8028SOL     OW35545   3.142   0.085   3.651  0.0972 -0.0111  0.0313
 8028SOL    HW135546   3.056   0.121   3.630  1.2833  3.0757  0.4219
 8028SOL    HW235547   3.164   0.044   3.568  0.4839  0.9602 -0.3423
 8029SOL     OW35548   3.720   3.884   4.100  0.4989 -0.5591  0.0060
 8029SOL    HW135549   3.814   3.866   4.102  0.5872 -0.1427 -0.5677
 8029SOL    HW235550   3.692   3.867   4.190  1.3518  0.9241  0.5579
 8030SOL     OW35551   0.890   3.007   8.063 -0.6054  0.7687  0.0351
 8030SOL    HW135552   0.839   2.950   8.005  0.9929 -0.0416 -0.5747
 8030SOL    HW235553   0.977   2.967   8.069 -1.2352 -0.3664  1.6698
 8031SOL     OW35554   0.702   3.823  11.726  0.2404  0.1861  0.6381
 8031SOL    HW135555   0.717   3.769  11.803 -0.3793 -0.5995  0.2048
 8031SOL    HW235556   0.631   3.879  11.759  2.0151  0.8741  3.3149
 8032SOL     OW35557   3.888   0.732   9.217 -0.0438  0.7032  0.1803
 8032SOL    HW135558   3.977   0.766   9.203  0.8869 -1.8522 -0.0824
 8032SOL    HW235559   3.894   0.637   9.205 -0.3730  0.5057  1.5275
 8033SOL     OW35560   2.939   3.724  13.535  0.1960  0.6438  0.6698
 8033SOL    HW135561   2.879   3.660  13.498  1.0144  0.0126  0.4442
 8033SOL    HW235562   2.876   3.793  13.556 -0.3935 -0.4287  2.3704
 8034SOL     OW35563   2.838   3.567   6.280  0.0456  0.1691  0.2031
 8034SOL    HW135564   2.850   3.638   6.216 -0.7986  0.2265  0.1132
 8034SOL    HW235565   2.859   3.495   6.220  0.0671  0.7873 -0.5313
 8035SOL     OW35566   3.645   4.415   5.284 -0.3973  0.3090  0.4235
 8035SOL    HW135567   3.572   4.366   5.320 -0.0318 -2.1687 -2.2006
 8035SOL    HW235568   3.592   4.478   5.236 -0.6807  1.0005  1.6416
 8036SOL     OW35569   3.578   2.338  15.703 -0.2914  0.0818 -0.0029
 8036SOL    HW135570   3.655   2.334  15.646 -1.3742  0.7796 -1.5176
 8036SOL    HW235571   3.570   2.249  15.737  1.2570 -0.0875 -0.0943
 8037SOL     OW35572   4.395   0.696   1.561 -0.4367 -0.5464 -0.0102
 8037SOL    HW135573   4.407   0.757   1.489  1.5365  0.0902  0.8526
 8037SOL    HW235574   4.336   0.631   1.523 -0.3004 -0.1703 -0.8537
 8038SOL     OW35575   3.385   4.324  11.934  0.0797  0.0999 -0.2602
 8038SOL    HW135576   3.369   4.253  11.996  0.6567  0.8971  0.8022
 8038SOL    HW235577   3.355   4.286  11.851  2.0000 -2.8787  0.3843
 8039SOL     OW35578   4.171   0.368   2.786  0.8233  0.3703 -0.0359
 8039SOL    HW135579   4.236   0.427   2.825 -0.8536  2.4382 -0.3263
 8039SOL    HW235580   4.202   0.279   2.798  0.7971  0.3035 -0.4796
 8040SOL     OW35581   3.084   1.779   6.560  0.3861  0.3934  0.4802
 8040SOL    HW135582   3.177   1.761   6.552 -0.3893 -3.0970 -0.8183
 8040SOL    HW235583   3.069   1.832   6.481  1.8245 -0.5503 -0.4126
 8041SOL     OW35584   3.661   4.671  17.673 -0.4716  0.4122  0.1715
 8041SOL    HW135585   3.730   0.015   0.010  0.1520 -0.2787  0.2533
 8041SOL    HW235586   3.699   4.596   0.039  0.6049  0.9995  0.2333
 8042SOL     OW35587   0.317   4.276   8.611  0.2406  0.0521  0.3694
 8042SOL    HW135588   0.274   4.221   8.545 -0.1851  0.8708 -0.0389
 8042SOL    HW235589   0.339   4.348   8.551  1.6810 -0.3940  0.3631
 8043SOL     OW35590   1.165   3.300   5.286  0.3943  0.0248  0.4644
 8043SOL    HW135591   1.148   3.278   5.378 -1.5141  0.1681  0.1381
 8043SOL    HW235592   1.210   3.382   5.304  0.5318 -0.0507  0.4744
 8044SOL     OW35593   1.142   3.903   7.461  0.0459  0.5522  0.6214
 8044SOL    HW135594   1.174   3.960   7.532  0.7292  3.2554 -1.8694
 8044SOL    HW235595   1.055   3.939   7.443 -0.5145 -2.0440 -1.8138
 8045SOL     OW35596   2.238   1.699  10.471  0.5087  0.2060  0.1585
 8045SOL    HW135597   2.200   1.786  10.475  1.2502  0.6585 -2.3823
 8045SOL    HW235598   2.322   1.720  10.511  0.2423 -0.8854  1.2709
 8046SOL     OW35599   1.601   4.213   6.547  0.2254  0.5917 -0.0829
 8046SOL    HW135600   1.550   4.285   6.584 -3.4687 -2.5178  0.8875
 8046SOL    HW235601   1.540   4.141   6.562  0.7965  0.1266 -0.0103
 8047SOL     OW35602   1.491   0.209   8.986  0.7071  0.0297  0.3587
 8047SOL    HW135603   1.460   0.126   8.950 -1.3495  1.2110 -0.6372
 8047SOL    HW235604   1.560   0.176   9.043  0.2981  0.2299  0.9788
 8048SOL     OW35605   1.756   2.139   0.266  0.2119 -0.3108  0.0876
 8048SOL    HW135606   1.788   2.050   0.281  1.2262 -0.0713 -0.6397
 8048SOL    HW235607   1.797   2.189   0.337  1.7344 -0.9456 -0.3400
 8049SOL     OW35608   1.243   2.817   3.163  0.1880 -0.0121 -0.5146
 8049SOL    HW135609   1.299   2.777   3.229  0.0869 -0.3451 -0.6307
 8049SOL    HW235610   1.158   2.790   3.199 -0.1136  2.4784  0.6133
 8050SOL     OW35611   4.159   1.214   6.691  0.3886 -0.0421  0.4115
 8050SOL    HW135612   4.209   1.142   6.729 -1.4939 -0.8479  1.3258
 8050SOL    HW235613   4.158   1.289   6.751 -0.3734 -0.7350  1.2661
 8051SOL     OW35614   3.028   1.723   3.597  0.1771  0.1308 -0.8041
 8051SOL    HW135615   3.113   1.683   3.578  0.1219 -1.1403  1.6356
 8051SOL    HW235616   3.000   1.756   3.511  1.3237  2.7423 -0.1746
 8052SOL     OW35617   1.423   2.735   2.973 -0.2287 -0.7026  0.0045
 8052SOL    HW135618   1.439   2.799   2.904  0.7094 -0.1390  0.7599
 8052SOL    HW235619   1.344   2.763   3.019 -1.2347 -1.1106 -1.4682
 8053SOL     OW35620   2.708   1.681  14.945  0.1301 -0.2693  0.1807
 8053SOL    HW135621   2.699   1.718  15.033  0.9507  0.1086  0.1083
 8053SOL    HW235622   2.659   1.599  14.954  0.7233 -0.6070  0.3307
 8054SOL     OW35623   4.442   4.106   2.050 -0.4873  0.0313 -0.2962
 8054SOL    HW135624   4.476   4.064   2.129 -1.1119  0.0129 -0.0389
 8054SOL    HW235625   4.416   4.030   1.999 -4.3676  1.0002  0.2644
 8055SOL     OW35626   3.342   3.586   5.010  0.3559 -0.8631  0.0928
 8055SOL    HW135627   3.326   3.559   4.920  0.0287  0.9934 -0.4017
 8055SOL    HW235628   3.267   3.640   5.034  0.4683 -1.2431  1.2856
 8056SOL     OW35629   4.367   1.707   7.738  0.2573  0.4920 -0.4547
 8056SOL    HW135630   4.314   1.779   7.703  1.2253  0.9828 -0.9036
 8056SOL    HW235631   4.320   1.633   7.701 -1.1829  0.4132  1.4839
 8057SOL     OW35632   1.821   4.161   3.343  0.3872  0.3728  0.2099
 8057SOL    HW135633   1.726   4.151   3.337  0.6685 -2.3410  0.5236
 8057SOL    HW235634   1.844   4.095   3.409 -0.2428  0.0825  0.1343
 8058SOL     OW35635   2.822   4.368   2.895  0.0559  0.2858 -0.5479
 8058SOL    HW135636   2.895   4.305   2.902  1.0257  1.6710  2.0443
 8058SOL    HW235637   2.742   4.318   2.879 -1.0535  1.7752  0.3535
 8059SOL     OW35638   2.978   3.076   7.104  0.5096 -0.6513  0.0826
 8059SOL    HW135639   3.065   3.071   7.143 -0.2611  0.1934  1.9312
 8059SOL    HW235640   2.953   3.161   7.141 -2.0942 -1.3979  0.0082
 8060SOL     OW35641   1.490   3.156  13.477 -0.3540 -0.0190 -0.0807
 8060SOL    HW135642   1.584   3.143  13.463 -0.1066  0.2143  1.3255
 8060SOL    HW235643   1.471   3.250  13.486 -0.3778 -0.1580  1.4081
 8061SOL     OW35644   0.356   3.896   6.142  0.0771 -0.1520  0.4406
 8061SOL    HW135645   0.329   3.854   6.061  0.0420 -0.2739  0.5157
 8061SOL    HW235646   0.422   3.835   6.173  0.3251  0.2659  0.7335
 8062SOL     OW35647   4.479   4.305  13.483  0.7849  0.7294 -0.1124
 8062SOL    HW135648   4.401   4.360  13.486  1.5471  1.7348  0.9354
 8062SOL    HW235649   4.439   4.221  13.507  1.1667  0.5741 -0.0160
 8063SOL     OW35650   1.380   3.885  16.084 -0.0410 -0.1045  0.4699
 8063SOL    HW135651   1.305   3.848  16.131 -1.2941  1.5451 -0.1977
 8063SOL    HW235652   1.377   3.969  16.130 -0.2057  0.1671 -0.0407
 8064SOL     OW35653   0.095   2.148   2.548  0.3391 -0.2574 -0.3887
 8064SOL    HW135654   0.005   2.140   2.518  0.6017  0.5420 -1.3796
 8064SOL    HW235655   0.144   2.146   2.466  1.3235  0.8377  0.1702
 8065SOL     OW35656   0.539   1.560   6.846  0.0239 -0.1309 -0.2121
 8065SOL    HW135657   0.503   1.592   6.763 -0.0401  0.2471 -0.0368
 8065SOL    HW235658   0.631   1.545   6.822  0.2255  1.1462 -0.2169
 8066SOL     OW35659   4.599   3.792  14.322  0.2651  0.4964  0.1040
 8066SOL    HW135660   4.587   3.800  14.228 -1.2243  0.4520  0.2863
 8066SOL    HW235661   4.578   3.700  14.338 -1.7398  0.9150 -0.0854
 8067SOL     OW35662   3.435   1.914   3.617  0.3210 -0.2087  0.2420
 8067SOL    HW135663   3.495   1.921   3.542 -0.0376 -3.6605 -0.3437
 8067SOL    HW235664   3.496   1.960   3.675  0.8934  0.4277 -0.8690
 8068SOL     OW35665   4.131   0.672   2.272  0.8308 -0.6101 -0.0890
 8068SOL    HW135666   4.144   0.647   2.364 -1.0587 -0.1220  0.3118
 8068SOL    HW235667   4.119   0.764   2.294  2.3007 -0.3128 -0.5092
 8069SOL     OW35668   3.989   1.164   7.391  0.2216 -1.1026 -0.1297
 8069SOL    HW135669   3.900   1.134   7.373 -0.4779  1.8730 -1.6646
 8069SOL    HW235670   4.001   1.118   7.474 -0.1401 -1.6840 -0.3997
 8070SOL     OW35671   1.810   0.750   3.237  0.6100 -0.5907 -0.6051
 8070SOL    HW135672   1.725   0.755   3.193  0.9229  0.9431 -1.0577
 8070SOL    HW235673   1.813   0.835   3.282  0.7443 -0.6786 -0.4476
 8071SOL     OW35674   0.835   1.662  16.896  0.4817 -0.0640  0.5645
 8071SOL    HW135675   0.888   1.675  16.817 -0.4799  1.2065  0.1285
 8071SOL    HW235676   0.833   1.748  16.937  1.6921 -0.9267  2.4346
 8072SOL     OW35677   1.511   1.890   6.977 -0.0899  0.1276  0.4632
 8072SOL    HW135678   1.519   1.923   6.888  1.9440 -2.8417 -0.4696
 8072SOL    HW235679   1.527   1.798   6.953 -2.3406 -0.2069  0.1793
 8073SOL     OW35680   3.872   4.680  12.667  0.5586 -0.1221 -0.8864
 8073SOL    HW135681   3.961   4.714  12.661  0.6929 -0.3447 -0.1323
 8073SOL    HW235682   3.887   4.591  12.698 -0.3042  0.5430  1.4626
 8074SOL     OW35683   3.066   2.679  11.661 -0.2300  0.4669  0.3877
 8074SOL    HW135684   3.075   2.644  11.750  2.2358 -0.2715 -0.1574
 8074SOL    HW235685   2.980   2.720  11.667  0.8301  2.8115 -0.3761
 8075SOL     OW35686   3.079   2.578   5.582 -0.0758  0.0656  0.1294
 8075SOL    HW135687   3.077   2.669   5.552  0.0812  0.3006  0.8367
 8075SOL    HW235688   3.161   2.574   5.631 -0.2118 -1.7635  0.2072
 8076SOL     OW35689   1.123   1.497  16.142 -0.0942  0.1695 -0.3387
 8076SOL    HW135690   1.090   1.455  16.221 -0.3524  0.2465 -0.4064
 8076SOL    HW235691   1.099   1.589  16.150  0.6530  0.4268 -0.9909
 8077SOL     OW35692   2.102   1.253  11.973  0.3523 -0.2516 -0.3032
 8077SOL    HW135693   2.117   1.173  12.023  1.9914 -0.1591 -0.6560
 8077SOL    HW235694   2.157   1.315  12.020 -0.8646  0.5041  0.1255
 8078SOL     OW35695   1.523   4.657   0.713 -0.4487 -0.4331 -0.2250
 8078SOL    HW135696   1.445   4.607   0.690 -0.5208 -0.9446  1.1339
 8078SOL    HW235697   1.554   4.690   0.628 -3.5735  0.6850 -0.9336
 8079SOL     OW35698   2.243   2.704   8.354  0.4141 -0.2921 -0.1473
 8079SOL    HW135699   2.207   2.754   8.281  0.3784  1.7453  1.2398
 8079SOL    HW235700   2.245   2.613   8.325  2.5040 -0.5173  0.6921
 8080SOL     OW35701   3.338   3.357  12.678 -1.3047  0.1934  0.2614
 8080SOL    HW135702   3.368   3.322  12.762 -1.2437  0.5519  0.3894
 8080SOL    HW235703   3.253   3.315  12.671 -0.7697 -0.6296 -1.2421
 8081SOL     OW35704   1.825   1.428   6.264 -0.2839  0.1103 -0.0028
 8081SOL    HW135705   1.798   1.336   6.274 -0.8850  0.5978  2.8580
 8081SOL    HW235706   1.815   1.437   6.170 -3.9169  1.2527  0.5178
 8082SOL     OW35707   3.395   4.643   8.359 -0.1105 -0.4008  0.1818
 8082SOL    HW135708   3.380   4.606   8.446 -1.6105 -3.5038 -1.4009
 8082SOL    HW235709   3.483   4.675   8.378  0.6084 -2.5687  0.4219
 8083SOL     OW35710   0.467   2.245   5.482 -0.2452  0.0507 -0.6899
 8083SOL    HW135711   0.403   2.209   5.543 -0.3079 -0.7733 -1.2363
 8083SOL    HW235712   0.475   2.334   5.516  1.5801 -0.3214 -0.1284
 8084SOL     OW35713   4.362   2.594   5.181 -0.2184 -0.4565  1.2781
 8084SOL    HW135714   4.380   2.515   5.232 -2.9295 -0.6129  1.9966
 8084SOL    HW235715   4.268   2.607   5.175  0.3194  2.8139  0.3549
 8085SOL     OW35716   2.313   3.067   1.353 -0.3488 -0.0771  0.0530
 8085SOL    HW135717   2.368   2.994   1.383 -0.5028  0.6297  2.0376
 8085SOL    HW235718   2.362   3.114   1.285  0.2797 -1.4728 -0.4580
 8086SOL     OW35719   2.592   0.647   2.268  0.8885  0.3702 -0.3099
 8086SOL    HW135720   2.637   0.566   2.291 -1.2314 -0.9726 -0.9442
 8086SOL    HW235721   2.575   0.689   2.352  0.3065  2.4015 -1.4380
 8087SOL     OW35722   1.228   4.692   0.518  0.5144  0.0721 -0.0632
 8087SOL    HW135723   1.269   4.612   0.551 -1.1277 -0.2560  1.2153
 8087SOL    HW235724   1.301   0.029   0.495 -1.3964  3.2365  1.6995
 8088SOL     OW35725   0.766   3.489  14.337 -0.0583 -0.3076  0.1582
 8088SOL    HW135726   0.774   3.489  14.241 -1.9733 -0.9678 -0.0089
 8088SOL    HW235727   0.683   3.445  14.355 -0.5397 -0.1669 -1.6508
 8089SOL     OW35728   0.852   1.942  11.988 -0.1949  0.4007 -0.3941
 8089SOL    HW135729   0.921   1.923  12.052 -0.9221  1.1169  0.5994
 8089SOL    HW235730   0.774   1.958  12.041  1.0552  1.3475  1.1550
 8090SOL     OW35731   2.027   0.869   9.059  0.2655  0.0793 -0.3777
 8090SOL    HW135732   1.957   0.833   9.005  0.1655  0.0904 -0.2576
 8090SOL    HW235733   2.090   0.903   8.996  0.7066  1.0517  0.5718
 8091SOL     OW35734   4.222   2.150   9.080  0.2764 -0.1531 -0.1414
 8091SOL    HW135735   4.216   2.054   9.072 -0.0880 -0.2336  1.1119
 8091SOL    HW235736   4.185   2.158   9.168  0.6027 -0.7117  0.0457
 8092SOL     OW35737   1.095   3.008  10.396 -0.1316 -0.0234  0.2387
 8092SOL    HW135738   1.074   2.916  10.380 -1.1500  0.7351 -2.6740
 8092SOL    HW235739   1.143   3.005  10.479  0.3009  1.6353  0.0381
 8093SOL     OW35740   1.458   4.033   1.408 -0.1358  0.5154 -0.4837
 8093SOL    HW135741   1.466   3.939   1.389  2.0103  0.6912 -0.4500
 8093SOL    HW235742   1.537   4.043   1.460  0.0404 -1.6255 -0.3196
 8094SOL     OW35743   0.302   2.221   3.103  0.4073 -0.2196  0.2287
 8094SOL    HW135744   0.242   2.253   3.171  0.9845  1.2653  0.0313
 8094SOL    HW235745   0.335   2.138   3.137 -0.1924 -1.0925 -1.3270
 8095SOL     OW35746   4.567   1.475  14.310 -0.0040  0.0526  0.3457
 8095SOL    HW135747   4.620   1.549  14.342  1.0150 -0.9243  0.9217
 8095SOL    HW235748   4.567   1.423  14.390 -1.6539  0.2905  0.4990
 8096SOL     OW35749   0.198   2.674   7.502 -0.2412  0.5864 -0.3295
 8096SOL    HW135750   0.288   2.706   7.501 -0.1024  0.2015 -0.2935
 8096SOL    HW235751   0.211   2.608   7.433  0.3386  1.3054 -0.9134
 8097SOL     OW35752   1.737   1.322   9.073  0.2755 -0.2256 -0.4907
 8097SOL    HW135753   1.785   1.294   9.151 -0.2021 -3.1907 -1.2475
 8097SOL    HW235754   1.741   1.244   9.018 -1.0131 -2.8507  3.0628
 8098SOL     OW35755   1.357   0.028  12.108  0.1363 -0.2005 -0.7727
 8098SOL    HW135756   1.276   4.718  12.149 -0.2119  1.3476 -0.3645
 8098SOL    HW235757   1.374   4.656  12.084 -2.9188 -0.5295 -1.7807
 8099SOL     OW35758   0.319   3.875   4.603 -0.0310 -0.1365 -0.1417
 8099SOL    HW135759   0.271   3.903   4.525 -0.3223  1.3336  0.5808
 8099SOL    HW235760   0.407   3.887   4.568 -0.7602 -0.3802 -2.0580
 8100SOL     OW35761   3.142   1.085   4.759  0.4030 -0.0726 -0.2917
 8100SOL    HW135762   3.225   1.051   4.727  1.8737  0.6221  2.7815
 8100SOL    HW235763   3.082   1.065   4.687  1.3839  0.2524 -1.1875
 8101SOL     OW35764   1.608   1.851   1.434  0.4756  0.0387 -0.3931
 8101SOL    HW135765   1.535   1.791   1.416 -0.5252  1.5283 -1.3091
 8101SOL    HW235766   1.587   1.901   1.512 -1.0743  0.3788 -1.0163
 8102SOL     OW35767   0.308   0.488   8.323 -0.0509  0.1930  0.2120
 8102SOL    HW135768   0.335   0.566   8.371  1.2880  0.0793 -0.3755
 8102SOL    HW235769   0.355   0.499   8.241  0.6995  2.0020  0.8752
 8103SOL     OW35770   0.439   2.906   9.420  0.9134 -0.6937 -0.2910
 8103SOL    HW135771   0.426   2.978   9.483  0.0400  1.1227 -2.5376
 8103SOL    HW235772   0.346   2.888   9.404  0.6086  0.0477  0.5808
 8104SOL     OW35773   3.843   2.353  17.049  0.0159 -0.2598  0.6543
 8104SOL    HW135774   3.834   2.448  17.037  1.6357 -0.3195 -1.0683
 8104SOL    HW235775   3.754   2.321  17.032  1.8943 -6.6711  2.8757
 8105SOL     OW35776   1.331   4.448   3.720  0.1660 -0.2669 -0.4016
 8105SOL    HW135777   1.301   4.537   3.740  0.1308 -0.9903  2.7993
 8105SOL    HW235778   1.310   4.411   3.806 -1.1842  0.8376 -0.2596
 8106SOL     OW35779   4.234   4.439  10.872 -0.0285 -0.2939  0.3596
 8106SOL    HW135780   4.300   4.398  10.816 -0.9211 -0.6929 -0.3990
 8106SOL    HW235781   4.174   4.482  10.811 -1.0664  0.5734  1.9783
 8107SOL     OW35782   1.288   2.378   4.646 -0.4892  0.4443  0.2678
 8107SOL    HW135783   1.213   2.324   4.624  0.4205 -1.2416  1.2911
 8107SOL    HW235784   1.339   2.316   4.697  0.3818  1.5686  0.7695
 8108SOL     OW35785   0.008   0.566  14.873  0.6218 -1.0906  0.1403
 8108SOL    HW135786   0.081   0.522  14.916  1.9351  0.0572 -0.9406
 8108SOL    HW235787   4.680   0.610  14.945 -0.8083 -0.6336 -1.0803
 8109SOL     OW35788   0.708   2.005   4.861 -0.0339  0.0012  0.0002
 8109SOL    HW135789   0.708   1.928   4.804  1.8670  0.4218 -0.5504
 8109SOL    HW235790   0.620   2.040   4.844 -0.2684  0.0641  1.3714
 8110SOL     OW35791   1.258   0.739  11.267  0.2338  0.0184 -0.2759
 8110SOL    HW135792   1.269   0.709  11.176  2.4511  0.9620 -0.3146
 8110SOL    HW235793   1.185   0.798  11.248  0.8333  1.6328  2.6016
 8111SOL     OW35794   0.032   2.366   6.224 -0.3284 -0.0448 -0.0985
 8111SOL    HW135795   0.073   2.372   6.310  0.9854 -0.5796 -0.6814
 8111SOL    HW235796   4.657   2.363   6.242 -0.1817 -0.1412  0.6377
 8112SOL     OW35797   3.696   2.271   1.146 -0.0116 -0.5158 -0.2063
 8112SOL    HW135798   3.620   2.322   1.176  0.9079  1.8868 -1.9838
 8112SOL    HW235799   3.750   2.280   1.224  0.6466  0.3206 -0.7650
 8113SOL     OW35800   0.441   0.530  10.833 -0.1890  0.1343 -0.4843
 8113SOL    HW135801   0.511   0.578  10.789  1.0518 -0.6084  0.7280
 8113SOL    HW235802   0.391   0.511  10.753 -0.8313  1.0521 -0.3057
 8114SOL     OW35803   3.102   1.221  14.275 -0.1973 -0.1284 -0.4061
 8114SOL    HW135804   3.084   1.179  14.191 -1.4361 -0.1778 -0.1116
 8114SOL    HW235805   3.056   1.167  14.338  0.0878 -0.0053 -0.0915
 8115SOL     OW35806   1.059   1.801   3.626 -0.2141  0.3197 -0.0537
 8115SOL    HW135807   1.049   1.720   3.675  0.7250  0.0997 -0.2381
 8115SOL    HW235808   1.134   1.774   3.573 -0.4368 -0.3297 -0.0384
 8116SOL     OW35809   1.601   4.605   4.887 -0.4241  0.4660  0.6845
 8116SOL    HW135810   1.648   4.564   4.959  0.1095 -1.6502 -0.8845
 8116SOL    HW235811   1.669   4.650   4.835  0.1013 -2.5178 -1.1936
 8117SOL     OW35812   0.462   0.677  11.904  0.4184  0.1226  0.2736
 8117SOL    HW135813   0.535   0.735  11.879 -1.1870  2.4633  0.9799
 8117SOL    HW235814   0.489   0.646  11.990  0.3337  1.0190  0.6287
 8118SOL     OW35815   3.260   3.009  15.535 -0.0126 -0.1871 -0.2609
 8118SOL    HW135816   3.228   3.075  15.473 -1.5261 -0.1216  0.5831
 8118SOL    HW235817   3.272   2.931  15.480  0.3560  0.2916 -0.8667
 8119SOL     OW35818   3.342   0.690   4.819 -0.0928 -0.9678  0.0081
 8119SOL    HW135819   3.297   0.762   4.863 -1.0287 -1.3256 -0.3722
 8119SOL    HW235820   3.271   0.628   4.804 -2.7961  2.1436  0.0073
 8120SOL     OW35821   4.303   4.194   5.735  0.1337 -0.2103  0.5339
 8120SOL    HW135822   4.337   4.276   5.701  1.9412 -0.9223  0.6051
 8120SOL    HW235823   4.368   4.134   5.699  1.4371  2.3100 -1.2736
 8121SOL     OW35824   2.170   1.541   9.741  0.5210 -0.6403 -0.3205
 8121SOL    HW135825   2.076   1.557   9.725  0.4678 -1.2299 -0.5727
 8121SOL    HW235826   2.193   1.603   9.810 -4.0141  2.8799 -1.9642
 8122SOL     OW35827   2.330   4.668  10.396 -0.6712  0.1508 -0.0216
 8122SOL    HW135828   2.361   4.609  10.327 -1.5526  1.7673 -1.7936
 8122SOL    HW235829   2.401   0.014  10.397 -0.0113 -0.5393 -0.7929
 8123SOL     OW35830   3.652   2.121  14.513  0.0991  0.1737 -0.1901
 8123SOL    HW135831   3.569   2.092  14.550  1.8565 -1.5380  2.4091
 8123SOL    HW235832   3.703   2.147  14.590  0.7056  1.0622 -0.8858
 8124SOL     OW35833   0.161   0.279   4.862 -0.0488 -0.2816 -0.2388
 8124SOL    HW135834   0.237   0.337   4.863  0.5876 -1.0619 -1.7587
 8124SOL    HW235835   0.157   0.246   4.952 -1.3360 -1.2752 -0.6566
 8125SOL     OW35836   3.757   0.491  15.238 -0.0711 -0.2850  0.2956
 8125SOL    HW135837   3.836   0.450  15.271  0.9533  1.6184  0.2217
 8125SOL    HW235838   3.707   0.428  15.186  0.6819 -0.0734 -0.6942
 8126SOL     OW35839   2.252   2.810   3.573 -0.0976 -0.6532 -0.1198
 8126SOL    HW135840   2.320   2.742   3.571  0.5358  0.0260 -1.6748
 8126SOL    HW235841   2.240   2.833   3.665  0.6253 -1.8279  0.2760
 8127SOL     OW35842   2.046   0.806   4.221  0.0742  0.2333  0.1371
 8127SOL    HW135843   2.087   0.748   4.157 -0.7493  0.3743 -0.5113
 8127SOL    HW235844   2.087   0.891   4.208  0.9969  0.0552  1.8411
 8128SOL     OW35845   2.154   2.723   9.298 -0.1354  0.4912  0.1116
 8128SOL    HW135846   2.177   2.787   9.365  0.9799 -0.2235  0.4096
 8128SOL    HW235847   2.206   2.646   9.321 -1.9404 -0.7489  0.0589
 8129SOL     OW35848   0.180   3.993   7.077  0.1886  0.3025 -0.3381
 8129SOL    HW135849   0.196   4.001   7.171 -0.9723 -0.2893 -0.0952
 8129SOL    HW235850   0.240   3.920   7.065 -0.1517 -0.5354  3.1233
 8130SOL     OW35851   1.357   1.126   9.481  0.2179 -0.1330 -0.1268
 8130SOL    HW135852   1.352   1.107   9.574 -0.2732  0.7545  0.0191
 8130SOL    HW235853   1.420   1.197   9.486  1.4045 -1.3199  1.5645
 8131SOL     OW35854   1.270   3.737   4.722  0.3121 -0.6252 -0.7349
 8131SOL    HW135855   1.361   3.709   4.718  0.7008  0.6541 -0.9198
 8131SOL    HW235856   1.265   3.788   4.641 -0.7794 -0.4625 -0.5675
 8132SOL     OW35857   1.267   0.700  13.941 -0.1699  0.1143 -0.0245
 8132SOL    HW135858   1.189   0.696  13.996 -0.8009  0.9990 -0.8465
 8132SOL    HW235859   1.298   0.610  13.950  0.0091  0.1516 -0.2899
 8133SOL     OW35860   0.437   2.190   1.571  0.1506  0.1675 -0.1350
 8133SOL    HW135861   0.512   2.220   1.519 -0.3410  0.1948 -0.8369
 8133SOL    HW235862   0.390   2.274   1.574 -0.8069 -0.2625 -2.3830
 8134SOL     OW35863   2.908   3.487  15.039  0.3959 -0.0485  0.1507
 8134SOL    HW135864   2.981   3.504  14.979 -0.6235 -1.3268 -1.4573
 8134SOL    HW235865   2.853   3.565  15.039  0.6663  0.1417  0.0835
 8135SOL     OW35866   0.069   2.752   3.915  0.1751  0.6744 -0.4749
 8135SOL    HW135867   0.082   2.747   4.010 -2.1097 -0.4114 -0.2193
 8135SOL    HW235868   0.159   2.751   3.882  0.2024  1.8801 -0.4366
 8136SOL     OW35869   4.103   4.494   7.512 -0.1079 -0.0940 -0.5197
 8136SOL    HW135870   4.150   4.418   7.547  0.5189 -0.0124 -1.1865
 8136SOL    HW235871   4.044   4.444   7.456  0.3790  0.0153 -1.1276
 8137SOL     OW35872   0.191   0.931   4.153  0.0220 -0.1339 -0.4354
 8137SOL    HW135873   0.277   0.889   4.154  0.2446  0.3322  0.8892
 8137SOL    HW235874   0.197   0.970   4.241 -1.9787  1.5726 -1.0654
 8138SOL     OW35875   3.211   2.292   4.219  0.5596  0.0277  0.3741
 8138SOL    HW135876   3.148   2.298   4.291 -1.4448  0.1535 -1.3883
 8138SOL    HW235877   3.207   2.386   4.199 -1.1978 -0.3094 -0.8445
 8139SOL     OW35878   0.131   4.485   6.748 -0.0261  0.4754 -0.2516
 8139SOL    HW135879   0.159   4.512   6.661  1.4864 -2.3168 -0.6481
 8139SOL    HW235880   0.121   4.390   6.747  0.7069  0.4271 -2.4568
 8140SOL     OW35881   0.377   4.630   0.134  0.0712  0.3016  0.2052
 8140SOL    HW135882   0.284   4.627   0.112  0.2766  0.0518 -0.6605
 8140SOL    HW235883   0.369   4.692   0.207 -1.4755  0.5522 -0.1879
 8141SOL     OW35884   1.303   3.055   7.709  0.6148 -0.0938 -0.0304
 8141SOL    HW135885   1.321   2.971   7.667  1.1988 -0.7138  1.4500
 8141SOL    HW235886   1.387   3.101   7.704  0.1491  0.6339 -0.9875
 8142SOL     OW35887   2.157   0.480  12.296  0.2168 -0.4308 -0.6534
 8142SOL    HW135888   2.140   0.487  12.202 -1.3876  1.2019 -0.2528
 8142SOL    HW235889   2.230   0.539  12.316 -0.0220  0.8335 -3.5543
 8143SOL     OW35890   3.422   4.301   5.724  0.8443 -0.1557 -0.2724
 8143SOL    HW135891   3.494   4.274   5.782  1.5444 -1.8969 -1.9393
 8143SOL    HW235892   3.366   4.226   5.743 -0.9473  0.4181 -3.3305
 8144SOL     OW35893   1.173   3.501   3.193 -0.0775 -0.3206 -0.4641
 8144SOL    HW135894   1.218   3.425   3.157  2.2945  0.9873 -0.3032
 8144SOL    HW235895   1.231   3.521   3.266 -1.1948 -1.9059  0.8504
 8145SOL     OW35896   0.125   4.435   5.844  0.7112  0.4222 -0.0821
 8145SOL    HW135897   0.061   4.451   5.913 -2.4592  0.5081 -3.0384
 8145SOL    HW235898   0.070   4.403   5.773  0.8707  1.0488 -0.4846
 8146SOL     OW35899   0.907   3.148  11.069 -0.2553  0.5056  0.3463
 8146SOL    HW135900   0.925   3.184  10.982 -0.8437 -0.0473 -0.0090
 8146SOL    HW235901   0.828   3.099  11.045 -0.5373 -0.0411  2.3405
 8147SOL     OW35902   0.222   0.538   2.213  0.2840 -0.5650 -0.5621
 8147SOL    HW135903   0.208   0.446   2.188  0.6314 -0.9253  0.5566
 8147SOL    HW235904   0.136   0.576   2.201  0.2616 -0.7427 -0.9896
 8148SOL     OW35905   0.563   0.113   4.870 -0.4824  0.2272  0.7004
 8148SOL    HW135906   0.641   0.068   4.901 -0.0193  1.2676  1.0354
 8148SOL    HW235907   0.498   0.044   4.881  0.9337 -1.5498 -1.8975
 8149SOL     OW35908   0.603   3.812   3.681  0.0986  0.0844 -0.1461
 8149SOL    HW135909   0.586   3.887   3.624 -0.6046  0.4011  0.4840
 8149SOL    HW235910   0.636   3.857   3.760  1.9663  2.5774 -2.3191
 8150SOL     OW35911   0.852   3.200   4.320  0.3385  0.0284 -0.0262
 8150SOL    HW135912   0.775   3.246   4.287  0.6156 -0.0771 -0.8364
 8150SOL    HW235913   0.920   3.249   4.272  0.4547 -0.2777 -0.1731
 8151SOL     OW35914   4.646   1.695   3.007  0.8631 -0.3198 -0.4329
 8151SOL    HW135915   4.719   1.753   3.028  1.5226 -1.7170  1.0564
 8151SOL    HW235916   4.584   1.756   2.966  2.1805  0.8135 -0.7377
 8152SOL     OW35917   2.727   4.416   2.614 -0.2371 -0.1892 -0.2436
 8152SOL    HW135918   2.683   4.336   2.641  2.0164 -1.1943  0.4932
 8152SOL    HW235919   2.808   4.395   2.567 -1.1705  1.8622 -2.7440
 8153SOL     OW35920   0.287   4.530   4.137 -0.4620 -0.4080 -0.8146
 8153SOL    HW135921   0.261   4.534   4.229  1.7491  1.2410 -0.2741
 8153SOL    HW235922   0.354   4.597   4.148 -1.2357  0.4368 -1.2962
 8154SOL     OW35923   0.383   3.152   2.177  0.0591  0.1273 -0.2758
 8154SOL    HW135924   0.364   3.136   2.085 -0.8151  0.1476 -0.0944
 8154SOL    HW235925   0.311   3.112   2.226  1.9507  0.3802  2.7131
 8155SOL     OW35926   0.948   1.884   8.178 -0.1556  0.3603  0.0129
 8155SOL    HW135927   1.038   1.870   8.207 -0.6913 -3.2842 -0.1212
 8155SOL    HW235928   0.950   1.834   8.096 -0.1270  2.5026 -1.2766
 8156SOL     OW35929   3.876   0.271   6.220 -0.1051 -0.2093  0.5478
 8156SOL    HW135930   3.835   0.190   6.190 -0.5020  0.0416  0.4142
 8156SOL    HW235931   3.882   0.327   6.142  1.0624  1.4754  1.8641
 8157SOL     OW35932   0.559   2.988   9.744 -0.2365 -0.2731 -0.3390
 8157SOL    HW135933   0.481   3.034   9.711  0.5860 -0.3463 -2.3860
 8157SOL    HW235934   0.601   3.058   9.794 -1.6953  0.6099 -0.3499
 8158SOL     OW35935   2.576   1.133   5.240  0.5836 -0.1893 -0.5190
 8158SOL    HW135936   2.642   1.161   5.304 -0.0991  1.1950 -0.4292
 8158SOL    HW235937   2.637   1.081   5.188  0.2059  0.1765 -1.3258
 8159SOL     OW35938   2.742   3.316   1.810 -0.1871 -0.2372  0.0267
 8159SOL    HW135939   2.792   3.299   1.730 -1.1552 -1.6239 -0.2892
 8159SOL    HW235940   2.795   3.380   1.857 -1.6512  0.1148  1.1931
 8160SOL     OW35941   3.586   2.003   8.148 -0.1393 -0.0520  0.0248
 8160SOL    HW135942   3.652   1.989   8.216 -1.3705  0.4337  1.3556
 8160SOL    HW235943   3.504   2.026   8.193 -1.0449  0.5321 -1.9241
 8161SOL     OW35944   1.161   2.948   4.349  0.0563 -0.4697  0.2275
 8161SOL    HW135945   1.106   2.987   4.417 -1.9015  0.1772 -1.7233
 8161SOL    HW235946   1.253   2.966   4.370 -0.0065  1.1574 -0.9089
 8162SOL     OW35947   1.219   1.158   8.563 -0.3922 -0.2016 -0.2702
 8162SOL    HW135948   1.290   1.202   8.518 -0.5144 -0.8551 -1.0873
 8162SOL    HW235949   1.228   1.204   8.647  2.4902 -1.5076  0.1064
 8163SOL     OW35950   3.913   2.471   4.199  0.5065  0.0292 -0.6911
 8163SOL    HW135951   3.992   2.513   4.163  1.1391  0.3033  1.0174
 8163SOL    HW235952   3.845   2.530   4.166 -0.1504 -0.1345  0.3908
 8164SOL     OW35953   3.880   3.364  10.355 -0.2463 -0.2079  0.3882
 8164SOL    HW135954   3.811   3.301  10.333 -0.6009 -0.3089  1.7889
 8164SOL    HW235955   3.916   3.382  10.268 -1.8775  2.2837  0.2547
 8165SOL     OW35956   2.369   0.667  12.299  0.3316  0.2976 -0.1449
 8165SOL    HW135957   2.385   0.761  12.293  1.3786  0.1616  0.3875
 8165SOL    HW235958   2.433   0.628  12.239  1.9951  0.8276  1.2609
 8166SOL     OW35959   1.986   1.698  10.593 -0.0262  0.1521 -0.6414
 8166SOL    HW135960   2.034   1.651  10.526 -0.3854  1.7627 -2.0199
 8166SOL    HW235961   2.036   1.778  10.579  1.1601 -0.9637 -2.7419
 8167SOL     OW35962   2.254   2.876   7.081  0.1005  0.0564  0.3027
 8167SOL    HW135963   2.303   2.920   7.011 -0.1068 -0.0517  0.0913
 8167SOL    HW235964   2.324   2.863   7.145 -0.3150  3.2255  1.4515
 8168SOL     OW35965   0.471   0.621  14.974 -0.1364 -0.6829 -0.3929
 8168SOL    HW135966   0.491   0.713  14.987 -1.7185 -0.3245 -0.5276
 8168SOL    HW235967   0.486   0.590  15.063 -2.1115 -3.1899 -0.9088
 8169SOL     OW35968   2.786   1.613   5.388  0.6748 -0.0424 -0.6966
 8169SOL    HW135969   2.735   1.612   5.469 -1.4849 -2.7231 -2.0890
 8169SOL    HW235970   2.765   1.529   5.347  0.2494 -0.5170  0.4938
 8170SOL     OW35971   0.232   4.118   6.422 -0.1025 -0.2885  0.1922
 8170SOL    HW135972   0.270   4.098   6.507  1.6981  0.8092 -0.3367
 8170SOL    HW235973   0.244   4.213   6.414 -2.4158 -0.0435 -0.1975
 8171SOL     OW35974   1.115   2.494   8.211 -0.2307  0.3344  0.3457
 8171SOL    HW135975   1.068   2.483   8.294 -1.6455 -2.1246 -0.7715
 8171SOL    HW235976   1.206   2.485   8.239 -0.3251  0.8319  0.8138
 8172SOL     OW35977   4.234   2.802  13.828 -0.0217 -0.0233 -0.3488
 8172SOL    HW135978   4.186   2.866  13.881 -0.8276  1.4888 -2.8824
 8172SOL    HW235979   4.170   2.732  13.818  0.2468 -0.4336  0.8445
 8173SOL     OW35980   2.982   3.855   9.334 -0.0317 -0.7650  0.2451
 8173SOL    HW135981   2.926   3.892   9.266  2.4338  2.3702 -0.0624
 8173SOL    HW235982   2.917   3.811   9.388 -0.9934  1.0215  0.5021
 8174SOL     OW35983   0.835   2.085  15.584 -0.1234 -0.2151  0.0646
 8174SOL    HW135984   0.786   2.127  15.654 -0.1774  0.8478 -0.6097
 8174SOL    HW235985   0.864   2.009  15.634 -1.9774 -0.3182  0.9659
 8175SOL     OW35986   0.343   2.755   3.460  0.1072  0.1210 -0.0263
 8175SOL    HW135987   0.310   2.842   3.481  0.3710 -0.2005  1.7751
 8175SOL    HW235988   0.259   2.716   3.435 -0.8003  1.1614  1.3831
 8176SOL     OW35989   3.516   1.236  10.729 -0.1401  0.4146  0.6950
 8176SOL    HW135990   3.597   1.191  10.754 -0.9792 -2.5528 -2.0126
 8176SOL    HW235991   3.465   1.161  10.699 -0.4950  1.3392 -1.0429
 8177SOL     OW35992   1.697   0.573   7.015 -0.0844  0.2027 -0.3605
 8177SOL    HW135993   1.729   0.531   7.095  0.2989  2.1821  0.5373
 8177SOL    HW235994   1.646   0.646   7.050  1.9190  0.5169  1.9126
 8178SOL     OW35995   3.423   2.560   6.862  0.4941  0.0043  0.0645
 8178SOL    HW135996   3.349   2.616   6.886  1.0956  0.6604  0.4033
 8178SOL    HW235997   3.491   2.581   6.927 -0.8992 -0.4833  1.6833
 8179SOL     OW35998   1.141   0.121   5.250  0.8815  0.4353 -0.2869
 8179SOL    HW135999   1.124   0.051   5.312  2.4467 -0.2112 -0.5812
 8179SOL    HW236000   1.113   0.077   5.169 -0.4596 -0.9525  0.9428
 8180SOL     OW36001   0.315   3.184  14.751  0.1361  0.1376 -0.2715
 8180SOL    HW136002   0.304   3.274  14.719 -0.5958  0.1300 -0.0424
 8180SOL    HW236003   0.356   3.152  14.671 -2.2542 -1.2381 -0.9573
 8181SOL     OW36004   3.823   0.034   2.150  0.3420 -0.1858 -0.0797
 8181SOL    HW136005   3.903   0.070   2.111  0.3076 -0.7056 -0.6304
 8181SOL    HW236006   3.767   0.029   2.073 -1.7324  0.0440  1.4139
 8182SOL     OW36007   1.175   1.350  15.111 -0.5571 -0.0411  0.1443
 8182SOL    HW136008   1.166   1.401  15.191  1.9941 -2.2188  1.8330
 8182SOL    HW236009   1.271   1.345  15.106 -0.5338  0.2303  0.3081
 8183SOL     OW36010   3.659   2.216   1.855  0.3552 -0.1162  0.3580
 8183SOL    HW136011   3.586   2.272   1.826  0.9613 -1.1106 -3.1056
 8183SOL    HW236012   3.675   2.264   1.936 -0.8612 -0.8605  1.0471
 8184SOL     OW36013   0.053   0.255   8.479  0.2210 -0.0097  0.0776
 8184SOL    HW136014   0.132   0.260   8.533  2.0671 -1.5420 -2.4725
 8184SOL    HW236015   0.004   0.326   8.519 -0.9243 -1.5482  1.4413
 8185SOL     OW36016   1.327   3.027   8.369  0.0916  0.1925 -0.0864
 8185SOL    HW136017   1.240   3.000   8.398 -0.3113 -2.7171 -3.9917
 8185SOL    HW236018   1.373   3.042   8.452 -0.4549 -2.5168  0.6997
 8186SOL     OW36019   3.727   0.777   4.191  0.2761 -0.4655 -0.3723
 8186SOL    HW136020   3.738   0.800   4.099 -0.6853  2.4755  0.2510
 8186SOL    HW236021   3.817   0.752   4.212  0.4693 -2.1841 -3.2750
 8187SOL     OW36022   1.332   3.066   6.397 -0.2545  0.1406 -0.1533
 8187SOL    HW136023   1.391   3.040   6.468  0.3300 -1.0781 -1.0854
 8187SOL    HW236024   1.390   3.064   6.320 -0.9778 -1.3633 -0.6551
 8188SOL     OW36025   4.661   0.467  14.573 -0.3844 -0.3517  0.4488
 8188SOL    HW136026   4.604   0.401  14.534 -0.8709  0.9027 -0.9597
 8188SOL    HW236027   4.619   0.489  14.656  2.0732 -1.1008  1.9317
 8189SOL     OW36028   0.356   1.844   6.274 -0.1841 -0.1322 -0.3490
 8189SOL    HW136029   0.413   1.921   6.278  0.9876 -0.9871 -0.8079
 8189SOL    HW236030   0.407   1.769   6.303  0.3704 -0.5043 -2.3017
 8190SOL     OW36031   1.375   1.066   6.862 -0.0948 -0.0154  0.1554
 8190SOL    HW136032   1.294   1.080   6.813 -0.6260  1.5515  1.4997
 8190SOL    HW236033   1.412   0.990   6.815  1.2763  2.1468 -2.2582
 8191SOL     OW36034   3.964   0.458   4.282  0.3879  0.0320  0.5131
 8191SOL    HW136035   4.038   0.496   4.329  1.1227  1.6548 -1.9179
 8191SOL    HW236036   3.902   0.495   4.345 -2.0893  1.7847 -2.9333
 8192SOL     OW36037   4.478   3.630  14.746  0.2987  0.1816 -0.6060
 8192SOL    HW136038   4.450   3.539  14.734  1.5715 -0.7924  3.7396
 8192SOL    HW236039   4.509   3.615  14.835 -1.0401 -0.0816 -0.1900
 8193SOL     OW36040   0.495   2.243  11.804  0.6806 -0.5299 -0.0190
 8193SOL    HW136041   0.478   2.258  11.897  0.8442 -2.2102  0.2752
 8193SOL    HW236042   0.533   2.330  11.792  0.4229 -0.6963 -1.9790
 8194SOL     OW36043   0.968   0.532  12.796 -0.2780 -0.0519 -0.1004
 8194SOL    HW136044   0.986   0.438  12.783  0.0665 -0.0192  0.1483
 8194SOL    HW236045   0.989   0.540  12.889 -1.7892 -1.0866  0.3395
 8195SOL     OW36046   0.794   1.518   0.088  0.4550  0.0227 -0.1060
 8195SOL    HW136047   0.835   1.437   0.118  1.4450 -0.0025 -1.5548
 8195SOL    HW236048   0.716   1.477   0.049 -0.2832  1.1285  0.1949
 8196SOL     OW36049   2.955   0.636   4.956 -0.1601  0.1701  0.1399
 8196SOL    HW136050   3.012   0.712   4.969 -2.1428  1.9420 -1.4947
 8196SOL    HW236051   2.868   0.670   4.938  1.2967  2.9806 -1.6146
 8197SOL     OW36052   2.910   4.225   4.870  0.0761 -0.4330  0.3174
 8197SOL    HW136053   2.877   4.277   4.797 -0.1596  0.3041  0.9492
 8197SOL    HW236054   2.838   4.162   4.878  1.2173 -1.9370 -1.1883
 8198SOL     OW36055   1.430   2.788   2.484  0.3321  0.5499  0.3352
 8198SOL    HW136056   1.348   2.823   2.518 -0.3877  0.3040 -1.1890
 8198SOL    HW236057   1.411   2.695   2.495 -0.9509  0.6254 -1.3933
 8199SOL     OW36058   1.777   4.187   4.781 -0.3331 -0.4759  0.1719
 8199SOL    HW136059   1.810   4.255   4.723 -0.1356 -2.2813 -1.8187
 8199SOL    HW236060   1.814   4.210   4.867  1.1820  0.9053 -0.8504
 8200SOL     OW36061   2.447   0.989   3.148 -0.1023 -0.0704 -0.0667
 8200SOL    HW136062   2.490   1.065   3.186 -0.2673 -1.1941  2.3801
 8200SOL    HW236063   2.498   0.983   3.067 -0.0998 -1.3052  0.0215
 8201SOL     OW36064   1.977   1.993   0.518 -0.2174 -0.2739 -0.5918
 8201SOL    HW136065   1.976   1.954   0.606 -0.0321  1.9682  0.3895
 8201SOL    HW236066   1.914   1.936   0.474 -1.1000 -0.6169  1.0828
 8202SOL     OW36067   3.959   3.229   4.385  0.1508 -0.2111 -0.2338
 8202SOL    HW136068   3.873   3.188   4.379 -0.3205  0.6556  0.6490
 8202SOL    HW236069   4.010   3.149   4.370  0.8286  0.1163  0.3389
 8203SOL     OW36070   4.296   1.011   9.675  0.1711 -0.2651 -0.0183
 8203SOL    HW136071   4.328   1.081   9.732  0.6211  0.0440 -0.6474
 8203SOL    HW236072   4.212   0.988   9.714 -0.8421  2.5753 -0.5834
 8204SOL     OW36073   3.909   4.620   4.600 -0.3670  0.4115  0.2668
 8204SOL    HW136074   3.837   4.678   4.577 -2.1583 -2.0174 -0.3127
 8204SOL    HW236075   3.879   4.529   4.593 -0.3285  0.3093  1.2991
 8205SOL     OW36076   3.097   4.129   5.477 -0.1804 -0.1303 -0.1353
 8205SOL    HW136077   3.180   4.106   5.518 -1.3722  0.3490  2.5278
 8205SOL    HW236078   3.079   4.058   5.415 -1.8201  0.5538 -0.4501
 8206SOL     OW36079   2.708   2.355   6.866 -0.0188  0.0227  0.0509
 8206SOL    HW136080   2.703   2.311   6.950  0.4721  1.7186  0.9629
 8206SOL    HW236081   2.705   2.283   6.803  0.2521  1.3892 -1.5382
 8207SOL     OW36082   0.753   1.681   1.578 -0.3430  0.1591 -0.1333
 8207SOL    HW136083   0.784   1.767   1.551 -0.4175 -0.1410 -1.2159
 8207SOL    HW236084   0.659   1.683   1.563 -0.3160 -1.3208 -0.5788
 8208SOL     OW36085   1.802   4.619   1.189 -0.0605 -0.7955 -0.7335
 8208SOL    HW136086   1.719   4.580   1.163  0.2992 -1.4848 -0.8377
 8208SOL    HW236087   1.863   4.547   1.174  0.8406 -0.1146 -0.3068
 8209SOL     OW36088   4.153   1.790  16.822 -0.2352 -0.1992 -0.4917
 8209SOL    HW136089   4.238   1.761  16.789  0.6767  0.4295  1.2950
 8209SOL    HW236090   4.098   1.756  16.752  1.0296 -1.5279 -0.8423
 8210SOL     OW36091   1.432   0.691  11.739  0.1111  0.7276 -0.2322
 8210SOL    HW136092   1.484   0.611  11.746 -0.8260  0.2825  1.6164
 8210SOL    HW236093   1.430   0.717  11.647 -1.1912 -1.7665 -0.8861
 8211SOL     OW36094   0.128   3.142   4.946  0.4675  0.2024  0.7162
 8211SOL    HW136095   0.168   3.177   4.866 -0.6147 -0.1179  0.0427
 8211SOL    HW236096   0.212   3.112   4.983  0.1312 -1.2250  0.3188
 8212SOL     OW36097   1.168   1.832  17.414 -0.7928  0.1342  0.1650
 8212SOL    HW136098   1.122   1.751  17.391  0.4984 -0.5969  0.1579
 8212SOL    HW236099   1.096   1.895  17.405 -1.7612 -1.0284 -0.2104
 8213SOL     OW36100   0.699   4.215   5.685  0.0977  0.0005 -0.0709
 8213SOL    HW136101   0.656   4.149   5.631 -0.1512 -0.7160  0.9973
 8213SOL    HW236102   0.634   4.224   5.754 -0.3896 -0.1895 -0.5012
 8214SOL     OW36103   1.634   2.309   2.387 -0.4709 -0.4505  0.2312
 8214SOL    HW136104   1.695   2.260   2.332  0.8516  2.2803 -0.7170
 8214SOL    HW236105   1.567   2.245   2.410 -0.8174 -0.1919 -0.0601
 8215SOL     OW36106   1.004   0.912   9.248  0.1905 -0.1220 -0.4649
 8215SOL    HW136107   0.979   0.819   9.242  1.9202 -0.6376  0.5126
 8215SOL    HW236108   1.077   0.903   9.308  1.4770  1.6323 -1.7736
 8216SOL     OW36109   0.921   2.968   4.175 -0.3426 -0.2813 -0.1327
 8216SOL    HW136110   0.900   3.054   4.212 -1.1859 -0.7511  0.4673
 8216SOL    HW236111   1.012   2.961   4.204 -0.9889 -0.6141  1.8244
 8217SOL     OW36112   4.248   0.091   2.843  0.3311  0.0930 -0.3867
 8217SOL    HW136113   4.174   0.031   2.845  1.1434 -0.8971 -0.5074
 8217SOL    HW236114   4.307   0.041   2.900 -0.3742  1.5070  1.6009
 8218SOL     OW36115   0.985   4.488   4.557  0.7012 -0.1047  0.5470
 8218SOL    HW136116   1.022   4.571   4.588  0.9852  0.1982 -0.5878
 8218SOL    HW236117   0.914   4.514   4.498 -0.7075 -0.5861  2.0567
 8219SOL     OW36118   3.703   1.989   3.717  0.0337  0.6012  0.0125
 8219SOL    HW136119   3.709   1.979   3.622 -0.5343  1.0093 -0.0651
 8219SOL    HW236120   3.676   1.899   3.737 -0.9170  0.9295  0.2287
 8220SOL     OW36121   0.152   1.460   9.674  0.4864 -0.2654  0.2268
 8220SOL    HW136122   0.123   1.370   9.687  0.4858 -0.4341 -0.9280
 8220SOL    HW236123   0.069   1.508   9.672 -0.2692 -1.5661  0.7916
 8221SOL     OW36124   1.826   3.483   7.089  0.4578 -0.1800 -0.3959
 8221SOL    HW136125   1.743   3.468   7.044 -0.1540 -0.1236  0.7377
 8221SOL    HW236126   1.877   3.418   7.040  0.3150  0.5787 -1.5629
 8222SOL     OW36127   3.648   2.626   3.262 -0.4888 -0.4012 -0.0306
 8222SOL    HW136128   3.604   2.658   3.183 -1.8543 -0.7245  0.6049
 8222SOL    HW236129   3.676   2.539   3.233  1.1761  0.7562 -1.8969
 8223SOL     OW36130   3.368   4.480   4.256  0.4299 -0.4393 -0.2003
 8223SOL    HW136131   3.354   4.396   4.300  0.4347  0.8825  2.3356
 8223SOL    HW236132   3.345   4.545   4.322  0.1268  0.7798 -1.5023
 8224SOL     OW36133   1.991   3.914  12.924 -0.3834 -0.0188  0.1454
 8224SOL    HW136134   2.005   3.932  13.017 -0.3275  2.7141 -0.3803
 8224SOL    HW236135   1.976   3.820  12.927 -1.1497  0.1698  2.1425
 8225SOL     OW36136   0.416   1.712   7.945  0.0278  0.2826  0.2727
 8225SOL    HW136137   0.428   1.806   7.932 -0.3997  0.2185 -0.6276
 8225SOL    HW236138   0.417   1.694   8.039  0.5845 -3.9363 -0.5204
 8226SOL     OW36139   1.868   1.159   9.725 -0.6252  0.1285 -0.0091
 8226SOL    HW136140   1.924   1.209   9.665 -0.1588  0.1326  0.4275
 8226SOL    HW236141   1.805   1.112   9.672 -0.7868  0.8470 -0.4570
 8227SOL     OW36142   0.084   4.394   4.480  0.1131  0.1346  0.0252
 8227SOL    HW136143   0.027   4.440   4.541 -2.8131 -1.4766 -1.5354
 8227SOL    HW236144   0.161   4.452   4.481 -0.7335  1.2487 -0.2448
 8228SOL     OW36145   2.720   1.386   8.207 -0.2089  0.3217  0.1350
 8228SOL    HW136146   2.727   1.477   8.178  0.5193  0.5682  1.0631
 8228SOL    HW236147   2.662   1.355   8.138  0.3353  3.0929 -1.5668
 8229SOL     OW36148   3.539   2.989   8.004 -0.1335  0.0339 -0.0282
 8229SOL    HW136149   3.585   3.072   7.996 -0.2565  0.0032 -1.0659
 8229SOL    HW236150   3.505   3.008   8.091 -1.0303  0.4908 -0.4687
 8230SOL     OW36151   4.036   3.697   5.949 -0.3537  0.2028  0.3762
 8230SOL    HW136152   4.047   3.704   6.044  0.2607  2.0992  0.1777
 8230SOL    HW236153   4.052   3.606   5.922  2.8085  0.9180 -0.2285
 8231SOL     OW36154   1.840   0.042  16.835  0.2216  0.4745  0.1758
 8231SOL    HW136155   1.756   0.037  16.882  0.5036  1.1561  0.7498
 8231SOL    HW236156   1.868   0.134  16.839  1.1428  0.1385  1.4246
 8232SOL     OW36157   0.606   3.933   5.759  0.2755  0.3685 -0.4664
 8232SOL    HW136158   0.574   3.859   5.811 -1.1443  1.8599  0.7976
 8232SOL    HW236159   0.633   4.002   5.820 -1.0624  0.7603 -0.2923
 8233SOL     OW36160   0.024   0.296   1.811 -0.2518 -0.5421 -0.6239
 8233SOL    HW136161   0.092   0.245   1.854  0.7446  2.5904  1.5391
 8233SOL    HW236162   4.666   0.260   1.854  2.8073 -2.9417  2.9176
 8234SOL     OW36163   2.057   2.146  14.878  0.0311 -0.1891  0.5950
 8234SOL    HW136164   2.010   2.192  14.947  0.3548  1.0335  0.0127
 8234SOL    HW236165   2.096   2.075  14.928  2.8280  2.6974  2.5326
 8235SOL     OW36166   2.609   0.435  11.685 -0.4217 -0.3462  0.0835
 8235SOL    HW136167   2.625   0.518  11.731 -0.8764 -0.5286  0.5762
 8235SOL    HW236168   2.681   0.386  11.725  1.1479  2.7621  1.1077
 8236SOL     OW36169   2.275   2.417   0.233 -0.5709 -0.5352  0.0131
 8236SOL    HW136170   2.332   2.376   0.168  1.1206  0.2910  0.9706
 8236SOL    HW236171   2.343   2.468   0.277 -2.0067  1.6303 -0.2698
 8237SOL     OW36172   0.873   3.716   3.626  0.0156  0.2823  0.0680
 8237SOL    HW136173   0.789   3.724   3.671  0.9505  1.5141  1.5491
 8237SOL    HW236174   0.848   3.719   3.533 -0.7384  2.8699  0.3554
 8238SOL     OW36175   2.015   1.190  10.633 -0.3046 -0.0499 -0.1990
 8238SOL    HW136176   1.963   1.218  10.558  1.9900 -0.4059 -1.9071
 8238SOL    HW236177   1.998   1.096  10.627 -0.2944 -0.0943  0.4725
 8239SOL     OW36178   2.931   0.876  15.081 -0.1291 -0.7372  0.4506
 8239SOL    HW136179   2.879   0.831  15.148  2.8134 -0.0253  3.1972
 8239SOL    HW236180   3.023   0.852  15.090 -0.3027 -1.1709  1.0954
 8240SOL     OW36181   0.162   2.732   5.617 -0.5964 -0.7589 -0.6023
 8240SOL    HW136182   0.236   2.748   5.675 -1.3012 -0.2960  0.1741
 8240SOL    HW236183   0.126   2.820   5.629  1.2420 -0.3982  2.3587
 8241SOL     OW36184   1.563   2.206   6.163 -0.0648  0.1257  0.2874
 8241SOL    HW136185   1.493   2.228   6.102  1.2866 -1.1715 -1.7466
 8241SOL    HW236186   1.628   2.276   6.152 -0.2147  0.1042 -0.7278
 8242SOL     OW36187   1.599   4.511   2.076 -0.4221 -0.0623  0.0850
 8242SOL    HW136188   1.535   4.559   2.023 -1.3971 -1.5655 -0.1119
 8242SOL    HW236189   1.558   4.424   2.072 -0.2245 -0.2889  3.1082
 8243SOL     OW36190   3.735   4.171  15.034 -0.2176  0.1864  0.0210
 8243SOL    HW136191   3.755   4.251  14.985 -0.0385 -0.7131 -1.3649
 8243SOL    HW236192   3.642   4.159  15.016 -0.2786 -1.0755  1.2180
 8244SOL     OW36193   3.652   2.111   6.239 -0.2605  0.1507 -0.0659
 8244SOL    HW136194   3.571   2.059   6.240 -0.0970 -0.0840  0.9616
 8244SOL    HW236195   3.630   2.189   6.290 -0.3596  0.6178 -0.8341
 8245SOL     OW36196   0.109   4.660  15.475  0.3013  0.3079  0.0164
 8245SOL    HW136197   0.173   4.590  15.487 -1.2423 -1.2586 -0.7532
 8245SOL    HW236198   0.146   4.714  15.545  0.8394 -3.3255  2.5383
 8246SOL     OW36199   4.543   4.113   8.175 -0.8327  0.1159 -0.1815
 8246SOL    HW136200   4.498   4.160   8.105  0.7052  1.3587 -0.3370
 8246SOL    HW236201   4.570   4.187   8.229 -1.1681 -1.5143  2.2350
 8247SOL     OW36202   2.153   2.053   7.215  0.3271  0.0509  0.0028
 8247SOL    HW136203   2.237   2.100   7.220 -1.4366  3.1663 -0.0724
 8247SOL    HW236204   2.143   2.043   7.309 -2.1493 -3.1011 -0.6202
 8248SOL     OW36205   4.623   1.740   9.374  0.2590  0.2301  1.1724
 8248SOL    HW136206   4.563   1.741   9.450  0.9568 -2.6466  1.7720
 8248SOL    HW236207   4.696   1.685   9.402  1.4046  1.0596 -0.2247
 8249SOL     OW36208   4.221   1.664   3.130 -0.6624 -0.4403 -0.0366
 8249SOL    HW136209   4.158   1.736   3.139 -1.0119 -0.7019 -0.4056
 8249SOL    HW236210   4.210   1.627   3.043 -0.5087 -3.1226  1.0945
 8250SOL     OW36211   1.250   0.756   6.071 -0.5002  0.5973  0.3095
 8250SOL    HW136212   1.164   0.762   6.030 -0.0917  1.4944 -0.4269
 8250SOL    HW236213   1.304   0.723   5.999 -0.3574  3.2215 -0.7798
 8251SOL     OW36214   2.065   0.759   8.397 -0.0761 -0.1518  0.3567
 8251SOL    HW136215   2.040   0.823   8.330  0.2385  0.5602  0.9205
 8251SOL    HW236216   1.979   0.719   8.405  0.6659 -1.6928  0.8308
 8252SOL     OW36217   2.502   0.409   6.141 -0.0521  0.6969 -0.5536
 8252SOL    HW136218   2.592   0.438   6.157 -0.2959  0.8116  0.6572
 8252SOL    HW236219   2.453   0.433   6.220  1.9269  1.1058  0.5482
 8253SOL     OW36220   2.479   1.876   5.099  0.2715 -0.0515  0.2702
 8253SOL    HW136221   2.517   1.958   5.066 -0.7401 -0.5476 -2.1178
 8253SOL    HW236222   2.543   1.856   5.167  0.7528  0.5561 -0.0009
 8254SOL     OW36223   4.619   4.521  15.025 -0.5110  0.5704  0.4210
 8254SOL    HW136224   4.538   4.541  14.978  0.2033 -0.0058 -1.0712
 8254SOL    HW236225   4.638   4.600  15.076 -1.7003  1.0394  0.1335
 8255SOL     OW36226   2.150   3.163  17.450 -0.1782 -0.0185  0.2350
 8255SOL    HW136227   2.200   3.238  17.417  0.3186 -0.4366  0.0399
 8255SOL    HW236228   2.194   3.156  17.534  0.8305  1.0743 -0.1864
 8256SOL     OW36229   0.545   3.550   3.510 -0.1157 -0.2358  0.0473
 8256SOL    HW136230   0.567   3.638   3.541 -3.1673  0.7401 -0.5594
 8256SOL    HW236231   0.457   3.566   3.475  0.0137  0.2447 -0.0606
 8257SOL     OW36232   0.298   3.007  15.247 -0.2835 -0.0198  0.6467
 8257SOL    HW136233   0.206   3.026  15.261  0.3680  1.0724  3.5823
 8257SOL    HW236234   0.340   3.079  15.199 -0.8715  0.7792  1.3396
 8258SOL     OW36235   1.886   2.142   6.630 -0.0091  0.2769 -0.4286
 8258SOL    HW136236   1.940   2.171   6.557  3.5455 -1.8295  1.3916
 8258SOL    HW236237   1.928   2.059   6.651  0.1370 -0.0493 -2.0553
 8259SOL     OW36238   3.099   1.143  15.268  0.1246  0.1013 -0.5655
 8259SOL    HW136239   3.044   1.219  15.285 -1.5836 -1.1980 -0.3568
 8259SOL    HW236240   3.043   1.076  15.228  1.8832 -1.4462 -0.4663
 8260SOL     OW36241   4.565   4.213   6.574  0.0102 -0.3960  0.2640
 8260SOL    HW136242   4.547   4.161   6.496 -1.2965 -0.1266  0.3877
 8260SOL    HW236243   4.510   4.289   6.557 -0.1242  0.1888  3.3720
 8261SOL     OW36244   2.649   3.825   3.238 -0.2597  0.0787 -0.1833
 8261SOL    HW136245   2.647   3.729   3.233 -2.0446  0.1495 -0.9072
 8261SOL    HW236246   2.572   3.845   3.292 -0.3838 -0.6982 -0.0696
 8262SOL     OW36247   1.263   1.538   8.838  0.2494 -0.4446  0.3930
 8262SOL    HW136248   1.247   1.447   8.814  0.8344 -0.4906  0.1749
 8262SOL    HW236249   1.346   1.547   8.792  0.4801 -0.4486  0.8048
 8263SOL     OW36250   2.767   3.314   0.460  0.1980  0.1982  0.1955
 8263SOL    HW136251   2.745   3.293   0.551 -2.2174  1.6920 -0.0359
 8263SOL    HW236252   2.743   3.407   0.454  3.4433  1.0605  0.5537
 8264SOL     OW36253   1.615   2.291   3.362 -0.1001 -0.6567 -0.4132
 8264SOL    HW136254   1.572   2.207   3.348 -0.1781 -0.6484 -0.2221
 8264SOL    HW236255   1.552   2.358   3.338  1.5228  1.2411  0.6769
 8265SOL     OW36256   1.401   4.297   9.527 -0.1292  0.3106  0.0648
 8265SOL    HW136257   1.352   4.230   9.478  2.6007 -1.2533 -0.5337
 8265SOL    HW236258   1.454   4.247   9.589 -1.4201 -0.9535  0.1564
 8266SOL     OW36259   1.045   0.869  13.301 -0.1200  0.2879  0.2858
 8266SOL    HW136260   1.007   0.921  13.231  1.7804  0.6370 -0.4889
 8266SOL    HW236261   0.984   0.895  13.371  0.9061  0.4715  1.1215
 8267SOL     OW36262   1.196   3.034   3.444  0.0029  0.0911  0.2279
 8267SOL    HW136263   1.166   3.113   3.489  2.8848  0.3837  1.6394
 8267SOL    HW236264   1.198   2.969   3.514 -0.0732 -0.5233 -0.3399
 8268SOL     OW36265   0.036   1.910   8.628  0.0361 -0.4328 -0.0092
 8268SOL    HW136266   0.061   1.983   8.572  0.0521 -1.6610 -1.5934
 8268SOL    HW236267   0.067   1.942   8.713 -0.1662 -1.4226  0.4378
 8269SOL     OW36268   0.597   3.506   7.412 -0.1616  0.0643  0.5757
 8269SOL    HW136269   0.673   3.525   7.466  1.3808 -3.4045 -0.3695
 8269SOL    HW236270   0.550   3.449   7.473 -0.1266 -0.7641 -0.1762
 8270SOL     OW36271   2.927   2.091   4.163  0.6569  0.1036 -1.0961
 8270SOL    HW136272   2.947   2.137   4.245 -0.5035 -0.5388 -0.4712
 8270SOL    HW236273   2.859   2.036   4.201  1.0104  1.1280  1.0532
 8271SOL     OW36274   1.239   4.142   1.524  0.0278  0.1976 -0.4452
 8271SOL    HW136275   1.324   4.119   1.488 -0.2210 -0.1723 -0.7949
 8271SOL    HW236276   1.181   4.110   1.455 -0.9744 -0.5388  0.7492
 8272SOL     OW36277   3.584   4.031  13.510  0.3423  0.6686  0.2285
 8272SOL    HW136278   3.611   3.941  13.528 -0.4562  0.7912  2.0436
 8272SOL    HW236279   3.511   4.024  13.449 -0.5118  1.1367  1.1961
 8273SOL     OW36280   3.731   1.754  10.739  0.0378 -0.4414 -0.1715
 8273SOL    HW136281   3.705   1.794  10.656 -0.9890  3.1629  1.9191
 8273SOL    HW236282   3.695   1.668  10.717  0.7664 -0.5986 -0.7715
 8274SOL     OW36283   1.710   0.086   9.132  0.3232  0.0440 -0.3188
 8274SOL    HW136284   1.758   0.115   9.054  0.6224 -1.8374 -0.8209
 8274SOL    HW236285   1.776   0.093   9.201 -0.6020  0.3098  0.5226
 8275SOL     OW36286   4.230   4.170   3.733  0.2600 -0.4243  0.5350
 8275SOL    HW136287   4.179   4.094   3.760 -2.1342  1.2120  0.6147
 8275SOL    HW236288   4.161   4.234   3.750 -0.5614 -1.0799 -0.3171
 8276SOL     OW36289   0.314   1.112   6.001 -0.7913 -0.5204  0.1926
 8276SOL    HW136290   0.342   1.149   6.084  0.0089 -0.5593 -0.0584
 8276SOL    HW236291   0.330   1.186   5.943  0.5929  0.0462  1.3132
 8277SOL     OW36292   3.944   1.528   3.033  0.0389  0.2278 -0.5462
 8277SOL    HW136293   3.994   1.470   3.091 -0.2106  0.7541  0.1916
 8277SOL    HW236294   3.871   1.471   3.009  1.3607 -1.9383  0.6241
 8278SOL     OW36295   3.995   3.849   2.701 -0.5932  0.4605  0.0981
 8278SOL    HW136296   3.919   3.902   2.676  0.8883  2.3704 -0.4195
 8278SOL    HW236297   3.964   3.808   2.782  2.6155  0.6896  1.4307
 8279SOL     OW36298   4.487   3.181   8.913 -0.3819 -0.2660  0.2836
 8279SOL    HW136299   4.485   3.159   9.006  1.8296 -2.8813 -0.2950
 8279SOL    HW236300   4.557   3.125   8.880 -0.6960  0.1345 -1.0636
 8280SOL     OW36301   2.744   3.729  12.813  0.4758 -0.1113 -0.2864
 8280SOL    HW136302   2.704   3.812  12.787  0.3684  0.5531  1.9818
 8280SOL    HW236303   2.831   3.740  12.776 -0.1503  1.0314 -1.4038
 8281SOL     OW36304   4.228   3.579  15.281 -0.0617  0.2743  0.2192
 8281SOL    HW136305   4.283   3.656  15.265  0.2938 -0.2284 -0.9341
 8281SOL    HW236306   4.284   3.503  15.288 -0.1648  0.0808 -1.0946
 8282SOL     OW36307   4.121   1.664   5.902 -0.5446 -0.6957 -0.3467
 8282SOL    HW136308   4.194   1.605   5.922 -1.3255 -2.5325 -2.9451
 8282SOL    HW236309   4.074   1.609   5.839 -0.2615  0.2642 -1.3958
 8283SOL     OW36310   2.986   4.549   2.710 -0.5376 -0.3873 -0.6204
 8283SOL    HW136311   3.069   4.501   2.709 -0.8736 -0.9424 -1.8799
 8283SOL    HW236312   2.917   4.497   2.750 -1.5535 -0.3650 -2.3740
 8284SOL     OW36313   2.991   0.141   8.661  0.0545 -0.2222  0.9165
 8284SOL    HW136314   2.910   0.175   8.623 -0.8787 -1.1887  2.0234
 8284SOL    HW236315   3.038   0.222   8.679 -2.5821  2.1244 -2.6395
 8285SOL     OW36316   1.950   2.458   3.731  0.5920 -0.1762 -0.1877
 8285SOL    HW136317   1.978   2.475   3.641  1.5508 -0.3132  0.0759
 8285SOL    HW236318   2.030   2.476   3.780  1.4388  0.3386 -1.7400
 8286SOL     OW36319   2.059   1.210  16.473 -0.1939 -0.4925  0.3543
 8286SOL    HW136320   2.120   1.169  16.534 -0.1857 -1.1436 -0.0834
 8286SOL    HW236321   1.990   1.144  16.461 -0.6434  0.0327  0.0809
 8287SOL     OW36322   3.669   2.694   5.529 -0.6045 -0.0107  0.0599
 8287SOL    HW136323   3.736   2.761   5.542  1.3914 -1.6276 -1.8212
 8287SOL    HW236324   3.593   2.743   5.500 -1.4359 -0.9382  0.6795
 8288SOL     OW36325   3.929   2.349   8.920  0.3974  0.2452  0.2577
 8288SOL    HW136326   3.910   2.335   9.013 -0.0959 -1.0121 -0.0329
 8288SOL    HW236327   3.962   2.438   8.933 -0.7484  0.8181 -0.7592
 8289SOL     OW36328   2.344   1.750   9.890  0.2104  0.5390 -0.1461
 8289SOL    HW136329   2.281   1.771   9.959  2.5039  1.5824  1.6195
 8289SOL    HW236330   2.376   1.664   9.920 -1.3894  0.2276  0.6801
 8290SOL     OW36331   0.657   4.619  12.320 -0.1998 -0.3067 -0.0133
 8290SOL    HW136332   0.694   4.558  12.257 -2.6091  0.0216 -1.7364
 8290SOL    HW236333   0.625   4.554  12.383 -1.8381  2.4957  2.0275
 8291SOL     OW36334   2.222   4.660  15.064 -0.1082  0.1152  0.1598
 8291SOL    HW136335   2.168   4.697  15.134 -0.9556 -1.6981  0.4449
 8291SOL    HW236336   2.283   0.015  15.058  0.5931 -0.4980 -0.2495
 8292SOL     OW36337   4.656   3.301   0.509  0.2633  0.0671 -0.1772
 8292SOL    HW136338   4.576   3.310   0.561 -0.0994  3.0045 -1.2734
 8292SOL    HW236339   4.616   3.317   0.424  0.1478  2.0808  0.2613
 8293SOL     OW36340   0.300   3.355  17.141  1.1367 -0.0016 -0.3755
 8293SOL    HW136341   0.216   3.381  17.177  1.9470  0.4803  1.1572
 8293SOL    HW236342   0.329   3.282  17.196 -2.8269 -1.7324 -0.6198
 8294SOL     OW36343   2.394   1.839   2.337 -0.4510  0.2370  0.1194
 8294SOL    HW136344   2.487   1.859   2.340 -0.0982 -1.3752  0.1091
 8294SOL    HW236345   2.397   1.765   2.398  1.5766  0.0112 -0.2652
 8295SOL     OW36346   0.697   0.098  14.067 -0.1818 -0.7713  0.3777
 8295SOL    HW136347   0.604   0.108  14.090  0.6673 -1.1845  3.9431
 8295SOL    HW236348   0.692   0.057  13.980 -1.9936 -3.6794  1.8616
 8296SOL     OW36349   3.359   1.956  14.471 -0.0702  0.2601 -0.2749
 8296SOL    HW136350   3.298   1.942  14.544  1.0071  1.6155  0.8872
 8296SOL    HW236351   3.343   1.879  14.417  0.3287  0.4100 -0.5989
 8297SOL     OW36352   1.194   1.990   5.014  0.0079  0.2088  0.1833
 8297SOL    HW136353   1.260   1.998   5.083 -0.4582 -4.0602  1.1104
 8297SOL    HW236354   1.220   2.064   4.959  2.0535 -0.3478  0.4298
 8298SOL     OW36355   2.459   0.943   4.187 -0.1990 -0.6935  0.0342
 8298SOL    HW136356   2.449   0.848   4.189  0.1900 -0.7554 -1.2648
 8298SOL    HW236357   2.429   0.973   4.273  2.0781  2.2416 -0.1869
 8299SOL     OW36358   3.002   0.424   3.612  0.0958 -0.0731 -0.2831
 8299SOL    HW136359   2.934   0.418   3.545 -0.1481  2.0411 -0.2198
 8299SOL    HW236360   3.000   0.519   3.624  0.6483  0.0679 -1.3235
 8300SOL     OW36361   3.711   3.191   9.758 -0.0523  0.1192 -0.4935
 8300SOL    HW136362   3.763   3.271   9.771  1.0927 -0.6895 -0.1033
 8300SOL    HW236363   3.781   3.127   9.771  0.3715  0.6894  0.0070
 8301SOL     OW36364   1.683   3.717  13.941 -0.3366 -0.3759  0.5322
 8301SOL    HW136365   1.633   3.796  13.922  0.2045 -0.2523 -0.3950
 8301SOL    HW236366   1.766   3.754  13.972  0.7917 -0.4794 -2.3323
 8302SOL     OW36367   1.757   3.443   4.654 -0.1615 -0.2021  0.3874
 8302SOL    HW136368   1.814   3.468   4.727 -2.3344 -0.6592  2.2463
 8302SOL    HW236369   1.801   3.367   4.617  0.3589  1.7281 -2.9875
 8303SOL     OW36370   0.378   1.839   7.574  0.3626  0.4240  0.3206
 8303SOL    HW136371   0.315   1.861   7.505 -0.5785 -0.2761  0.9559
 8303SOL    HW236372   0.329   1.769   7.616  0.1892 -0.7977 -1.9069
 8304SOL     OW36373   2.529   3.773   0.116  0.2047  0.2736  0.1791
 8304SOL    HW136374   2.440   3.741   0.103  0.1424  0.9058 -0.9752
 8304SOL    HW236375   2.554   3.768   0.024  0.7346 -1.3378  0.4080
 8305SOL     OW36376   1.453   2.827   3.883 -0.5577  0.8648 -0.6401
 8305SOL    HW136377   1.438   2.737   3.913  1.1391  0.7889 -0.0018
 8305SOL    HW236378   1.539   2.846   3.921 -0.0167  0.5441 -1.6924
 8306SOL     OW36379   1.760   3.888  11.332 -0.1498  0.0893  0.5615
 8306SOL    HW136380   1.757   3.792  11.329  1.6804  0.0886 -1.4574
 8306SOL    HW236381   1.668   3.906  11.319 -0.1209  0.6642  1.1628
 8307SOL     OW36382   2.542   0.746   5.157 -0.1349 -0.0186  0.5778
 8307SOL    HW136383   2.448   0.761   5.154 -0.0638  0.2320 -0.2518
 8307SOL    HW236384   2.557   0.760   5.251  1.0454  2.4240  0.0269
 8308SOL     OW36385   4.024   3.462   1.573 -0.2442 -0.3280  0.2031
 8308SOL    HW136386   4.036   3.532   1.637 -1.8633 -0.0787  0.2426
 8308SOL    HW236387   4.017   3.385   1.630 -1.7060  0.4350  1.0560
 8309SOL     OW36388   3.915   4.430  12.770  0.1122 -0.1976  0.1791
 8309SOL    HW136389   4.007   4.406  12.757  0.2911  0.7525 -0.2863
 8309SOL    HW236390   3.897   4.396  12.858 -3.0247 -0.1049 -0.4201
 8310SOL     OW36391   3.790   2.935   2.560 -0.0312  0.3447  0.0158
 8310SOL    HW136392   3.775   2.842   2.576  0.7403  0.2639  0.2849
 8310SOL    HW236393   3.761   2.973   2.644  0.5845  0.3829  0.2143
 8311SOL     OW36394   2.874   3.153   8.670 -0.4678 -0.3098 -0.3389
 8311SOL    HW136395   2.886   3.228   8.611  1.5499 -0.1104  0.3051
 8311SOL    HW236396   2.789   3.124   8.639 -0.9890  0.0962  0.7203
 8312SOL     OW36397   3.150   2.645  11.406 -0.0141  0.0563  0.3346
 8312SOL    HW136398   3.240   2.612  11.417 -0.1897 -0.3248  0.6128
 8312SOL    HW236399   3.129   2.691  11.488  1.0422  0.9053  0.1337
 8313SOL     OW36400   1.273   1.624   7.931  0.0354 -0.1103  0.2725
 8313SOL    HW136401   1.264   1.645   7.838  0.2234  0.4898  0.3956
 8313SOL    HW236402   1.350   1.566   7.922 -1.0926 -1.1444 -2.9254
 8314SOL     OW36403   1.828   2.955   8.646 -0.5790 -0.1411 -0.2323
 8314SOL    HW136404   1.881   2.908   8.582  1.2291  2.8971 -0.9691
 8314SOL    HW236405   1.861   2.935   8.734  0.4224 -1.7227 -0.9579
 8315SOL     OW36406   0.985   4.095   8.093 -0.4824  0.1452  0.3443
 8315SOL    HW136407   0.889   4.094   8.086 -0.4757  0.1040  0.2579
 8315SOL    HW236408   1.002   4.188   8.081 -0.0163  0.1116  0.7469
 8316SOL     OW36409   1.256   3.229  11.598 -0.3355 -0.4588 -0.2516
 8316SOL    HW136410   1.167   3.246  11.630 -0.3435  0.0685 -0.5593
 8316SOL    HW236411   1.233   3.176  11.522  1.3171 -1.6034  0.0558
 8317SOL     OW36412   3.722   1.195  14.486  0.1551 -0.1252 -0.7395
 8317SOL    HW136413   3.750   1.128  14.423 -1.0415 -2.1427  0.8552
 8317SOL    HW236414   3.807   1.235  14.503 -0.0275  0.6631 -1.7338
 8318SOL     OW36415   4.082   4.566   7.060 -0.0293  0.3082 -0.0206
 8318SOL    HW136416   4.152   4.622   7.026 -0.2296 -0.9181 -2.4644
 8318SOL    HW236417   4.129   4.483   7.072 -1.3720 -0.7882 -2.4337
 8319SOL     OW36418   0.315   2.461   3.386 -0.0642 -0.4086 -0.3009
 8319SOL    HW136419   0.245   2.408   3.349  0.2460 -1.1391  0.1721
 8319SOL    HW236420   0.292   2.475   3.478  1.3523  2.2995 -0.3491
 8320SOL     OW36421   1.193   2.341   9.609 -1.0425  0.3484 -0.1446
 8320SOL    HW136422   1.119   2.287   9.581 -1.0686  1.2814 -1.8555
 8320SOL    HW236423   1.261   2.274   9.612 -2.0638 -0.7162 -0.6825
 8321SOL     OW36424   2.391   2.458   1.969 -0.3127 -0.0274  0.5137
 8321SOL    HW136425   2.353   2.510   1.898  1.7353 -0.2150 -0.7394
 8321SOL    HW236426   2.448   2.396   1.923 -2.5777  0.7314 -3.3480
 8322SOL     OW36427   1.234   2.645   5.419 -0.3036 -0.3023  0.4101
 8322SOL    HW136428   1.147   2.685   5.423  0.0117  0.3715  0.5156
 8322SOL    HW236429   1.272   2.663   5.333 -0.3152  0.9433  0.6600
 8323SOL     OW36430   1.641   2.234   6.522 -0.2325  0.1818 -0.2196
 8323SOL    HW136431   1.706   2.184   6.571  0.6397  1.8370  0.3140
 8323SOL    HW236432   1.663   2.324   6.543 -0.1806  0.3604 -1.0603
 8324SOL     OW36433   0.563   2.994   7.063  0.4291 -0.5222 -0.2539
 8324SOL    HW136434   0.495   2.943   7.106 -0.0896  0.9724  0.6981
 8324SOL    HW236435   0.604   2.939   6.996 -0.2425 -1.7676  0.3649
 8325SOL     OW36436   3.224   4.157   5.815  0.1008  0.2274 -0.3168
 8325SOL    HW136437   3.156   4.098   5.782 -0.3310  0.4975  0.0868
 8325SOL    HW236438   3.233   4.118   5.902 -1.6419  1.1278  0.2549
 8326SOL     OW36439   4.351   0.678   0.843  0.0147  0.5950 -0.1826
 8326SOL    HW136440   4.333   0.756   0.895 -0.9306  1.2155 -1.4125
 8326SOL    HW236441   4.373   0.716   0.757  1.7691 -0.6695 -0.2771
 8327SOL     OW36442   4.595   0.050   8.445 -0.2232  0.3440 -0.4292
 8327SOL    HW136443   4.640   4.709   8.504 -0.3668  1.5111  0.8782
 8327SOL    HW236444   4.660   0.119   8.436  0.4451 -0.0970  1.0642
 8328SOL     OW36445   1.350   3.144   3.915  0.4225  0.0608 -0.1777
 8328SOL    HW136446   1.403   3.068   3.891 -0.3084 -1.0069  1.6026
 8328SOL    HW236447   1.386   3.200   3.846  1.5964 -1.3155 -0.6961
 8329SOL     OW36448   0.248   0.703   4.997 -0.3483  0.0952 -0.1704
 8329SOL    HW136449   0.223   0.649   5.072 -0.7366  0.1564 -0.2572
 8329SOL    HW236450   0.176   0.682   4.939 -1.0955 -1.6948  1.3991
 8330SOL     OW36451   3.705   3.562   4.930 -0.0666 -0.2204  0.2472
 8330SOL    HW136452   3.642   3.497   4.898  1.5509 -1.1419 -1.1284
 8330SOL    HW236453   3.784   3.522   4.894 -0.1609 -0.3276  0.1583
 8331SOL     OW36454   4.614   2.353  11.736 -0.3520  0.6760 -0.3563
 8331SOL    HW136455   4.651   2.265  11.737  0.7203  1.1157 -1.0792
 8331SOL    HW236456   4.528   2.333  11.700  0.1016  1.2986 -1.7601
 8332SOL     OW36457   0.901   3.144   1.541  0.0545  0.3976  0.9425
 8332SOL    HW136458   0.889   3.093   1.621 -1.8161 -1.3661 -0.4607
 8332SOL    HW236459   0.987   3.186   1.549  0.5050 -0.3477  0.0843
 8333SOL     OW36460   0.187   3.820   5.251 -0.5441  0.3195 -0.1972
 8333SOL    HW136461   0.266   3.766   5.249 -0.5445  0.3263 -0.3853
 8333SOL    HW236462   0.130   3.773   5.190  1.0131 -3.2002  1.0477
 8334SOL     OW36463   1.009   3.719   2.537 -0.1902  0.0569 -0.2756
 8334SOL    HW136464   1.036   3.745   2.625 -0.3494  0.0555 -0.2268
 8334SOL    HW236465   0.941   3.657   2.563 -1.4608  0.8898 -1.5688
 8335SOL     OW36466   3.397   2.621  10.050  0.1091 -0.5461 -0.4029
 8335SOL    HW136467   3.383   2.651   9.960  2.8765 -0.3702 -0.7760
 8335SOL    HW236468   3.401   2.705  10.094  0.1850 -0.6097 -0.2872
 8336SOL     OW36469   1.093   3.079   6.301  0.0439  0.6240 -0.1081
 8336SOL    HW136470   1.169   3.089   6.359  1.7633  2.3077 -2.6637
 8336SOL    HW236471   1.127   3.003   6.254 -1.3044 -0.0957  0.0622
 8337SOL     OW36472   1.668   3.821   1.968 -0.8386  0.6182  0.5445
 8337SOL    HW136473   1.639   3.731   1.959  0.1936  0.3845 -0.4780
 8337SOL    HW236474   1.714   3.830   1.885  1.6670  0.9181  1.9579
 8338SOL     OW36475   4.430   1.920   2.461  0.2139  0.1718 -0.0858
 8338SOL    HW136476   4.448   1.997   2.514 -0.4647 -1.1857  2.1275
 8338SOL    HW236477   4.336   1.930   2.475 -0.0229 -1.8566 -0.1452
 8339SOL     OW36478   0.894   0.241   8.217  0.5438  0.4181  0.4545
 8339SOL    HW136479   0.954   0.298   8.170  1.8779 -0.6010  0.9058
 8339SOL    HW236480   0.933   0.154   8.204 -0.2211 -0.2200  2.4268
 8340SOL     OW36481   2.850   4.716   2.260 -0.0102  0.0593 -0.5466
 8340SOL    HW136482   2.886   4.695   2.347 -0.0122  3.8346  0.3622
 8340SOL    HW236483   2.918   4.681   2.202 -0.8423 -1.1165 -0.7966
 8341SOL     OW36484   0.984   1.528   2.852  0.1304 -0.7868  0.0270
 8341SOL    HW136485   0.941   1.467   2.792  0.4531  0.0689 -1.0747
 8341SOL    HW236486   1.043   1.463   2.890 -0.1627 -0.9699  0.1637
 8342SOL     OW36487   2.343   4.235   6.901 -0.9162 -0.1286 -0.3478
 8342SOL    HW136488   2.284   4.308   6.884 -1.6168 -0.9620 -1.4893
 8342SOL    HW236489   2.346   4.195   6.814  1.3445  0.6668 -0.6373
 8343SOL     OW36490   2.812   4.392   3.282  0.1002 -0.2619  0.1065
 8343SOL    HW136491   2.871   4.459   3.246  1.3037 -1.7950 -0.7880
 8343SOL    HW236492   2.863   4.314   3.303  0.0283  0.2637  2.2175
 8344SOL     OW36493   1.451   3.012   7.163  0.4419 -0.7355  0.5371
 8344SOL    HW136494   1.513   2.965   7.107  1.2161  1.8635 -0.7938
 8344SOL    HW236495   1.421   3.088   7.114  1.4769 -0.8227 -0.2501
 8345SOL     OW36496   3.183   2.496  14.809  0.5409 -0.4154  0.3974
 8345SOL    HW136497   3.224   2.571  14.765  1.5344 -1.9345 -1.2793
 8345SOL    HW236498   3.120   2.541  14.865  0.8074  1.3209 -0.6835
 8346SOL     OW36499   3.260   1.813   6.188 -0.0154  0.8509 -0.6284
 8346SOL    HW136500   3.347   1.796   6.153  0.6381  1.9545  0.4771
 8346SOL    HW236501   3.241   1.720   6.186  1.2561  0.5340  2.1021
 8347SOL     OW36502   0.582   3.300   2.087 -0.2627 -0.1111  0.0379
 8347SOL    HW136503   0.570   3.382   2.135  2.1700  1.1585 -1.5541
 8347SOL    HW236504   0.525   3.248   2.145 -1.4725  1.3324  0.1334
 8348SOL     OW36505   0.904   1.061   2.541  0.2525 -0.2697 -0.5039
 8348SOL    HW136506   0.933   1.006   2.468 -2.7073 -1.7750 -0.5449
 8348SOL    HW236507   0.918   1.145   2.498  0.3685  0.1824  0.4229
 8349SOL     OW36508   0.873   2.237  10.594  0.2261  0.0241  0.3216
 8349SOL    HW136509   0.878   2.149  10.631 -1.5847 -0.3939 -0.4395
 8349SOL    HW236510   0.938   2.230  10.524 -0.6536  0.1810 -0.5043
 8350SOL     OW36511   3.144   4.216   4.738  0.0311  0.0299 -0.4756
 8350SOL    HW136512   3.063   4.240   4.784  0.1512 -0.2574 -0.1172
 8350SOL    HW236513   3.163   4.294   4.686 -0.5878  1.2106  1.0527
 8351SOL     OW36514   0.743   2.809   4.324 -0.0512 -0.2179 -0.2742
 8351SOL    HW136515   0.738   2.729   4.271 -0.2262 -1.3382  1.4368
 8351SOL    HW236516   0.802   2.866   4.275 -0.1156 -0.5455 -0.7409
 8352SOL     OW36517   3.043   3.052   6.183 -0.3340 -0.0830  0.0668
 8352SOL    HW136518   3.102   2.980   6.207 -1.4429 -0.9843  0.0919
 8352SOL    HW236519   3.029   3.088   6.270 -1.0297 -1.7112  0.6261
 8353SOL     OW36520   4.422   0.470   4.394 -0.1868  0.5124 -0.2004
 8353SOL    HW136521   4.422   0.429   4.307 -2.7264  2.6496 -1.2436
 8353SOL    HW236522   4.498   0.527   4.378 -0.7501  1.5161  0.6644
 8354SOL     OW36523   2.774   0.777   6.425  0.4296  0.2467  0.1304
 8354SOL    HW136524   2.786   0.838   6.352 -1.2025  0.5427  0.1072
 8354SOL    HW236525   2.867   0.769   6.446  0.0682  0.2499  1.7068
 8355SOL     OW36526   3.952   0.514   3.209  0.6382  0.0408 -0.3562
 8355SOL    HW136527   4.000   0.459   3.147  2.6504  0.8729  0.4826
 8355SOL    HW236528   3.896   0.566   3.152 -1.0024  1.5287  2.6414
 8356SOL     OW36529   1.061   0.237   4.819 -0.1811  0.8309 -0.0751
 8356SOL    HW136530   1.142   0.204   4.859  0.6542  0.2577 -2.2448
 8356SOL    HW236531   1.043   0.305   4.883 -1.4423 -0.3647  0.8278
 8357SOL     OW36532   3.661   3.702   9.079  0.0489  1.0118  0.0426
 8357SOL    HW136533   3.671   3.614   9.041  0.2544  0.4682  1.3532
 8357SOL    HW236534   3.686   3.698   9.171 -0.3956 -3.7820 -0.0141
 8358SOL     OW36535   1.891   1.408   4.203 -0.9128  0.3668 -0.0904
 8358SOL    HW136536   1.929   1.405   4.290 -1.3180 -0.6881  0.0445
 8358SOL    HW236537   1.965   1.397   4.143 -0.1191  3.0157  0.3811
 8359SOL     OW36538   2.095   3.068   6.849  0.2039 -0.0771  0.2162
 8359SOL    HW136539   2.186   3.083   6.874 -0.0037 -0.2224  1.0608
 8359SOL    HW236540   2.093   3.108   6.762 -1.6943 -0.3378  0.1505
 8360SOL     OW36541   4.531   0.623   7.022  0.3194 -0.2219 -0.1826
 8360SOL    HW136542   4.612   0.631   6.972  0.0212 -1.5954 -0.8641
 8360SOL    HW236543   4.556   0.674   7.099 -0.4807  1.2347 -0.8832
 8361SOL     OW36544   4.045   4.532   6.269 -0.4322 -0.1024 -0.3635
 8361SOL    HW136545   4.059   4.452   6.219  1.1594 -0.1283  0.1137
 8361SOL    HW236546   3.992   4.580   6.205 -0.5022  1.1961  0.6641
 8362SOL     OW36547   2.141   1.376   2.300  0.1665  0.1915  0.1290
 8362SOL    HW136548   2.083   1.303   2.320  0.3239 -0.1350 -0.6226
 8362SOL    HW236549   2.120   1.400   2.210  2.1052  1.8824  0.1246
 8363SOL     OW36550   4.365   2.169   7.923 -0.1473  0.6378 -0.0515
 8363SOL    HW136551   4.424   2.241   7.946  1.2311 -0.6224  0.3859
 8363SOL    HW236552   4.404   2.096   7.971 -0.5196 -0.0296 -0.7758
 8364SOL     OW36553   3.599   1.014   5.040 -0.3991  0.1831  0.4510
 8364SOL    HW136554   3.642   1.098   5.052  0.4497 -0.1148 -0.4820
 8364SOL    HW236555   3.669   0.957   5.073 -0.4840  0.3673  0.9501
 8365SOL     OW36556   2.658   1.649  15.811  0.1305  0.1952 -0.0445
 8365SOL    HW136557   2.591   1.603  15.862  0.8187 -1.9973 -1.0744
 8365SOL    HW236558   2.630   1.614  15.727 -1.1547  0.2652  0.3621
 8366SOL     OW36559   1.689   2.335  10.835 -0.2119  0.1337 -0.4555
 8366SOL    HW136560   1.657   2.350  10.746 -0.6616  0.4080 -0.2456
 8366SOL    HW236561   1.628   2.270  10.870 -1.3737  1.0023 -0.8519
 8367SOL     OW36562   1.057   2.387  15.207  0.0011 -0.2374  0.3322
 8367SOL    HW136563   0.981   2.330  15.196 -0.6224  0.9278 -1.2696
 8367SOL    HW236564   1.064   2.429  15.121 -0.1838 -0.1878  0.3403
 8368SOL     OW36565   2.841   0.818  12.865 -0.3663 -0.0532 -0.0929
 8368SOL    HW136566   2.782   0.872  12.917  0.2347  1.2019 -0.7227
 8368SOL    HW236567   2.925   0.828  12.910  0.4379 -0.0962 -1.5715
 8369SOL     OW36568   0.500   0.244   1.246 -0.1974  0.1059 -0.2475
 8369SOL    HW136569   0.410   0.217   1.262 -0.8162  1.5208 -1.3656
 8369SOL    HW236570   0.477   0.331   1.212 -0.1898 -0.0242 -0.5852
 8370SOL     OW36571   2.188   2.497   6.392  0.5111 -0.2945 -0.8456
 8370SOL    HW136572   2.200   2.555   6.316  4.2619  1.9944  1.5206
 8370SOL    HW236573   2.104   2.527   6.427  0.2137 -1.1158 -0.8646
 8371SOL     OW36574   2.561   3.486   9.068  0.5045  0.1181 -0.7858
 8371SOL    HW136575   2.479   3.503   9.022  1.0910  0.9218 -1.5318
 8371SOL    HW236576   2.618   3.530   9.004  0.7506 -0.8230 -1.2154
 8372SOL     OW36577   4.404   2.249   2.309 -0.3123 -0.3506  0.9890
 8372SOL    HW136578   4.374   2.298   2.232 -2.5390 -1.0069  1.4316
 8372SOL    HW236579   4.442   2.171   2.269 -0.6641 -0.2826  0.5242
 8373SOL     OW36580   0.950   1.725   6.597 -0.4836  0.4444 -0.2492
 8373SOL    HW136581   0.871   1.729   6.542 -0.4073 -2.1186 -0.5577
 8373SOL    HW236582   0.968   1.815   6.624  1.1847 -0.1667  0.6564
 8374SOL     OW36583   0.724   0.564   6.109 -0.0779  0.4676 -0.3540
 8374SOL    HW136584   0.734   0.479   6.067 -1.9187  0.4751 -0.8316
 8374SOL    HW236585   0.676   0.609   6.039  1.3703  0.0560 -1.6021
 8375SOL     OW36586   1.691   1.376   8.312  0.6967  0.2436 -0.0922
 8375SOL    HW136587   1.744   1.323   8.371 -1.6223  0.5974  2.3310
 8375SOL    HW236588   1.710   1.464   8.346 -1.4507  0.3710  0.7817
 8376SOL     OW36589   3.471   2.813   5.388  0.2669  0.5909 -0.3098
 8376SOL    HW136590   3.551   2.804   5.335 -0.1560 -0.1472 -0.8109
 8376SOL    HW236591   3.405   2.823   5.320 -1.6661  0.6602  1.5798
 8377SOL     OW36592   3.971   4.643  15.475 -0.5006  0.3480 -0.0819
 8377SOL    HW136593   4.062   4.673  15.476 -0.0594 -0.9490 -0.0802
 8377SOL    HW236594   3.938   4.701  15.407 -1.3529  0.7739  0.6931
 8378SOL     OW36595   3.719   3.170   7.664  0.0815 -0.6195  0.3059
 8378SOL    HW136596   3.720   3.123   7.581 -1.3372  0.9114 -0.5898
 8378SOL    HW236597   3.758   3.255   7.643 -1.3706 -0.4209 -1.5723
 8379SOL     OW36598   3.474   2.782   6.154 -0.0707  0.5759 -0.0658
 8379SOL    HW136599   3.404   2.732   6.195 -2.3125  1.7725 -2.4779
 8379SOL    HW236600   3.551   2.731   6.179  0.8509  1.3034 -1.4576
 8380SOL     OW36601   4.243   1.515  14.350 -0.8758  0.2173  0.5964
 8380SOL    HW136602   4.288   1.590  14.311 -0.8926 -0.6524 -1.0934
 8380SOL    HW236603   4.232   1.459  14.273  1.3334  0.9932 -0.2837
 8381SOL     OW36604   0.523   4.569   2.405  0.3047  0.0098  0.4461
 8381SOL    HW136605   0.457   4.632   2.378 -0.2427 -1.4746 -1.6654
 8381SOL    HW236606   0.528   4.509   2.331  2.6022  1.6804 -0.7406
 8382SOL     OW36607   4.215   1.098   8.586  0.5948  0.2754  0.2000
 8382SOL    HW136608   4.164   1.023   8.556  1.4243 -0.7061  1.2872
 8382SOL    HW236609   4.180   1.174   8.539  0.3257  1.5387  2.4783
 8383SOL     OW36610   0.681   3.930   4.467 -0.1103  0.2635  0.0692
 8383SOL    HW136611   0.728   4.006   4.504  0.3776 -1.1601  2.3932
 8383SOL    HW236612   0.680   3.935   4.372  0.8944 -0.7387 -0.0048
 8384SOL     OW36613   1.979   1.442   5.395 -0.5294  0.2166 -0.3036
 8384SOL    HW136614   1.941   1.367   5.349 -0.0122 -0.7586  0.8645
 8384SOL    HW236615   2.072   1.417   5.400 -0.7189 -0.1359  1.1879
 8385SOL     OW36616   4.095   1.447   8.818  0.3345  1.0036 -0.2001
 8385SOL    HW136617   4.041   1.385   8.769  1.7973 -0.2278 -0.2476
 8385SOL    HW236618   4.132   1.395   8.889  1.0880 -0.3697 -1.5868
 8386SOL     OW36619   0.933   0.664   8.966 -0.6883  0.3925  0.3149
 8386SOL    HW136620   0.945   0.581   8.919  2.8293  0.3303  1.2906
 8386SOL    HW236621   1.018   0.703   8.985 -0.5203  0.3492 -0.3354
 8387SOL     OW36622   0.427   0.223  10.871 -0.3613 -0.4549  0.3014
 8387SOL    HW136623   0.475   0.295  10.830 -1.3475 -0.2578 -0.4922
 8387SOL    HW236624   0.344   0.269  10.884 -0.0218  0.3843 -0.5248
 8388SOL     OW36625   3.186   1.902   5.445 -0.2224 -0.0469  0.5197
 8388SOL    HW136626   3.271   1.864   5.423  0.1623 -0.1696  2.1821
 8388SOL    HW236627   3.118   1.862   5.390  1.1443  0.2846 -1.4068
 8389SOL     OW36628   1.455   1.492   0.311 -0.3163 -0.4689  0.2192
 8389SOL    HW136629   1.489   1.529   0.393  0.3582  1.3020 -0.8473
 8389SOL    HW236630   1.534   1.463   0.265  0.1846  0.9656  0.1533
 8390SOL     OW36631   3.704   1.676   6.051  0.1437 -0.0589 -0.0372
 8390SOL    HW136632   3.625   1.634   6.017  1.2680 -1.2969 -1.1062
 8390SOL    HW236633   3.724   1.613   6.119  0.9155 -0.0552 -0.2586
 8391SOL     OW36634   4.259   0.806   6.545  0.4168 -0.3751  0.5196
 8391SOL    HW136635   4.210   0.766   6.616 -1.4045  1.7662  0.4746
 8391SOL    HW236636   4.344   0.823   6.586 -0.3728  2.0449  1.1550
 8392SOL     OW36637   3.068   0.791   8.591  0.2110 -0.4664 -0.3207
 8392SOL    HW136638   3.103   0.864   8.642  1.5644 -2.1090  1.1076
 8392SOL    HW236639   3.123   0.801   8.513  0.9427  1.2460  0.4117
 8393SOL     OW36640   0.746   3.264   9.417 -0.3126 -0.1341 -0.6223
 8393SOL    HW136641   0.668   3.253   9.471  0.2838  0.0480  0.2649
 8393SOL    HW236642   0.818   3.216   9.459 -1.1794 -0.4030  0.5515
 8394SOL     OW36643   4.433   4.452  12.976 -0.2226 -0.3572 -0.3580
 8394SOL    HW136644   4.424   4.532  13.027  0.4802 -1.7180  1.9069
 8394SOL    HW236645   4.497   4.486  12.913 -0.7028 -0.7657 -1.0656
 8395SOL     OW36646   4.600   0.087   1.448  0.6643 -0.1286  0.5799
 8395SOL    HW136647   4.658   0.012   1.433  0.1296 -0.0125 -2.0847
 8395SOL    HW236648   4.531   0.038   1.493 -0.2090  0.8286  0.2986
 8396SOL     OW36649   4.033   0.637   5.199 -1.2504 -0.0462  0.2099
 8396SOL    HW136650   4.095   0.578   5.242 -0.3828  0.3971 -0.4348
 8396SOL    HW236651   4.007   0.574   5.132 -1.0570 -0.9239  0.9656
 8397SOL     OW36652   1.870   2.003  12.037 -0.1654 -0.2885  0.1087
 8397SOL    HW136653   1.857   2.047  12.121 -1.3363 -0.5328  0.0599
 8397SOL    HW236654   1.805   1.935  12.055  0.6410 -1.2941 -0.7698
 8398SOL     OW36655   1.283   2.476  10.336 -0.6856  0.5021  0.1738
 8398SOL    HW136656   1.218   2.413  10.364 -2.7240  2.6185  0.1838
 8398SOL    HW236657   1.252   2.563  10.361 -1.3666  0.1409  0.5865
 8399SOL     OW36658   3.451   2.760  14.047  0.0381  0.7930  0.1089
 8399SOL    HW136659   3.373   2.706  14.058  1.9223 -1.7743  0.7175
 8399SOL    HW236660   3.519   2.707  14.087 -2.4528 -1.4902  1.2935
 8400SOL     OW36661   0.401   3.760   9.909 -0.0033 -0.4909 -0.0398
 8400SOL    HW136662   0.419   3.819   9.835 -0.0888  0.0897  0.4051
 8400SOL    HW236663   0.311   3.735   9.889  0.1878 -0.3168 -1.1314
 8401SOL     OW36664   2.151   3.448   1.558 -0.3526 -0.4162 -0.3184
 8401SOL    HW136665   2.104   3.494   1.627  0.8790 -1.0826  0.9639
 8401SOL    HW236666   2.090   3.432   1.486 -1.3279 -3.0555  1.0932
 8402SOL     OW36667   0.181   3.978   2.193 -0.2105 -0.2117  0.7392
 8402SOL    HW136668   0.202   4.005   2.283  0.0319 -1.5263  1.0702
 8402SOL    HW236669   0.267   3.967   2.153  0.2754 -0.5651  1.8743
 8403SOL     OW36670   3.802   4.419   1.617  0.3282 -0.3617  0.1676
 8403SOL    HW136671   3.777   4.340   1.666 -2.6185 -0.3004 -1.2479
 8403SOL    HW236672   3.779   4.481   1.687  1.6279 -1.2268  1.3564
 8404SOL     OW36673   0.678   1.447   5.806 -0.1195  0.4231  0.3126
 8404SOL    HW136674   0.685   1.529   5.757 -1.3620 -0.0888 -0.7188
 8404SOL    HW236675   0.750   1.401   5.763 -0.3488 -0.5600  0.9843
 8405SOL     OW36676   3.879   0.549   8.273 -0.4233  0.0807 -0.0524
 8405SOL    HW136677   3.882   0.455   8.258 -3.5713 -0.3718  2.1535
 8405SOL    HW236678   3.815   0.550   8.344  0.9958 -0.5564  1.2413
 8406SOL     OW36679   1.674   2.955   8.083 -0.3461 -0.0234  0.1704
 8406SOL    HW136680   1.730   2.884   8.052  0.3620  0.2646  0.8193
 8406SOL    HW236681   1.701   2.958   8.174 -1.4616  3.4059  0.3751
 8407SOL     OW36682   3.513   0.407   5.847 -0.0575 -0.5106  0.0960
 8407SOL    HW136683   3.429   0.440   5.877  0.7956  0.6866  1.1518
 8407SOL    HW236684   3.574   0.476   5.873 -1.5462  0.2494  1.4776
 8408SOL     OW36685   3.072   3.662  12.478  0.7586 -0.4597 -0.2629
 8408SOL    HW136686   2.985   3.688  12.446  0.9374  0.1688 -0.2404
 8408SOL    HW236687   3.054   3.596  12.545 -1.3285 -0.6547 -1.0017
 8409SOL     OW36688   1.284   4.357   4.501  0.2217 -0.0091  0.1232
 8409SOL    HW136689   1.262   4.421   4.433  0.1402  0.6466  0.7617
 8409SOL    HW236690   1.318   4.415   4.569 -0.0634  1.3742 -0.9047
 8410SOL     OW36691   3.529   0.248   3.670  0.1333  0.0878  0.2907
 8410SOL    HW136692   3.510   0.211   3.584  2.3480  1.8844 -0.9560
 8410SOL    HW236693   3.463   0.314   3.691 -0.2727 -0.4653  0.7657
 8411SOL     OW36694   3.668   0.152  14.197 -0.3980  0.7226  0.3032
 8411SOL    HW136695   3.760   0.179  14.207 -0.1550 -0.7107  2.0172
 8411SOL    HW236696   3.655   0.120  14.287 -0.6688 -1.2445 -0.4406
 8412SOL     OW36697   0.158   1.909   7.012  0.3712  0.2726  0.2283
 8412SOL    HW136698   0.241   1.882   7.051 -0.2266 -1.4143  0.3410
 8412SOL    HW236699   0.130   1.977   7.072 -1.1352 -0.3278  0.2037
 8413SOL     OW36700   4.528   1.785   8.721 -0.4309  0.2312 -0.1107
 8413SOL    HW136701   4.597   1.846   8.695 -0.3141 -0.0722 -0.5022
 8413SOL    HW236702   4.465   1.806   8.653  0.6354 -0.7106 -1.3750
 8414SOL     OW36703   2.761   4.023  13.113  0.0510  0.0660 -0.0912
 8414SOL    HW136704   2.806   4.051  13.033  1.0137 -0.3901  0.2804
 8414SOL    HW236705   2.697   3.964  13.075 -0.8681 -0.5379  2.3668
 8415SOL     OW36706   4.518   0.131   9.568  0.2176 -0.3014  0.0718
 8415SOL    HW136707   4.494   0.055   9.516  0.5849 -0.8310  0.6870
 8415SOL    HW236708   4.509   0.197   9.499  0.1904 -0.0018  0.3630
 8416SOL     OW36709   4.662   1.205  14.126 -0.1595  0.2319  0.1930
 8416SOL    HW136710   4.648   1.256  14.206  0.5240 -1.1856  1.2021
 8416SOL    HW236711   0.038   1.194  14.130 -0.2888 -1.3710 -1.2665
 8417SOL     OW36712   1.030   1.099   5.852 -0.0016  0.8413  0.0536
 8417SOL    HW136713   1.115   1.083   5.811 -1.1428 -0.7572 -1.6752
 8417SOL    HW236714   0.993   1.014   5.873  1.3352  0.1151 -0.5257
 8418SOL     OW36715   1.917   3.797   7.636  0.1828  0.0716  0.4738
 8418SOL    HW136716   1.855   3.741   7.683  0.4441 -0.8999 -0.3228
 8418SOL    HW236717   1.991   3.738   7.619 -0.2475 -0.4397  0.3873
 8419SOL     OW36718   3.901   2.774  14.088  0.0993  0.2958  0.9372
 8419SOL    HW136719   3.997   2.766  14.084  0.1168  1.0140 -0.1700
 8419SOL    HW236720   3.870   2.686  14.111 -1.7667  0.9130  0.7647
 8420SOL     OW36721   4.644   3.281   5.756  0.3273 -0.3780 -0.2077
 8420SOL    HW136722   4.584   3.243   5.820 -0.6870  1.3040 -0.1456
 8420SOL    HW236723   4.591   3.358   5.734 -0.1000 -0.5757  0.1430
 8421SOL     OW36724   2.971   3.751   2.174 -0.1568 -0.1833 -0.6141
 8421SOL    HW136725   3.058   3.778   2.145  0.4279 -0.1026  1.1643
 8421SOL    HW236726   2.973   3.673   2.118  1.6256  1.1193 -2.3494
 8422SOL     OW36727   3.712   3.066   4.763 -0.0555  0.1095 -0.2173
 8422SOL    HW136728   3.768   3.019   4.701 -0.0745 -1.4662  0.9578
 8422SOL    HW236729   3.768   3.112   4.825  0.4295  0.8343 -1.2056
 8423SOL     OW36730   0.756   2.656   3.954 -0.1434  0.3144 -0.5861
 8423SOL    HW136731   0.823   2.627   4.015 -1.8386  2.0224  2.1017
 8423SOL    HW236732   0.783   2.745   3.929  1.9801 -0.1919 -0.0823
 8424SOL     OW36733   0.295   1.444   8.094  0.1756  0.3393 -0.3289
 8424SOL    HW136734   0.335   1.522   8.134 -0.5845 -0.4628  1.9994
 8424SOL    HW236735   0.204   1.449   8.123  0.2912  1.6988 -0.1997
 8425SOL     OW36736   1.735   1.082   5.931  0.3816  0.5238 -0.4011
 8425SOL    HW136737   1.675   1.020   5.889  1.3296 -1.1565  0.7196
 8425SOL    HW236738   1.675   1.156   5.917  1.5716  1.2409 -1.5620
 8426SOL     OW36739   3.372   3.732  15.414  0.0523  0.0480  0.0013
 8426SOL    HW136740   3.460   3.725  15.377  0.8975  0.5112  1.9391
 8426SOL    HW236741   3.403   3.763  15.499  1.1279  1.7386 -1.0011
 8427SOL     OW36742   1.129   2.284  16.056  0.0495 -0.4320 -0.0400
 8427SOL    HW136743   1.050   2.333  16.035  0.3381  0.3899  0.7670
 8427SOL    HW236744   1.169   2.340  16.123 -0.5376 -1.1244  0.9004
 8428SOL     OW36745   0.530   4.678   1.689 -0.1170  0.3392 -0.3392
 8428SOL    HW136746   0.550   4.669   1.782 -0.9203 -1.8072 -0.3728
 8428SOL    HW236747   0.614   4.655   1.649  0.5514 -0.3749  1.4956
 8429SOL     OW36748   3.985   2.984  13.117  0.0150 -0.2989 -0.4839
 8429SOL    HW136749   4.073   2.958  13.144  1.0157 -0.1513 -3.6056
 8429SOL    HW236750   3.929   2.953  13.187  1.1257  1.1888  1.0688
 8430SOL     OW36751   3.278   4.293   0.703 -0.0717  0.3817 -0.2821
 8430SOL    HW136752   3.193   4.311   0.743 -0.1121  2.1153 -1.1586
 8430SOL    HW236753   3.260   4.333   0.619  0.2794 -1.4021 -1.2157
 8431SOL     OW36754   3.826   2.095   4.838  0.5621  0.1310 -0.0465
 8431SOL    HW136755   3.767   2.036   4.792  1.9385 -1.4395  0.2020
 8431SOL    HW236756   3.821   2.050   4.922  1.4762 -0.1197 -0.1276
 8432SOL     OW36757   1.998   0.148   4.952 -0.2782 -0.3369  0.2155
 8432SOL    HW136758   2.042   0.146   4.867 -2.3164 -0.0833 -0.8617
 8432SOL    HW236759   1.910   0.169   4.919 -0.3301  1.3493  1.4579
 8433SOL     OW36760   1.840   0.979   0.064  0.2200 -0.2931  0.0311
 8433SOL    HW136761   1.814   0.915   0.130  1.5377 -0.4151  0.4209
 8433SOL    HW236762   1.847   1.060   0.115 -0.2344 -1.2199  1.5714
 8434SOL     OW36763   2.514   4.624   7.033  0.0122 -0.4964 -0.0530
 8434SOL    HW136764   2.501   4.717   7.053  1.3934 -0.6260  1.3607
 8434SOL    HW236765   2.487   4.619   6.941 -2.6426 -2.6268  0.8507
 8435SOL     OW36766   3.955   0.653   1.343 -0.0065  0.3708  0.4725
 8435SOL    HW136767   3.921   0.673   1.256  1.4070  2.5815  0.4500
 8435SOL    HW236768   3.940   0.558   1.343 -0.4071  0.4360  0.2134
 8436SOL     OW36769   1.701   1.714  13.092  0.2952  0.4795 -0.2550
 8436SOL    HW136770   1.785   1.712  13.138  0.2700  0.7146 -0.2014
 8436SOL    HW236771   1.656   1.762  13.161  0.1612  1.7577 -1.2369
 8437SOL     OW36772   4.588   2.512   3.332  0.0578  0.1067  0.1168
 8437SOL    HW136773   4.500   2.542   3.357  0.0716 -0.1820  0.5064
 8437SOL    HW236774   4.574   2.418   3.321  2.0479  0.0502 -1.8343
 8438SOL     OW36775   2.070   2.189   9.644 -0.1355 -0.0147 -0.6312
 8438SOL    HW136776   2.010   2.240   9.698  0.3759  1.2035 -1.2246
 8438SOL    HW236777   2.096   2.129   9.714  0.9368 -0.5774 -1.5068
 8439SOL     OW36778   2.168   2.578   5.078 -0.4033 -0.0449  0.4642
 8439SOL    HW136779   2.160   2.484   5.069  0.0248 -0.2708  2.3974
 8439SOL    HW236780   2.259   2.596   5.054 -0.1168 -2.1465  0.0274
 8440SOL     OW36781   1.544   0.511   8.983 -0.3459  0.3054  0.2614
 8440SOL    HW136782   1.521   0.560   9.062 -0.1107  0.6054  0.1482
 8440SOL    HW236783   1.485   0.437   8.971  0.2987 -0.4417  1.7607
 8441SOL     OW36784   1.973   2.901   1.182 -0.1503  0.0272 -0.3021
 8441SOL    HW136785   1.969   2.852   1.100 -1.6387  1.6513 -1.1827
 8441SOL    HW236786   1.898   2.864   1.229 -0.9705  2.8816  0.6236
 8442SOL     OW36787   4.371   4.530   3.579  0.4473 -0.0597 -0.2930
 8442SOL    HW136788   4.309   4.582   3.529  0.9516 -2.6350 -3.5642
 8442SOL    HW236789   4.417   4.483   3.509 -1.0171 -1.6250 -0.2053
 8443SOL     OW36790   1.146   0.720   3.675 -0.0998 -0.1132  0.7124
 8443SOL    HW136791   1.095   0.680   3.604  2.3830 -1.0627 -0.5446
 8443SOL    HW236792   1.200   0.776   3.619  1.1002 -1.0295  0.9586
 8444SOL     OW36793   3.053   4.101  13.405  0.4686  0.0540  0.2405
 8444SOL    HW136794   3.128   4.123  13.349  0.3090 -1.4488 -0.5684
 8444SOL    HW236795   3.001   4.180  13.419  0.3161  0.1074 -0.6501
 8445SOL     OW36796   0.000   4.069   8.850  0.2572  0.3016 -0.1412
 8445SOL    HW136797   0.039   4.156   8.856 -2.6859  1.7699 -2.5240
 8445SOL    HW236798   4.718   4.042   8.758 -0.9642 -1.2511  0.3376
 8446SOL     OW36799   4.095   0.577   4.867  0.2147 -0.0641 -0.6402
 8446SOL    HW136800   4.036   0.512   4.905  0.7488 -0.0786  0.1571
 8446SOL    HW236801   4.023   0.625   4.826 -2.1091 -0.2830  3.2193
 8447SOL     OW36802   2.108   0.481   2.315 -0.0242  0.9435  0.3143
 8447SOL    HW136803   2.178   0.506   2.374 -0.1133 -0.3169  0.9442
 8447SOL    HW236804   2.126   0.528   2.234  1.3638  0.5562  0.4059
 8448SOL     OW36805   0.347   3.553   5.297 -0.4138  0.1052 -0.2160
 8448SOL    HW136806   0.420   3.520   5.350 -1.2230 -0.7243  0.3721
 8448SOL    HW236807   0.277   3.531   5.358 -2.5742 -0.0989 -2.7937
 8449SOL     OW36808   1.624   0.360   2.698 -0.2438  0.5723  0.2753
 8449SOL    HW136809   1.532   0.366   2.723 -0.1129 -0.0543  0.9359
 8449SOL    HW236810   1.624   0.384   2.606 -0.6989 -0.1718  0.0802
 8450SOL     OW36811   0.362   3.509  17.398 -0.4732 -0.7977  0.0202
 8450SOL    HW136812   0.329   3.597  17.413 -3.4240 -1.7176 -1.0263
 8450SOL    HW236813   0.287   3.455  17.424 -0.8273  1.9541  4.7080
 8451SOL     OW36814   1.422   3.418   5.234  0.2323 -0.1692  0.4671
 8451SOL    HW136815   1.404   3.420   5.140 -1.5886  1.5691  0.8497
 8451SOL    HW236816   1.466   3.502   5.247  0.9295 -0.1449 -2.1703
 8452SOL     OW36817   1.910   0.968   4.410  0.9020  0.3089 -0.2458
 8452SOL    HW136818   1.951   0.892   4.451  0.0256 -0.1087 -0.1594
 8452SOL    HW236819   1.966   1.045   4.424  1.3083  0.2669 -1.6095
 8453SOL     OW36820   3.817   3.875   3.758 -0.3702  0.8721 -0.0492
 8453SOL    HW136821   3.908   3.901   3.772 -0.0280  0.1863 -1.0252
 8453SOL    HW236822   3.832   3.781   3.747  2.8923  1.4077 -0.0654
 8454SOL     OW36823   4.173   2.042  14.672  0.4986  0.2255 -0.3517
 8454SOL    HW136824   4.143   1.974  14.612  1.7989 -1.1014  0.5289
 8454SOL    HW236825   4.267   2.042  14.652  0.3202  1.6937 -1.2505
 8455SOL     OW36826   2.896   3.797  10.223 -0.0313  0.5408  0.4350
 8455SOL    HW136827   2.815   3.836  10.257 -1.8654 -0.9541 -2.2547
 8455SOL    HW236828   2.873   3.780  10.132  0.9072 -0.9072  0.4747
 8456SOL     OW36829   1.363   4.060   9.122  0.2377 -0.6894 -0.0904
 8456SOL    HW136830   1.459   4.068   9.129  0.2890  0.1646 -1.8112
 8456SOL    HW236831   1.331   4.104   9.201 -1.1273 -2.0768  0.1310
 8457SOL     OW36832   3.415   0.240   3.407  0.1157 -0.1857 -0.6376
 8457SOL    HW136833   3.462   0.321   3.388 -0.8315  0.7557  1.0199
 8457SOL    HW236834   3.425   0.187   3.328  0.9914  1.2793 -1.5205
 8458SOL     OW36835   3.724   4.086  14.065  0.1818  0.2633 -0.1579
 8458SOL    HW136836   3.693   3.998  14.087  0.7515  0.2308  0.5526
 8458SOL    HW236837   3.812   4.065  14.033  0.2871 -2.5757  1.9880
 8459SOL     OW36838   3.448   0.694   4.146  0.5388  0.2153 -0.1229
 8459SOL    HW136839   3.440   0.760   4.077  1.6754  2.1367  1.5563
 8459SOL    HW236840   3.542   0.686   4.162  0.5448  0.2229 -0.1541
 8460SOL     OW36841   3.187   4.271   4.321 -0.2336 -0.2842 -0.2178
 8460SOL    HW136842   3.189   4.192   4.267 -2.3303 -0.6731  0.2729
 8460SOL    HW236843   3.144   4.328   4.256  1.4097  0.4261 -0.6852
 8461SOL     OW36844   1.591   4.404   1.043 -0.2628  0.0266  0.3772
 8461SOL    HW136845   1.589   4.336   0.976 -0.1521 -0.2226  0.6232
 8461SOL    HW236846   1.589   4.348   1.121  1.2090 -0.6983 -0.1023
 8462SOL     OW36847   4.355   4.405   4.058 -0.3411  0.2160 -0.0407
 8462SOL    HW136848   4.379   4.417   3.966 -2.3189 -2.2748 -0.8705
 8462SOL    HW236849   4.331   4.313   4.057  3.3973 -0.7567  0.1622
 8463SOL     OW36850   4.373   3.867  15.680 -0.3120  0.5845  0.3840
 8463SOL    HW136851   4.423   3.785  15.686  0.8098  1.1829 -0.7027
 8463SOL    HW236852   4.287   3.834  15.655 -0.6242  0.8137  1.1640
 8464SOL     OW36853   1.616   0.742   7.838 -0.1134  0.6495 -0.1949
 8464SOL    HW136854   1.559   0.671   7.811 -0.4526  1.1937 -0.8995
 8464SOL    HW236855   1.582   0.767   7.924  2.7763 -1.2308  1.5113
 8465SOL     OW36856   1.912   2.557   4.317  0.7844  0.2487  0.0582
 8465SOL    HW136857   2.005   2.547   4.338  1.3302  1.5732 -1.7383
 8465SOL    HW236858   1.870   2.586   4.398 -0.1034  0.6605 -0.5465
 8466SOL     OW36859   1.154   2.994   8.123  0.4487 -0.2619 -0.2469
 8466SOL    HW136860   1.147   3.078   8.078  1.9807 -0.0166 -0.0230
 8466SOL    HW236861   1.244   2.973   8.100 -0.0655 -1.4677 -1.1808
 8467SOL     OW36862   1.147   2.997  14.832  0.2715  0.1218 -0.3485
 8467SOL    HW136863   1.060   2.956  14.826  1.6940 -2.9414 -0.3177
 8467SOL    HW236864   1.194   2.980  14.751  0.8802  3.5110 -0.7010
 8468SOL     OW36865   3.759   2.622  17.055  0.0468  0.3252  0.4010
 8468SOL    HW136866   3.708   2.673  16.993 -0.9000  0.0538  0.9594
 8468SOL    HW236867   3.811   2.695  17.091  0.7664 -0.4123  0.8436
 8469SOL     OW36868   2.418   0.855   6.224 -0.2248 -0.1397 -0.6252
 8469SOL    HW136869   2.390   0.931   6.275 -0.6104 -0.1093 -0.8792
 8469SOL    HW236870   2.504   0.831   6.257 -0.1152 -0.1226 -0.8972
 8470SOL     OW36871   2.584   0.894   7.391 -0.0653  0.4092 -0.1486
 8470SOL    HW136872   2.590   0.986   7.365 -0.0748  0.0762 -1.2915
 8470SOL    HW236873   2.669   0.883   7.433  0.6721  1.0431 -1.4889
 8471SOL     OW36874   2.248   4.498   7.072 -0.1352 -0.1832  0.0048
 8471SOL    HW136875   2.197   4.571   7.037 -0.2667  0.6867  1.9882
 8471SOL    HW236876   2.214   4.426   7.019  0.1736  0.1650 -0.6714
 8472SOL     OW36877   4.331   3.076   4.627  1.1726 -0.1255 -0.0073
 8472SOL    HW136878   4.241   3.077   4.659  1.2646  0.0480  0.2384
 8472SOL    HW236879   4.321   3.127   4.546  3.1007 -2.3553 -1.6683
 8473SOL     OW36880   3.672   2.561  14.117 -0.1329 -0.3420 -1.1406
 8473SOL    HW136881   3.683   2.489  14.178  0.6262 -0.5537 -1.5287
 8473SOL    HW236882   3.622   2.511  14.052 -1.3259 -0.9359  0.2465
 8474SOL     OW36883   2.534   4.568   4.240 -0.0942  0.3582 -0.3986
 8474SOL    HW136884   2.451   4.602   4.207  0.1278  2.0369  0.8058
 8474SOL    HW236885   2.536   4.619   4.320 -0.6053  2.3863 -1.6858
 8475SOL     OW36886   0.355   0.503   6.040 -0.2366 -0.2633 -0.1173
 8475SOL    HW136887   0.356   0.408   6.056  0.1978  0.0755  1.9465
 8475SOL    HW236888   0.267   0.513   6.004 -0.7398 -1.8345  0.6514
 8476SOL     OW36889   3.057   0.533   5.218  0.2287 -0.7587  0.4234
 8476SOL    HW136890   3.102   0.617   5.230 -1.6440  0.7848 -3.4194
 8476SOL    HW236891   3.015   0.555   5.134  1.1415 -0.8446 -0.0529
 8477SOL     OW36892   3.667   0.427   8.448  0.0052 -0.2724 -0.5726
 8477SOL    HW136893   3.609   0.431   8.371 -0.1833 -2.7421 -0.5442
 8477SOL    HW236894   3.600   0.417   8.516  1.7299 -1.1981  0.9806
 8478SOL     OW36895   2.263   1.783   5.236  0.1015  0.1643 -0.2416
 8478SOL    HW136896   2.267   1.844   5.310  1.7153  0.7844 -0.8519
 8478SOL    HW236897   2.339   1.814   5.187  0.9340 -0.5718  0.6158
 8479SOL     OW36898   3.649   3.795   6.683 -0.7729 -0.0514  0.5048
 8479SOL    HW136899   3.576   3.833   6.635 -0.6517  0.5226  0.7820
 8479SOL    HW236900   3.665   3.864   6.747  1.0442  0.2301 -0.2508
 8480SOL     OW36901   1.564   2.533   0.301  0.8211 -0.3457 -0.1846
 8480SOL    HW136902   1.651   2.531   0.341  0.3875 -0.5454  0.7702
 8480SOL    HW236903   1.503   2.542   0.375  2.0387 -1.7703  1.0046
 8481SOL     OW36904   0.644   3.240   0.962  0.6359  0.5477  0.3418
 8481SOL    HW136905   0.556   3.273   0.976  0.9400  2.4836 -2.2215
 8481SOL    HW236906   0.643   3.224   0.867 -2.1597  2.6424  0.0220
 8482SOL     OW36907   0.439   0.366   7.186  0.1563 -0.1321  0.0153
 8482SOL    HW136908   0.414   0.454   7.213  1.8968  0.4304 -0.1975
 8482SOL    HW236909   0.518   0.358   7.239  0.0153  1.4774  0.4713
 8483SOL     OW36910   1.831   2.561   1.914 -0.5620  0.0280 -0.2125
 8483SOL    HW136911   1.869   2.499   1.852  0.9636  0.1008  0.6570
 8483SOL    HW236912   1.784   2.498   1.969 -0.6364 -0.6149 -1.0054
 8484SOL     OW36913   4.162   0.180   0.856  0.0700  0.2497 -0.4993
 8484SOL    HW136914   4.158   0.140   0.770 -2.4679 -0.3486 -0.1076
 8484SOL    HW236915   4.181   0.108   0.916 -1.0404  1.1302  0.9140
 8485SOL     OW36916   1.380   3.154   7.397  0.1395  0.3745  0.7346
 8485SOL    HW136917   1.312   3.174   7.333 -0.9766  0.4389  1.9502
 8485SOL    HW236918   1.415   3.073   7.359  2.8059  1.2252  1.3930
 8486SOL     OW36919   2.834   2.792   8.555 -0.4438  0.1698 -0.1910
 8486SOL    HW136920   2.764   2.844   8.595 -0.4343 -0.9510  1.2702
 8486SOL    HW236921   2.915   2.831   8.588 -0.1825  0.1816 -0.8413
 8487SOL     OW36922   3.913   1.720  14.021 -0.5187 -0.0684  0.3034
 8487SOL    HW136923   3.847   1.656  14.046  1.2734 -1.2257  2.1007
 8487SOL    HW236924   3.943   1.687  13.936 -0.3135 -2.0862  1.1724
 8488SOL     OW36925   1.761   0.458   3.247 -0.2940  0.1676  0.0314
 8488SOL    HW136926   1.832   0.433   3.187  1.2783 -2.4446  2.9530
 8488SOL    HW236927   1.781   0.552   3.249  0.1420  0.1069 -1.3316
 8489SOL     OW36928   1.457   3.246  14.623 -0.1372 -0.7952  0.0578
 8489SOL    HW136929   1.422   3.332  14.601 -0.4980 -0.9836 -0.0991
 8489SOL    HW236930   1.461   3.259  14.718 -0.9830  0.0076 -0.0123
 8490SOL     OW36931   0.396   2.795   8.433 -0.1790 -0.7049  0.3862
 8490SOL    HW136932   0.479   2.832   8.465  0.3447 -1.4334 -0.1161
 8490SOL    HW236933   0.423   2.706   8.409 -0.6084 -0.7355  0.0126
 8491SOL     OW36934   0.163   1.694   3.600  0.3879 -0.4074 -0.3282
 8491SOL    HW136935   0.232   1.739   3.650  0.8003  0.1267 -1.3864
 8491SOL    HW236936   0.094   1.696   3.667 -1.6139  0.2351 -2.4272
 8492SOL     OW36937   1.308   0.068   4.874 -0.1027  0.6666  0.2076
 8492SOL    HW136938   1.312   4.696   4.901 -0.3249  0.2529 -1.1729
 8492SOL    HW236939   1.383   0.103   4.923 -0.5102  0.8650  0.6845
 8493SOL     OW36940   2.899   4.048   0.135  0.3820 -0.0414 -0.1437
 8493SOL    HW136941   2.924   4.052   0.227  1.2464 -0.5684 -0.3488
 8493SOL    HW236942   2.829   4.113   0.134 -0.4066 -0.8895 -1.2728
 8494SOL     OW36943   3.512   1.520   4.453 -0.2823  0.6759 -0.0670
 8494SOL    HW136944   3.419   1.540   4.451 -0.3027  0.3198 -2.7211
 8494SOL    HW236945   3.543   1.588   4.393 -0.9734  1.4004  0.4140
 8495SOL     OW36946   1.438   1.780   8.169 -0.2498 -0.1487  0.5302
 8495SOL    HW136947   1.344   1.798   8.160 -1.1093 -3.7380  2.2196
 8495SOL    HW236948   1.467   1.743   8.085 -1.3997  1.0510 -0.3804
 8496SOL     OW36949   1.074   0.914   0.970  0.2177  0.2815 -0.1698
 8496SOL    HW136950   1.110   0.940   0.885  1.6209 -0.0695  0.3294
 8496SOL    HW236951   1.146   0.857   0.995  0.4553 -0.1478 -1.8443
 8497SOL     OW36952   3.854   3.137   7.397  0.1666  0.4502 -0.3876
 8497SOL    HW136953   3.876   3.228   7.379 -1.0311  1.1753  1.8487
 8497SOL    HW236954   3.928   3.113   7.454  1.9091  2.2469 -1.8767
 8498SOL     OW36955   3.377   0.447   7.561 -0.8096 -0.4994 -0.5874
 8498SOL    HW136956   3.444   0.380   7.550 -0.5052 -0.3294  0.2235
 8498SOL    HW236957   3.403   0.501   7.487 -0.6439 -1.6896 -1.4010
 8499SOL     OW36958   1.929   0.567  16.729  0.6783 -0.0910 -0.6481
 8499SOL    HW136959   1.905   0.656  16.756  0.1970  0.6366 -3.5563
 8499SOL    HW236960   2.018   0.590  16.701  0.6027  0.2246 -0.6278
 8500SOL     OW36961   2.917   1.533   5.874 -0.1286 -0.6257 -0.1044
 8500SOL    HW136962   2.883   1.482   5.948  1.8483 -0.7253  0.7345
 8500SOL    HW236963   2.897   1.625   5.888 -0.6836 -0.3294 -2.7559
 8501SOL     OW36964   3.545   1.712   7.187 -0.4836  0.0786 -0.2314
 8501SOL    HW136965   3.583   1.713   7.275 -0.7597 -1.7597 -0.0827
 8501SOL    HW236966   3.604   1.651   7.143 -0.0701  1.1766 -1.2016
 8502SOL     OW36967   0.972   4.418   0.687 -0.5209 -0.3257 -0.3086
 8502SOL    HW136968   0.975   4.338   0.740  0.1578  0.0393  0.2021
 8502SOL    HW236969   0.991   4.487   0.751  0.3137  0.0072 -0.9044
 8503SOL     OW36970   3.598   3.509  12.346 -0.2423  0.1196 -0.4200
 8503SOL    HW136971   3.547   3.525  12.267 -0.6344 -2.8230 -0.7438
 8503SOL    HW236972   3.662   3.449  12.309 -0.5633 -1.0690  0.9174
 8504SOL     OW36973   1.545   4.453   0.280  0.0547  0.0663 -0.2222
 8504SOL    HW136974   1.587   4.386   0.333 -0.7155 -0.1096  0.1598
 8504SOL    HW236975   1.622   4.480   0.230 -0.8037  1.7088 -0.6554
 8505SOL     OW36976   1.893   4.584   3.035 -0.0886  0.1585  0.4358
 8505SOL    HW136977   1.985   4.568   3.014 -0.1444 -0.6424  0.7776
 8505SOL    HW236978   1.847   4.588   2.951  2.2485 -0.1607 -0.8562
 8506SOL     OW36979   2.136   1.431   6.177 -0.2645  0.1890 -0.3360
 8506SOL    HW136980   2.042   1.422   6.190 -0.5629  2.9722 -0.5143
 8506SOL    HW236981   2.152   1.466   6.089  0.7641  3.4648  1.1633
 8507SOL     OW36982   4.331   3.154   5.441  0.8869 -0.4390  0.5291
 8507SOL    HW136983   4.398   3.087   5.427  0.4078 -0.6450 -0.8186
 8507SOL    HW236984   4.382   3.232   5.464  0.7539  0.2658 -1.5892
 8508SOL     OW36985   3.388   0.175   8.114 -0.2757  0.6156 -0.4094
 8508SOL    HW136986   3.430   0.114   8.054  0.7840  0.5522  0.3973
 8508SOL    HW236987   3.329   0.110   8.151  0.5512  0.2800  0.3056
 8509SOL     OW36988   1.401   1.799   5.918 -0.0577 -0.0088 -0.5201
 8509SOL    HW136989   1.360   1.743   5.852 -0.7555 -1.5353  1.2278
 8509SOL    HW236990   1.469   1.753   5.968  1.4866 -0.1761 -2.7609
 8510SOL     OW36991   4.306   1.336   0.226 -0.6626 -0.1486 -0.1981
 8510SOL    HW136992   4.266   1.423   0.221 -0.5840 -0.1613 -1.0082
 8510SOL    HW236993   4.380   1.350   0.167 -0.0149 -1.1915  0.3765
 8511SOL     OW36994   1.785   2.060  17.191  0.3185 -0.0535 -0.5833
 8511SOL    HW136995   1.721   2.007  17.239  0.4905 -0.1198 -0.4261
 8511SOL    HW236996   1.736   2.099  17.119  0.4224 -0.1000 -0.6801
 8512SOL     OW36997   1.413   0.483  16.333  0.1888 -0.0533 -0.3537
 8512SOL    HW136998   1.408   0.390  16.355  1.6034  0.3100  1.5498
 8512SOL    HW236999   1.487   0.500  16.391 -0.2349  2.0822 -0.4366
 8513SOL     OW37000   1.118   3.637   7.480  0.4162 -0.3066  0.2441
 8513SOL    HW137001   1.130   3.731   7.472  0.4922 -0.1773  1.9645
 8513SOL    HW237002   1.098   3.622   7.572 -2.8286  2.3112 -0.0223
 8514SOL     OW37003   2.640   0.234   3.466  0.1392  0.2918 -0.0610
 8514SOL    HW137004   2.639   0.238   3.370 -1.2112 -0.7807 -0.0890
 8514SOL    HW237005   2.584   0.306   3.495  1.0446  0.5190  1.1374
 8515SOL     OW37006   1.990   1.407  14.690 -0.2218  0.5919 -0.2395
 8515SOL    HW137007   2.011   1.394  14.598 -0.4432 -0.2514 -0.1667
 8515SOL    HW237008   2.050   1.473  14.724  1.0037  0.5793 -2.3829
 8516SOL     OW37009   4.149   1.876   0.639 -0.0916 -0.3528  0.3571
 8516SOL    HW137010   4.178   1.795   0.596 -0.5775 -0.2854 -0.0919
 8516SOL    HW237011   4.086   1.916   0.579 -0.5860 -1.4427  0.1531
 8517SOL     OW37012   4.374   3.150   2.996  0.0532  0.0244  0.1121
 8517SOL    HW137013   4.346   3.159   2.905 -0.7423 -1.5934  0.1840
 8517SOL    HW237014   4.379   3.054   3.001  1.5455  0.1055  0.2094
 8518SOL     OW37015   2.688   2.820   5.114 -0.4105  0.5245  0.4686
 8518SOL    HW137016   2.757   2.772   5.068  1.4255  1.5876  2.1148
 8518SOL    HW237017   2.625   2.827   5.042  1.7012 -3.5516 -1.7892
 8519SOL     OW37018   2.665   3.139  16.741  0.2766 -0.1081  0.0884
 8519SOL    HW137019   2.583   3.153  16.693  0.5990  1.9063  0.1293
 8519SOL    HW237020   2.631   3.154  16.829  1.1668  0.8115  0.2793
 8520SOL     OW37021   0.214   0.314   2.623 -0.9063  0.2634 -0.2757
 8520SOL    HW137022   0.172   0.267   2.695 -0.9427 -0.8320 -1.0167
 8520SOL    HW237023   0.270   0.382   2.660 -0.3126 -1.8871  2.7489
 8521SOL     OW37024   4.538   1.080   3.554  0.1400 -0.1653  0.0034
 8521SOL    HW137025   4.500   1.070   3.466  0.1845 -1.3905  0.1224
 8521SOL    HW237026   4.624   1.110   3.523  0.5389  1.7045  2.9646
 8522SOL     OW37027   4.026   4.312   3.833 -0.3064  0.2114 -0.1584
 8522SOL    HW137028   3.992   4.238   3.885 -2.3226  1.3680  0.1787
 8522SOL    HW237029   4.009   4.386   3.891  0.3168  1.5894 -1.7630
 8523SOL     OW37030   2.343   0.578   3.302  0.2161 -0.0653 -0.3290
 8523SOL    HW137031   2.273   0.619   3.353 -0.0664 -0.4398 -0.4231
 8523SOL    HW237032   2.283   0.544   3.236 -1.8208  0.2621  1.3511
 8524SOL     OW37033   2.021   2.307  12.101 -0.6368  0.2118  0.3023
 8524SOL    HW137034   1.965   2.256  12.159  0.5780  0.6149  1.8367
 8524SOL    HW237035   1.960   2.312  12.028  0.0304  3.1553 -0.0721
 8525SOL     OW37036   1.079   2.989   6.683  0.3531 -0.2704 -0.6048
 8525SOL    HW137037   1.064   3.077   6.649  1.5723  0.4261  0.6564
 8525SOL    HW237038   1.069   3.006   6.777 -3.5092 -1.3636 -0.7881
 8526SOL     OW37039   0.536   2.167  13.663 -0.1553 -0.5075 -0.1137
 8526SOL    HW137040   0.527   2.072  13.653  1.1711 -0.9496  3.0157
 8526SOL    HW237041   0.516   2.188  13.754 -2.2248 -1.1877 -0.4206
 8527SOL     OW37042   2.147   3.105   1.747  0.4432 -0.4423 -0.6760
 8527SOL    HW137043   2.239   3.114   1.723  0.0796 -1.1239 -2.2775
 8527SOL    HW237044   2.104   3.114   1.662  0.9309 -1.5150 -1.0354
 8528SOL     OW37045   2.849   4.105   6.206  0.4470  0.1554  0.4589
 8528SOL    HW137046   2.871   4.191   6.170 -1.6402  0.9651  1.1052
 8528SOL    HW237047   2.862   4.122   6.299  0.3323 -1.0616  0.6995
 8529SOL     OW37048   2.334   3.572  12.816 -0.2434 -0.3914  0.6679
 8529SOL    HW137049   2.364   3.503  12.757  1.5474  0.3257  0.7138
 8529SOL    HW237050   2.311   3.641  12.754  0.8136 -0.8973 -0.2870
 8530SOL     OW37051   1.406   0.065   8.011  0.0368  0.1064  0.4167
 8530SOL    HW137052   1.417   4.707   8.067  1.9212 -0.6309 -0.9581
 8530SOL    HW237053   1.465   0.127   8.053  0.3910  0.2149 -0.2378
 8531SOL     OW37054   2.719   4.676   2.742 -0.9631  0.4773 -0.0712
 8531SOL    HW137055   2.747   4.593   2.704 -2.5826 -0.9333  1.8120
 8531SOL    HW237056   2.732   4.650   2.833 -0.9378  0.6799 -0.0173
 8532SOL     OW37057   4.595   3.505  12.254  0.2594  0.0888  0.3057
 8532SOL    HW137058   4.685   3.498  12.284  0.2994  2.4033  0.7417
 8532SOL    HW237059   4.578   3.411  12.242 -1.7989  0.6760 -1.3390
 8533SOL     OW37060   4.668   4.571   4.619  0.2506 -0.2943 -0.2128
 8533SOL    HW137061   4.591   4.593   4.672 -1.1785 -1.3525 -1.8337
 8533SOL    HW237062   0.014   4.626   4.662  0.1539  0.0084 -0.4560
 8534SOL     OW37063   2.797   0.248  11.800  0.1505 -0.1913 -0.5366
 8534SOL    HW137064   2.743   0.169  11.794  0.6657 -0.5094 -1.1427
 8534SOL    HW237065   2.837   0.244  11.887 -0.0401  1.5029 -0.3798
 8535SOL     OW37066   1.272   1.265   8.833 -0.2378  0.3069 -0.5712
 8535SOL    HW137067   1.192   1.241   8.879  0.0676  1.2893  0.4774
 8535SOL    HW237068   1.335   1.209   8.880  0.3771 -1.8766 -3.9808
 8536SOL     OW37069   3.007   0.022   6.150  0.3726  0.7299  0.1320
 8536SOL    HW137070   3.083   0.029   6.092  1.7660 -1.3437  1.6842
 8536SOL    HW237071   2.970   4.659   6.117  1.1163  1.0203 -1.4505
 8537SOL     OW37072   2.258   0.027   7.722  0.3283 -0.0479 -0.7967
 8537SOL    HW137073   2.188   0.008   7.784 -0.2727 -1.5206 -1.9059
 8537SOL    HW237074   2.299   0.104   7.759 -2.8444  0.4055  1.6963
 8538SOL     OW37075   2.456   2.922  12.669 -0.5038  0.3135  0.2743
 8538SOL    HW137076   2.404   2.872  12.606 -1.1629 -0.2304  1.2495
 8538SOL    HW237077   2.527   2.947  12.610 -0.4386 -0.0945  0.1837
 8539SOL     OW37078   1.216   0.244   7.434 -0.3130 -0.2934 -0.7324
 8539SOL    HW137079   1.205   0.244   7.529  2.4835  0.6606 -0.4029
 8539SOL    HW237080   1.145   0.185   7.408 -0.7014 -0.7246  1.3046
 8540SOL     OW37081   1.473   0.518  16.870 -0.2448  0.3039  0.6127
 8540SOL    HW137082   1.523   0.582  16.821  0.4789 -1.2896 -0.7426
 8540SOL    HW237083   1.464   0.448  16.805 -0.8075 -0.4020  1.4345
 8541SOL     OW37084   4.394   3.503   3.934  0.0325 -0.2619  0.3738
 8541SOL    HW137085   4.424   3.518   4.023  2.0362 -0.2657 -0.2807
 8541SOL    HW237086   4.406   3.408   3.931  1.6049 -0.0684 -0.0749
 8542SOL     OW37087   2.536   4.094   7.028  0.6841  0.1777  0.1854
 8542SOL    HW137088   2.542   4.018   6.970  2.2259 -0.1519  0.7775
 8542SOL    HW237089   2.456   4.135   6.994  0.5008  0.3564  0.8342
 8543SOL     OW37090   3.832   4.536   5.834 -0.2337  0.0036  0.2763
 8543SOL    HW137091   3.775   4.580   5.771 -0.4765 -0.6608  0.0417
 8543SOL    HW237092   3.808   4.446   5.815  0.9669 -0.9275  3.2573
 8544SOL     OW37093   0.977   3.522   8.517 -0.0086  0.3867  0.3652
 8544SOL    HW137094   0.984   3.530   8.612  0.8277 -1.2518  0.4441
 8544SOL    HW237095   1.022   3.438   8.502  0.3015  0.3875  1.3183
 8545SOL     OW37096   3.526   4.041   8.656  0.1874  0.0674 -0.0341
 8545SOL    HW137097   3.488   4.099   8.723  0.0689  0.2592 -0.2674
 8545SOL    HW237098   3.618   4.040   8.680 -0.0683 -2.3448  0.7835
 8546SOL     OW37099   0.765   4.566   8.521 -0.3885 -0.0806  0.5530
 8546SOL    HW137100   0.688   4.617   8.494 -0.2655  1.1489  2.4718
 8546SOL    HW237101   0.742   4.537   8.609 -0.1110  0.8008  0.9227
 8547SOL     OW37102   1.485   3.921   6.955  0.1042  0.5316 -0.0391
 8547SOL    HW137103   1.457   3.928   7.047  0.5426 -1.2386  0.2286
 8547SOL    HW237104   1.544   3.996   6.946  0.3155  0.1684 -1.6607
 8548SOL     OW37105   1.776   0.158   5.181 -0.2756  0.4095 -0.5370
 8548SOL    HW137106   1.853   0.215   5.188  0.2790 -0.2984 -0.9598
 8548SOL    HW237107   1.711   0.209   5.230 -0.5188 -0.8621  0.4392
 8549SOL     OW37108   2.610   2.096   2.188  0.1937 -0.1228  0.2008
 8549SOL    HW137109   2.662   2.175   2.173 -0.7447  0.4623  0.0167
 8549SOL    HW237110   2.581   2.075   2.099 -0.3926 -3.8534  1.2993
 8550SOL     OW37111   3.303   0.447   3.691 -0.3418 -0.1204 -0.6689
 8550SOL    HW137112   3.340   0.525   3.649  1.6450 -0.0774  1.1654
 8550SOL    HW237113   3.211   0.454   3.664 -1.1820  1.8548  2.6672
 8551SOL     OW37114   2.143   2.158   5.692 -0.7481  0.0637  0.2020
 8551SOL    HW137115   2.086   2.083   5.707 -0.6605  0.1146  0.7918
 8551SOL    HW237116   2.121   2.209   5.770 -0.6587  0.2835  0.0840
 8552SOL     OW37117   1.225   4.110   8.271  0.2289  0.3066 -0.5833
 8552SOL    HW137118   1.186   4.121   8.358  3.7988  1.8624  0.7890
 8552SOL    HW237119   1.154   4.134   8.211  0.6077 -2.3961 -2.1212
 8553SOL     OW37120   4.080   3.331   7.735 -0.2461 -0.3013  0.2638
 8553SOL    HW137121   4.074   3.237   7.749 -0.9850 -0.3452 -0.4009
 8553SOL    HW237122   3.989   3.355   7.753 -0.4509 -0.9299  0.0604
 8554SOL     OW37123   1.823   4.648  15.994  0.7907 -0.3381 -0.4464
 8554SOL    HW137124   1.828   4.709  15.920  0.0103 -2.2891 -2.1041
 8554SOL    HW237125   1.814   4.564  15.948 -1.6433 -0.7580  0.8047
 8555SOL     OW37126   1.162   4.234   6.899 -0.0609  0.7083 -0.5302
 8555SOL    HW137127   1.096   4.263   6.836 -1.8904  1.3196  1.6625
 8555SOL    HW237128   1.200   4.313   6.939  1.0949 -0.2504  0.2449
 8556SOL     OW37129   2.797   1.432   6.090 -0.2703 -0.0986  0.1019
 8556SOL    HW137130   2.707   1.400   6.092 -0.7480  1.0780 -1.8978
 8556SOL    HW237131   2.815   1.424   6.184 -1.7514 -0.1706  0.3844
 8557SOL     OW37132   4.429   4.688   4.382  0.1850  0.3227 -0.3680
 8557SOL    HW137133   4.508   0.016   4.356 -0.0183  1.0962  0.4437
 8557SOL    HW237134   4.447   4.695   4.476  2.4995 -3.0058 -0.5664
 8558SOL     OW37135   1.795   1.605   0.358 -0.3983 -0.3258 -0.7911
 8558SOL    HW137136   1.806   1.566   0.445  0.0774 -2.2555 -1.7058
 8558SOL    HW237137   1.835   1.543   0.296  0.6269  0.3453 -0.7949
 8559SOL     OW37138   0.488   2.612   3.921 -0.2962 -0.2030  0.4471
 8559SOL    HW137139   0.583   2.603   3.931 -0.0898  0.5660 -0.8399
 8559SOL    HW237140   0.459   2.614   4.012 -1.8041 -1.2465 -0.0225
 8560SOL     OW37141   3.230   2.635   0.148  0.1962 -0.6701 -0.1408
 8560SOL    HW137142   3.167   2.629   0.077 -2.0933 -0.5291  1.8851
 8560SOL    HW237143   3.239   2.549   0.190 -0.8102 -0.7662 -0.1279
 8561SOL     OW37144   3.387   3.154   4.107 -0.0673  0.1544 -0.1154
 8561SOL    HW137145   3.391   3.163   4.012  2.0266 -0.5727 -0.0798
 8561SOL    HW237146   3.365   3.061   4.110 -2.0251  0.5810 -1.1395
 8562SOL     OW37147   0.657   4.256   3.780  0.5302 -0.8180  0.3844
 8562SOL    HW137148   0.570   4.261   3.741  0.4305 -2.7615  0.3692
 8562SOL    HW237149   0.705   4.303   3.712 -1.0321 -0.7368 -0.6510
 8563SOL     OW37150   2.566   1.632   0.255  0.1316 -0.5701  0.3895
 8563SOL    HW137151   2.574   1.647   0.349 -2.9087  1.0615  0.3836
 8563SOL    HW237152   2.472   1.648   0.245  0.2839  0.3978  0.4968
 8564SOL     OW37153   3.283   1.200   5.501 -0.1719  0.0918 -0.2616
 8564SOL    HW137154   3.240   1.152   5.572 -1.7563  0.2501 -1.1035
 8564SOL    HW237155   3.317   1.274   5.552  1.4172 -0.5555 -0.4051
 8565SOL     OW37156   1.241   3.539   7.003 -0.1298 -0.3102  0.6627
 8565SOL    HW137157   1.221   3.478   7.074 -1.1553  0.7898  1.3020
 8565SOL    HW237158   1.287   3.602   7.058  1.5122 -0.6651 -0.2799
 8566SOL     OW37159   1.628   1.358   2.181  0.5224  0.4183 -0.0072
 8566SOL    HW137160   1.589   1.274   2.206  0.6261 -0.2049 -1.9072
 8566SOL    HW237161   1.694   1.340   2.115 -0.1604 -1.4286 -0.1745
 8567SOL     OW37162   0.260   0.894   5.830  0.1646  0.4266  0.3252
 8567SOL    HW137163   0.270   0.981   5.869 -0.2263 -0.3736  2.2147
 8567SOL    HW237164   0.176   0.913   5.789 -0.7918 -0.9747  1.6490
 8568SOL     OW37165   1.655   2.275  10.563 -0.2987  0.2555 -1.1385
 8568SOL    HW137166   1.609   2.191  10.569 -0.4245  0.3997 -0.0585
 8568SOL    HW237167   1.748   2.253  10.564 -0.6568 -1.2578  0.3013
 8569SOL     OW37168   3.614   2.252   4.201  0.4196 -0.0897 -0.8384
 8569SOL    HW137169   3.532   2.204   4.192  0.1175  0.6814 -2.2812
 8569SOL    HW237170   3.603   2.326   4.141 -2.3464 -0.7219 -1.1041
 8570SOL     OW37171   3.517   4.397  12.200  0.2397 -0.5456 -0.2298
 8570SOL    HW137172   3.473   4.323  12.158  0.0276 -0.2641 -0.5064
 8570SOL    HW237173   3.478   4.467  12.146 -2.0503 -1.5927  0.0640
 8571SOL     OW37174   4.578   1.787   4.493  0.1118 -0.1334  0.1949
 8571SOL    HW137175   4.525   1.708   4.502  0.8216 -0.4335  1.7348
 8571SOL    HW237176   4.615   1.792   4.581  2.4480  1.4337 -0.8468
 8572SOL     OW37177   2.541   3.016   6.639 -0.5257 -0.2576  0.3608
 8572SOL    HW137178   2.576   2.976   6.559 -1.5977 -1.9575  0.7383
 8572SOL    HW237179   2.599   2.978   6.705  1.2301  1.1542 -0.3548
 8573SOL     OW37180   2.907   0.335   4.309 -0.1012  0.2883  0.3273
 8573SOL    HW137181   2.990   0.315   4.265  0.9350  0.2554  2.3233
 8573SOL    HW237182   2.841   0.343   4.240  1.0846  0.0672 -0.8316
 8574SOL     OW37183   2.461   4.531   7.602  0.1265 -0.1060 -0.1218
 8574SOL    HW137184   2.446   4.553   7.510  3.2170  1.2543 -0.3083
 8574SOL    HW237185   2.373   4.562   7.619 -0.1652 -0.0706 -1.6991
 8575SOL     OW37186   2.175   3.892   3.760 -0.6812 -0.0825 -0.0208
 8575SOL    HW137187   2.204   3.841   3.835  1.8790  1.1205 -0.1975
 8575SOL    HW237188   2.146   3.970   3.808 -0.4957 -1.7804  2.8489
 8576SOL     OW37189   0.511   2.660  16.140  0.2740 -0.7981 -0.3647
 8576SOL    HW137190   0.527   2.702  16.056 -0.9705 -0.2391 -0.3285
 8576SOL    HW237191   0.509   2.567  16.116  0.6990 -0.4801 -1.5932
 8577SOL     OW37192   2.812   0.579  11.012  0.2036 -0.4488  0.0134
 8577SOL    HW137193   2.870   0.655  11.019 -0.6720  0.3243 -1.0354
 8577SOL    HW237194   2.732   0.631  11.003 -0.6139 -1.2753  2.5897
 8578SOL     OW37195   1.415   1.592   8.421 -0.7254 -0.1105  0.3169
 8578SOL    HW137196   1.417   1.645   8.342 -1.1085 -1.2150 -0.4404
 8578SOL    HW237197   1.438   1.660   8.484  0.2839  0.0944 -0.2790
 8579SOL     OW37198   4.658   0.122   4.401  0.6171 -0.0685  0.0111
 8579SOL    HW137199   4.632   0.154   4.488  1.4021 -1.3920  0.7421
 8579SOL    HW237200   0.031   0.104   4.419  0.4755  1.0457  1.9669
 8580SOL     OW37201   1.875   2.666   9.265  0.6078 -0.4608  0.0219
 8580SOL    HW137202   1.874   2.597   9.332 -1.5402 -0.1426  0.3094
 8580SOL    HW237203   1.967   2.687   9.283  0.6473 -1.1556  0.6490
 8581SOL     OW37204   3.491   1.845   5.739 -0.4245 -0.7281 -0.0189
 8581SOL    HW137205   3.584   1.838   5.761  0.1355  1.6439 -1.6727
 8581SOL    HW237206   3.481   1.930   5.697  0.5096  0.3170  1.8829
 8582SOL     OW37207   2.284   4.251   3.088 -0.0440  0.1609 -0.3931
 8582SOL    HW137208   2.189   4.256   3.099 -0.2758 -1.0694 -1.7231
 8582SOL    HW237209   2.303   4.248   3.182 -1.1987 -2.6986 -0.2290
 8583SOL     OW37210   1.535   0.208   3.756 -0.4655 -0.1403 -0.1816
 8583SOL    HW137211   1.526   0.172   3.668 -0.5535  0.8304 -0.5672
 8583SOL    HW237212   1.593   0.147   3.802  1.2704 -1.1535 -3.7122
 8584SOL     OW37213   4.603   2.583   1.397  0.7453 -0.6486  0.6882
 8584SOL    HW137214   4.638   2.653   1.453  0.6634  0.2009 -0.3129
 8584SOL    HW237215   4.664   2.588   1.323 -1.5745  1.0106 -1.1239
 8585SOL     OW37216   2.354   2.488   7.335 -0.7398 -0.5010  0.2163
 8585SOL    HW137217   2.291   2.488   7.263  1.4049  0.0458 -1.6757
 8585SOL    HW237218   2.298   2.532   7.399 -0.1817  0.4597  0.0592
 8586SOL     OW37219   3.997   1.473   4.892  0.1100 -0.3540 -0.1627
 8586SOL    HW137220   4.044   1.429   4.963 -2.2037 -1.1879  0.8430
 8586SOL    HW237221   3.991   1.564   4.920  3.3480  0.3795 -1.7931
 8587SOL     OW37222   3.038   3.574   6.603 -0.2823  0.7248 -0.0207
 8587SOL    HW137223   2.987   3.494   6.617  1.5677 -0.7853 -1.9350
 8587SOL    HW237224   2.971   3.632   6.567 -0.9030 -0.3988 -0.6641
 8588SOL     OW37225   1.038   4.318  16.652  0.4075 -0.2426 -0.1089
 8588SOL    HW137226   1.036   4.226  16.626 -0.1291 -0.1123 -0.5265
 8588SOL    HW237227   1.038   4.307  16.747 -2.5857 -0.5501 -0.1416
 8589SOL     OW37228   0.603   2.075   7.628 -0.4030  0.3614  0.4297
 8589SOL    HW137229   0.642   1.990   7.648  2.3756  1.8923  1.4521
 8589SOL    HW237230   0.517   2.057   7.666  0.3492 -0.1675  1.8475
 8590SOL     OW37231   1.803   3.304   2.623 -0.0345 -0.4022  0.4395
 8590SOL    HW137232   1.745   3.379   2.630 -0.2989 -0.3257 -2.2474
 8590SOL    HW237233   1.758   3.237   2.674 -0.6788 -0.1168  0.2449
 8591SOL     OW37234   3.429   1.716   4.862 -0.6484 -0.0899 -0.3509
 8591SOL    HW137235   3.499   1.685   4.804  1.7818  2.3715  1.2488
 8591SOL    HW237236   3.464   1.664   4.934 -2.6558 -0.8303  0.1006
 8592SOL     OW37237   2.966   0.132   8.246 -0.0135  0.0708  0.0476
 8592SOL    HW137238   2.957   0.064   8.312  3.1583 -0.1795  0.2248
 8592SOL    HW237239   3.025   0.084   8.188  2.3320  0.0364  2.5181
 8593SOL     OW37240   4.238   4.407   4.804 -0.6159 -0.2056  0.2379
 8593SOL    HW137241   4.329   4.376   4.801 -0.9757 -1.3080  0.8336
 8593SOL    HW237242   4.211   4.364   4.722  0.7248 -1.4264  0.4355
 8594SOL     OW37243   3.658   4.448   4.477 -0.1767 -0.3499 -0.2730
 8594SOL    HW137244   3.566   4.420   4.484 -0.0127 -1.4959 -2.5726
 8594SOL    HW237245   3.703   4.365   4.492  0.1117 -0.2286 -0.4668
 8595SOL     OW37246   3.140   3.068   8.105 -0.2677 -0.3439  0.5584
 8595SOL    HW137247   3.104   2.990   8.063 -1.2883  1.0338 -1.0766
 8595SOL    HW237248   3.186   3.106   8.031 -0.8890 -0.5568  0.0632
 8596SOL     OW37249   2.573   3.820   5.731 -0.3997 -0.2206  0.7084
 8596SOL    HW137250   2.595   3.727   5.735 -1.2849 -0.5254 -1.4890
 8596SOL    HW237251   2.652   3.858   5.691 -2.3522  0.5170 -2.3749
 8597SOL     OW37252   2.792   3.101   4.801  0.0009 -0.0633  0.0098
 8597SOL    HW137253   2.742   3.145   4.732  1.0165 -0.4237 -0.9608
 8597SOL    HW237254   2.819   3.028   4.745  1.2490 -0.3072  0.9545
 8598SOL     OW37255   3.055   4.207   2.105 -0.2619 -0.1751  0.2433
 8598SOL    HW137256   3.003   4.174   2.178  2.7338 -4.5427  0.4021
 8598SOL    HW237257   3.145   4.175   2.118  0.2903  1.2725 -0.0684
 8599SOL     OW37258   1.659   3.341   8.652 -0.0190 -0.3860 -0.3925
 8599SOL    HW137259   1.607   3.399   8.708 -1.0546 -1.3351 -0.3470
 8599SOL    HW237260   1.736   3.334   8.709  0.3001  1.4326 -0.6151
 8600SOL     OW37261   3.090   3.403   7.352  0.6309  0.2511  0.5208
 8600SOL    HW137262   3.096   3.496   7.370 -3.0169  0.7312 -0.7218
 8600SOL    HW237263   3.164   3.378   7.297 -1.1296  0.1677 -1.8490
 8601SOL     OW37264   1.831   1.177   4.895  0.9170 -0.0391 -0.0322
 8601SOL    HW137265   1.827   1.117   4.970 -0.2383 -1.1941 -1.0306
 8601SOL    HW237266   1.806   1.260   4.936  0.2805  0.5495 -1.6213
 8602SOL     OW37267   3.826   3.355  16.287 -0.3535 -0.1685 -0.7263
 8602SOL    HW137268   3.748   3.333  16.338  0.8259 -1.4338  0.5232
 8602SOL    HW237269   3.886   3.386  16.354  2.4756  0.9341 -3.7509
 8603SOL     OW37270   0.222   1.600  10.745  0.2182  0.5540 -0.5774
 8603SOL    HW137271   0.165   1.639  10.679 -2.2803 -1.6881  0.2585
 8603SOL    HW237272   0.256   1.672  10.797  2.7842 -2.2178  1.5958
 8604SOL     OW37273   2.208   3.729  12.645  0.1660 -0.3088 -0.1443
 8604SOL    HW137274   2.250   3.801  12.597 -1.7483  0.8487 -0.0684
 8604SOL    HW237275   2.120   3.765  12.651  1.0583  2.0623 -0.9078
 8605SOL     OW37276   0.767   2.978  13.720  0.3746  0.2663 -0.1313
 8605SOL    HW137277   0.807   3.000  13.804  3.0974  0.5642 -1.4919
 8605SOL    HW237278   0.844   2.963  13.664  1.1987 -0.5777  1.2421
 8606SOL     OW37279   3.726   3.934   5.109  0.1065  0.3356  0.4285
 8606SOL    HW137280   3.649   3.892   5.071  0.7862 -0.6422  0.1483
 8606SOL    HW237281   3.678   3.985   5.175  1.5394  0.9742  0.9790
 8607SOL     OW37282   2.611   2.810   2.897  0.5306  0.0350 -0.5533
 8607SOL    HW137283   2.670   2.836   2.826 -0.0078  0.7452 -0.7464
 8607SOL    HW237284   2.628   2.716   2.900  2.0543  0.3048 -0.8057
 8608SOL     OW37285   0.286   3.939   5.817  0.4173  0.3523  0.1021
 8608SOL    HW137286   0.272   4.022   5.862  1.2530 -0.2902  1.5435
 8608SOL    HW237287   0.335   3.975   5.743  1.4390  0.1442  0.6749
 8609SOL     OW37288   1.780   0.162  10.141 -0.6186  0.0022  0.2905
 8609SOL    HW137289   1.868   0.161  10.103  0.3779 -0.9245  2.5909
 8609SOL    HW237290   1.744   0.236  10.093  0.2597  1.8303  2.4138
 8610SOL     OW37291   0.434   0.026  11.047 -0.4817 -0.2745 -0.1885
 8610SOL    HW137292   0.486   0.064  10.976 -2.5844 -1.0045 -2.1148
 8610SOL    HW237293   0.394   0.101  11.091  1.6476  0.8233 -0.1483
 8611SOL     OW37294   1.083   3.487   5.880  0.5640  0.1488 -0.4600
 8611SOL    HW137295   1.046   3.571   5.907  0.8898  1.3127 -3.6088
 8611SOL    HW237296   1.109   3.451   5.965 -2.0576 -0.9629 -0.1389
 8612SOL     OW37297   1.122   3.790   2.788  0.4825  0.1540 -0.2620
 8612SOL    HW137298   1.110   3.885   2.789  3.5818  0.5258  1.9536
 8612SOL    HW237299   1.159   3.764   2.872  1.2487  0.2227 -0.5782
 8613SOL     OW37300   2.990   4.271   7.618  0.4366 -0.2425  0.4509
 8613SOL    HW137301   3.034   4.356   7.625  0.3725 -0.1699 -0.0816
 8613SOL    HW237302   2.998   4.248   7.711  0.0973 -0.4049  0.4405
 8614SOL     OW37303   0.304   2.394   4.626  0.3355  0.6411  0.0918
 8614SOL    HW137304   0.386   2.358   4.594  0.3530  2.4957 -1.9367
 8614SOL    HW237305   0.312   2.365   4.717 -0.2327 -0.4774 -0.2215
 8615SOL     OW37306   2.922   2.658  17.493 -0.0426 -1.1830 -0.7412
 8615SOL    HW137307   2.865   2.724  17.533  2.7584 -0.1342  1.6003
 8615SOL    HW237308   2.930   2.594  17.564  3.6311  0.8035  0.6814
 8616SOL     OW37309   0.987   0.835  14.633 -0.0060  0.2624  0.0258
 8616SOL    HW137310   1.021   0.896  14.567 -1.5929  1.1057 -0.0211
 8616SOL    HW237311   0.893   0.835  14.612 -0.4305 -2.0046  1.9035
 8617SOL     OW37312   1.951   0.926   2.914 -0.7689 -0.2634 -0.4807
 8617SOL    HW137313   1.855   0.930   2.915 -0.8565 -2.2290 -0.4329
 8617SOL    HW237314   1.965   0.975   2.833 -1.7438  1.3508  0.3313
 8618SOL     OW37315   0.366   3.600   4.952  0.0995 -0.2311 -0.0207
 8618SOL    HW137316   0.384   3.526   4.893 -1.8320 -0.5066 -0.2444
 8618SOL    HW237317   0.355   3.560   5.038  0.6176  1.2434  0.7232
 8619SOL     OW37318   3.191   0.863   5.561  0.9716 -0.6863  0.6416
 8619SOL    HW137319   3.270   0.870   5.614 -0.2621 -0.2494  2.3963
 8619SOL    HW237320   3.222   0.826   5.478  0.9683 -2.8312  1.6021
 8620SOL     OW37321   0.223   0.692   6.600 -0.4320  0.1865 -0.0582
 8620SOL    HW137322   0.215   0.715   6.508  0.5518  3.3931  0.6277
 8620SOL    HW237323   0.237   0.778   6.642  1.0263 -0.4947  0.8649
 8621SOL     OW37324   2.234   2.429   8.589  0.4028  0.2454 -0.6838
 8621SOL    HW137325   2.148   2.457   8.622 -0.0782 -0.1836 -1.5699
 8621SOL    HW237326   2.255   2.355   8.645  0.0618 -1.0289 -2.2304
 8622SOL     OW37327   2.049   1.549  11.420 -0.0353  0.8516  0.1574
 8622SOL    HW137328   2.104   1.478  11.454 -1.5930  0.6519  2.2096
 8622SOL    HW237329   1.979   1.495  11.383  1.7248  0.0643 -2.0834
 8623SOL     OW37330   1.755   2.554   3.505  0.1169 -0.3315 -0.2628
 8623SOL    HW137331   1.691   2.609   3.550 -0.1090 -0.6728 -0.1699
 8623SOL    HW237332   1.736   2.469   3.543  0.5823 -1.1717 -1.9074
 8624SOL     OW37333   0.138   3.962  14.477 -0.3674  0.5974 -0.3362
 8624SOL    HW137334   0.204   3.957  14.408  2.5642  2.0338  2.3619
 8624SOL    HW237335   0.185   4.006  14.548 -1.5448  3.2573 -1.1785
 8625SOL     OW37336   4.069   1.630   6.212  0.5237  0.3653 -0.3736
 8625SOL    HW137337   4.013   1.553   6.203 -0.1723  0.9615 -1.0623
 8625SOL    HW237338   4.068   1.664   6.123  0.9382 -2.1000 -1.3189
 8626SOL     OW37339   2.405   1.835   6.498  0.1117 -0.0710  0.2209
 8626SOL    HW137340   2.343   1.903   6.470  0.5136  0.1072 -0.2487
 8626SOL    HW237341   2.351   1.810   6.572 -1.2864  2.9362  0.2344
 8627SOL     OW37342   1.099   3.269  17.180 -0.5862 -0.2948  0.3311
 8627SOL    HW137343   1.133   3.303  17.098  0.8037 -2.9763 -0.2064
 8627SOL    HW237344   1.142   3.317  17.251 -0.2421  0.8510 -0.6669
 8628SOL     OW37345   1.438   0.993   8.928  0.3736  0.0854 -0.7320
 8628SOL    HW137346   1.504   0.980   8.859  1.4505  1.2546  0.0692
 8628SOL    HW237347   1.486   1.027   9.004 -1.6402 -0.8601  0.9526
 8629SOL     OW37348   0.499   1.815  15.830  0.5735  0.2103 -0.1569
 8629SOL    HW137349   0.547   1.746  15.877 -2.1331 -1.5507  0.0081
 8629SOL    HW237350   0.437   1.844  15.897  2.2210  0.2304  1.3579
 8630SOL     OW37351   3.010   0.245   6.972  0.0265  0.2718 -0.4450
 8630SOL    HW137352   3.065   0.305   6.921  0.0916 -0.9021 -1.7652
 8630SOL    HW237353   3.049   0.243   7.060  0.5560 -0.5516 -0.6929
 8631SOL     OW37354   2.402   2.620  14.266  0.6468  0.1631 -0.0948
 8631SOL    HW137355   2.356   2.542  14.235 -0.0675 -0.0912  1.6088
 8631SOL    HW237356   2.471   2.632  14.201  1.9821  1.0758  1.4943
 8632SOL     OW37357   2.437   1.225   1.416  0.0885 -0.2714  0.0349
 8632SOL    HW137358   2.373   1.276   1.366  1.0677  1.3879  0.5159
 8632SOL    HW237359   2.507   1.249   1.356 -2.4046  2.6089 -1.7306
 8633SOL     OW37360   1.644   4.140   6.870  0.0410 -0.1609  0.5088
 8633SOL    HW137361   1.699   4.195   6.926 -1.6646  3.0001 -0.9093
 8633SOL    HW237362   1.591   4.208   6.827 -0.2488 -0.9902 -0.4387
 8634SOL     OW37363   3.349   2.570   8.678 -0.2751  0.0513  0.5457
 8634SOL    HW137364   3.382   2.603   8.762 -1.6591  1.7302  0.4168
 8634SOL    HW237365   3.384   2.642   8.626 -0.8359  0.3052  0.5253
 8635SOL     OW37366   0.797   1.758   8.534 -0.2575 -0.4618  0.0053
 8635SOL    HW137367   0.784   1.699   8.608 -0.0139 -1.0756 -0.4354
 8635SOL    HW237368   0.867   1.816   8.562 -0.4056 -0.0879 -0.3879
 8636SOL     OW37369   1.559   1.525   6.693  0.0038 -0.2551  0.9435
 8636SOL    HW137370   1.533   1.513   6.602  1.1044  0.7201  0.5064
 8636SOL    HW237371   1.625   1.456   6.694  0.5917  0.3405  2.9282
 8637SOL     OW37372   1.051   4.701   5.015 -0.5014  0.2564  0.6755
 8637SOL    HW137373   0.956   4.694   5.015 -0.4113 -0.8227  0.2243
 8637SOL    HW237374   1.082   4.625   4.967  0.9004  0.7934  0.7345
 8638SOL     OW37375   0.064   3.471   4.114  0.1053  0.7122  0.4062
 8638SOL    HW137376   0.084   3.532   4.043  0.5798 -0.1282 -0.1847
 8638SOL    HW237377   4.695   3.493   4.142  0.7636  0.1183  3.0021
 8639SOL     OW37378   2.858   3.804  16.886 -0.2885 -0.2450  0.1435
 8639SOL    HW137379   2.931   3.830  16.830 -1.3792  3.2208  0.3063
 8639SOL    HW237380   2.824   3.728  16.839 -0.1225  1.0243 -2.0131
 8640SOL     OW37381   4.593   2.545   7.990 -0.2218 -0.0544  0.0647
 8640SOL    HW137382   4.643   2.573   7.913  1.8389 -0.8889  1.0883
 8640SOL    HW237383   4.507   2.561   7.951 -0.2976 -0.5242  0.0337
 8641SOL     OW37384   2.347   0.376  14.850 -0.3801  0.3567  0.2274
 8641SOL    HW137385   2.369   0.394  14.942  0.2165  1.8801 -0.2142
 8641SOL    HW237386   2.388   0.452  14.809  1.0981  0.1303  1.2621
 8642SOL     OW37387   4.029   1.944  17.040 -0.2140  0.4466  0.2694
 8642SOL    HW137388   4.011   2.029  17.001  1.8180  0.6733 -0.1675
 8642SOL    HW237389   4.070   1.901  16.965  2.3574 -1.2638  2.6491
 8643SOL     OW37390   2.764   1.610   9.014  0.2111 -0.1939  1.2753
 8643SOL    HW137391   2.697   1.542   9.010  0.2770 -0.2211  0.5573
 8643SOL    HW237392   2.816   1.557   9.074  1.2123 -0.3170  0.2959
 8644SOL     OW37393   1.962   4.437   1.092  0.2363 -0.9852 -0.1034
 8644SOL    HW137394   1.930   4.433   1.002  0.4910  0.7892 -0.2635
 8644SOL    HW237395   1.992   4.347   1.108 -2.3694 -1.7241  0.7167
 8645SOL     OW37396   4.025   0.358   2.084 -0.1551 -0.5849  0.1830
 8645SOL    HW137397   3.942   0.384   2.045 -0.2843 -0.4193  0.5713
 8645SOL    HW237398   4.090   0.420   2.052  0.9817 -1.1471  1.4062
 8646SOL     OW37399   2.457   1.910   1.315 -0.1649 -0.2264  0.1020
 8646SOL    HW137400   2.414   1.928   1.232  0.1190  0.8656  0.1908
 8646SOL    HW237401   2.449   1.999   1.351 -1.3869 -0.9602  1.6110
 8647SOL     OW37402   0.247   1.932   6.739  0.3054  0.3062  0.3949
 8647SOL    HW137403   0.168   1.981   6.716 -0.2129 -0.7010  0.0258
 8647SOL    HW237404   0.235   1.922   6.833  0.7876  3.1369  0.7400
 8648SOL     OW37405   3.864   2.639   4.459  0.5668 -0.0976 -0.6572
 8648SOL    HW137406   3.953   2.607   4.444 -0.0415 -0.4933 -3.3061
 8648SOL    HW237407   3.812   2.564   4.489 -0.3079  0.2055 -1.4272
 8649SOL     OW37408   2.316   4.011   3.555  0.6662 -0.1919 -0.2052
 8649SOL    HW137409   2.272   3.978   3.633  0.1176  0.0117 -0.4284
 8649SOL    HW237410   2.278   3.962   3.483 -4.3460  1.1345  1.5268
 8650SOL     OW37411   1.723   1.731   1.754  0.2864 -0.0251 -0.1652
 8650SOL    HW137412   1.744   1.664   1.689  1.2991  1.3668 -1.2656
 8650SOL    HW237413   1.642   1.706   1.797 -0.0704 -1.5974 -1.7542
 8651SOL     OW37414   0.984   0.715  12.582 -0.8127  0.0571  0.1585
 8651SOL    HW137415   1.014   0.638  12.533 -1.9059  0.3118 -0.8976
 8651SOL    HW237416   0.964   0.662  12.660  1.6080  0.4942  1.0916
 8652SOL     OW37417   4.208   1.992   7.253 -0.6737 -0.0201  0.1737
 8652SOL    HW137418   4.114   2.009   7.260 -0.5552  1.0031 -0.7734
 8652SOL    HW237419   4.213   1.916   7.195  1.8205  0.1817  0.1207
 8653SOL     OW37420   1.145   0.133   8.962 -0.3074  0.0884 -0.0620
 8653SOL    HW137421   1.197   0.191   9.018 -1.9252  0.8507  0.6896
 8653SOL    HW237422   1.090   0.103   9.035 -0.0921 -0.5246 -0.1517
 8654SOL     OW37423   3.200   0.144   2.987 -0.0075 -0.0503  0.1466
 8654SOL    HW137424   3.128   0.083   2.971  0.4091 -0.2747 -0.8673
 8654SOL    HW237425   3.255   0.101   3.053 -1.0762  0.9981  1.7213
 8655SOL     OW37426   3.103   4.587   4.980  0.1414  0.2915  0.0725
 8655SOL    HW137427   3.194   4.563   4.962  0.4464  1.1122  0.5124
 8655SOL    HW237428   3.107   4.683   4.976  0.9512  0.3301  1.5797
 8656SOL     OW37429   0.822   1.900  10.391  0.5339 -0.5355 -0.7274
 8656SOL    HW137430   0.771   1.889  10.471  0.5485  3.1312 -0.1874
 8656SOL    HW237431   0.905   1.929  10.431 -0.6718 -1.0064  2.1512
 8657SOL     OW37432   2.791   0.531  11.290  0.7845 -0.6179 -0.4006
 8657SOL    HW137433   2.817   0.547  11.200  2.5236  0.6399  0.3161
 8657SOL    HW237434   2.770   0.618  11.325  1.0328  0.0268 -1.8660
 8658SOL     OW37435   3.208   4.192  14.908  0.0599  0.2392  0.9180
 8658SOL    HW137436   3.269   4.131  14.868 -1.5883  0.0673 -1.3151
 8658SOL    HW237437   3.256   4.243  14.974  0.0025  1.3824  0.0860
 8659SOL     OW37438   1.569   2.016   1.811  0.3884  0.1074  0.1004
 8659SOL    HW137439   1.617   2.080   1.759 -0.1947  0.0985 -0.4499
 8659SOL    HW237440   1.639   1.956   1.837  1.0679  1.0659  0.4768
 8660SOL     OW37441   0.156   2.486   7.860  0.4999  0.1427  0.3231
 8660SOL    HW137442   0.242   2.516   7.830 -0.0853  2.0121  0.5209
 8660SOL    HW237443   0.088   2.537   7.816 -0.0567 -2.1842 -1.5657
 8661SOL     OW37444   3.478   2.276   5.452 -0.5639 -0.3803 -0.2637
 8661SOL    HW137445   3.562   2.240   5.424 -0.0070  0.4088  0.4270
 8661SOL    HW237446   3.482   2.352   5.393  0.5693  1.9011  2.7378
 8662SOL     OW37447   4.128   2.712  12.508 -0.9934 -0.5110  0.2617
 8662SOL    HW137448   4.078   2.760  12.575  0.7549 -0.6943  1.6859
 8662SOL    HW237449   4.216   2.718  12.543 -0.5803 -2.2726 -0.4897
 8663SOL     OW37450   2.904   1.177   6.462 -0.5316  0.0462  0.0794
 8663SOL    HW137451   2.915   1.103   6.402  3.2024  0.2181  0.5331
 8663SOL    HW237452   2.829   1.150   6.514  1.1382 -2.7624  1.0228
 8664SOL     OW37453   4.059   2.731   0.705  0.2762  0.4194 -0.4949
 8664SOL    HW137454   4.079   2.647   0.663  0.1892  0.3779 -0.4535
 8664SOL    HW237455   4.000   2.701   0.774 -1.0595  1.0904 -1.3358
 8665SOL     OW37456   2.435   2.331   9.253 -0.1805 -0.8310  0.0709
 8665SOL    HW137457   2.472   2.248   9.222 -0.6525 -0.1800 -2.2571
 8665SOL    HW237458   2.342   2.309   9.246 -0.0124 -0.7729 -2.2852
 8666SOL     OW37459   4.607   3.128  13.892 -0.2062  0.1597  0.7184
 8666SOL    HW137460   4.594   3.036  13.914  0.3284  0.0950  0.7588
 8666SOL    HW237461   4.694   3.133  13.932 -0.0069 -0.9956  0.4434
 8667SOL     OW37462   4.462   0.958   4.490  0.4644 -0.4650  0.1869
 8667SOL    HW137463   4.558   0.961   4.484  0.3679  0.4257 -0.9193
 8667SOL    HW237464   4.445   1.042   4.448  0.1948  0.5242  2.2601
 8668SOL     OW37465   3.026   3.975   5.224  0.4409 -0.4642 -0.0456
 8668SOL    HW137466   3.036   4.053   5.170  0.9349 -0.0377  0.6725
 8668SOL    HW237467   2.932   3.958   5.227  0.4265 -0.4126 -0.2408
 8669SOL     OW37468   1.622   4.303   8.848 -0.4573 -0.6218 -0.6238
 8669SOL    HW137469   1.639   4.256   8.930 -1.2143 -1.0295 -0.7025
 8669SOL    HW237470   1.684   4.271   8.782 -0.0877 -0.0846 -0.5342
 8670SOL     OW37471   3.642   1.976   1.696 -0.4317  0.1586  0.0499
 8670SOL    HW137472   3.605   2.006   1.613  4.1023 -1.6852 -2.6562
 8670SOL    HW237473   3.629   2.052   1.752 -0.7102 -1.0775  1.6572
 8671SOL     OW37474   0.677   4.044   6.657  0.0951  0.1361  0.3882
 8671SOL    HW137475   0.587   4.016   6.642  0.2949  0.2326 -0.9606
 8671SOL    HW237476   0.669   4.137   6.682 -1.6815  1.0418 -3.6003
 8672SOL     OW37477   2.797   4.705  10.341 -0.5120  0.5497  0.1166
 8672SOL    HW137478   2.845   0.021  10.265 -1.0650  1.8437  0.3659
 8672SOL    HW237479   2.850   0.018  10.413 -1.2655 -0.6121  1.1873
 8673SOL     OW37480   2.354   4.237   4.881  0.1388 -0.8949  0.0666
 8673SOL    HW137481   2.440   4.267   4.910 -0.1723 -0.3711  0.4501
 8673SOL    HW237482   2.343   4.299   4.809  0.5309 -1.4787 -0.4920
 8674SOL     OW37483   2.088   3.291  15.090 -0.4374 -0.5562 -0.1063
 8674SOL    HW137484   2.013   3.232  15.080  1.2697 -2.5054 -1.5119
 8674SOL    HW237485   2.039   3.359  15.136 -0.3150 -0.3294 -0.3160
 8675SOL     OW37486   4.181   2.965   7.345 -0.0547 -0.2931 -0.4149
 8675SOL    HW137487   4.115   3.030   7.369  0.2007 -0.4009  0.5674
 8675SOL    HW237488   4.161   2.890   7.400 -3.3507  0.8122 -0.1137
 8676SOL     OW37489   3.556   3.862   7.859 -0.1100 -0.3520 -0.5310
 8676SOL    HW137490   3.557   3.908   7.775 -1.4541 -2.6734 -1.8180
 8676SOL    HW237491   3.548   3.930   7.926 -2.4761  0.2801 -1.4562
 8677SOL     OW37492   2.599   0.268   7.419  0.2710  0.3123 -0.3507
 8677SOL    HW137493   2.622   0.279   7.511 -1.1949 -0.5985  0.1216
 8677SOL    HW237494   2.524   0.327   7.413 -0.8861 -1.1018  0.2547
 8678SOL     OW37495   3.625   1.504  10.667  0.0926  0.4407 -0.4685
 8678SOL    HW137496   3.635   1.478  10.575 -0.2893  0.2379 -0.4578
 8678SOL    HW237497   3.599   1.420  10.707 -0.6498  0.1843 -1.4774
 8679SOL     OW37498   1.102   2.284   2.920 -0.0213  0.2280  0.1727
 8679SOL    HW137499   1.152   2.297   2.840  1.3560 -0.6023  0.8926
 8679SOL    HW237500   1.129   2.359   2.974 -0.1424 -0.8719  1.7674
 8680SOL     OW37501   1.002   0.408   9.102 -0.2765 -0.0358  0.0436
 8680SOL    HW137502   0.991   0.488   9.152  0.2672 -0.2876  0.5638
 8680SOL    HW237503   1.098   0.408   9.106 -0.2701  0.1285 -0.1204
 8681SOL     OW37504   2.754   3.719  16.116 -0.5373  0.2837  0.8723
 8681SOL    HW137505   2.740   3.643  16.172 -0.1270 -1.2768 -1.1415
 8681SOL    HW237506   2.850   3.722  16.114 -0.5133 -0.8293  0.3948
 8682SOL     OW37507   4.501   3.447   5.208 -0.1341  0.1293  0.2718
 8682SOL    HW137508   4.460   3.364   5.185  1.2388 -0.1982 -0.9384
 8682SOL    HW237509   4.572   3.456   5.145 -0.4562 -0.3763 -0.1580
 8683SOL     OW37510   4.677   1.735   6.927  0.0267  0.2400  0.3085
 8683SOL    HW137511   4.668   1.727   7.022  0.6087  5.0595  0.8128
 8683SOL    HW237512   0.040   1.783   6.927  0.1026  0.0999 -0.3656
 8684SOL     OW37513   0.092   0.725  10.169  0.0015 -0.2538  0.5288
 8684SOL    HW137514   0.092   0.820  10.156  3.6544  0.0004  2.1200
 8684SOL    HW237515   0.183   0.709  10.146 -0.1380  0.8589 -0.7816
 8685SOL     OW37516   3.592   1.583   5.520 -0.2897  0.3530  0.1947
 8685SOL    HW137517   3.509   1.575   5.566 -0.9399  2.0108 -0.6982
 8685SOL    HW237518   3.589   1.527   5.443  0.9090 -2.2995  2.0384
 8686SOL     OW37519   3.173   3.760  11.318 -0.1843  0.9140  0.6731
 8686SOL    HW137520   3.173   3.664  11.318 -1.9505  0.9120  0.8103
 8686SOL    HW237521   3.225   3.774  11.239 -0.8298 -1.5625 -0.1765
 8687SOL     OW37522   2.017   2.327   1.445  0.0540 -0.0563 -0.6297
 8687SOL    HW137523   2.104   2.363   1.424 -0.6793  1.8201 -0.4512
 8687SOL    HW237524   2.040   2.235   1.460  0.4135  0.0921 -0.2667
 8688SOL     OW37525   0.824   0.338  14.820  0.2043  0.0929 -0.0698
 8688SOL    HW137526   0.752   0.397  14.798 -0.9026 -0.7425  1.2969
 8688SOL    HW237527   0.781   0.277  14.880 -0.1921 -0.5433 -0.9897
 8689SOL     OW37528   0.034   2.011   5.438  0.0364 -0.1445 -0.3919
 8689SOL    HW137529   0.048   2.078   5.505 -1.0187 -0.8041  0.5041
 8689SOL    HW237530   0.074   1.931   5.473 -1.6427 -1.3068 -1.1257
 8690SOL     OW37531   0.583   3.095   5.693  0.5995  0.5723 -0.0446
 8690SOL    HW137532   0.496   3.107   5.732  0.6389  0.1733  0.1662
 8690SOL    HW237533   0.607   3.173   5.643  0.1529  0.8377  0.1538
 8691SOL     OW37534   1.470   2.788   9.806 -0.3196  0.0225  0.0037
 8691SOL    HW137535   1.419   2.711   9.782 -2.0338  2.4818 -4.4367
 8691SOL    HW237536   1.429   2.809   9.890  1.5129  1.6555  0.4949
 8692SOL     OW37537   2.189   1.664   7.160  0.5527 -0.4364 -0.2091
 8692SOL    HW137538   2.119   1.725   7.186 -2.1402 -2.7529 -2.0263
 8692SOL    HW237539   2.249   1.666   7.235  1.1531  1.8742 -0.7469
 8693SOL     OW37540   0.745   1.633   5.059  0.1304 -0.4640  0.1072
 8693SOL    HW137541   0.814   1.598   5.003  1.9293 -1.0375  2.7031
 8693SOL    HW237542   0.789   1.716   5.075  0.1628 -0.0775 -1.9705
 8694SOL     OW37543   4.445   1.424  12.788 -0.5809  0.3241  0.2243
 8694SOL    HW137544   4.479   1.356  12.846  2.2321  0.0638 -1.7620
 8694SOL    HW237545   4.398   1.482  12.849  1.0282  0.8962  0.9280
 8695SOL     OW37546   3.781   1.106  15.837 -0.2202  0.1725 -0.4138
 8695SOL    HW137547   3.689   1.106  15.863  0.4131  0.0056  1.8024
 8695SOL    HW237548   3.812   1.115  15.927 -2.0082 -1.1564  0.3353
 8696SOL     OW37549   0.143   1.542   4.900  0.4021  0.4562  0.0574
 8696SOL    HW137550   0.113   1.500   4.981 -0.5663  0.4155 -0.3213
 8696SOL    HW237551   0.233   1.511   4.896  0.4775  0.7226 -0.3267
 8697SOL     OW37552   0.226   2.365  11.029 -0.1924  0.1312  0.3019
 8697SOL    HW137553   0.253   2.457  11.019  1.5210 -0.2071  1.7717
 8697SOL    HW237554   0.210   2.361  11.123  1.4919 -2.2195  0.4764
 8698SOL     OW37555   1.267   3.266   6.105  0.2277 -0.6798 -0.0638
 8698SOL    HW137556   1.224   3.195   6.057  2.0047 -0.3737 -2.1535
 8698SOL    HW237557   1.216   3.273   6.185  1.4644  0.8527  0.5799
 8699SOL     OW37558   3.472   1.859   8.628  0.0322 -0.2041 -0.1196
 8699SOL    HW137559   3.484   1.812   8.545  3.8427  0.6151 -0.0372
 8699SOL    HW237560   3.396   1.821   8.671  0.4706  0.0618  0.8841
 8700SOL     OW37561   1.331   0.397  11.151 -0.0598 -0.2844 -0.1015
 8700SOL    HW137562   1.293   0.410  11.238  0.3675  0.0640  0.0293
 8700SOL    HW237563   1.400   0.333  11.164  1.4386  1.4184  0.2829
 8701SOL     OW37564   3.388   3.305  11.200  0.9983 -0.8823 -0.2212
 8701SOL    HW137565   3.351   3.393  11.206  1.6544 -0.9547  4.2327
 8701SOL    HW237566   3.305   3.257  11.193  1.3208 -1.6305  1.1836
 8702SOL     OW37567   4.305   2.797   3.326 -0.1893 -0.3465  0.2566
 8702SOL    HW137568   4.213   2.795   3.301  0.1324  2.3859 -1.0774
 8702SOL    HW237569   4.319   2.702   3.335 -0.4976 -0.5431 -1.3963
 8703SOL     OW37570   3.639   2.858   2.277 -0.3418  0.6232 -0.4745
 8703SOL    HW137571   3.653   2.917   2.351 -0.5883 -1.7318  1.4657
 8703SOL    HW237572   3.586   2.917   2.224  1.0136  1.4761 -0.8881
 8704SOL     OW37573   3.000   1.595   7.703 -0.3818 -0.1343 -0.5605
 8704SOL    HW137574   2.967   1.684   7.687  0.4966  0.0124 -1.5483
 8704SOL    HW237575   2.943   1.562   7.772 -0.9302  1.0320 -0.4421
 8705SOL     OW37576   2.533   2.785   8.455 -0.2005  0.3200 -0.5126
 8705SOL    HW137577   2.465   2.737   8.407 -0.9489  0.7947  0.0632
 8705SOL    HW237578   2.615   2.758   8.414 -0.2841 -0.6517 -0.0457
 8706SOL     OW37579   3.100   2.835   5.474 -0.6653 -0.2528  0.3917
 8706SOL    HW137580   3.150   2.899   5.524 -1.3687  0.3221  0.3563
 8706SOL    HW237581   3.044   2.879   5.409  0.8571 -0.2617 -0.9310
 8707SOL     OW37582   3.959   2.269   5.201 -0.1749 -0.0255 -0.0743
 8707SOL    HW137583   3.909   2.255   5.121  2.0646 -0.6671 -1.3853
 8707SOL    HW237584   3.890   2.275   5.267 -0.1111 -0.8316  0.0678
 8708SOL     OW37585   3.618   3.315  16.955  0.0146 -0.5868  0.5825
 8708SOL    HW137586   3.712   3.298  16.960 -0.6850 -4.7752 -0.3894
 8708SOL    HW237587   3.595   3.231  16.916  0.3523 -1.1896  1.6826
 8709SOL     OW37588   2.227   4.093   7.137 -0.3236  0.0070 -0.0571
 8709SOL    HW137589   2.179   4.048   7.068 -1.3969 -1.7234  1.8152
 8709SOL    HW237590   2.317   4.063   7.126 -0.2897  0.9834 -2.4577
 8710SOL     OW37591   4.496   2.405   8.833 -0.0408  0.3123 -0.0974
 8710SOL    HW137592   4.533   2.321   8.806  1.8630  1.0185  0.3211
 8710SOL    HW237593   4.578   2.453   8.825 -1.3233  2.5114  0.0908
 8711SOL     OW37594   0.750   0.216   0.381  0.8551  0.2960  0.0903
 8711SOL    HW137595   0.712   0.211   0.293 -0.0768 -0.8413  0.5589
 8711SOL    HW237596   0.839   0.183   0.368  1.3186  2.0780 -1.2398
 8712SOL     OW37597   0.020   0.992   1.097 -0.3701  0.1771  0.3097
 8712SOL    HW137598   0.038   1.020   1.007 -1.2780  2.4002  0.8005
 8712SOL    HW237599   4.683   0.916   1.085 -0.4476  0.5127 -1.4651
 8713SOL     OW37600   4.422   1.813  14.839 -0.1149  0.2474  0.0652
 8713SOL    HW137601   4.432   1.835  14.746  0.2052 -0.5554 -0.0946
 8713SOL    HW237602   4.362   1.884  14.862  0.7587  0.6617  1.0576
 8714SOL     OW37603   3.392   3.648   7.882 -0.0208 -0.1327 -0.0570
 8714SOL    HW137604   3.442   3.730   7.876 -1.7965  0.7905 -2.2942
 8714SOL    HW237605   3.454   3.601   7.938  0.0907 -1.5374 -1.3822
 8715SOL     OW37606   2.221   3.474   6.418 -0.1167  0.4916 -0.4511
 8715SOL    HW137607   2.193   3.394   6.462 -1.1292  3.4649  4.3270
 8715SOL    HW237608   2.134   3.506   6.394 -0.7183 -0.3297  0.6338
 8716SOL     OW37609   3.203   0.119  17.383 -0.6346  0.0890  0.0866
 8716SOL    HW137610   3.118   0.083  17.357 -1.5974  1.9205  0.6909
 8716SOL    HW237611   3.231   0.060  17.452  0.7748 -0.0077 -0.5683
 8717SOL     OW37612   1.856   3.388   0.534 -0.3421 -0.2531  0.1911
 8717SOL    HW137613   1.942   3.409   0.572  0.1079 -0.3595 -0.7717
 8717SOL    HW237614   1.810   3.324   0.588  0.6255 -1.6167 -0.6071
 8718SOL     OW37615   3.675   2.251   5.995 -0.0542 -0.1645 -0.4839
 8718SOL    HW137616   3.664   2.213   6.083  2.7336  0.9551  0.3553
 8718SOL    HW237617   3.738   2.191   5.955 -0.6680 -0.5506 -0.8496
 8719SOL     OW37618   0.417   0.926   8.952  0.5782 -0.4453  0.3842
 8719SOL    HW137619   0.344   0.988   8.955  0.0635 -1.0724  0.6370
 8719SOL    HW237620   0.467   0.924   9.034  0.1854 -0.6111  0.6163
 8720SOL     OW37621   3.771   2.915   6.418 -0.4191 -0.2258  0.4594
 8720SOL    HW137622   3.706   2.975   6.383  1.7868  1.0876 -1.4116
 8720SOL    HW237623   3.759   2.847   6.352 -0.5025 -1.4565  1.7409
 8721SOL     OW37624   0.782   1.753   4.432  0.4233  0.0452 -0.2774
 8721SOL    HW137625   0.860   1.746   4.488  0.8570  0.5692 -0.8124
 8721SOL    HW237626   0.801   1.678   4.376  0.8123  0.9373 -1.3572
 8722SOL     OW37627   0.988   2.135  14.865  0.1793 -0.5622  0.2389
 8722SOL    HW137628   0.972   2.154  14.957  0.1958  0.2920  0.0593
 8722SOL    HW237629   0.901   2.119  14.827  0.1072 -0.7966  0.5061
 8723SOL     OW37630   4.153   1.194   4.186 -0.1264  0.0146  0.7411
 8723SOL    HW137631   4.235   1.183   4.139 -0.0717 -1.8655  1.2760
 8723SOL    HW237632   4.154   1.288   4.205  0.3460 -0.1517  1.5386
 8724SOL     OW37633   1.733   2.124   8.954  0.2985 -0.8751 -0.3026
 8724SOL    HW137634   1.708   2.173   9.033  0.9176  1.1492 -1.3682
 8724SOL    HW237635   1.645   2.093   8.932 -0.3436  0.2916  0.6155
 8725SOL     OW37636   1.861   3.032  11.137  0.2757 -0.8676 -0.5383
 8725SOL    HW137637   1.880   3.116  11.179  1.1299 -0.2836 -2.1036
 8725SOL    HW237638   1.944   2.984  11.140 -0.0572 -1.3821  0.4831
 8726SOL     OW37639   0.762   1.473   4.297 -0.4476 -0.4085 -0.8803
 8726SOL    HW137640   0.791   1.427   4.218  0.7901 -2.8825  1.0074
 8726SOL    HW237641   0.832   1.456   4.360 -0.9528 -0.0073 -0.2133
 8727SOL     OW37642   4.689   1.740   9.117 -0.0949  0.0706 -0.2409
 8727SOL    HW137643   4.646   1.741   9.203  0.3650 -0.7883 -0.0092
 8727SOL    HW237644   4.618   1.767   9.059 -1.7314 -0.1351  1.6564
 8728SOL     OW37645   4.453   3.669  15.043  0.2515  0.4269 -0.0996
 8728SOL    HW137646   4.436   3.715  15.125  1.0534  2.7796 -1.2654
 8728SOL    HW237647   4.518   3.731  15.009 -1.1273  2.4496  0.9864
 8729SOL     OW37648   3.194   1.650   4.446 -0.3197  0.0404 -0.4162
 8729SOL    HW137649   3.212   1.588   4.375 -0.7380  1.4498 -1.7322
 8729SOL    HW237650   3.100   1.667   4.441 -0.8863 -3.1873 -0.8129
 8730SOL     OW37651   0.648   3.932  10.776  0.7753 -0.4526  0.2613
 8730SOL    HW137652   0.717   3.964  10.717 -0.9066 -1.4901 -2.2765
 8730SOL    HW237653   0.692   3.881  10.844 -0.4432 -0.7884  0.7951
 8731SOL     OW37654   2.609   1.263   2.984 -0.3377  0.8072  0.1861
 8731SOL    HW137655   2.555   1.316   2.925 -0.5077  1.3860  0.8469
 8731SOL    HW237656   2.697   1.279   2.951  0.6452 -0.7746  2.0266
 8732SOL     OW37657   4.225   1.026  10.824 -0.4696 -0.4504 -0.2507
 8732SOL    HW137658   4.318   1.009  10.814 -0.3836 -0.2936  0.2617
 8732SOL    HW237659   4.194   1.025  10.734  1.2632  3.3049 -0.9030
 8733SOL     OW37660   1.952   2.833  13.730 -0.1170 -0.3733  0.6193
 8733SOL    HW137661   1.878   2.860  13.784 -1.1719 -0.4046 -0.7822
 8733SOL    HW237662   1.954   2.879  13.646  0.9900  0.6792  1.2277
 8734SOL     OW37663   3.338   0.038   9.044 -0.6294 -0.1237 -0.2820
 8734SOL    HW137664   3.284   0.020   9.120  2.4568 -1.8833  1.4930
 8734SOL    HW237665   3.290   0.115   9.014 -2.7519 -1.3999 -0.1385
 8735SOL     OW37666   2.332   4.039   7.475 -0.2156  0.3270  0.7263
 8735SOL    HW137667   2.422   4.062   7.452 -0.0761 -0.1559  0.7797
 8735SOL    HW237668   2.328   3.946   7.449  2.1292  0.5897 -0.6135
 8736SOL     OW37669   2.955   4.129   3.301  0.3874  0.3193 -0.3641
 8736SOL    HW137670   2.934   4.073   3.226 -2.4738  0.9563 -0.0283
 8736SOL    HW237671   2.966   4.063   3.369  1.2054 -0.4630 -1.2593
 8737SOL     OW37672   0.356   3.350   7.217 -0.3572 -0.1398 -0.2062
 8737SOL    HW137673   0.394   3.265   7.238 -0.3874 -0.0725  0.1144
 8737SOL    HW237674   0.432   3.403   7.240 -1.3933  1.8138 -1.2256
 8738SOL     OW37675   4.328   4.155   3.987 -0.8174  0.8062 -0.2144
 8738SOL    HW137676   4.323   4.164   3.892  1.2691  4.1615 -0.0163
 8738SOL    HW237677   4.317   4.061   4.005 -1.4315  0.8336 -0.4619
 8739SOL     OW37678   1.186   2.686   0.790  0.5233  0.0406 -0.1998
 8739SOL    HW137679   1.129   2.673   0.714  0.9922  2.7924 -1.0275
 8739SOL    HW237680   1.124   2.666   0.860  2.0297 -1.2782  0.7428
 8740SOL     OW37681   2.653   1.926   2.417  0.2204  0.1783 -0.0348
 8740SOL    HW137682   2.721   1.870   2.380 -2.1914 -1.3194 -2.2424
 8740SOL    HW237683   2.668   2.003   2.363 -1.4306  0.3408 -0.2600
 8741SOL     OW37684   3.186   3.376   2.767  0.0994 -0.6457 -0.3271
 8741SOL    HW137685   3.141   3.356   2.685 -0.4665  0.5601 -0.3158
 8741SOL    HW237686   3.276   3.361   2.741  0.2725 -0.3808  0.1210
 8742SOL     OW37687   1.704   3.110   4.430  0.3803  0.0932 -0.3052
 8742SOL    HW137688   1.775   3.165   4.399 -0.1541  0.6675 -0.5021
 8742SOL    HW237689   1.731   3.070   4.513 -0.7611  1.2878  0.6361
 8743SOL     OW37690   2.904   0.367   7.606 -0.0779  0.1718  0.0630
 8743SOL    HW137691   2.922   0.274   7.599  1.1002  0.3984  0.0494
 8743SOL    HW237692   2.889   0.395   7.515  1.8180  2.0247  0.3118
 8744SOL     OW37693   3.438   1.129   3.717 -0.0481  0.5395 -0.0966
 8744SOL    HW137694   3.527   1.164   3.722 -0.1318  1.0996 -3.0874
 8744SOL    HW237695   3.450   1.060   3.783  0.8530  1.6324  0.8835
 8745SOL     OW37696   0.134   3.466   1.752  0.0954 -0.4379  0.3865
 8745SOL    HW137697   0.166   3.517   1.677  1.5235 -2.6264 -0.5182
 8745SOL    HW237698   0.087   3.396   1.706 -0.3756  0.2191 -0.1335
 8746SOL     OW37699   1.703   0.378   6.508 -0.5438  0.1260  0.2094
 8746SOL    HW137700   1.639   0.437   6.469 -0.8435 -0.9711 -0.9736
 8746SOL    HW237701   1.683   0.389   6.601 -2.1059 -0.9412  0.0059
 8747SOL     OW37702   2.253   4.019   6.151 -0.1693 -0.1573 -0.0336
 8747SOL    HW137703   2.346   4.000   6.139  0.0149 -0.5115  1.9652
 8747SOL    HW237704   2.212   4.012   6.065 -0.4423 -1.1396  0.1831
 8748SOL     OW37705   2.375   3.584   8.891 -0.4508 -0.2317  0.1707
 8748SOL    HW137706   2.358   3.610   8.800  0.1772  0.6041  0.2902
 8748SOL    HW237707   2.286   3.590   8.925 -0.0976 -0.3381  1.0999
 8749SOL     OW37708   0.607   1.501  10.542 -0.8284  0.2584  0.4286
 8749SOL    HW137709   0.595   1.457  10.626 -0.5204 -0.2798  0.1885
 8749SOL    HW237710   0.587   1.589  10.575 -2.1445  0.3172 -0.5366
 8750SOL     OW37711   3.410   2.067   8.949  0.1917  0.4899 -0.0683
 8750SOL    HW137712   3.457   2.020   8.880 -0.2070 -0.5843  0.4071
 8750SOL    HW237713   3.322   2.056   8.914 -0.4979  1.2065  1.4401
 8751SOL     OW37714   0.949   2.504   8.428  0.1399  0.2439 -0.0610
 8751SOL    HW137715   0.892   2.570   8.388  0.1606 -0.8824 -1.9597
 8751SOL    HW237716   0.889   2.431   8.415  2.8115 -2.3561  2.4037
 8752SOL     OW37717   3.268   1.947  15.491 -0.2317  0.1024  0.2860
 8752SOL    HW137718   3.255   1.889  15.415  2.5534 -0.8666  0.5609
 8752SOL    HW237719   3.321   2.017  15.453  0.0298 -1.1015 -1.5642
 8753SOL     OW37720   2.692   4.368   8.788 -0.0551 -0.1506  0.0856
 8753SOL    HW137721   2.659   4.342   8.874  2.3815 -0.6948  0.8644
 8753SOL    HW237722   2.750   4.440   8.814  0.3692 -0.1280 -0.9385
 8754SOL     OW37723   2.219   3.490   8.240  0.0223  0.1277  0.5231
 8754SOL    HW137724   2.272   3.414   8.214  1.1760  1.0288  0.2229
 8754SOL    HW237725   2.132   3.453   8.228 -0.2347  0.1741  2.2404
 8755SOL     OW37726   1.722   2.969   3.188 -0.1501 -0.1820 -0.1584
 8755SOL    HW137727   1.704   3.057   3.219 -0.4234 -0.3805  0.2422
 8755SOL    HW237728   1.711   2.911   3.263  0.2393  1.0702  0.8698
 8756SOL     OW37729   1.209   1.211  13.523  0.1316 -0.1710  0.3164
 8756SOL    HW137730   1.206   1.298  13.563 -2.9659  0.0775 -0.4801
 8756SOL    HW237731   1.183   1.159  13.599 -2.7611  0.3620 -0.3151
 8757SOL     OW37732   2.011   2.680   2.144 -0.1795  0.0042 -0.1743
 8757SOL    HW137733   2.060   2.718   2.071  0.2374 -1.3239 -0.5715
 8757SOL    HW237734   1.961   2.618   2.092 -0.5055  0.4918 -0.4395
 8758SOL     OW37735   1.187   2.837  13.715  0.2279 -0.2080  0.2225
 8758SOL    HW137736   1.207   2.861  13.624 -2.3295 -0.9150 -0.4995
 8758SOL    HW237737   1.234   2.910  13.756  0.2186 -0.4783  0.7067
 8759SOL     OW37738   0.472   2.723   7.184 -0.0866 -0.0692 -0.2696
 8759SOL    HW137739   0.489   2.629   7.193  0.1923  0.1999  2.1447
 8759SOL    HW237740   0.457   2.740   7.277  0.0025  1.8646 -0.6084
 8760SOL     OW37741   2.763   2.100   3.478  0.4238 -0.2348  0.0662
 8760SOL    HW137742   2.786   2.042   3.550  1.3197  1.1612  0.9074
 8760SOL    HW237743   2.776   2.179   3.531  2.5091 -1.0959  0.8132
 8761SOL     OW37744   2.476   2.205  15.432 -0.7937  0.1442  0.2691
 8761SOL    HW137745   2.561   2.160  15.431  1.5938  4.6348  1.6601
 8761SOL    HW237746   2.428   2.151  15.495 -1.7128  1.0973  0.3853
 8762SOL     OW37747   0.832   2.505   5.985  0.7951  0.3230 -0.5554
 8762SOL    HW137748   0.782   2.556   6.048  1.8628  0.7333 -0.0360
 8762SOL    HW237749   0.915   2.475   6.024  0.7358  0.3860 -0.3829
 8763SOL     OW37750   2.035   2.259   0.087  0.3290 -0.2849  0.1185
 8763SOL    HW137751   2.050   2.199   0.160  3.4151 -3.0168 -2.7512
 8763SOL    HW237752   1.945   2.249   0.056  0.5312 -0.3317 -0.4507
 8764SOL     OW37753   1.596   0.215  17.640 -0.1826  0.4665 -0.1160
 8764SOL    HW137754   1.576   0.278  17.571 -3.5855 -1.2356 -0.6746
 8764SOL    HW237755   1.570   0.260   0.039 -0.6103 -0.3451  0.2039
 8765SOL     OW37756   0.614   3.130   4.756  0.3684  0.4075 -0.3036
 8765SOL    HW137757   0.689   3.073   4.736  0.3958  0.4123 -0.2112
 8765SOL    HW237758   0.608   3.122   4.851 -2.0319 -0.0065 -0.4877
 8766SOL     OW37759   0.918   4.633   7.366  0.3532 -0.5667 -0.3442
 8766SOL    HW137760   0.852   4.656   7.301  0.6609 -1.5686 -1.0094
 8766SOL    HW237761   0.976   4.704   7.337 -1.0339  0.6538 -0.1539
 8767SOL     OW37762   0.806   0.844  12.978 -0.0645  0.1196  0.0109
 8767SOL    HW137763   0.856   0.904  13.034  0.4769  1.3274 -1.7810
 8767SOL    HW237764   0.826   0.876  12.890  1.0299 -0.9683 -0.1376
 8768SOL     OW37765   1.203   0.260  12.513  0.1091  0.1856 -0.6864
 8768SOL    HW137766   1.291   0.253  12.475  0.5011 -0.4245  0.3282
 8768SOL    HW237767   1.217   0.213  12.595 -1.4564  2.0800  0.6727
 8769SOL     OW37768   1.709   0.447   5.057 -0.5118 -0.6917 -0.1686
 8769SOL    HW137769   1.677   0.428   4.969  0.1232 -0.1603 -0.5085
 8769SOL    HW237770   1.640   0.505   5.091 -1.1559 -1.6960  0.2419
 8770SOL     OW37771   0.430   4.413  15.349 -0.1840  0.4929  0.0389
 8770SOL    HW137772   0.490   4.481  15.319  1.1424 -0.4809  0.4534
 8770SOL    HW237773   0.491   4.340  15.361 -2.6614 -1.3550  1.3817
 8771SOL     OW37774   2.300   0.569   2.501  0.3007 -0.3131  0.0344
 8771SOL    HW137775   2.252   0.649   2.521  0.3001  0.0351 -1.3776
 8771SOL    HW237776   2.344   0.557   2.585 -1.2618 -1.5537  0.6752
 8772SOL     OW37777   1.616   4.036  15.515 -0.3280  0.2693  0.1688
 8772SOL    HW137778   1.601   4.051  15.421 -1.1491  0.8009  0.3906
 8772SOL    HW237779   1.625   4.124  15.552  2.1368  0.3508 -0.5845
 8773SOL     OW37780   0.336   0.190  15.940 -0.5093  0.1712  0.1609
 8773SOL    HW137781   0.394   0.195  16.016 -1.0774  0.4909  0.5737
 8773SOL    HW237782   0.388   0.137  15.880 -0.4104  1.7254 -1.1250
 8774SOL     OW37783   2.355   2.208   6.786 -0.0129  0.1231  0.4136
 8774SOL    HW137784   2.366   2.114   6.773  3.6263  0.7797 -1.1405
 8774SOL    HW237785   2.427   2.237   6.730  1.8694  0.0938  2.8366
 8775SOL     OW37786   3.418   1.151   8.538  0.3397 -1.0672  0.1200
 8775SOL    HW137787   3.424   1.147   8.443 -2.0992  0.8431 -0.1089
 8775SOL    HW237788   3.430   1.245   8.555 -1.0646 -0.4449 -2.3318
 8776SOL     OW37789   0.455   2.626  15.852  0.3312 -0.0105  0.1928
 8776SOL    HW137790   0.523   2.690  15.833 -0.3542  0.5638 -0.3588
 8776SOL    HW237791   0.503   2.544  15.861  3.1419  1.9669  2.8694
 8777SOL     OW37792   1.921   3.270   9.565 -0.2236  0.6313  0.2735
 8777SOL    HW137793   1.951   3.272   9.656 -0.5089 -0.8743  0.4124
 8777SOL    HW237794   1.965   3.350   9.539 -0.2018  0.9048  1.1364
 8778SOL     OW37795   1.020   1.109   5.007  0.6246  0.1872 -0.1933
 8778SOL    HW137796   1.068   1.101   4.925 -2.5014 -2.0751 -1.8139
 8778SOL    HW237797   1.036   1.017   5.028 -0.4941 -0.8766 -4.0265
 8779SOL     OW37798   1.414   2.303   4.400  0.3782  0.0074 -0.3839
 8779SOL    HW137799   1.338   2.307   4.459 -0.1821 -0.7792 -1.0555
 8779SOL    HW237800   1.466   2.355   4.463  0.5182  0.7901 -1.1495
 8780SOL     OW37801   0.560   4.395  15.072  0.1999  0.4358  0.4078
 8780SOL    HW137802   0.599   4.465  15.125  0.1823  0.4976  0.3386
 8780SOL    HW237803   0.467   4.417  15.074 -0.4895 -2.2646 -2.7734
 8781SOL     OW37804   0.824   3.576   7.565 -0.2265  0.2932 -0.4750
 8781SOL    HW137805   0.916   3.583   7.539  0.1091  0.4532  0.7405
 8781SOL    HW237806   0.833   3.542   7.654 -0.5174  0.9321 -0.2023
 8782SOL     OW37807   1.268   2.401   2.173 -0.0733 -0.2263 -0.0700
 8782SOL    HW137808   1.183   2.394   2.130  0.2640  0.3563 -0.8146
 8782SOL    HW237809   1.324   2.338   2.127 -0.8155  0.5077 -1.9450
 8783SOL     OW37810   1.528   4.433  11.327 -0.6063 -0.0766  0.2830
 8783SOL    HW137811   1.524   4.507  11.388 -1.5556 -1.9254  2.4496
 8783SOL    HW237812   1.622   4.415  11.338 -0.7327 -0.7484  0.2316
 8784SOL     OW37813   1.660   3.327  12.736  0.4063  0.1715 -0.3496
 8784SOL    HW137814   1.591   3.317  12.670 -0.1518 -0.1871  0.2883
 8784SOL    HW237815   1.603   3.320  12.813 -0.7693 -2.1593 -1.4388
 8785SOL     OW37816   2.371   1.356   6.927 -0.1130 -0.2154  0.2124
 8785SOL    HW137817   2.388   1.397   7.012  0.5043 -0.1881  0.0765
 8785SOL    HW237818   2.337   1.271   6.956  0.6436 -1.1057 -1.5316
 8786SOL     OW37819   2.246   4.061   2.833 -0.2872 -0.3748  0.1544
 8786SOL    HW137820   2.233   4.154   2.845 -0.6869 -0.3929 -0.1383
 8786SOL    HW237821   2.341   4.055   2.821 -0.1314 -0.1061  1.2810
 8787SOL     OW37822   0.887   2.409   1.585 -0.1634  0.0803 -0.1613
 8787SOL    HW137823   0.946   2.344   1.623 -0.5476 -1.9857 -3.0765
 8787SOL    HW237824   0.888   2.466   1.662  1.1854 -1.0887  0.6771
 8788SOL     OW37825   3.883   2.958  17.677  0.2140  0.6639 -0.0628
 8788SOL    HW137826   3.792   2.957   0.025 -0.1385  1.2714 -1.1297
 8788SOL    HW237827   3.920   2.993   0.078  0.3391  1.6475 -0.5366
 8789SOL     OW37828   3.754   0.672  11.896  0.3690 -0.0691 -0.7782
 8789SOL    HW137829   3.832   0.619  11.914  1.0200  1.3509  0.6528
 8789SOL    HW237830   3.777   0.764  11.911  1.6364 -0.4044 -0.6018
 8790SOL     OW37831   0.549   4.253   8.736  0.0268 -0.4532 -0.3529
 8790SOL    HW137832   0.468   4.294   8.708  0.6736  1.2031  0.2271
 8790SOL    HW237833   0.518   4.163   8.742  0.0595 -0.6210 -2.4782
 8791SOL     OW37834   3.558   1.414   9.825  0.7284 -0.1815 -0.2890
 8791SOL    HW137835   3.628   1.471   9.794  0.9673 -1.4855 -2.1440
 8791SOL    HW237836   3.500   1.406   9.749  3.3594  2.7838 -2.5724
 8792SOL     OW37837   0.472   3.909   2.502  0.0545 -0.0927  0.3384
 8792SOL    HW137838   0.515   3.911   2.416  1.0322 -0.8320  0.8010
 8792SOL    HW237839   0.387   3.937   2.471 -0.3693 -0.3100  1.3022
 8793SOL     OW37840   4.541   3.507   1.930  0.0895  0.3520 -0.0195
 8793SOL    HW137841   4.582   3.594   1.927  0.3556  0.2743  1.2522
 8793SOL    HW237842   4.534   3.480   1.839  0.6255  0.5403 -0.1180
 8794SOL     OW37843   4.517   4.635   7.040 -0.3070 -0.2718 -0.4303
 8794SOL    HW137844   4.609   4.609   7.039  0.0390  0.9187  0.4729
 8794SOL    HW237845   4.498   4.613   6.949 -0.9022 -1.0118 -0.1278
 8795SOL     OW37846   2.468   2.495  16.818 -0.3092 -0.2744  0.0699
 8795SOL    HW137847   2.441   2.561  16.881  3.1975  1.7615 -0.5578
 8795SOL    HW237848   2.473   2.410  16.861 -0.9791  0.5623  1.7758
 8796SOL     OW37849   2.487   1.554  16.018 -0.4655  0.6540  0.2651
 8796SOL    HW137850   2.433   1.563  16.096 -2.0009  0.2060 -0.7395
 8796SOL    HW237851   2.456   1.466  15.997 -0.8426  1.5478 -2.8765
 8797SOL     OW37852   4.176   1.459  14.642 -0.0344  0.5145 -0.1781
 8797SOL    HW137853   4.259   1.451  14.689  0.6119 -1.1657 -1.5818
 8797SOL    HW237854   4.207   1.488  14.556  1.9557  1.6090  0.9373
 8798SOL     OW37855   0.883   4.495  13.007  0.0806  0.3831  0.2256
 8798SOL    HW137856   0.938   4.508  12.930  2.0996  1.4178  1.8376
 8798SOL    HW237857   0.951   4.487  13.074  1.0620 -0.6090 -0.8931
 8799SOL     OW37858   1.978   1.035   7.572 -0.5176  0.1715 -0.0544
 8799SOL    HW137859   1.891   0.995   7.569 -2.0887  3.5632  0.3495
 8799SOL    HW237860   1.976   1.112   7.514  2.1306 -0.2476 -0.6945
 8800SOL     OW37861   1.890   1.691   4.147 -0.1307 -0.2103 -0.1115
 8800SOL    HW137862   1.857   1.607   4.177 -2.4748  1.1064  0.9885
 8800SOL    HW237863   1.949   1.670   4.075  0.4517  3.1413 -0.6038
 8801SOL     OW37864   2.257   3.706   2.323 -0.1316 -0.7069  0.5336
 8801SOL    HW137865   2.253   3.744   2.235  0.8535  1.3333  1.3934
 8801SOL    HW237866   2.187   3.754   2.366 -0.8007 -0.9618 -0.2647
 8802SOL     OW37867   3.460   0.442   2.264  0.1817 -0.3801 -0.3769
 8802SOL    HW137868   3.411   0.424   2.345  1.0120  0.7223  0.3681
 8802SOL    HW237869   3.473   0.355   2.227  1.4586  0.2886 -1.4769
 8803SOL     OW37870   4.470   2.049   3.555  0.1617  0.5145  0.0924
 8803SOL    HW137871   4.536   2.100   3.602 -0.5257  1.2587  0.2483
 8803SOL    HW237872   4.412   2.024   3.627  0.1696 -0.7801 -0.3458
 8804SOL     OW37873   2.100   1.646   3.923  0.8778 -0.3063 -0.0609
 8804SOL    HW137874   2.024   1.603   3.885  1.0823 -1.3594  0.7141
 8804SOL    HW237875   2.085   1.737   3.899  0.8134  0.1052  1.5455
 8805SOL     OW37876   2.512   1.348   9.272  0.0438 -0.5180 -0.2801
 8805SOL    HW137877   2.556   1.324   9.191  1.4073 -2.4110  1.0264
 8805SOL    HW237878   2.433   1.293   9.270  0.0017 -0.4044 -2.1887
 8806SOL     OW37879   2.023   1.895   9.494 -0.0114  0.0648 -0.7724
 8806SOL    HW137880   1.945   1.942   9.465 -1.1956 -0.3198  1.8225
 8806SOL    HW237881   2.079   1.970   9.517  0.4214 -0.5674  0.2432
 8807SOL     OW37882   1.881   3.334   4.436  0.4311  0.1777 -0.1268
 8807SOL    HW137883   1.918   3.418   4.463 -0.3623  0.3037  0.5817
 8807SOL    HW237884   1.893   3.338   4.342 -1.6003 -0.4998 -0.4313
 8808SOL     OW37885   0.906   4.323  13.402 -0.4724 -0.3265 -0.2277
 8808SOL    HW137886   0.958   4.362  13.332 -1.5527 -0.3410 -1.0310
 8808SOL    HW237887   0.881   4.401  13.453 -1.4872 -1.2059  0.6179
 8809SOL     OW37888   0.707   3.748  10.968 -0.8508  0.1099 -0.3907
 8809SOL    HW137889   0.777   3.686  10.987 -1.3707  0.2180  1.9044
 8809SOL    HW237890   0.653   3.744  11.047  0.4073  0.1068  0.4689
 8810SOL     OW37891   2.632   3.976  12.780 -0.1259  0.3838  0.5126
 8810SOL    HW137892   2.712   4.026  12.789 -1.0748  2.1036 -0.8283
 8810SOL    HW237893   2.574   4.051  12.769  0.1109  0.8374  2.3063
 8811SOL     OW37894   2.332   0.539   5.176 -0.1007 -0.0149 -0.1646
 8811SOL    HW137895   2.279   0.537   5.096 -0.3439  1.6446 -0.0408
 8811SOL    HW237896   2.367   0.451   5.167 -2.1869 -0.8094 -0.5422
 8812SOL     OW37897   1.267   0.439  11.438 -0.6552  0.4984 -0.3989
 8812SOL    HW137898   1.334   0.506  11.453  0.5608 -0.2677 -2.4648
 8812SOL    HW237899   1.237   0.433  11.528  1.2649  0.5570  0.2493
 8813SOL     OW37900   4.016   2.528   7.785  0.3110 -0.1320 -0.2350
 8813SOL    HW137901   3.946   2.479   7.742  1.9323 -1.8740 -0.8983
 8813SOL    HW237902   4.100   2.489   7.762 -0.6362 -2.2338 -0.0914
 8814SOL     OW37903   0.635   3.510  11.288 -0.3350 -0.1744  0.3837
 8814SOL    HW137904   0.600   3.421  11.297  4.3912 -1.6971  3.4373
 8814SOL    HW237905   0.644   3.533  11.380  0.4817  2.1869 -0.2909
 8815SOL     OW37906   0.567   1.170  17.214 -0.5579  0.0774 -0.2159
 8815SOL    HW137907   0.619   1.173  17.295  0.8875 -0.5201 -1.1064
 8815SOL    HW237908   0.608   1.252  17.186 -0.8357  1.3201  3.0719
 8816SOL     OW37909   2.358   1.501  10.003  0.3992 -0.4611  0.0883
 8816SOL    HW137910   2.394   1.478  10.089  0.8313  2.4095  0.6582
 8816SOL    HW237911   2.372   1.428   9.943  1.1536 -0.7117  0.5682
 8817SOL     OW37912   0.429   4.131  10.768  0.1010 -0.4171 -0.4931
 8817SOL    HW137913   0.500   4.067  10.774 -1.3944 -1.9556  0.8312
 8817SOL    HW237914   0.362   4.078  10.725  0.8084  1.4328 -3.8340
 8818SOL     OW37915   2.198   0.614  16.665  0.0812 -0.1925 -0.1601
 8818SOL    HW137916   2.213   0.701  16.627 -0.2793  0.4881  1.2487
 8818SOL    HW237917   2.270   0.605  16.727 -1.1982  0.5224  1.4175
 8819SOL     OW37918   0.894   1.434  13.329  0.3611  0.4282 -0.1655
 8819SOL    HW137919   0.927   1.466  13.413  1.9110  0.7409 -0.9098
 8819SOL    HW237920   0.909   1.341  13.343  5.0570  1.2405  0.0815
 8820SOL     OW37921   2.396   0.565   4.279  0.4040  0.3768  0.1044
 8820SOL    HW137922   2.388   0.475   4.249  1.0968 -0.1821  1.5864
 8820SOL    HW237923   2.417   0.561   4.373  0.0001  2.0723  0.2688
 8821SOL     OW37924   3.807   1.734   8.264 -0.1344  0.3179  0.0807
 8821SOL    HW137925   3.801   1.667   8.196  1.2645  0.5456 -0.2747
 8821SOL    HW237926   3.845   1.811   8.222  1.4111 -0.9540 -0.8269
 8822SOL     OW37927   4.603   3.032   4.602 -1.1455 -0.3624  0.6462
 8822SOL    HW137928   4.508   3.029   4.610 -1.3302  0.5380 -1.1510
 8822SOL    HW237929   4.613   2.954   4.548  2.0224  0.4311  0.0617
 8823SOL     OW37930   4.613   1.762   4.754  0.7839 -0.7390  0.5428
 8823SOL    HW137931   4.574   1.818   4.822  1.7836 -2.2926  2.4095
 8823SOL    HW237932   4.573   1.678   4.774 -0.8977  0.0538  0.4782
 8824SOL     OW37933   4.108   2.554   5.169 -0.3759  0.0752 -0.3048
 8824SOL    HW137934   4.051   2.537   5.094  1.9491 -2.7740 -1.4163
 8824SOL    HW237935   4.111   2.462   5.193  5.1664  0.2286 -0.5977
 8825SOL     OW37936   0.801   0.761   5.423 -0.3332 -0.2161  0.0951
 8825SOL    HW137937   0.805   0.852   5.452  3.8616 -0.0486 -1.1150
 8825SOL    HW237938   0.712   0.748   5.390 -0.4664  0.1278  0.3178
 8826SOL     OW37939   3.865   0.891   5.035  0.6102  0.1431  0.7526
 8826SOL    HW137940   3.864   0.803   5.072  0.1118 -1.0490 -2.0817
 8826SOL    HW237941   3.895   0.883   4.945  0.4943 -2.7769  0.9949
 8827SOL     OW37942   0.000   2.202   5.647 -0.0544  0.4203  0.2993
 8827SOL    HW137943   4.669   2.190   5.728  1.3457  1.5431  1.3446
 8827SOL    HW237944   4.686   2.288   5.622  0.9005  1.0881  1.2680
 8828SOL     OW37945   2.016   3.854   6.377 -0.4128 -0.5138  0.5909
 8828SOL    HW137946   1.992   3.886   6.290  0.5465 -0.6188  0.2875
 8828SOL    HW237947   2.073   3.926   6.401  0.8724 -1.5508  0.6254
 8829SOL     OW37948   1.759   3.554  10.464 -0.1832 -0.2811 -0.1340
 8829SOL    HW137949   1.736   3.643  10.436  0.0999  0.5495  2.3256
 8829SOL    HW237950   1.851   3.560  10.489 -0.4047  0.4621  0.5128
 8830SOL     OW37951   4.155   0.547   1.159 -0.1471  1.1286  0.5227
 8830SOL    HW137952   4.115   0.619   1.110 -0.3163  1.7505  1.5935
 8830SOL    HW237953   4.179   0.482   1.092  0.9099  0.6601  1.3661
 8831SOL     OW37954   4.681   0.554   3.392  0.2932 -0.1287 -0.2692
 8831SOL    HW137955   4.709   0.622   3.454  0.7770 -0.4403 -0.1466
 8831SOL    HW237956   4.587   0.572   3.386  0.4065  0.8618  0.9400
 8832SOL     OW37957   3.139   3.091   4.738  0.6980 -0.3301  0.2369
 8832SOL    HW137958   3.219   3.144   4.728 -0.8685  1.8031 -0.8016
 8832SOL    HW237959   3.167   3.020   4.796  1.5994  0.1800  0.4367
 8833SOL     OW37960   2.136   4.095   7.853 -0.1721  0.0050  0.3866
 8833SOL    HW137961   2.125   4.157   7.925 -0.2743 -0.7001  0.9844
 8833SOL    HW237962   2.160   4.014   7.900  0.5564 -0.8213 -1.4123
 8834SOL     OW37963   1.761   2.188  12.634  0.2134 -0.1960 -0.4206
 8834SOL    HW137964   1.795   2.103  12.607  2.2437  0.2581  0.6985
 8834SOL    HW237965   1.839   2.223  12.678  0.1202  0.6966 -0.9588
 8835SOL     OW37966   4.329   0.013  15.971  0.2636 -0.0252  0.3055
 8835SOL    HW137967   4.346   4.648  15.930 -1.1365 -0.2672  0.1939
 8835SOL    HW237968   4.400   0.068  15.940 -0.4351  1.5282  1.4719
 8836SOL     OW37969   0.073   1.871   4.341 -0.3341 -0.4167  0.1862
 8836SOL    HW137970   4.709   1.847   4.380 -0.3118  0.4174  0.7459
 8836SOL    HW237971   0.118   1.789   4.361 -3.2697 -1.8949  0.6442
 8837SOL     OW37972   2.284   0.379  13.723 -0.0875  0.4725 -0.0322
 8837SOL    HW137973   2.335   0.307  13.685  0.3634  1.0982 -0.6198
 8837SOL    HW237974   2.203   0.370  13.673 -1.4168  1.7582  1.8744
 8838SOL     OW37975   0.693   3.455   9.232  0.0828  0.2927  0.0555
 8838SOL    HW137976   0.714   3.399   9.307  0.6892 -0.9431 -1.0220
 8838SOL    HW237977   0.625   3.515   9.263 -2.2004 -1.9000 -0.7082
 8839SOL     OW37978   0.959   3.414   6.976  0.2812 -0.3524 -0.0956
 8839SOL    HW137979   0.971   3.411   7.071 -1.1844 -1.7106  0.0449
 8839SOL    HW237980   1.053   3.415   6.954 -0.0789 -1.2774 -1.6945
 8840SOL     OW37981   1.498   2.672   6.529  0.2552  0.1068 -0.2397
 8840SOL    HW137982   1.405   2.687   6.510  0.2540 -0.0625 -0.3599
 8840SOL    HW237983   1.542   2.719   6.458  2.2704 -1.6686 -0.1583
 8841SOL     OW37984   1.861   4.203   8.011  0.0546 -0.2899 -0.0850
 8841SOL    HW137985   1.799   4.212   7.939  0.5988 -0.5090 -0.5815
 8841SOL    HW237986   1.822   4.254   8.082  2.5806  0.6356  0.6301
 8842SOL     OW37987   2.096   2.246   6.490  0.0767 -0.1316  0.3712
 8842SOL    HW137988   2.131   2.334   6.496  0.1075  0.0605 -2.5662
 8842SOL    HW237989   2.051   2.248   6.405  0.5759 -2.5006  0.0282
 8843SOL     OW37990   3.841   2.611   4.932 -0.5154  0.6248 -0.3925
 8843SOL    HW137991   3.821   2.518   4.923  2.4410  0.1236 -2.1350
 8843SOL    HW237992   3.767   2.654   4.889 -2.1249 -1.9168 -0.1731
 8844SOL     OW37993   2.820   4.370  17.644 -0.3163 -0.1327  0.5173
 8844SOL    HW137994   2.756   4.299  17.638  1.5443 -1.9800  2.4644
 8844SOL    HW237995   2.796   4.400   0.051  0.5716  0.6591  0.4851
 8845SOL     OW37996   2.071   3.453   7.444 -0.0553  0.3224  0.3192
 8845SOL    HW137997   2.081   3.548   7.451  1.2445  0.1338  0.9648
 8845SOL    HW237998   2.152   3.425   7.403 -1.0544 -2.9415  0.5777
 8846SOL     OW37999   0.474   0.842  13.491  0.5971  0.1165  0.5100
 8846SOL    HW138000   0.558   0.841  13.445 -0.4718 -1.8983 -1.4205
 8846SOL    HW238001   0.455   0.749  13.473 -0.1992  0.5574 -0.9515
 8847SOL     OW38002   1.267   4.549   7.521  0.3152  0.2243  0.6460
 8847SOL    HW138003   1.346   4.541   7.574  1.2730  0.9367 -0.6757
 8847SOL    HW238004   1.304   4.507   7.444  1.0904 -3.0617  2.8243
 8848SOL     OW38005   0.861   4.022   1.966 -0.0534  0.4130  0.2971
 8848SOL    HW138006   0.878   4.116   1.977 -1.1101  0.8991 -1.9686
 8848SOL    HW238007   0.908   3.975   2.034 -0.2281  0.9378  0.7819
 8849SOL     OW38008   1.041   4.003  16.095  0.7681  0.6327 -0.1709
 8849SOL    HW138009   0.991   4.032  16.171 -1.1291  1.6095 -1.7991
 8849SOL    HW238010   1.080   4.088  16.073  3.4170 -0.5382  0.0129
 8850SOL     OW38011   1.619   2.383   9.885 -0.1901 -0.4814  0.0752
 8850SOL    HW138012   1.564   2.434   9.944 -0.5857 -1.4598  0.5499
 8850SOL    HW238013   1.644   2.309   9.939 -0.4245  0.3555  1.3416
 8851SOL     OW38014   1.733   4.307  10.477  0.1733  0.4650 -0.3993
 8851SOL    HW138015   1.798   4.289  10.410 -0.1303 -0.1464 -0.5312
 8851SOL    HW238016   1.678   4.228  10.478  1.0169 -0.1203 -0.2887
 8852SOL     OW38017   1.690   4.531   9.057 -0.3690  0.0035 -0.0265
 8852SOL    HW138018   1.777   4.505   9.026  1.1653  4.0488  0.8735
 8852SOL    HW238019   1.704   4.620   9.089 -1.5196  0.5796 -1.1120
 8853SOL     OW38020   0.104   2.489  15.830 -0.5245  0.1960 -0.1317
 8853SOL    HW138021   0.118   2.569  15.881 -0.7230  0.2824 -0.2147
 8853SOL    HW238022   0.156   2.513  15.753 -0.6807 -2.1598 -0.9822
 8854SOL     OW38023   1.158   2.153   2.502 -0.1849  0.4902 -0.1918
 8854SOL    HW138024   1.214   2.192   2.569 -1.7252 -0.0203  1.4085
 8854SOL    HW238025   1.068   2.162   2.534 -0.2377  0.0234 -0.2126
 8855SOL     OW38026   3.696   2.844   7.367 -0.0486  0.0100 -0.5643
 8855SOL    HW138027   3.756   2.796   7.423  0.7108  0.4551 -0.9927
 8855SOL    HW238028   3.750   2.924   7.363 -0.4481  0.3454  0.8808
 8856SOL     OW38029   1.408   4.174   0.166 -0.0470 -0.2907  0.0089
 8856SOL    HW138030   1.343   4.241   0.148  1.3174  1.3561  1.2951
 8856SOL    HW238031   1.476   4.193   0.101  1.7928 -0.6621  1.8377
 8857SOL     OW38032   3.719   3.843  12.295 -0.1763  0.1343 -0.1337
 8857SOL    HW138033   3.770   3.781  12.347 -1.6837 -0.2730  0.8377
 8857SOL    HW238034   3.648   3.787  12.265  1.3791 -1.3816 -0.9980
 8858SOL     OW38035   2.444   1.474   6.689  0.5100 -0.3856  0.2650
 8858SOL    HW138036   2.450   1.448   6.781  0.2702  1.3173  0.7802
 8858SOL    HW238037   2.441   1.387   6.649  0.9129 -0.6048  0.7131
 8859SOL     OW38038   4.370   4.089  10.582 -0.6344 -0.9382 -0.1719
 8859SOL    HW138039   4.409   4.136  10.656  0.0151  1.7930 -2.2316
 8859SOL    HW238040   4.405   4.002  10.599  2.1703 -0.0248 -1.2897
 8860SOL     OW38041   3.021   2.519  11.860  0.0277  0.5635  0.1335
 8860SOL    HW138042   2.947   2.470  11.822 -1.3770  2.0622  0.9333
 8860SOL    HW238043   3.019   2.489  11.951 -0.9070 -0.5928 -0.2569
 8861SOL     OW38044   3.401   1.649   1.605 -0.0740  0.3934  0.5643
 8861SOL    HW138045   3.307   1.630   1.602 -0.1488  0.7460  0.6509
 8861SOL    HW238046   3.434   1.567   1.567 -2.5159  0.9078 -2.6202
 8862SOL     OW38047   2.146   3.167  10.962 -0.2194 -0.0606 -0.2919
 8862SOL    HW138048   2.099   3.243  10.996 -0.4146 -0.2669 -0.0955
 8862SOL    HW238049   2.232   3.206  10.947  0.1222 -0.6460  0.1381
 8863SOL     OW38050   2.454   2.079   4.102 -0.3123  0.4902  0.3362
 8863SOL    HW138051   2.538   2.067   4.058 -0.1076 -0.0425  0.8802
 8863SOL    HW238052   2.432   1.996   4.144 -1.3600 -0.0689 -1.2938
 8864SOL     OW38053   0.347   1.149  10.522 -0.2269 -0.0274  0.2275
 8864SOL    HW138054   0.333   1.243  10.512  0.9076  0.3716  2.3379
 8864SOL    HW238055   0.377   1.132  10.433 -0.7172  0.1841  0.0191
 8865SOL     OW38056   1.427   2.613   8.974  0.1472 -0.0955  0.2008
 8865SOL    HW138057   1.426   2.517   8.970  0.7841 -0.1225  0.7055
 8865SOL    HW238058   1.349   2.621   8.919  0.7018 -1.1917 -0.7485
 8866SOL     OW38059   2.850   1.399  17.003  0.3694  0.5558 -0.0687
 8866SOL    HW138060   2.804   1.318  16.980  1.0379  0.8339 -2.3641
 8866SOL    HW238061   2.842   1.452  16.924 -0.4631  1.1259  0.4007
 8867SOL     OW38062   3.549   4.332  17.351  0.3185  0.3142 -0.0263
 8867SOL    HW138063   3.519   4.422  17.364 -0.8024  0.0179 -0.5128
 8867SOL    HW238064   3.624   4.320  17.409  1.0216  2.5500 -0.4929
 8868SOL     OW38065   1.477   4.507   8.720 -0.1722 -0.2012 -0.2210
 8868SOL    HW138066   1.455   4.575   8.784  1.2960 -1.0520  1.1988
 8868SOL    HW238067   1.509   4.436   8.776 -0.5962  0.5313  0.9666
 8869SOL     OW38068   4.558   0.154  15.911 -0.0174 -0.3503 -0.4661
 8869SOL    HW138069   4.640   0.149  15.863 -0.9655  2.0256 -2.3197
 8869SOL    HW238070   4.518   0.240  15.896  1.5721  0.4793  0.0306
 8870SOL     OW38071   4.467   2.891   3.129  0.8553  0.4417 -0.0616
 8870SOL    HW138072   4.419   2.856   3.203  0.7434  1.0088  0.1299
 8870SOL    HW238073   4.395   2.885   3.067  0.2431 -1.2831  0.8341
 8871SOL     OW38074   2.498   4.476   7.910 -0.2856  0.0427 -0.4788
 8871SOL    HW138075   2.501   4.518   7.823  1.1235  1.2863  0.1804
 8871SOL    HW238076   2.543   4.396   7.886  0.4127  0.4622 -0.5652
 8872SOL     OW38077   3.953   2.414   0.346  0.2748 -0.5227  0.0188
 8872SOL    HW138078   3.859   2.421   0.362  0.3538 -0.0932  0.3087
 8872SOL    HW238079   3.952   2.414   0.250 -0.3323 -1.5180  0.0235
 8873SOL     OW38080   4.139   2.332   2.415 -0.3007 -0.3151  0.5051
 8873SOL    HW138081   4.233   2.333   2.394 -0.4630  1.1258 -0.1577
 8873SOL    HW238082   4.137   2.421   2.449 -4.7723  0.4646 -1.7564
 8874SOL     OW38083   3.037   0.568   7.097 -0.0280 -0.0233  0.3051
 8874SOL    HW138084   3.090   0.497   7.134  0.2303  0.1219  0.2093
 8874SOL    HW238085   3.093   0.641   7.124 -0.1083  1.6609 -4.0887
 8875SOL     OW38086   1.077   4.689   5.473 -0.2070  0.2274 -0.3012
 8875SOL    HW138087   1.047   4.611   5.518 -0.9128  1.1130  0.7609
 8875SOL    HW238088   1.003   0.027   5.493 -0.1312  0.6600 -1.2502
 8876SOL     OW38089   1.085   1.768   2.404  0.4353  0.0291  0.0554
 8876SOL    HW138090   1.118   1.763   2.494  2.9280  1.6265 -0.7721
 8876SOL    HW238091   1.082   1.679   2.368 -0.6210  0.3168 -0.5705
 8877SOL     OW38092   2.207   2.609   9.790 -0.7701 -0.0714  0.1185
 8877SOL    HW138093   2.116   2.619   9.817 -0.2147  1.2468  1.5038
 8877SOL    HW238094   2.239   2.699   9.795 -1.1621  0.3536 -4.7334
 8878SOL     OW38095   0.365   1.461   1.552  0.3563 -0.3842  0.1884
 8878SOL    HW138096   0.432   1.525   1.525 -1.2257  0.6727 -1.2275
 8878SOL    HW238097   0.328   1.439   1.466 -0.7178 -0.2521  0.6246
 8879SOL     OW38098   4.112   0.697   6.346 -0.6135 -0.0913 -0.2384
 8879SOL    HW138099   4.155   0.687   6.262 -1.0221  1.4869 -0.6381
 8879SOL    HW238100   4.181   0.703   6.413 -0.4724 -0.3598 -0.3598
 8880SOL     OW38101   2.198   0.427  11.550 -0.2485  0.3726  0.3688
 8880SOL    HW138102   2.271   0.398  11.495  0.8611 -1.3761  2.7618
 8880SOL    HW238103   2.234   0.414  11.638 -1.4100 -1.7844  0.5206
 8881SOL     OW38104   2.929   0.926   2.972 -0.7352  0.8241 -0.1463
 8881SOL    HW138105   2.989   0.988   2.929 -0.5076  0.4661 -0.3436
 8881SOL    HW238106   2.924   0.856   2.907 -1.1999  1.6395 -0.9995
 8882SOL     OW38107   0.550   3.589  16.957  0.0617 -0.4329  0.1183
 8882SOL    HW138108   0.467   3.608  16.911 -1.7081 -0.0247  3.4649
 8882SOL    HW238109   0.594   3.673  16.968 -2.2466  0.7999 -0.0172
 8883SOL     OW38110   3.042   0.352   1.643  0.4215 -0.1461 -0.7537
 8883SOL    HW138111   3.058   0.291   1.715  1.7632 -0.1099 -1.0312
 8883SOL    HW238112   3.131   0.365   1.611  0.7046  1.9634  0.8155
 8884SOL     OW38113   3.544   2.114  11.874 -0.1432  0.3410  0.6266
 8884SOL    HW138114   3.638   2.103  11.886  0.0487 -0.3296 -1.4150
 8884SOL    HW238115   3.548   2.149  11.785 -0.7265 -1.9208 -0.3047
 8885SOL     OW38116   4.318   2.585   6.575 -0.8479 -0.3197 -0.5497
 8885SOL    HW138117   4.230   2.548   6.579 -0.7807 -0.8270 -3.5368
 8885SOL    HW238118   4.304   2.657   6.514  0.0975 -0.7171 -1.2572
 8886SOL     OW38119   4.545   4.552   6.780  0.0974  0.0644 -0.4953
 8886SOL    HW138120   4.579   4.524   6.695 -1.5334 -1.7911 -0.5272
 8886SOL    HW238121   4.455   4.582   6.765  0.5257 -0.0682 -3.3196
 8887SOL     OW38122   3.007   1.873   5.088  0.1154 -0.4586 -0.2049
 8887SOL    HW138123   3.005   1.802   5.152  1.1701 -0.5574 -0.2773
 8887SOL    HW238124   2.975   1.945   5.143 -0.8479  0.0361 -1.4109
 8888SOL     OW38125   1.476   2.756   5.202 -0.1073 -0.4113  0.0995
 8888SOL    HW138126   1.443   2.828   5.256  1.5117 -0.2199  0.8319
 8888SOL    HW238127   1.564   2.787   5.181  0.4302 -0.7744  1.7680
 8889SOL     OW38128   4.161   0.558   2.543 -0.6687 -0.0028  0.1671
 8889SOL    HW138129   4.256   0.555   2.552 -0.4173 -0.2720 -2.5490
 8889SOL    HW238130   4.135   0.477   2.587  1.5006 -1.3275 -0.9675
 8890SOL     OW38131   3.084   2.029   4.493 -0.0094 -0.0323  0.1359
 8890SOL    HW138132   3.121   1.959   4.439 -2.4602 -0.7666 -0.5961
 8890SOL    HW238133   3.071   2.095   4.425 -1.3147  2.0122  2.3692
 8891SOL     OW38134   4.695   4.718   0.303  0.0587  0.0598  0.6744
 8891SOL    HW138135   0.066   4.705   0.333  0.9927 -0.2043 -2.1677
 8891SOL    HW238136   4.712   4.719   0.208  0.4462 -2.8397  0.7295
 8892SOL     OW38137   2.708   1.013   8.135  0.5152  0.2088  0.1652
 8892SOL    HW138138   2.661   0.947   8.084  0.5714  0.1793  0.1513
 8892SOL    HW238139   2.790   1.010   8.086  0.3891 -3.7422  0.2637
 8893SOL     OW38140   2.517   4.599  13.536 -0.1053 -0.1189 -0.2330
 8893SOL    HW138141   2.484   4.688  13.546 -1.6323 -0.6405 -0.6458
 8893SOL    HW238142   2.608   4.621  13.557 -0.2968  1.4865 -1.1070
 8894SOL     OW38143   0.369   4.277   5.016  0.3425 -0.5547 -0.4811
 8894SOL    HW138144   0.323   4.334   4.953  0.0169  1.4972  1.5923
 8894SOL    HW238145   0.307   4.206   5.032  1.1178 -0.9987  0.4870
 8895SOL     OW38146   2.270   1.765  11.292 -0.0424 -0.0883 -0.7092
 8895SOL    HW138147   2.318   1.686  11.266  0.3900  0.8486 -2.7225
 8895SOL    HW238148   2.338   1.823  11.325  0.6455  0.1760 -2.5679
 8896SOL     OW38149   0.953   3.856   8.240  0.1261 -0.5422  0.2265
 8896SOL    HW138150   0.985   3.935   8.196 -0.3109 -1.5698 -1.9219
 8896SOL    HW238151   1.025   3.854   8.304 -0.0147  0.1084  0.4074
 8897SOL     OW38152   2.026   3.253   9.858 -0.2115 -1.0115 -0.1585
 8897SOL    HW138153   2.048   3.161   9.841 -1.1140 -1.7066  2.4315
 8897SOL    HW238154   2.001   3.242   9.950  2.2995 -2.9905  0.3000
 8898SOL     OW38155   1.969   4.653   8.771 -0.0026 -0.0844 -0.0552
 8898SOL    HW138156   2.060   4.646   8.800 -0.0354  2.7241  0.6721
 8898SOL    HW238157   1.950   4.559   8.766  0.7766 -0.3695  2.6163
 8899SOL     OW38158   0.740   3.799   4.123  0.7806  0.1439  0.1038
 8899SOL    HW138159   0.759   3.734   4.055 -1.8149 -1.6952  1.1651
 8899SOL    HW238160   0.742   3.735   4.194 -0.9678 -0.5766 -0.5108
 8900SOL     OW38161   3.237   2.928  16.231 -0.0049  0.4942  0.3489
 8900SOL    HW138162   3.297   3.002  16.229  0.5624  0.0041 -0.6615
 8900SOL    HW238163   3.267   2.890  16.148 -2.9646  1.0124 -0.9955
 8901SOL     OW38164   4.002   2.433   7.133 -0.5372  0.5746 -0.3620
 8901SOL    HW138165   3.994   2.527   7.122  0.6074  1.0215  2.8026
 8901SOL    HW238166   3.910   2.404   7.133 -0.0871 -0.8696  0.8867
 8902SOL     OW38167   3.837   2.306  15.572  0.0769 -0.1326  0.7980
 8902SOL    HW138168   3.840   2.252  15.494 -0.4012  0.8673  0.0813
 8902SOL    HW238169   3.853   2.395  15.539 -2.1061 -0.0623 -0.0462
 8903SOL     OW38170   0.357   4.308   8.304 -0.1093  0.6306  0.0001
 8903SOL    HW138171   0.312   4.226   8.284 -0.2661  0.7495 -0.1302
 8903SOL    HW238172   0.361   4.343   8.215  0.3197  2.6906  0.8467
 8904SOL     OW38173   1.475   4.646   1.162  0.2577  0.5297  0.2803
 8904SOL    HW138174   1.457   4.556   1.134 -2.5327  1.7588 -1.8779
 8904SOL    HW238175   1.529   4.625   1.238  2.6323 -2.6859 -2.2855
 8905SOL     OW38176   2.684   0.930  16.196 -0.0559 -0.4272 -0.0154
 8905SOL    HW138177   2.726   0.860  16.146  2.3526 -1.1757  3.0597
 8905SOL    HW238178   2.622   0.881  16.250  0.6909 -0.6124  0.6741
 8906SOL     OW38179   2.032   4.573   7.307 -0.2981  0.6995  0.1242
 8906SOL    HW138180   1.950   4.526   7.321 -0.2931  0.2689 -1.3433
 8906SOL    HW238181   2.040   4.626   7.386  0.8452  3.1216 -1.6179
 8907SOL     OW38182   3.862   2.965   5.265  0.2856 -0.7087 -0.8416
 8907SOL    HW138183   3.902   3.048   5.240  1.4077 -0.8142  0.5773
 8907SOL    HW238184   3.932   2.900   5.263  0.7301 -0.2975  1.3735
 8908SOL     OW38185   1.900   1.813   6.327 -0.7722  0.3030  0.6614
 8908SOL    HW138186   1.986   1.798   6.367 -1.3221 -2.0037  1.0331
 8908SOL    HW238187   1.903   1.908   6.319 -3.4265  0.4445  1.1089
 8909SOL     OW38188   3.246   1.509   4.224 -0.1799  0.4573 -0.3390
 8909SOL    HW138189   3.200   1.538   4.145 -0.8659 -0.1360 -0.1576
 8909SOL    HW238190   3.302   1.444   4.182 -0.4719  1.4807 -2.3669
 8910SOL     OW38191   3.972   1.726   7.333  0.0462 -0.2709 -0.6362
 8910SOL    HW138192   4.044   1.737   7.271  2.6240 -1.2679  2.1650
 8910SOL    HW238193   3.958   1.820   7.343  1.2258 -0.4289  2.4630
 8911SOL     OW38194   3.981   0.755   4.208 -0.0915 -0.3405  0.0362
 8911SOL    HW138195   4.031   0.719   4.134 -1.2340  0.5023 -1.1411
 8911SOL    HW238196   4.035   0.736   4.285  0.2894 -1.0395 -0.3970
 8912SOL     OW38197   1.225   1.020   2.376  0.4008  0.4125 -0.2123
 8912SOL    HW138198   1.301   0.993   2.428 -0.8257 -2.5069  0.0311
 8912SOL    HW238199   1.246   1.112   2.358  1.3198  0.1872 -0.2825
 8913SOL     OW38200   3.697   3.632   7.767  0.0799 -0.0339 -0.1075
 8913SOL    HW138201   3.672   3.724   7.776  0.2147 -0.0055 -0.0351
 8913SOL    HW238202   3.711   3.605   7.858  3.0161 -1.8600 -1.1176
 8914SOL     OW38203   0.853   0.587   3.422  0.0014 -0.2333  0.2067
 8914SOL    HW138204   0.943   0.606   3.396 -0.1360  0.9634  0.5983
 8914SOL    HW238205   0.817   0.577   3.334 -0.8642  2.8607  0.2328
 8915SOL     OW38206   4.230   0.580  12.696 -0.1127 -0.1838 -0.3987
 8915SOL    HW138207   4.189   0.663  12.722  0.3117 -0.4319  1.0578
 8915SOL    HW238208   4.188   0.528  12.765 -0.7968  1.2552  0.2910
 8916SOL     OW38209   0.928   0.703   8.202  0.0027 -0.1104  0.5967
 8916SOL    HW138210   0.989   0.759   8.155 -1.2051  1.1656  0.5275
 8916SOL    HW238211   0.879   0.765   8.258 -1.3377  0.6253 -1.3925
 8917SOL     OW38212   1.700   0.407   4.202 -0.3578  0.7176 -0.5645
 8917SOL    HW138213   1.684   0.491   4.158 -0.0234  1.0835  0.0001
 8917SOL    HW238214   1.732   0.423   4.291 -0.4623 -0.3329 -0.3469
 8918SOL     OW38215   1.854   0.203   1.788 -0.1219 -0.1025  0.2929
 8918SOL    HW138216   1.841   0.118   1.746  0.2553 -0.6691  1.3285
 8918SOL    HW238217   1.889   0.251   1.713 -1.1939  0.2997  0.0544
 8919SOL     OW38218   2.124   3.852  17.094 -0.5564 -0.4811 -0.1763
 8919SOL    HW138219   2.191   3.818  17.034 -1.8077  1.8631 -2.9028
 8919SOL    HW238220   2.173   3.921  17.139  0.3215  0.3148 -2.3675
 8920SOL     OW38221   0.694   3.673  14.547 -0.4837  0.2060 -0.7024
 8920SOL    HW138222   0.606   3.685  14.512 -0.7618  0.9695  0.2307
 8920SOL    HW238223   0.734   3.626  14.474  2.3483 -1.3236  1.8430
 8921SOL     OW38224   4.394   1.054  17.575  0.2802 -0.2243  0.0397
 8921SOL    HW138225   4.364   0.970  17.542 -1.0275  0.7153 -1.1339
 8921SOL    HW238226   4.488   1.035  17.586  0.5095  0.5843 -0.5891
 8922SOL     OW38227   3.838   4.170   6.174 -0.0763 -0.0892  0.7470
 8922SOL    HW138228   3.743   4.162   6.164  0.1030 -0.7962 -0.4585
 8922SOL    HW238229   3.871   4.095   6.124 -0.1134  0.2199  0.2542
 8923SOL     OW38230   4.527   1.927  16.280 -0.0523 -0.2030 -0.0797
 8923SOL    HW138231   4.569   1.978  16.211  0.6942 -2.1402 -1.0469
 8923SOL    HW238232   4.572   1.952  16.360  2.8431 -1.0373 -1.4787
 8924SOL     OW38233   3.016   0.302  12.327 -0.4851 -0.4095 -0.1488
 8924SOL    HW138234   3.111   0.315  12.323 -0.7633  1.5259 -0.5637
 8924SOL    HW238235   3.016   0.260  12.413 -0.9021 -0.9639 -0.4234
 8925SOL     OW38236   2.499   2.811   4.917 -0.5473  0.0807  0.6018
 8925SOL    HW138237   2.460   2.725   4.903 -1.8660  0.7875 -0.0776
 8925SOL    HW238238   2.507   2.851   4.831  0.1287 -2.9895 -0.7644
 8926SOL     OW38239   0.272   3.822   8.442 -0.2213  0.5398  0.0061
 8926SOL    HW138240   0.195   3.792   8.393 -1.7469  0.2001  2.6037
 8926SOL    HW238241   0.244   3.802   8.531 -0.7117  0.3801 -0.1820
 8927SOL     OW38242   2.487   3.568   2.258  0.1161 -0.5758  0.7828
 8927SOL    HW138243   2.514   3.556   2.349 -0.5732 -0.6851  0.9761
 8927SOL    HW238244   2.412   3.626   2.273 -1.5287 -2.0910 -1.4779
 8928SOL     OW38245   4.098   1.210   6.173  0.5737  0.2031 -0.1033
 8928SOL    HW138246   4.011   1.189   6.139  1.4949  0.3462 -2.5368
 8928SOL    HW238247   4.091   1.255   6.257 -0.3949  1.6540 -0.9765
 8929SOL     OW38248   1.911   2.612   5.125 -0.0950 -0.1221 -0.8749
 8929SOL    HW138249   2.000   2.633   5.096 -0.0662 -0.9586 -1.3791
 8929SOL    HW238250   1.923   2.620   5.219  1.1062 -0.8826 -0.9563
 8930SOL     OW38251   2.522   4.546  17.457  0.0416  0.1020 -0.3112
 8930SOL    HW138252   2.471   4.527  17.378 -0.4678  0.6864 -0.1226
 8930SOL    HW238253   2.489   4.480  17.517 -0.9896 -0.0399 -1.0360
 8931SOL     OW38254   1.417   0.034   4.560 -0.2816  0.0988 -0.4449
 8931SOL    HW138255   1.400   0.095   4.632 -3.1890 -0.1847 -0.8792
 8931SOL    HW238256   1.411   4.670   4.606 -2.2849 -0.2519 -1.3528
 8932SOL     OW38257   0.136   4.526  14.086  0.0010  0.3087  0.2112
 8932SOL    HW138258   0.227   4.523  14.117 -0.0117  0.0538  0.2213
 8932SOL    HW238259   0.107   4.441  14.120 -0.4340  0.9827  1.5297
 8933SOL     OW38260   3.092   0.136   5.030  0.1917 -0.1613  0.4880
 8933SOL    HW138261   3.139   0.175   4.956  0.5279  2.1241  1.8753
 8933SOL    HW238262   3.015   0.192   5.035  0.3433 -0.0702  1.8335
 8934SOL     OW38263   0.860   3.550   8.006 -0.5303 -0.4642 -0.1833
 8934SOL    HW138264   0.870   3.507   8.091  4.0265  0.0046 -0.4713
 8934SOL    HW238265   0.877   3.485   7.938  1.1449 -1.5432  1.2332
 8935SOL     OW38266   1.725   3.286  13.219  0.0120 -0.0362  0.4407
 8935SOL    HW138267   1.697   3.285  13.127  0.6008  0.5971  0.2577
 8935SOL    HW238268   1.819   3.299  13.227  0.2164 -0.9003 -0.5072
 8936SOL     OW38269   4.475   0.985   8.503 -0.0852  0.0047  0.1655
 8936SOL    HW138270   4.539   1.050   8.535 -1.8065  2.9793 -2.4095
 8936SOL    HW238271   4.399   1.016   8.552 -0.2057  1.0983 -0.6996
 8937SOL     OW38272   2.268   0.908  12.573 -0.3820 -0.1359 -0.2507
 8937SOL    HW138273   2.313   0.895  12.490 -1.3376  1.5028 -1.0216
 8937SOL    HW238274   2.233   0.997  12.564  1.4183  0.4182 -1.9560
 8938SOL     OW38275   4.554   4.219  12.653  0.7310  0.1471 -0.4491
 8938SOL    HW138276   4.470   4.213  12.608  1.2557 -0.6914 -1.3272
 8938SOL    HW238277   4.542   4.169  12.734 -0.2715  0.7624 -0.2251
 8939SOL     OW38278   2.639   2.718  11.456 -0.2392 -0.2886  0.8020
 8939SOL    HW138279   2.565   2.777  11.442 -0.1891  0.0151  1.8142
 8939SOL    HW238280   2.667   2.687  11.370 -1.9549 -3.9353  1.5388
 8940SOL     OW38281   2.346   4.629   1.164 -0.0770  0.2964  0.2132
 8940SOL    HW138282   2.393   4.710   1.186  0.2082 -0.2264  1.5182
 8940SOL    HW238283   2.322   4.643   1.073 -1.0824 -0.7009  0.3278
 8941SOL     OW38284   2.720   1.859   5.253  0.7261  0.3279 -0.5602
 8941SOL    HW138285   2.770   1.902   5.323 -0.2374 -0.7730  0.7839
 8941SOL    HW238286   2.743   1.769   5.274  0.7450  0.5994  0.6227
 8942SOL     OW38287   4.432   1.243   4.870  0.2881  0.2445 -0.4229
 8942SOL    HW138288   4.500   1.192   4.827  0.2772 -0.8389  0.8378
 8942SOL    HW238289   4.369   1.175   4.895  0.5394  0.4377  0.7123
 8943SOL     OW38290   2.066   3.983   8.898  0.3614 -0.1210 -0.1256
 8943SOL    HW138291   2.118   3.911   8.933 -1.5500 -1.1531  0.6020
 8943SOL    HW238292   2.052   4.031   8.980 -0.3041 -0.3635 -0.0969
 8944SOL     OW38293   0.705   3.510   5.052 -0.3359 -0.2359  0.0010
 8944SOL    HW138294   0.638   3.568   5.018  0.1894  0.5226  0.2745
 8944SOL    HW238295   0.702   3.427   5.004  4.1732 -1.4376  1.7668
 8945SOL     OW38296   0.732   4.194  10.315 -0.3925  0.2361 -0.1123
 8945SOL    HW138297   0.676   4.154  10.381  0.9832 -0.0540  0.8799
 8945SOL    HW238298   0.784   4.257  10.365 -1.1966  1.3294 -0.6587
 8946SOL     OW38299   0.930   1.281   2.333  0.3760 -0.0835 -0.2030
 8946SOL    HW138300   0.941   1.225   2.256  2.1271  1.2927 -0.9610
 8946SOL    HW238301   0.841   1.314   2.325  0.0468 -0.3902  2.1230
 8947SOL     OW38302   1.835   2.831   8.984 -0.4367  0.1070  0.8672
 8947SOL    HW138303   1.926   2.809   9.006 -0.8125 -1.1559  1.1518
 8947SOL    HW238304   1.798   2.812   9.070  0.4488  0.7129  1.3857
 8948SOL     OW38305   2.715   3.646   9.777 -0.1949  0.1833 -0.2751
 8948SOL    HW138306   2.708   3.625   9.870 -1.1585 -0.4092 -0.4882
 8948SOL    HW238307   2.691   3.565   9.732  1.6001 -0.0500 -0.8308
 8949SOL     OW38308   2.265   1.537   4.641  0.1029 -0.9776 -0.5475
 8949SOL    HW138309   2.215   1.500   4.714  1.7556 -1.7941  0.1696
 8949SOL    HW238310   2.332   1.472   4.619 -2.0905 -3.1340 -0.8659
 8950SOL     OW38311   1.124   1.688   7.648  0.4223 -0.1933  0.1141
 8950SOL    HW138312   1.152   1.666   7.559 -0.1444 -2.2784  0.4698
 8950SOL    HW238313   1.036   1.716   7.626 -0.2418 -2.5904 -0.2363
 8951SOL     OW38314   4.099   4.378   5.397  0.1911  0.5593  0.0149
 8951SOL    HW138315   4.152   4.447   5.357  2.5924 -1.9017 -1.0232
 8951SOL    HW238316   4.031   4.425   5.445 -1.2068  1.0696 -2.4048
 8952SOL     OW38317   2.464   4.084   7.901 -0.9015  0.0147 -0.4349
 8952SOL    HW138318   2.409   4.138   7.956  0.1506  0.4604  0.1786
 8952SOL    HW238319   2.530   4.142   7.862 -0.2451 -0.0748  0.5494
 8953SOL     OW38320   0.128   1.006  17.509  0.0472 -0.4515  0.1874
 8953SOL    HW138321   0.157   1.009  17.417  1.1718  0.7209  0.5761
 8953SOL    HW238322   0.065   0.935  17.515 -0.2705 -0.1716  0.1700
 8954SOL     OW38323   1.117   0.006   7.765  0.1099  0.4113  0.1114
 8954SOL    HW138324   1.075   0.025   7.682  1.2948 -0.2300 -0.6328
 8954SOL    HW238325   1.169   4.653   7.730 -0.1687  1.9703 -3.5314
 8955SOL     OW38326   1.835   1.186  14.808 -0.0938 -0.1090 -0.2681
 8955SOL    HW138327   1.774   1.186  14.735 -2.4940 -3.0927  1.7083
 8955SOL    HW238328   1.895   1.256  14.784  1.2165 -1.4194 -0.7989
 8956SOL     OW38329   2.949   0.557   8.484 -0.3414  0.1074 -0.6151
 8956SOL    HW138330   3.017   0.495   8.457 -0.2573 -0.0841  0.0565
 8956SOL    HW238331   3.003   0.612   8.541 -2.2643 -1.0321  2.2782
 8957SOL     OW38332   4.654   0.184  10.326 -0.5784 -0.2364 -0.0887
 8957SOL    HW138333   4.664   0.184  10.231 -0.6455 -1.7051 -0.0896
 8957SOL    HW238334   0.008   0.234  10.361 -2.5300  1.6815  1.3242
 8958SOL     OW38335   1.084   3.558   8.814 -0.2268  0.2402 -0.7457
 8958SOL    HW138336   1.037   3.637   8.843 -2.5856  0.2362 -4.5686
 8958SOL    HW238337   1.060   3.498   8.884  0.2792  1.5832  0.5874
 8959SOL     OW38338   0.238   0.957   5.412  0.6537  0.2411  0.1878
 8959SOL    HW138339   0.172   0.977   5.478 -2.0397  0.1302 -2.4499
 8959SOL    HW238340   0.208   0.873   5.377  1.4012 -0.3024  0.8588
 8960SOL     OW38341   1.427   2.779   7.598 -0.5831 -0.0529  0.5064
 8960SOL    HW138342   1.463   2.785   7.510 -2.4062 -4.0734 -0.4829
 8960SOL    HW238343   1.434   2.685   7.616  0.4931 -0.1230 -0.2801
 8961SOL     OW38344   2.026   4.715   8.386  0.4116  0.1702  0.5797
 8961SOL    HW138345   2.108   0.041   8.407  1.1933 -1.0147  0.0862
 8961SOL    HW238346   2.048   4.623   8.405  1.1973 -0.1456 -1.8211
 8962SOL     OW38347   1.762   0.431   7.785  0.3828 -0.5470 -0.1483
 8962SOL    HW138348   1.768   0.396   7.874  0.4397  1.2481  0.5544
 8962SOL    HW238349   1.673   0.403   7.762  1.4469 -3.1079 -1.2420
 8963SOL     OW38350   1.788   1.557   2.323 -0.0505 -0.4412  0.1516
 8963SOL    HW138351   1.724   1.508   2.272  3.1295 -1.9933 -2.3641
 8963SOL    HW238352   1.858   1.492   2.318  0.3162 -0.0578  0.2862
 8964SOL     OW38353   2.726   4.489   7.639  0.2767  0.0305 -0.8169
 8964SOL    HW138354   2.630   4.492   7.638  0.3064  1.4902  1.9100
 8964SOL    HW238355   2.743   4.460   7.549  2.1296 -1.7991  0.1433
 8965SOL     OW38356   2.393   4.063  11.719 -0.5068  0.5019  0.1352
 8965SOL    HW138357   2.421   4.043  11.808 -0.7785 -0.8687 -0.0872
 8965SOL    HW238358   2.449   4.140  11.711  1.4144 -0.6505  2.4068
 8966SOL     OW38359   4.289   1.351   0.578  0.2662 -0.2560  0.4324
 8966SOL    HW138360   4.361   1.405   0.610  1.5591 -0.9195 -1.2967
 8966SOL    HW238361   4.224   1.374   0.644  1.7438 -0.4301  1.9349
 8967SOL     OW38362   4.505   0.931   7.926 -0.5945  0.8185 -0.4842
 8967SOL    HW138363   4.545   0.960   8.008 -0.7008 -1.0344  0.2066
 8967SOL    HW238364   4.473   0.842   7.940  3.0197 -0.5301 -0.6265
 8968SOL     OW38365   0.532   2.413   2.242  0.0937  0.3076 -0.2393
 8968SOL    HW138366   0.459   2.469   2.217 -1.5812 -1.6018  0.3840
 8968SOL    HW238367   0.492   2.327   2.253  0.4208  0.1033 -0.6713
 8969SOL     OW38368   4.062   3.605  13.396 -0.4869 -0.0637 -0.0772
 8969SOL    HW138369   4.060   3.529  13.454  0.2902 -0.4544 -0.5733
 8969SOL    HW238370   3.968   3.624  13.396 -0.1457  1.7692  2.1952
 8970SOL     OW38371   3.397   4.231   3.168 -0.2552 -0.1955 -0.0687
 8970SOL    HW138372   3.449   4.300   3.209 -0.4711 -0.4590  0.6695
 8970SOL    HW238373   3.317   4.283   3.159  0.6663  1.0532 -1.1161
 8971SOL     OW38374   0.227   4.507   3.150 -0.5194 -0.0252  0.0648
 8971SOL    HW138375   0.307   4.559   3.139  0.0525 -0.9861 -0.2814
 8971SOL    HW238376   0.260   4.426   3.188 -1.0798 -0.0377  0.5115
 8972SOL     OW38377   4.525   1.680   2.405 -0.3709 -0.1124 -0.2122
 8972SOL    HW138378   4.477   1.760   2.425  0.5889 -0.0113  1.6829
 8972SOL    HW238379   4.592   1.708   2.342 -0.2166 -1.5455 -0.6844
 8973SOL     OW38380   4.087   3.231   9.886  0.4022 -0.1351  0.4389
 8973SOL    HW138381   4.113   3.163   9.823  0.5617  1.6338 -1.4229
 8973SOL    HW238382   4.021   3.274   9.832 -0.0893 -1.2327  0.1506
 8974SOL     OW38383   0.242   3.053  10.276  0.0541  0.2571 -0.2002
 8974SOL    HW138384   0.257   2.973  10.327  1.8143 -0.0507 -1.1643
 8974SOL    HW238385   0.290   3.023  10.198 -0.8778  1.3155 -1.1862
 8975SOL     OW38386   2.547   4.010  12.488 -0.2515  0.3215 -0.1143
 8975SOL    HW138387   2.452   4.005  12.500 -0.5309 -0.0576 -2.4997
 8975SOL    HW238388   2.587   4.008  12.575 -1.2696  1.5727  0.3842
 8976SOL     OW38389   2.111   4.017  12.133 -0.0797  0.0355 -0.2801
 8976SOL    HW138390   2.108   3.923  12.155 -3.8684  0.1447 -0.3739
 8976SOL    HW238391   2.112   4.055  12.221 -1.3513  1.3302 -0.8459
 8977SOL     OW38392   4.695   2.144  11.469  0.0076 -0.2175 -0.1428
 8977SOL    HW138393   4.610   2.142  11.425 -0.5537 -0.0769  0.9204
 8977SOL    HW238394   0.022   2.150  11.386 -0.2235 -0.1438 -0.2665
 8978SOL     OW38395   3.223   3.669  16.447 -0.0829  0.5120 -0.3984
 8978SOL    HW138396   3.208   3.593  16.503  0.3976  1.6242  1.2494
 8978SOL    HW238397   3.136   3.709  16.446  0.8155  2.5013  1.3015
 8979SOL     OW38398   0.184   3.136   2.356  0.6708 -0.0143 -0.0291
 8979SOL    HW138399   0.089   3.133   2.349  0.6403 -2.3234  1.3137
 8979SOL    HW238400   0.197   3.058   2.410 -3.8279  0.3851  1.6511
 8980SOL     OW38401   0.992   4.704   3.354  0.5914  0.1376 -0.2870
 8980SOL    HW138402   0.983   4.623   3.304  0.2781 -0.6348  1.0356
 8980SOL    HW238403   0.996   0.051   3.285  0.0976  0.5758  0.1085
 8981SOL     OW38404   4.512   0.519  10.980  0.6505  0.0708 -0.6421
 8981SOL    HW138405   4.549   0.603  11.006  0.4736 -0.1138  0.2044
 8981SOL    HW238406   4.555   0.449  11.029 -0.2121  1.4471  2.0413
 8982SOL     OW38407   3.374   1.901  12.165  0.8845  0.0416  0.2559
 8982SOL    HW138408   3.302   1.895  12.227 -1.3721  0.9720 -2.2838
 8982SOL    HW238409   3.340   1.960  12.098 -0.1490 -0.2977  0.4893
 8983SOL     OW38410   0.711   3.605   4.308  0.5183  0.1306 -0.1122
 8983SOL    HW138411   0.646   3.593   4.378 -0.8948  4.3635 -0.6572
 8983SOL    HW238412   0.730   3.519   4.273  0.5308 -0.7055  1.9371
 8984SOL     OW38413   0.360   3.119   9.583 -0.3824  0.0833  0.1612
 8984SOL    HW138414   0.296   3.158   9.643 -2.4239 -1.6826 -0.8386
 8984SOL    HW238415   0.356   3.188   9.517 -1.8904 -0.8763 -0.7540
 8985SOL     OW38416   3.708   4.251   8.070 -0.1555  0.4187  0.3528
 8985SOL    HW138417   3.726   4.169   8.025 -1.3304  0.3702 -0.0411
 8985SOL    HW238418   3.752   4.239   8.154 -0.0439 -1.4702  0.0230
 8986SOL     OW38419   0.935   2.582   3.486  0.4097  0.0025  0.3892
 8986SOL    HW138420   0.885   2.660   3.510  0.0977 -0.6096  1.7498
 8986SOL    HW238421   0.873   2.515   3.457  2.4216 -1.5353 -0.2921
 8987SOL     OW38422   4.633   0.046   0.638  0.4102  0.3340  0.0333
 8987SOL    HW138423   4.713   0.094   0.613  1.4353 -1.1465  0.4518
 8987SOL    HW238424   4.644   0.057   0.732 -0.7631 -0.0011  0.2053
 8988SOL     OW38425   2.954   0.086   9.843 -0.6408 -0.4704  0.3572
 8988SOL    HW138426   2.923   0.011   9.792  0.9764 -1.1436  0.3697
 8988SOL    HW238427   3.047   0.086   9.822 -0.3720  0.5303  1.5919
 8989SOL     OW38428   4.475   0.450   5.853  0.0406  0.1258  0.1284
 8989SOL    HW138429   4.507   0.364   5.824  1.6999  1.3949 -1.7425
 8989SOL    HW238430   4.523   0.460   5.935 -1.7591  0.2584  1.1598
 8990SOL     OW38431   0.239   2.134  14.586 -1.0459  0.4026  0.6228
 8990SOL    HW138432   0.270   2.104  14.672 -0.8789  0.3011  0.5268
 8990SOL    HW238433   0.287   2.217  14.586 -1.2763  0.5313  0.0456
 8991SOL     OW38434   1.806   2.474   0.365  0.8162 -0.6314 -0.2865
 8991SOL    HW138435   1.886   2.497   0.317  1.8025  0.8077  2.0317
 8991SOL    HW238436   1.845   2.404   0.417 -0.4936  0.4055  2.0600
 8992SOL     OW38437   2.327   0.257   4.316 -0.0378  0.1713 -0.8089
 8992SOL    HW138438   2.407   0.230   4.271 -0.1993 -1.0773 -0.3452
 8992SOL    HW238439   2.358   0.239   4.404 -1.3042 -1.2461 -0.6505
 8993SOL     OW38440   1.444   2.532   7.677  0.8060 -0.1234 -0.4194
 8993SOL    HW138441   1.436   2.485   7.760 -1.3660 -1.0645 -1.1614
 8993SOL    HW238442   1.528   2.491   7.657  1.1064  0.3325 -0.0815
 8994SOL     OW38443   2.867   2.154   7.593  0.6395  0.6545 -0.0876
 8994SOL    HW138444   2.890   2.213   7.664 -1.4208  2.2365 -0.7338
 8994SOL    HW238445   2.772   2.159   7.599  0.6927 -0.1192  1.3931
 8995SOL     OW38446   2.605   1.015   3.773 -0.0299 -0.2508  0.4111
 8995SOL    HW138447   2.599   1.077   3.700 -0.7330 -0.0696  0.6207
 8995SOL    HW238448   2.520   1.041   3.807 -0.5896 -1.6181  0.0311
 8996SOL     OW38449   3.214   4.500  17.443 -0.2362 -0.3564  0.3616
 8996SOL    HW138450   3.169   4.416  17.447 -0.5843 -0.3193 -2.3877
 8996SOL    HW238451   3.193   4.544  17.525  0.2158 -0.5127  0.5633
 8997SOL     OW38452   3.088   3.091   4.465 -0.1093 -0.1635 -0.2824
 8997SOL    HW138453   3.097   3.006   4.422 -2.0189 -0.5690  0.0986
 8997SOL    HW238454   3.115   3.066   4.553 -0.4768  0.4520  0.0040
 8998SOL     OW38455   2.670   4.461   0.195 -0.2307  0.5001 -0.5241
 8998SOL    HW138456   2.634   4.546   0.171  0.1660  0.6309 -0.6494
 8998SOL    HW238457   2.595   4.403   0.179 -0.4382  0.0505  2.0758
 8999SOL     OW38458   2.988   4.326   9.008 -0.0411  0.0636 -0.0997
 8999SOL    HW138459   2.930   4.258   8.976 -1.0783  1.5480 -1.3678
 8999SOL    HW238460   3.066   4.271   9.023  1.6432  2.5006  0.1259
 9000SOL     OW38461   2.402   0.099   2.229  0.3567 -0.1274 -0.0555
 9000SOL    HW138462   2.330   0.162   2.224  0.5002  0.0925  0.7132
 9000SOL    HW238463   2.358   0.016   2.213 -0.9332  0.7748 -1.2353
 9001SOL     OW38464   2.679   3.182   4.572  0.3863 -0.0619 -0.1569
 9001SOL    HW138465   2.727   3.194   4.490  2.0980  1.7669  1.1193
 9001SOL    HW238466   2.598   3.230   4.554 -0.8154 -1.9999  0.1437
 9002SOL     OW38467   3.989   1.052  12.177  0.2888  0.1597 -0.0860
 9002SOL    HW138468   3.897   1.067  12.157  0.2067 -0.5811 -0.2489
 9002SOL    HW238469   3.983   1.062  12.272  0.5075  3.8483 -0.4532
 9003SOL     OW38470   2.438   3.311   5.740  0.2289 -0.4149 -0.3909
 9003SOL    HW138471   2.461   3.244   5.676  0.6945  0.8537 -1.5417
 9003SOL    HW238472   2.457   3.277   5.828 -0.9517 -1.2723 -0.4546
 9004SOL     OW38473   2.884   3.528   3.385  0.1294  0.3116  0.5389
 9004SOL    HW138474   2.908   3.473   3.459  1.4384  0.0887 -0.0464
 9004SOL    HW238475   2.813   3.577   3.427 -1.0346  0.9160 -2.0889
 9005SOL     OW38476   0.000   3.930   8.020 -0.1412 -0.5224 -0.2476
 9005SOL    HW138477   4.683   4.010   8.058 -0.6558  0.0767 -1.9790
 9005SOL    HW238478   4.650   3.865   8.024 -2.0358  1.6751  2.3075
 9006SOL     OW38479   0.021   3.417   5.058  0.5249 -0.4188 -0.5750
 9006SOL    HW138480   0.081   3.370   5.116  2.3378  0.8712 -1.4057
 9006SOL    HW238481   0.016   3.362   4.980  3.3340  0.1136 -1.1458
 9007SOL     OW38482   0.528   4.095   7.560  0.3891 -0.1325 -0.4350
 9007SOL    HW138483   0.590   4.055   7.621 -0.0539 -1.1540 -0.6483
 9007SOL    HW238484   0.440   4.085   7.597 -0.0080  0.7123 -1.1377
 9008SOL     OW38485   3.344   0.794  15.353  0.2359  0.4940 -0.1481
 9008SOL    HW138486   3.432   0.756  15.356 -0.4613 -1.0769  0.4494
 9008SOL    HW238487   3.337   0.825  15.443 -2.3974 -0.6849  0.0565
 9009SOL     OW38488   0.798   2.838   2.881  0.1720  0.4056  0.0556
 9009SOL    HW138489   0.785   2.771   2.948  0.0655 -0.6212 -0.9904
 9009SOL    HW238490   0.766   2.920   2.918 -0.4937  0.1412  0.0781
 9010SOL     OW38491   0.916   3.984   2.436 -0.2385  0.2506  0.0254
 9010SOL    HW138492   0.999   4.018   2.468 -0.5165 -0.2591  1.2518
 9010SOL    HW238493   0.927   3.890   2.448  1.9347  0.5825  0.5771
 9011SOL     OW38494   4.292   4.397  11.204  0.1605 -0.5776  0.1440
 9011SOL    HW138495   4.363   4.363  11.149 -0.2212  0.4169 -0.9760
 9011SOL    HW238496   4.344   4.445  11.268 -0.6748 -0.2240  0.5379
 9012SOL     OW38497   2.120   3.774   4.439  0.2569  0.2413  1.1998
 9012SOL    HW138498   2.199   3.754   4.390  0.4405 -1.2973  2.1552
 9012SOL    HW238499   2.118   3.870   4.447 -1.1537  0.4195 -1.0334
 9013SOL     OW38500   4.206   3.724   2.367  0.4593  0.1257 -0.7289
 9013SOL    HW138501   4.231   3.634   2.349 -2.9905 -0.8778 -0.4564
 9013SOL    HW238502   4.232   3.774   2.289  0.7219  1.4727  0.2104
 9014SOL     OW38503   4.064   2.174   7.518  0.3294  0.1636  0.4593
 9014SOL    HW138504   4.152   2.209   7.505  0.4277 -0.3399 -0.1778
 9014SOL    HW238505   4.071   2.187   7.613 -2.8553 -1.6107  0.9257
 9015SOL     OW38506   1.408   3.949   2.372 -0.4107  0.1186 -0.4050
 9015SOL    HW138507   1.385   3.986   2.457  2.3994  0.5533  0.1483
 9015SOL    HW238508   1.341   3.881   2.363 -0.8110  0.5709 -0.8800
 9016SOL     OW38509   0.878   3.745   6.948 -0.3503  0.5526 -0.0227
 9016SOL    HW138510   0.821   3.670   6.967 -0.1805  0.8278  1.5718
 9016SOL    HW238511   0.864   3.799   7.026 -0.6807 -0.1984  0.4479
 9017SOL     OW38512   4.397   1.326   3.258  0.0343 -0.1979 -0.4858
 9017SOL    HW138513   4.415   1.232   3.268 -0.3919 -0.4155 -1.8084
 9017SOL    HW238514   4.425   1.364   3.342 -1.3529 -1.2131  0.4458
 9018SOL     OW38515   1.407   2.877   8.104 -0.3977 -0.0317  0.5841
 9018SOL    HW138516   1.495   2.890   8.070 -1.1601  1.8312 -0.6399
 9018SOL    HW238517   1.420   2.886   8.199  0.3203 -1.3050  0.6113
 9019SOL     OW38518   1.587   2.429   1.590 -0.5353  0.6414 -0.2421
 9019SOL    HW138519   1.629   2.426   1.504  1.4643 -1.4576  0.8050
 9019SOL    HW238520   1.659   2.403   1.648 -0.1778  1.6188 -0.2425
 9020SOL     OW38521   2.473   2.111  12.791  0.3096  0.0711 -0.3225
 9020SOL    HW138522   2.566   2.108  12.768  0.3014 -0.2373 -0.3167
 9020SOL    HW238523   2.447   2.049  12.723 -0.4949  2.7492 -2.4480
 9021SOL     OW38524   1.029   4.240   4.730  0.4996 -0.5414  0.1096
 9021SOL    HW138525   0.947   4.212   4.689 -0.9793  2.1527  1.2144
 9021SOL    HW238526   1.069   4.290   4.658 -1.9661  2.0884  0.5544
 9022SOL     OW38527   4.592   4.584   1.771 -0.3309 -0.0327  0.1577
 9022SOL    HW138528   4.562   4.639   1.698  3.4042  0.3998 -1.0392
 9022SOL    HW238529   4.687   4.590   1.763 -0.4956  1.4226 -0.8110
 9023SOL     OW38530   0.543   4.251  14.750 -0.5337 -0.2438 -0.2406
 9023SOL    HW138531   0.471   4.314  14.738  0.0448  0.3716 -0.5402
 9023SOL    HW238532   0.517   4.174  14.699 -3.8941 -0.3792  1.6793
 9024SOL     OW38533   3.904   1.314   8.614 -0.1179  0.1106  0.6239
 9024SOL    HW138534   3.935   1.281   8.529 -2.0892  2.3839 -0.9840
 9024SOL    HW238535   3.898   1.408   8.598 -0.2468 -0.0872 -0.4888
 9025SOL     OW38536   1.416   0.579   7.528  0.4993 -0.0621  0.1708
 9025SOL    HW138537   1.501   0.612   7.497 -0.2964  0.5051 -1.3855
 9025SOL    HW238538   1.434   0.485   7.525  3.1067  0.4311 -0.3219
 9026SOL     OW38539   3.927   2.085  12.939 -0.1321 -0.4436 -0.0391
 9026SOL    HW138540   3.861   2.062  13.004  2.7112 -0.0515  2.9962
 9026SOL    HW238541   3.948   2.175  12.961 -0.5552 -0.5985  0.9968
 9027SOL     OW38542   1.963   3.538   9.258  0.0131 -0.4557 -0.2729
 9027SOL    HW138543   1.914   3.613   9.226  2.0681  1.0998  0.2499
 9027SOL    HW238544   1.894   3.472   9.247 -0.7989  0.4903 -0.8892
 9028SOL     OW38545   0.234   0.386  14.191 -1.0602 -0.0748 -0.2941
 9028SOL    HW138546   0.179   0.452  14.233 -0.7298 -0.6002  0.9533
 9028SOL    HW238547   0.197   0.388  14.102  0.1034  3.1016 -0.6835
 9029SOL     OW38548   2.938   0.300   6.079  0.1357  0.1411  0.1781
 9029SOL    HW138549   2.972   0.215   6.106  2.7507  0.5196 -1.8433
 9029SOL    HW238550   2.849   0.271   6.096 -0.3065  0.8234 -0.9824
 9030SOL     OW38551   3.550   2.357   2.857 -0.3774 -0.0013 -0.4436
 9030SOL    HW138552   3.483   2.292   2.878 -1.9442  1.9666  0.6896
 9030SOL    HW238553   3.604   2.297   2.807 -0.4141 -0.5130  0.1393
 9031SOL     OW38554   3.408   1.587  13.971  0.9699 -0.5079 -0.6383
 9031SOL    HW138555   3.453   1.527  14.031 -2.4573 -1.3489  1.1060
 9031SOL    HW238556   3.459   1.668  13.965 -0.3625  0.3383 -0.5860
 9032SOL     OW38557   1.567   2.882   1.473  0.2227 -0.2795  0.0846
 9032SOL    HW138558   1.607   2.950   1.528 -0.3931 -0.2536  0.4917
 9032SOL    HW238559   1.472   2.889   1.478  0.1219 -1.0538 -0.7865
 9033SOL     OW38560   0.552   0.961   8.474 -0.0356 -0.0177  0.6297
 9033SOL    HW138561   0.496   0.891   8.441  2.6256 -2.2736  0.8528
 9033SOL    HW238562   0.488   0.998   8.535  0.5061 -0.7424  1.6386
 9034SOL     OW38563   2.650   1.154   1.709  0.0192  0.5635 -0.4071
 9034SOL    HW138564   2.702   1.222   1.667  0.6015  0.9926  1.0323
 9034SOL    HW238565   2.665   1.167   1.802  0.7499  1.0182 -0.5918
 9035SOL     OW38566   1.513   0.744  12.620  0.6490  0.2504  0.4315
 9035SOL    HW138567   1.475   0.657  12.631 -1.6140  0.8725 -2.4331
 9035SOL    HW238568   1.589   0.735  12.677  0.5856  0.1532  0.5008
 9036SOL     OW38569   1.266   4.092  11.322  0.4924 -0.2317 -0.3550
 9036SOL    HW138570   1.332   4.024  11.334  0.8896 -0.0483 -1.5275
 9036SOL    HW238571   1.259   4.111  11.416  2.7267 -0.4774 -0.1359
 9037SOL     OW38572   0.772   1.906   3.833  0.1928  0.6355  0.2536
 9037SOL    HW138573   0.846   1.870   3.883 -0.3866  0.7173  1.1624
 9037SOL    HW238574   0.718   1.828   3.825 -1.1212  1.6342 -0.5085
 9038SOL     OW38575   3.372   4.463  11.046  0.4483 -0.2394 -0.1285
 9038SOL    HW138576   3.414   4.423  10.970  1.6597  1.3417 -0.2744
 9038SOL    HW238577   3.433   4.535  11.063  0.0680  0.5827 -2.2135
 9039SOL     OW38578   0.686   0.213   3.348 -0.5564  0.5347 -0.0224
 9039SOL    HW138579   0.653   0.125   3.364  1.4100  0.0887  1.5275
 9039SOL    HW238580   0.656   0.266   3.422  2.7104  3.7020 -0.9518
 9040SOL     OW38581   2.948   3.705  16.509 -0.2337 -0.1824 -0.3397
 9040SOL    HW138582   2.891   3.634  16.539  1.0366 -1.0081  0.0766
 9040SOL    HW238583   2.898   3.744  16.437  0.5308 -1.3598 -1.5123
 9041SOL     OW38584   3.723   4.435   9.143 -0.1862  0.0021  0.3531
 9041SOL    HW138585   3.756   4.523   9.126  0.3037 -0.2146  0.1851
 9041SOL    HW238586   3.683   4.432   9.230  1.6557  3.2572  1.3097
 9042SOL     OW38587   0.754   2.991   2.053 -0.0182 -0.3749  0.2838
 9042SOL    HW138588   0.842   3.026   2.041 -1.0136  1.9019 -0.3461
 9042SOL    HW238589   0.716   3.052   1.990  1.0712 -0.4072 -0.3892
 9043SOL     OW38590   3.801   3.226   8.795  0.6094  0.9347  0.3430
 9043SOL    HW138591   3.833   3.222   8.705 -1.1316  0.3083 -0.2632
 9043SOL    HW238592   3.884   3.234   8.840  0.0834  1.3838  1.2335
 9044SOL     OW38593   3.411   4.320   4.554  0.0461  0.2848 -0.4772
 9044SOL    HW138594   3.378   4.234   4.525 -0.3439  1.0312 -2.2428
 9044SOL    HW238595   3.462   4.287   4.628  1.7446  1.6335 -1.0487
 9045SOL     OW38596   3.101   0.820   3.383 -0.0408  0.0832  0.1241
 9045SOL    HW138597   3.153   0.747   3.350  2.7893  3.0027 -1.9011
 9045SOL    HW238598   3.167   0.867   3.433 -0.9756  1.7399 -0.2008
 9046SOL     OW38599   1.204   0.320   6.936  0.0886  0.4297  0.4174
 9046SOL    HW138600   1.145   0.385   6.897  0.4940  0.5512  0.0073
 9046SOL    HW238601   1.151   0.241   6.924  0.0878  0.3791  0.7590
 9047SOL     OW38602   1.430   0.980   1.883 -0.6435 -0.2101  0.0384
 9047SOL    HW138603   1.402   1.033   1.808 -1.6695 -0.3765  0.3115
 9047SOL    HW238604   1.392   1.034   1.952  0.5514  0.5860  0.0817
 9048SOL     OW38605   1.184   1.754   6.340 -0.0874 -0.4250  0.4694
 9048SOL    HW138606   1.262   1.793   6.299 -0.1361  0.6746  1.4249
 9048SOL    HW238607   1.118   1.785   6.278  1.3721  0.3943 -0.6742
 9049SOL     OW38608   2.437   0.055   3.726 -0.1193 -0.0591 -0.6070
 9049SOL    HW138609   2.350   0.034   3.693 -0.5480 -0.3627  0.7132
 9049SOL    HW238610   2.490   0.075   3.649 -0.0882 -0.5634 -0.7182
 9050SOL     OW38611   0.770   2.692   3.089 -0.1311  0.4264  0.0306
 9050SOL    HW138612   0.771   2.597   3.099 -0.2167  0.2882 -1.2542
 9050SOL    HW238613   0.686   2.705   3.132 -0.5956 -1.5470 -0.2821
 9051SOL     OW38614   2.803   3.424   2.247 -0.7418  0.4389 -0.3958
 9051SOL    HW138615   2.773   3.491   2.308 -1.2481  1.0690 -1.3248
 9051SOL    HW238616   2.897   3.444   2.251 -0.2273 -1.6863 -1.8176
 9052SOL     OW38617   2.689   2.086   5.118 -0.5498 -0.9500 -0.0681
 9052SOL    HW138618   2.723   2.007   5.160 -2.6099 -1.5768  0.4232
 9052SOL    HW238619   2.651   2.123   5.198 -0.6813 -1.1627 -0.0296
 9053SOL     OW38620   0.423   2.936  15.542 -0.3436  0.4477  0.3656
 9053SOL    HW138621   0.473   2.980  15.473  0.7631 -2.2708 -0.5800
 9053SOL    HW238622   0.488   2.870  15.566 -0.5267  0.5083  1.0242
 9054SOL     OW38623   0.016   2.949  14.575  0.0493  0.8610  0.3691
 9054SOL    HW138624   0.003   2.884  14.643 -0.2286 -0.5298 -1.0151
 9054SOL    HW238625   4.670   3.015  14.600 -0.4022  1.3166 -1.9913
 9055SOL     OW38626   4.621   0.011  12.742 -0.0043 -0.1360  0.4635
 9055SOL    HW138627   4.609   0.010  12.837 -0.7341  0.3999  0.3783
 9055SOL    HW238628   4.627   4.635  12.731 -0.4170 -0.4006  2.5819
 9056SOL     OW38629   0.002   2.778   5.086 -0.2865 -0.1131 -0.2533
 9056SOL    HW138630   4.697   2.804   4.998  1.9128 -1.0308 -1.1523
 9056SOL    HW238631   4.648   2.811   5.137 -0.7161  0.9893 -1.6170
 9057SOL     OW38632   2.599   3.571   4.159 -0.7032  0.2383 -0.7505
 9057SOL    HW138633   2.649   3.603   4.084  0.5148  1.3504  0.5499
 9057SOL    HW238634   2.528   3.520   4.119 -1.7344 -0.3502  1.8078
 9058SOL     OW38635   0.017   0.342   1.122  0.3335  0.6253 -0.2595
 9058SOL    HW138636   4.670   0.303   1.179  0.6145  1.5363  0.6801
 9058SOL    HW238637   4.682   0.360   1.045 -0.5292  2.4773  0.7922
 9059SOL     OW38638   4.527   2.134   5.370 -0.1517  0.4408 -0.2356
 9059SOL    HW138639   4.602   2.102   5.419 -0.9347 -0.7221  0.1960
 9059SOL    HW238640   4.519   2.222   5.408 -0.3467  0.7591 -1.0039
 9060SOL     OW38641   2.630   2.144   3.065  0.4517  1.0148  0.0723
 9060SOL    HW138642   2.595   2.204   3.132  1.1037  1.3420  0.1302
 9060SOL    HW238643   2.637   2.213   2.999  1.2373  1.9019  1.0745
 9061SOL     OW38644   3.299   1.338   3.619  0.1542 -0.1034  0.2621
 9061SOL    HW138645   3.319   1.250   3.650  4.3657  1.0079  0.7547
 9061SOL    HW238646   3.364   1.390   3.666  1.1815 -1.5177  0.3894
 9062SOL     OW38647   0.343   3.056   8.662  0.4170  0.2849 -0.1688
 9062SOL    HW138648   0.402   2.981   8.665  0.1224  0.0688  0.1463
 9062SOL    HW238649   0.408   3.122   8.639  0.0082  1.1464  1.1893
 9063SOL     OW38650   0.455   4.292   3.578 -0.6301  0.0903 -0.4257
 9063SOL    HW138651   0.506   4.355   3.529 -0.0361  0.9543  1.3127
 9063SOL    HW238652   0.400   4.345   3.636 -1.1257 -1.3025  0.3915
 9064SOL     OW38653   0.503   1.268  11.283  0.2201 -0.0167 -0.2193
 9064SOL    HW138654   0.478   1.288  11.192 -0.6978 -1.0963 -0.2091
 9064SOL    HW238655   0.534   1.178  11.275  0.2888 -0.1805  1.9957
 9065SOL     OW38656   3.314   3.335   2.239 -0.5212 -0.7216 -0.1223
 9065SOL    HW138657   3.289   3.399   2.306  1.2913 -2.2309  1.9923
 9065SOL    HW238658   3.350   3.387   2.167  2.9351 -0.7626  1.5835
 9066SOL     OW38659   2.915   3.610   1.541 -0.1107  0.4063  0.3863
 9066SOL    HW138660   2.857   3.625   1.616  1.4953 -0.1562  1.7485
 9066SOL    HW238661   2.855   3.639   1.472 -0.7177  0.4784  0.9382
 9067SOL     OW38662   2.001   1.052  16.884  0.4687 -0.9545 -0.0313
 9067SOL    HW138663   2.043   1.105  16.816  1.1752 -0.3128  0.9057
 9067SOL    HW238664   2.037   1.093  16.963 -1.2539 -2.0241  1.3306
 9068SOL     OW38665   4.425   2.036   6.839 -0.4277 -0.4935  0.1184
 9068SOL    HW138666   4.422   2.113   6.896 -0.1563  0.6508 -1.4146
 9068SOL    HW238667   4.513   2.054   6.807  0.6412 -2.2732  2.0811
 9069SOL     OW38668   1.142   2.462   5.079 -0.1345  0.2981  0.2570
 9069SOL    HW138669   1.081   2.536   5.070  0.1332  0.0949 -3.1352
 9069SOL    HW238670   1.109   2.405   5.010  1.6951  1.3569 -1.4854
 9070SOL     OW38671   0.774   4.456   5.119  0.1006  0.1813  0.1102
 9070SOL    HW138672   0.717   4.380   5.127  0.2287 -0.1564 -1.9937
 9070SOL    HW238673   0.832   4.435   5.192  0.1014  0.0135  0.0617
 9071SOL     OW38674   3.781   4.501   8.629 -0.1982 -0.2930  0.0558
 9071SOL    HW138675   3.876   4.505   8.614 -0.3582 -0.1767 -0.9302
 9071SOL    HW238676   3.789   4.488   8.723  1.5012  0.5146  0.0181
 9072SOL     OW38677   3.472   0.002   3.799 -0.7481 -0.0536  0.0765
 9072SOL    HW138678   3.468   0.003   3.894  0.1191  0.6975  0.0977
 9072SOL    HW238679   3.493   0.092   3.773 -2.2326  0.3465  0.2253
 9073SOL     OW38680   2.245   4.182   8.617  0.5645  0.1391 -0.3371
 9073SOL    HW138681   2.314   4.206   8.680  0.0823 -0.6192  0.4707
 9073SOL    HW238682   2.283   4.106   8.573 -1.8146 -2.6305  2.4120
 9074SOL     OW38683   4.340   4.065   6.975  0.3493 -0.1275 -0.5523
 9074SOL    HW138684   4.384   4.082   7.058 -0.7700 -0.8676  0.1880
 9074SOL    HW238685   4.355   4.146   6.927  4.5020 -0.8189 -0.4424
 9075SOL     OW38686   3.236   4.436   5.891  0.3318 -0.4011 -0.3686
 9075SOL    HW138687   3.173   4.366   5.912 -0.5188  0.8853  1.3782
 9075SOL    HW238688   3.290   4.383   5.833  1.0091  0.9878 -0.9883
 9076SOL     OW38689   4.376   2.521  12.949 -0.3641 -0.0061  0.4999
 9076SOL    HW138690   4.339   2.597  12.903  0.0006 -0.2506 -0.1869
 9076SOL    HW238691   4.339   2.446  12.903 -0.2768 -0.7340  1.6124
 9077SOL     OW38692   2.408   4.034   9.024  0.8505 -0.6470 -0.2663
 9077SOL    HW138693   2.422   4.094   8.950  0.9968 -0.3321  0.0190
 9077SOL    HW238694   2.447   3.954   8.988  0.2293 -1.1458  0.1680
 9078SOL     OW38695   3.106   4.535   1.240  0.1559  0.2355 -0.4245
 9078SOL    HW138696   3.034   4.525   1.302 -0.7641 -2.1443 -1.8507
 9078SOL    HW238697   3.180   4.532   1.301 -0.8701 -0.3374  0.7830
 9079SOL     OW38698   3.200   4.186   9.065  0.4175 -0.2192 -0.4285
 9079SOL    HW138699   3.243   4.271   9.057  0.2355  0.0172  1.2078
 9079SOL    HW238700   3.213   4.166   9.157  0.1652 -1.1501 -0.5896
 9080SOL     OW38701   3.048   1.961   9.949 -0.3743  0.5688  0.4112
 9080SOL    HW138702   3.046   1.886  10.009 -0.7503  0.3688  0.1509
 9080SOL    HW238703   2.969   2.001   9.985  0.6703  1.9912  1.1135
 9081SOL     OW38704   4.096   2.475   0.566 -0.2758  0.4034 -0.5569
 9081SOL    HW138705   4.114   2.405   0.629 -1.9148  1.8521  1.5166
 9081SOL    HW238706   4.057   2.419   0.499  1.7479 -0.3998 -1.0712
 9082SOL     OW38707   3.529   1.174  15.938 -0.2506  0.3489 -0.6652
 9082SOL    HW138708   3.450   1.129  15.968 -0.2231 -0.5167 -1.8732
 9082SOL    HW238709   3.503   1.250  15.885  2.1660  1.9517  0.4912
 9083SOL     OW38710   3.068   1.399   3.814  0.1605  0.6591  0.0899
 9083SOL    HW138711   3.042   1.322   3.865  0.8044 -0.0955 -0.7247
 9083SOL    HW238712   3.118   1.363   3.741 -0.2683 -1.1181  0.6586
 9084SOL     OW38713   3.616   3.777   5.401  0.2557  0.2275  0.2803
 9084SOL    HW138714   3.601   3.866   5.370  2.0712  0.9487  1.4741
 9084SOL    HW238715   3.584   3.725   5.327  0.0706  1.1412 -0.2812
 9085SOL     OW38716   3.198   2.269   3.514 -0.3753 -0.5608 -0.0223
 9085SOL    HW138717   3.289   2.299   3.507 -0.4621  0.4213  3.4086
 9085SOL    HW238718   3.209   2.174   3.523 -0.5998 -0.6378 -0.5568
 9086SOL     OW38719   1.112   4.420  13.183 -0.2697  0.1604 -0.5586
 9086SOL    HW138720   1.159   4.360  13.240  0.0749  2.2058  1.3110
 9086SOL    HW238721   1.179   4.443  13.119  1.8766 -1.9005  0.9769
 9087SOL     OW38722   2.071   2.110   3.324  0.2745 -0.3817 -0.1070
 9087SOL    HW138723   2.051   2.076   3.411 -0.6923 -1.1670 -0.6402
 9087SOL    HW238724   2.129   2.042   3.290  0.9638  0.7695 -1.2769
 9088SOL     OW38725   1.047   1.113   3.150 -0.1828  0.2284 -0.3425
 9088SOL    HW138726   1.016   1.118   3.060 -0.8082  1.4564 -0.0557
 9088SOL    HW238727   0.964   1.096   3.195  0.4960  2.5238  1.7811
 9089SOL     OW38728   0.708   0.950   6.401  0.0006  0.3593  0.4178
 9089SOL    HW138729   0.780   0.948   6.339  0.1252  1.4232  0.5290
 9089SOL    HW238730   0.651   1.025   6.383 -0.1676  0.2022  0.2936
 9090SOL     OW38731   0.185   2.925   1.589  0.6516  0.2405 -0.1193
 9090SOL    HW138732   0.186   3.020   1.602  0.3774  0.1330  0.6556
 9090SOL    HW238733   0.278   2.902   1.579  0.2873 -0.2807 -2.3565
 9091SOL     OW38734   0.992   3.495   2.870 -0.2819  0.3390  0.1363
 9091SOL    HW138735   1.084   3.470   2.873  0.0101  1.2024 -1.7446
 9091SOL    HW238736   0.955   3.434   2.935  4.2160 -1.8844  0.5782
 9092SOL     OW38737   3.387   3.578   0.675  0.0289  0.2363  0.8096
 9092SOL    HW138738   3.413   3.497   0.720  1.2545  0.0206 -0.2914
 9092SOL    HW238739   3.354   3.536   0.596 -0.0594 -0.7804  1.3758
 9093SOL     OW38740   3.484   4.626   0.390 -0.1064  0.2178  0.4135
 9093SOL    HW138741   3.404   4.623   0.442 -0.8804 -0.8197 -0.8489
 9093SOL    HW238742   3.552   4.583   0.443 -0.4867 -0.1065  0.6416
 9094SOL     OW38743   1.544   1.579   1.932  0.1195  0.1819  0.1388
 9094SOL    HW138744   1.455   1.608   1.911 -0.9002 -1.4511  2.1487
 9094SOL    HW238745   1.533   1.489   1.963  2.1451  0.0759  0.5808
 9095SOL     OW38746   4.437   3.754  11.762 -0.3365 -0.1751 -0.0345
 9095SOL    HW138747   4.396   3.840  11.774  1.3756  0.7637 -0.9357
 9095SOL    HW238748   4.472   3.737  11.849 -0.7190  0.1716  0.1885
 9096SOL     OW38749   2.232   2.756   2.938 -0.0967 -0.2751 -0.5989
 9096SOL    HW138750   2.266   2.834   2.982 -1.1596 -1.1261  1.7310
 9096SOL    HW238751   2.289   2.690   2.977  1.1328  0.9216 -0.3417
 9097SOL     OW38752   2.625   4.498   8.140 -0.3503 -0.0337  0.0492
 9097SOL    HW138753   2.576   4.451   8.208 -0.2029 -0.2100  0.0339
 9097SOL    HW238754   2.556   4.500   8.074  1.2941  1.0370 -1.6480
 9098SOL     OW38755   2.936   2.619   5.218  0.1983 -0.3614  0.0660
 9098SOL    HW138756   2.938   2.540   5.273 -0.6328 -0.2469  0.2476
 9098SOL    HW238757   2.906   2.692   5.271  1.1054 -0.1438  0.2873
 9099SOL     OW38758   0.604   2.998   2.285  0.1097 -0.0750 -0.4676
 9099SOL    HW138759   0.647   2.984   2.200 -1.6818 -1.2539 -1.1778
 9099SOL    HW238760   0.528   3.049   2.255 -1.9036 -2.2351  0.9361
 9100SOL     OW38761   1.151   0.488   0.977  0.7337  0.4463  0.1492
 9100SOL    HW138762   1.202   0.473   1.056 -1.1413  2.2780  1.6905
 9100SOL    HW238763   1.164   0.580   0.955 -0.7420  0.5116 -0.4552
 9101SOL     OW38764   4.522   3.587   8.902 -0.3205 -0.1688  0.3174
 9101SOL    HW138765   4.518   3.506   8.850  1.8327 -0.0901  0.0545
 9101SOL    HW238766   4.437   3.590   8.947 -0.7913  2.2205 -0.7367
 9102SOL     OW38767   2.914   1.133   8.808  0.3181 -0.2018  0.2569
 9102SOL    HW138768   2.985   1.148   8.871 -0.1429 -0.0551  0.7445
 9102SOL    HW238769   2.894   1.226   8.801  0.4304 -0.1469  0.6493
 9103SOL     OW38770   0.125   2.671   6.210 -0.2978 -0.1159  0.1247
 9103SOL    HW138771   0.084   2.649   6.294  1.0601  3.4961  1.7420
 9103SOL    HW238772   0.211   2.634   6.231 -0.7356 -0.4313  1.3633
 9104SOL     OW38773   3.196   4.716   5.247  0.0490  0.4128  0.0670
 9104SOL    HW138774   3.145   0.064   5.202 -1.1073  0.6677  1.7339
 9104SOL    HW238775   3.129   4.706   5.315 -1.7211  2.9763 -1.2882
 9105SOL     OW38776   4.418   2.646   2.051 -0.0353  0.0085 -0.2705
 9105SOL    HW138777   4.340   2.701   2.042 -0.9673 -1.2112  0.4367
 9105SOL    HW238778   4.377   2.560   2.050 -0.2002  0.0959 -0.8561
 9106SOL     OW38779   3.818   3.401   5.680  0.1257 -0.4760 -0.5623
 9106SOL    HW138780   3.878   3.373   5.611  2.0380 -0.3711  1.0627
 9106SOL    HW238781   3.789   3.479   5.632  2.3774  0.1258 -0.9534
 9107SOL     OW38782   3.798   4.405   3.274  0.2785  0.2161 -0.2557
 9107SOL    HW138783   3.759   4.342   3.334  0.6826  1.4441  1.3101
 9107SOL    HW238784   3.879   4.423   3.322  0.0495 -0.7295  0.4790
 9108SOL     OW38785   0.565   0.188  11.579  0.0231 -0.6599 -0.0162
 9108SOL    HW138786   0.492   0.164  11.522  2.2166 -1.3011 -2.5998
 9108SOL    HW238787   0.518   0.183  11.662  1.5213 -0.1203  0.8722
 9109SOL     OW38788   4.110   1.285   8.398 -0.1923  0.1215  0.0250
 9109SOL    HW138789   4.182   1.347   8.408 -0.5391  0.9503 -2.6419
 9109SOL    HW238790   4.089   1.292   8.305 -1.7336  1.2548  0.4574
 9110SOL     OW38791   3.569   0.272  16.821  0.3553  0.2046 -0.5658
 9110SOL    HW138792   3.533   0.191  16.784  0.7409 -0.0301 -0.4282
 9110SOL    HW238793   3.653   0.278  16.774  0.6026  2.4074  0.1825
 9111SOL     OW38794   0.368   1.587   5.858  0.3036  0.0683  0.0426
 9111SOL    HW138795   0.457   1.621   5.860  0.6493 -0.8141 -0.4625
 9111SOL    HW238796   0.344   1.645   5.931  0.7257  0.8436 -0.4441
 9112SOL     OW38797   0.013   0.765  12.005  0.0653  0.0949 -0.3113
 9112SOL    HW138798   0.100   0.792  11.974 -0.6055  1.6017 -0.9173
 9112SOL    HW238799   4.675   0.842  12.011 -0.4296 -0.4712  2.2315
 9113SOL     OW38800   4.616   2.970   4.872  0.2703 -0.0295  0.1504
 9113SOL    HW138801   4.636   2.991   4.781 -1.6684  1.5763  0.0927
 9113SOL    HW238802   4.684   3.017   4.921  1.4129 -1.5015 -0.0314
 9114SOL     OW38803   4.247   1.326  13.325 -0.1897 -0.0749  0.4151
 9114SOL    HW138804   4.331   1.299  13.363  0.8307  0.2638 -1.6232
 9114SOL    HW238805   4.285   1.397  13.273 -0.1927 -0.2612  0.1565
 9115SOL     OW38806   3.250   2.998   7.533 -0.0028  0.1549  0.2547
 9115SOL    HW138807   3.292   2.987   7.618  2.6111  0.6172 -0.9599
 9115SOL    HW238808   3.210   2.918   7.500 -1.0858  0.7658  0.0983
 9116SOL     OW38809   0.088   3.499  13.946 -0.5205 -0.0900 -0.4049
 9116SOL    HW138810   0.099   3.588  13.911  1.9526  0.3963  1.6832
 9116SOL    HW238811   0.116   3.452  13.868  0.5494 -1.0472  0.5772
 9117SOL     OW38812   2.196   2.201  13.717 -0.2151  0.8052  0.7412
 9117SOL    HW138813   2.180   2.262  13.644 -0.2851 -0.1578 -0.0490
 9117SOL    HW238814   2.137   2.129  13.693  1.0734 -0.1409  0.3869
 9118SOL     OW38815   4.647   4.224   5.886 -0.0592  0.2449  0.4352
 9118SOL    HW138816   4.652   4.154   5.821  0.5371  1.5769 -0.9421
 9118SOL    HW238817   4.718   4.219   5.950 -1.6254 -0.6475  2.1139
 9119SOL     OW38818   3.453   3.598   1.493 -0.1260  0.7595  0.0573
 9119SOL    HW138819   3.357   3.606   1.487 -0.4797 -1.7468  2.3426
 9119SOL    HW238820   3.477   3.650   1.417  0.6051  1.8216  1.0147
 9120SOL     OW38821   4.649   3.290   7.108 -0.6618  0.9771  0.0557
 9120SOL    HW138822   4.677   3.325   7.024  0.2476  1.0547  0.3895
 9120SOL    HW238823   4.703   3.211   7.107  0.6212  1.8705 -1.0537
 9121SOL     OW38824   2.621   2.415   2.242  0.3716  0.1021 -0.0949
 9121SOL    HW138825   2.697   2.367   2.210  0.0428 -0.9259  0.6880
 9121SOL    HW238826   2.636   2.426   2.335 -3.2407 -0.6948  0.6123
 9122SOL     OW38827   4.025   1.110   4.417  0.2511 -0.1443 -0.2763
 9122SOL    HW138828   4.095   1.052   4.447  0.6023 -0.3530 -1.4870
 9122SOL    HW238829   4.064   1.159   4.345  0.5644 -0.7368 -0.5095
 9123SOL     OW38830   0.596   1.350   3.686 -0.2349  0.4177 -0.6849
 9123SOL    HW138831   0.529   1.414   3.711  0.6784  0.8858  0.5467
 9123SOL    HW238832   0.557   1.272   3.726  2.6792  0.0168  1.3557
 9124SOL     OW38833   2.296   0.254   5.497  1.0622 -0.0080  0.5167
 9124SOL    HW138834   2.240   0.331   5.493  1.3635  0.2337  0.9475
 9124SOL    HW238835   2.380   0.298   5.488 -0.1799  2.0017 -1.2521
 9125SOL     OW38836   4.082   2.391  11.563 -0.6702 -0.6323  0.1606
 9125SOL    HW138837   4.080   2.359  11.653  0.6509 -0.2830  0.3246
 9125SOL    HW238838   4.020   2.462  11.577  0.7328  1.1046 -2.3653
 9126SOL     OW38839   1.123   2.058   4.097 -0.4559  0.6536 -0.3111
 9126SOL    HW138840   1.142   2.112   4.021 -0.5867 -0.7801 -1.3658
 9126SOL    HW238841   1.115   2.135   4.152  4.0691  0.6173  0.4094
 9127SOL     OW38842   1.128   0.721   1.819  0.5147  0.4135 -0.0233
 9127SOL    HW138843   1.068   0.650   1.844 -1.8181  2.1185 -0.7491
 9127SOL    HW238844   1.076   0.762   1.749  0.3082 -1.9993 -1.2782
 9128SOL     OW38845   1.954   0.126   6.578 -0.0931  0.5224 -0.0618
 9128SOL    HW138846   2.003   0.206   6.596 -0.6920  0.4656  1.8564
 9128SOL    HW238847   1.931   0.099   6.667 -1.1606 -2.2840 -1.2048
 9129SOL     OW38848   2.413   4.224  10.391 -0.2621  0.4986  0.6329
 9129SOL    HW138849   2.385   4.221  10.482  2.1166 -0.2498  1.3354
 9129SOL    HW238850   2.339   4.205  10.334  0.1263  0.7572  0.0451
 9130SOL     OW38851   1.671   2.801   8.342  0.1596  0.7314 -0.1592
 9130SOL    HW138852   1.669   2.725   8.283 -1.0566  2.1295 -1.9074
 9130SOL    HW238853   1.615   2.763   8.410  0.7476 -2.6563 -1.5413
 9131SOL     OW38854   3.627   2.722  15.443  0.0353 -0.0045 -0.4701
 9131SOL    HW138855   3.601   2.714  15.535 -0.5679 -1.4633 -0.7633
 9131SOL    HW238856   3.599   2.811  15.423 -0.1778  0.0954  0.2798
 9132SOL     OW38857   2.824   4.389   0.423 -0.3917  0.1921  0.3853
 9132SOL    HW138858   2.760   4.432   0.366 -0.5555  1.5899  1.6209
 9132SOL    HW238859   2.761   4.359   0.489  1.0278  1.0360  2.1232
 9133SOL     OW38860   2.370   1.485   1.802 -0.1594 -0.4223 -0.1836
 9133SOL    HW138861   2.327   1.409   1.761  0.6259 -0.8712 -0.1619
 9133SOL    HW238862   2.454   1.454   1.836 -0.9543 -1.6562  0.6833
 9134SOL     OW38863   2.249   2.038   2.196  0.3501 -0.2714  0.2346
 9134SOL    HW138864   2.284   2.118   2.236  0.8739 -0.7765  0.7867
 9134SOL    HW238865   2.288   1.970   2.251 -2.5824  0.0852  2.7476
 9135SOL     OW38866   4.680   3.760   4.283  0.1240 -0.0706  0.1974
 9135SOL    HW138867   0.026   3.790   4.220 -0.1210 -0.2256 -0.1336
 9135SOL    HW238868   4.657   3.842   4.327  1.6217  1.9379 -2.7214
 9136SOL     OW38869   1.712   2.347   2.078 -0.7113  0.9494  0.1180
 9136SOL    HW138870   1.690   2.411   2.146  0.3291  1.4507 -0.0200
 9136SOL    HW238871   1.625   2.319   2.051 -0.4141  1.5869 -1.4639
 9137SOL     OW38872   3.893   2.353  13.056  0.3320  0.2744  0.3556
 9137SOL    HW138873   3.954   2.426  13.054 -0.4629  0.9750  1.8454
 9137SOL    HW238874   3.898   2.319  13.145  2.2352  1.5918  0.7456
 9138SOL     OW38875   3.543   4.584  16.432 -1.1854 -0.0017 -0.8238
 9138SOL    HW138876   3.526   4.645  16.504  1.0002 -0.6877  0.2748
 9138SOL    HW238877   3.592   4.517  16.480 -1.1118  0.3891 -0.3451
 9139SOL     OW38878   0.661   2.904   5.949 -0.5898  0.0467  0.0966
 9139SOL    HW138879   0.575   2.947   5.947 -0.8815 -0.5322  0.0661
 9139SOL    HW238880   0.641   2.833   5.888 -2.0086  0.1705  0.4121
 9140SOL     OW38881   3.218   3.984   7.982 -0.8547 -0.4348 -0.0907
 9140SOL    HW138882   3.310   3.999   8.000 -1.0237 -0.4452  0.7991
 9140SOL    HW238883   3.185   4.010   8.069  0.2326 -1.2207  0.5477
 9141SOL     OW38884   0.416   1.165   8.033 -0.1515 -0.6295 -0.3933
 9141SOL    HW138885   0.488   1.161   8.096 -0.9808  3.0685  0.7739
 9141SOL    HW238886   0.401   1.259   8.044  1.0509 -0.2300 -2.1739
 9142SOL     OW38887   2.636   2.555  15.675  0.0156  0.1593 -0.1348
 9142SOL    HW138888   2.627   2.645  15.645 -0.2738 -0.5413 -2.1354
 9142SOL    HW238889   2.699   2.580  15.743  0.7728  0.0016 -0.7751
 9143SOL     OW38890   3.371   2.886   4.090 -0.3505 -0.1805 -0.1114
 9143SOL    HW138891   3.445   2.870   4.032 -0.0040 -0.4661  0.4153
 9143SOL    HW238892   3.294   2.861   4.039 -3.1016  1.0293  3.4578
 9144SOL     OW38893   1.867   2.673   1.630 -0.1918  0.7483 -0.2207
 9144SOL    HW138894   1.893   2.710   1.545  1.5434  2.2204  0.9640
 9144SOL    HW238895   1.797   2.613   1.603  0.3051  0.8428 -1.7142
 9145SOL     OW38896   1.178   1.562   4.677  0.2134 -0.0797 -0.1763
 9145SOL    HW138897   1.247   1.620   4.644  1.4579 -0.8745  1.0458
 9145SOL    HW238898   1.221   1.478   4.689  1.3488  0.3950 -0.8900
 9146SOL     OW38899   4.130   0.297   6.352 -0.1698  0.0273  0.6986
 9146SOL    HW138900   4.037   0.295   6.327  0.5990 -1.7830 -1.9757
 9146SOL    HW238901   4.151   0.207   6.325 -0.9872  0.7418 -2.3180
 9147SOL     OW38902   3.607   2.378   9.297 -0.0659 -0.2894 -0.0412
 9147SOL    HW138903   3.620   2.389   9.391  2.1301 -0.8179 -0.2876
 9147SOL    HW238904   3.511   2.371   9.294 -0.2606  2.9752 -1.6428
 9148SOL     OW38905   1.277   4.488   6.909  0.0933  0.3394 -0.3904
 9148SOL    HW138906   1.240   4.560   6.857 -0.8721  0.4743  0.4923
 9148SOL    HW238907   1.354   4.534   6.943  0.4156 -0.5214  0.0324
 9149SOL     OW38908   3.313   4.543  13.836 -0.0002 -0.2466 -0.1971
 9149SOL    HW138909   3.243   4.592  13.791 -1.1751 -0.5811  1.2523
 9149SOL    HW238910   3.367   4.619  13.856 -1.0866  0.5678 -0.3097
 9150SOL     OW38911   0.640   2.325  10.453  0.1346 -0.0374  0.2944
 9150SOL    HW138912   0.725   2.301  10.490  0.6593  2.6038  0.7705
 9150SOL    HW238913   0.591   2.255  10.497 -0.0424 -0.5423 -0.7069
 9151SOL     OW38914   0.878   2.149  11.489  0.8100  0.5459 -0.9548
 9151SOL    HW138915   0.864   2.085  11.559 -0.2269 -0.4739 -2.0826
 9151SOL    HW238916   0.964   2.139  11.448  1.4888 -0.3324  0.6933
 9152SOL     OW38917   1.207   3.641   4.271 -0.4271  0.1361  0.8584
 9152SOL    HW138918   1.157   3.561   4.256  0.5304  0.0727 -1.9325
 9152SOL    HW238919   1.138   3.705   4.288 -1.8144 -1.3296  0.7924
 9153SOL     OW38920   1.967   1.841   7.208  0.3777 -0.4138 -0.6719
 9153SOL    HW138921   2.020   1.920   7.198 -1.5431  1.1884  1.9919
 9153SOL    HW238922   1.936   1.837   7.117  0.5931 -0.4020 -0.7459
 9154SOL     OW38923   1.942   1.906  14.697 -0.0119 -0.5509 -0.1591
 9154SOL    HW138924   1.855   1.939  14.674  0.5195  0.2209 -1.0418
 9154SOL    HW238925   1.988   1.987  14.674 -1.7042  0.1784 -0.9508
 9155SOL     OW38926   4.007   3.452   0.838 -0.1759  0.3782  0.1724
 9155SOL    HW138927   3.991   3.544   0.858  0.3157  0.1559  1.5595
 9155SOL    HW238928   4.070   3.422   0.904 -0.7011  2.0671  1.4409
 9156SOL     OW38929   0.727   3.386   8.772  0.0760 -0.0614  0.2173
 9156SOL    HW138930   0.763   3.470   8.743  2.9308 -1.9242 -1.5951
 9156SOL    HW238931   0.654   3.417   8.827 -0.2252 -0.5975  0.1184
 9157SOL     OW38932   3.546   1.540  12.166 -0.1714 -0.3503 -0.4314
 9157SOL    HW138933   3.633   1.579  12.155 -0.5903  0.4276 -0.9660
 9157SOL    HW238934   3.559   1.476  12.095  0.6776 -0.0081 -0.5823
 9158SOL     OW38935   4.376   3.428   0.894  0.3455  0.2489 -0.5868
 9158SOL    HW138936   4.413   3.358   0.947  0.0761 -0.3380 -1.1675
 9158SOL    HW238937   4.286   3.433   0.926 -0.1694 -1.7530 -1.6916
 9159SOL     OW38938   3.363   3.574  15.018  0.6632  0.0032  0.0012
 9159SOL    HW138939   3.397   3.504  14.963 -0.4027 -0.2451 -0.3365
 9159SOL    HW238940   3.353   3.529  15.102 -0.1172 -0.5309 -0.3778
 9160SOL     OW38941   0.655   2.040   5.414 -0.0102 -0.0962  0.3038
 9160SOL    HW138942   0.608   2.118   5.443  1.0174  0.3391  0.7819
 9160SOL    HW238943   0.629   2.031   5.322 -0.1948 -0.3588  0.3817
 9161SOL     OW38944   1.582   0.704   4.370  0.2804 -0.3321  0.6085
 9161SOL    HW138945   1.582   0.796   4.395 -0.8120  0.2404 -1.4786
 9161SOL    HW238946   1.656   0.711   4.309 -0.5610  0.9284 -0.2687
 9162SOL     OW38947   2.477   0.817   3.376  0.0745 -0.0976 -0.3238
 9162SOL    HW138948   2.503   0.731   3.343  2.5945  0.2923  0.6562
 9162SOL    HW238949   2.471   0.871   3.297 -1.5661 -2.2613 -1.6770
 9163SOL     OW38950   2.279   0.286   9.437 -0.3125  0.1042 -0.3770
 9163SOL    HW138951   2.260   0.362   9.382 -1.0074  1.3886  1.6734
 9163SOL    HW238952   2.205   0.298   9.496  0.0357  0.2409  0.0301
 9164SOL     OW38953   1.180   1.992   4.430 -0.0908 -0.0547  0.1986
 9164SOL    HW138954   1.170   1.997   4.335 -3.2212 -2.7562  0.3882
 9164SOL    HW238955   1.214   1.904   4.446 -1.0357 -0.1719  1.5820
 9165SOL     OW38956   2.301   2.275   9.546  0.5415  0.2449 -0.2924
 9165SOL    HW138957   2.213   2.254   9.577 -0.4400  4.2846 -0.3243
 9165SOL    HW238958   2.322   2.193   9.501  0.0106 -0.0026 -0.0854
 9166SOL     OW38959   2.907   1.153   7.626  0.1284 -0.2774 -0.2404
 9166SOL    HW138960   2.883   1.071   7.584 -0.1258  0.4758 -1.5862
 9166SOL    HW238961   2.989   1.123   7.665  0.7342  0.8434 -0.6377
 9167SOL     OW38962   2.374   3.686  16.659  0.2404 -0.4733 -0.0802
 9167SOL    HW138963   2.388   3.777  16.685 -1.2227 -0.0383 -0.8091
 9167SOL    HW238964   2.310   3.696  16.589  0.6905 -1.5723 -0.6534
 9168SOL     OW38965   3.960   2.159  16.890  0.0351 -0.1666 -0.0960
 9168SOL    HW138966   3.876   2.123  16.863 -0.2667  2.3731 -2.6219
 9168SOL    HW238967   3.930   2.225  16.953  0.7290  0.7223 -0.6898
 9169SOL     OW38968   2.922   1.997  11.188  0.2278 -0.0176  0.3356
 9169SOL    HW138969   2.875   2.080  11.199 -1.0194 -0.6064 -0.5638
 9169SOL    HW238970   2.878   1.938  11.249 -1.6861  2.3765  1.2871
 9170SOL     OW38971   0.832   1.044   3.315  0.0273  0.3945  0.1505
 9170SOL    HW138972   0.774   1.081   3.383  0.0942 -1.1502  1.0579
 9170SOL    HW238973   0.913   1.048   3.366 -0.8814  0.9159  1.5658
 9171SOL     OW38974   2.478   1.638   6.355 -0.2605 -0.4285 -0.7649
 9171SOL    HW138975   2.453   1.697   6.426  0.2272 -0.9045 -0.1994
 9171SOL    HW238976   2.528   1.698   6.299  1.0496  0.4605  1.3693
 9172SOL     OW38977   1.445   3.237   8.267  0.2872 -0.3594 -0.1415
 9172SOL    HW138978   1.397   3.158   8.292 -0.7783  0.7514  1.3260
 9172SOL    HW238979   1.376   3.284   8.220  0.5762 -0.6989 -0.9006
 9173SOL     OW38980   0.442   3.639  11.623 -0.1137 -0.0119  0.4521
 9173SOL    HW138981   0.492   3.712  11.587  0.4960  0.4451  2.2134
 9173SOL    HW238982   0.504   3.567  11.617 -1.7914 -1.2449 -1.8217
 9174SOL     OW38983   2.064   1.829   2.164  0.0644  0.3461  0.1949
 9174SOL    HW138984   2.131   1.762   2.152 -2.3587 -1.5667 -2.4788
 9174SOL    HW238985   2.124   1.902   2.182  0.2892 -0.1546  1.4260
 9175SOL     OW38986   1.140   1.775   0.005  0.0519  0.7136  0.3779
 9175SOL    HW138987   1.223   1.741   0.039 -1.6382 -2.7009  1.0037
 9175SOL    HW238988   1.166   1.815  17.603 -1.4941  3.3424  1.1652
 9176SOL     OW38989   1.899   3.416  12.498  0.1938  0.0865  0.6750
 9176SOL    HW138990   1.951   3.342  12.531  2.3115  1.7474  1.0798
 9176SOL    HW238991   1.815   3.385  12.530 -1.0661  1.6806 -1.1011
 9177SOL     OW38992   2.910   3.670   3.151  0.0182 -0.4528 -0.3255
 9177SOL    HW138993   2.995   3.710   3.163  0.5933 -1.8016  0.1935
 9177SOL    HW238994   2.914   3.634   3.240 -0.1897  0.5863  0.1001
 9178SOL     OW38995   2.946   3.322  11.412 -0.3546  0.1926 -0.5073
 9178SOL    HW138996   2.889   3.311  11.336  1.3509  0.2732 -1.8009
 9178SOL    HW238997   2.975   3.232  11.423  2.2369  1.1554  0.5969
 9179SOL     OW38998   1.199   3.568   0.580 -0.0677  0.3906  1.0237
 9179SOL    HW138999   1.245   3.645   0.546 -1.8573  0.1671 -1.9273
 9179SOL    HW239000   1.275   3.520   0.611 -0.3915 -1.3435 -0.8474
 9180SOL     OW39001   0.458   0.132   3.541  0.1684 -0.0067 -0.1125
 9180SOL    HW139002   0.436   0.220   3.571 -1.4836 -0.8004  1.0115
 9180SOL    HW239003   0.379   0.107   3.493 -0.2228  2.4813 -0.7759
 9181SOL     OW39004   0.724   0.057  14.919  0.0299 -0.0110  0.3987
 9181SOL    HW139005   0.719   0.033  15.012 -0.4591  1.3443  0.7171
 9181SOL    HW239006   0.685   4.700  14.877  0.8146 -1.0713  1.6062
 9182SOL     OW39007   3.058   2.222   9.163  0.2624 -0.2019  0.1590
 9182SOL    HW139008   3.067   2.223   9.067  0.2556  2.3419  0.1942
 9182SOL    HW239009   3.142   2.256   9.192  1.9382 -1.9404 -2.5740
 9183SOL     OW39010   1.568   1.926   6.664 -0.0738 -0.1800  0.1052
 9183SOL    HW139011   1.571   1.955   6.573  0.7273  0.5330  0.3575
 9183SOL    HW239012   1.608   1.841   6.649  0.5512 -0.2876  2.3506
 9184SOL     OW39013   1.036   3.113   1.964  0.3988  0.0600 -0.6148
 9184SOL    HW139014   0.989   3.192   1.991  0.8227 -0.3974  1.4465
 9184SOL    HW239015   1.125   3.144   1.984  0.5529  0.9453 -2.6373
 9185SOL     OW39016   2.861   4.326   5.210 -0.1678  0.2383 -0.0364
 9185SOL    HW139017   2.948   4.292   5.188 -0.9887 -3.0156  1.7230
 9185SOL    HW239018   2.855   4.397   5.146  1.7140  0.2373 -0.2187
 9186SOL     OW39019   0.046   2.076   8.051 -0.3758 -0.5070 -0.2027
 9186SOL    HW139020   0.074   2.000   7.999 -0.5872 -0.6704 -0.0762
 9186SOL    HW239021   0.114   2.074   8.118 -0.4639  1.3355 -0.0714
 9187SOL     OW39022   0.269   3.130  11.662 -0.1235  0.5378 -0.3045
 9187SOL    HW139023   0.279   3.102  11.571 -0.4056 -1.6304  0.3321
 9187SOL    HW239024   0.260   3.222  11.635 -1.1958  0.0209 -1.6778
 9188SOL     OW39025   0.000   2.974   5.653 -0.3149  0.2992 -0.3733
 9188SOL    HW139026   4.626   2.956   5.662 -0.4611  1.1886 -0.1185
 9188SOL    HW239027   0.018   3.039   5.721 -2.0739 -0.3053  0.6585
 9189SOL     OW39028   3.854   0.856  17.290  0.3966  0.2088 -0.3680
 9189SOL    HW139029   3.814   0.879  17.207 -0.8026 -0.0012  0.1460
 9189SOL    HW239030   3.834   0.928  17.350 -1.2989 -1.1706  0.7203
 9190SOL     OW39031   3.831   2.842   3.803  0.1007  0.4983  0.3030
 9190SOL    HW139032   3.863   2.870   3.888  0.4209 -0.6322  0.5485
 9190SOL    HW239033   3.795   2.923   3.767  0.1935  0.2696 -0.3035
 9191SOL     OW39034   1.245   0.248  10.882 -0.3538  0.0966  0.6112
 9191SOL    HW139035   1.192   0.186  10.932  0.0793 -1.5884 -0.9949
 9191SOL    HW239036   1.236   0.324  10.939  2.8207  0.5459  0.4897
 9192SOL     OW39037   3.227   3.915   8.374  0.4980  0.1053  0.7310
 9192SOL    HW139038   3.320   3.896   8.378  0.2704 -1.2876 -0.2158
 9192SOL    HW239039   3.214   3.957   8.289  1.1185 -2.4227 -0.6318
 9193SOL     OW39040   0.232   4.101  14.696  0.4896  0.2235  0.0297
 9193SOL    HW139041   0.206   4.145  14.777 -0.6301 -1.5005  0.6309
 9193SOL    HW239042   0.327   4.110  14.700  0.4931  0.2332 -0.0995
 9194SOL     OW39043   3.439   0.222  11.036  0.4470 -0.4254 -0.0647
 9194SOL    HW139044   3.414   0.249  10.948  2.6305  3.7943  0.6186
 9194SOL    HW239045   3.355   0.227  11.082  0.0296  0.6918 -0.9634
 9195SOL     OW39046   3.004   0.516  16.742 -0.1677  0.1067 -0.5486
 9195SOL    HW139047   3.009   0.475  16.656 -2.4014  0.5250 -0.8765
 9195SOL    HW239048   3.086   0.566  16.732 -0.6537  1.2296  0.9777
 9196SOL     OW39049   2.220   3.333   7.050  0.0257 -0.5211  0.2766
 9196SOL    HW139050   2.297   3.323   6.994 -0.6344  0.1123 -0.7456
 9196SOL    HW239051   2.151   3.352   6.986 -0.1692 -0.5032  0.4880
 9197SOL     OW39052   3.114   3.729   5.030  0.1454  0.7286  0.2644
 9197SOL    HW139053   3.052   3.669   5.071  0.7370 -0.3395 -0.4026
 9197SOL    HW239054   3.063   3.753   4.952  0.8066 -1.6737 -0.9079
 9198SOL     OW39055   3.093   1.757  15.622  0.1435  0.2468 -0.0802
 9198SOL    HW139056   3.134   1.762  15.708  1.2432 -0.2854 -0.5833
 9198SOL    HW239057   3.140   1.833  15.586  0.6934 -1.2511 -2.5231
 9199SOL     OW39058   1.262   2.351  13.677  0.1475  0.5358  0.1352
 9199SOL    HW139059   1.217   2.333  13.760  1.2386 -0.2860  0.5649
 9199SOL    HW239060   1.245   2.443  13.656  1.1408  0.6294 -0.2538
 9200SOL     OW39061   1.683   1.746   7.272  0.5383  0.7392 -0.2081
 9200SOL    HW139062   1.654   1.837   7.283 -1.8671  0.2815 -2.6342
 9200SOL    HW239063   1.606   1.719   7.222 -0.1708  1.6782  0.3831
 9201SOL     OW39064   3.656   3.844   7.542  0.1784 -0.6043 -0.4194
 9201SOL    HW139065   3.722   3.911   7.520  0.2403  0.0956  1.9804
 9201SOL    HW239066   3.690   3.765   7.500  1.0226  0.1302 -1.1215
 9202SOL     OW39067   1.096   4.073   4.357  0.2067  0.3835  0.3611
 9202SOL    HW139068   1.057   4.160   4.349  0.8310  0.8393  2.1605
 9202SOL    HW239069   1.174   4.084   4.302  0.2634  0.0503  0.3748
 9203SOL     OW39070   0.931   2.992   8.743 -0.4607 -0.0587 -0.4066
 9203SOL    HW139071   1.006   2.946   8.705  0.0320  1.5698 -1.4192
 9203SOL    HW239072   0.982   3.023   8.817 -1.2029 -1.1159  0.5417
 9204SOL     OW39073   2.636   1.772   8.660  0.4754 -0.4198 -0.2306
 9204SOL    HW139074   2.713   1.715   8.654  1.0115  0.3453 -0.7331
 9204SOL    HW239075   2.575   1.699   8.652  0.3992 -0.5329  1.3937
 9205SOL     OW39076   0.692   4.335   3.096 -0.1520 -0.2367  0.1908
 9205SOL    HW139077   0.711   4.426   3.075  0.8391 -0.3638  0.5092
 9205SOL    HW239078   0.777   4.291   3.095  0.5451  1.1773 -1.9889
 9206SOL     OW39079   1.117   1.731   5.359 -0.6621 -0.2297 -0.5189
 9206SOL    HW139080   1.124   1.807   5.300  2.2958 -0.2708 -0.2278
 9206SOL    HW239081   1.204   1.692   5.346 -1.6510 -2.8269  0.7204
 9207SOL     OW39082   0.348   2.967   5.305  0.1427 -0.2611  0.0901
 9207SOL    HW139083   0.407   2.956   5.379  1.4111  0.4507 -0.8273
 9207SOL    HW239084   0.284   3.024   5.348 -0.6142 -0.4929 -0.7271
 9208SOL     OW39085   3.005   0.422   5.464 -0.2805 -0.4470 -0.2783
 9208SOL    HW139086   2.928   0.400   5.411  1.4737 -1.2864 -2.4604
 9208SOL    HW239087   3.050   0.459   5.388 -1.1479 -1.1299 -1.1207
 9209SOL     OW39088   0.914   1.806   4.061  0.1806 -0.2674  0.1104
 9209SOL    HW139089   0.883   1.718   4.040  0.0907 -0.1221 -0.3505
 9209SOL    HW239090   1.001   1.789   4.097  0.3948  0.2949 -0.1371
 9210SOL     OW39091   0.596   2.130  17.347  0.0996  0.5851 -0.0349
 9210SOL    HW139092   0.633   2.218  17.351  0.3565  0.5261 -1.1148
 9210SOL    HW239093   0.560   2.125  17.435  0.3919  0.2350  0.0649
 9211SOL     OW39094   3.569   2.736   4.909  0.1510 -0.6901 -0.3624
 9211SOL    HW139095   3.596   2.781   4.989  0.9858  1.1150 -1.6627
 9211SOL    HW239096   3.487   2.694   4.937  1.7532 -2.2672  1.9445
 9212SOL     OW39097   0.284   0.928   6.763 -0.2006 -0.0550 -0.1227
 9212SOL    HW139098   0.308   0.939   6.671  2.5518  2.0794  0.8906
 9212SOL    HW239099   0.278   1.017   6.798 -0.1679  0.0591 -0.4025
 9213SOL     OW39100   2.746   0.352  16.385  0.0006  0.2795 -0.3914
 9213SOL    HW139101   2.789   0.294  16.447 -0.9267 -0.4698 -0.4493
 9213SOL    HW239102   2.817   0.342  16.322  0.2505  0.4079 -0.1285
 9214SOL     OW39103   1.261   3.954  10.235 -0.3098 -0.5905  0.1403
 9214SOL    HW139104   1.323   4.016  10.198 -1.7504  0.6997 -0.1182
 9214SOL    HW239105   1.178   3.991  10.206 -2.3809 -3.5315  2.2492
 9215SOL     OW39106   2.051   1.712  16.776 -0.2319 -0.2391  0.3000
 9215SOL    HW139107   2.095   1.736  16.695 -0.3629 -2.0303 -0.3071
 9215SOL    HW239108   1.975   1.770  16.773 -1.1210 -1.4340 -0.5312
 9216SOL     OW39109   2.255   3.929   1.642 -0.6850 -0.4912 -0.0948
 9216SOL    HW139110   2.206   4.007   1.668  1.7086  0.5644  1.3244
 9216SOL    HW239111   2.282   3.956   1.555  1.6270  0.1577  0.8144
 9217SOL     OW39112   3.567   4.685   6.387 -0.4149  0.0564  0.1451
 9217SOL    HW139113   3.604   0.049   6.416  1.5908 -0.5609 -0.6481
 9217SOL    HW239114   3.641   4.636   6.424 -1.6733 -1.0431  1.2090
 9218SOL     OW39115   2.446   2.137   8.211 -0.4631 -0.7924 -0.3358
 9218SOL    HW139116   2.539   2.136   8.233 -0.2541  1.4425 -1.1235
 9218SOL    HW239117   2.425   2.045   8.224  2.6250 -1.0486  2.7694
 9219SOL     OW39118   1.890   3.580   4.069 -0.7388 -0.3226 -0.0560
 9219SOL    HW139119   1.861   3.666   4.038  0.1926 -0.3557 -0.9962
 9219SOL    HW239120   1.944   3.601   4.145 -1.6901  1.0208  0.2420
 9220SOL     OW39121   0.368   1.973  15.381 -0.1733 -0.3978 -0.8724
 9220SOL    HW139122   0.418   1.940  15.455 -0.5222  3.3735  1.0380
 9220SOL    HW239123   0.329   2.046  15.429  1.9925  0.7164 -0.7795
 9221SOL     OW39124   4.710   4.436  13.476  0.2954 -0.3773  0.4201
 9221SOL    HW139125   4.622   4.402  13.490 -0.0295  1.1596  1.9791
 9221SOL    HW239126   0.009   4.474  13.561 -1.4658  3.2762 -0.8346
 9222SOL     OW39127   1.859   2.244   0.511 -0.5807  0.2581  0.4030
 9222SOL    HW139128   1.936   2.188   0.516 -2.0328 -2.0402 -2.6834
 9222SOL    HW239129   1.825   2.223   0.598 -1.4946  1.4436  0.3342
 9223SOL     OW39130   2.367   2.630   6.216 -0.3537  0.1175 -0.3803
 9223SOL    HW139131   2.404   2.716   6.235 -2.3021  1.1226 -1.2250
 9223SOL    HW239132   2.422   2.581   6.155  0.0037  1.6796 -1.3039
 9224SOL     OW39133   1.669   2.490   7.933 -0.2321 -0.6265  0.3013
 9224SOL    HW139134   1.695   2.458   7.847 -1.3132  0.6743 -0.5098
 9224SOL    HW239135   1.576   2.469   7.931 -0.2032 -0.7094 -0.3046
 9225SOL     OW39136   3.950   1.576   0.553  0.2260  0.1194 -0.1653
 9225SOL    HW139137   3.861   1.598   0.526 -0.2561 -0.6226  0.7994
 9225SOL    HW239138   3.975   1.510   0.490  0.8129 -0.4116  0.6211
 9226SOL     OW39139   2.532   2.778   2.576 -0.0931 -0.1323 -0.4804
 9226SOL    HW139140   2.551   2.853   2.519  0.3678  1.4369  1.7350
 9226SOL    HW239141   2.458   2.814   2.626  0.6821 -2.0057  1.9991
 9227SOL     OW39142   2.075   3.448   8.966  0.0228 -0.3247 -0.2356
 9227SOL    HW139143   2.028   3.518   8.921  1.0597 -1.2928 -2.8162
 9227SOL    HW239144   2.046   3.463   9.056  0.8373  0.0656 -0.0406
 9228SOL     OW39145   2.108   3.971   2.364  0.0626  0.0744 -0.1790
 9228SOL    HW139146   2.072   3.981   2.276 -0.4718  0.6562  0.1035
 9228SOL    HW239147   2.145   4.057   2.385 -1.7877  1.3797 -2.3188
 9229SOL     OW39148   3.387   1.415   1.180 -0.3651  0.0356 -0.2392
 9229SOL    HW139149   3.356   1.503   1.200  3.0184  0.8899  1.3569
 9229SOL    HW239150   3.317   1.369   1.134 -0.9821  0.8019 -0.0498
 9230SOL     OW39151   4.216   0.680   0.554  0.2886  0.5319 -0.2324
 9230SOL    HW139152   4.243   0.767   0.527  0.6185  1.5870  3.4692
 9230SOL    HW239153   4.138   0.703   0.605 -0.2829 -2.7710  0.3888
 9231SOL     OW39154   3.703   2.233   0.224 -0.1175 -0.1151 -0.4480
 9231SOL    HW139155   3.768   2.162   0.222 -1.8694 -1.6979 -0.3848
 9231SOL    HW239156   3.750   2.296   0.168 -0.7243 -1.7600 -2.8055
 9232SOL     OW39157   2.830   0.443   5.843  0.0296  0.0061  0.2615
 9232SOL    HW139158   2.768   0.400   5.784  1.4171  1.2991 -2.1602
 9232SOL    HW239159   2.832   0.382   5.916 -1.3866  0.3374  0.5791
 9233SOL     OW39160   2.598   1.316   7.970 -0.2061 -0.1692 -0.2722
 9233SOL    HW139161   2.642   1.247   7.920  2.8497  1.4755  0.1526
 9233SOL    HW239162   2.509   1.283   7.978 -0.1252 -0.7570 -1.8427
 9234SOL     OW39163   3.929   3.938   3.203  0.2253  0.0426 -0.1755
 9234SOL    HW139164   3.900   3.894   3.283 -2.1349 -2.3996 -2.3891
 9234SOL    HW239165   4.023   3.924   3.193  0.2248 -0.4681  0.5480
 9235SOL     OW39166   2.298   2.330  10.368 -0.1317 -0.6844 -0.2904
 9235SOL    HW139167   2.208   2.312  10.396 -0.2291  3.8531  2.2920
 9235SOL    HW239168   2.280   2.345  10.276 -0.4619 -0.5675 -0.2047
 9236SOL     OW39169   1.465   4.258   4.888 -0.0053  0.0449 -0.8815
 9236SOL    HW139170   1.500   4.247   4.800  1.2217  1.4906 -0.5786
 9236SOL    HW239171   1.533   4.223   4.946 -1.8952  0.8391  1.8141
 9237SOL     OW39172   0.695   0.012  13.799 -0.3733 -0.2021  0.0713
 9237SOL    HW139173   0.714   0.035  13.708 -0.5101  0.0232  0.1007
 9237SOL    HW239174   0.726   4.641  13.794 -0.1711 -0.0688 -1.3382
 9238SOL     OW39175   3.317   0.863   5.897  0.0958 -0.2485 -0.0662
 9238SOL    HW139176   3.292   0.780   5.857 -0.9483  0.6363 -1.2240
 9238SOL    HW239177   3.408   0.838   5.914  0.2060  0.1961  0.0106
 9239SOL     OW39178   1.464   0.327   7.387  1.0264 -0.1552  0.5922
 9239SOL    HW139179   1.392   0.271   7.415  1.4593 -0.9272  0.1471
 9239SOL    HW239180   1.420   0.391   7.330  1.6857 -1.1250 -1.0077
 9240SOL     OW39181   0.516   2.756   4.606  0.4271  0.2282 -0.1891
 9240SOL    HW139182   0.484   2.814   4.675 -0.3496 -0.9251  0.4111
 9240SOL    HW239183   0.464   2.799   4.539 -0.6390  0.8216  1.0277
 9241SOL     OW39184   1.677   2.453   3.810  0.3074 -0.0091  0.0923
 9241SOL    HW139185   1.769   2.474   3.795 -0.1302  2.1198  0.4567
 9241SOL    HW239186   1.691   2.362   3.837 -1.4902 -0.5288 -0.7438
 9242SOL     OW39187   3.200   3.564   2.339  0.0240 -0.6725 -0.0977
 9242SOL    HW139188   3.192   3.633   2.273  0.2509  0.3801  0.9646
 9242SOL    HW239189   3.249   3.608   2.408  1.8872  0.5367 -2.2098
 9243SOL     OW39190   3.884   0.319  14.265 -0.3225  0.4050 -0.5063
 9243SOL    HW139191   3.879   0.415  14.260 -2.5490  0.3695  1.2083
 9243SOL    HW239192   3.977   0.297  14.253 -0.6579 -1.5449  0.5269
 9244SOL     OW39193   1.576   1.785   2.440 -0.0198 -0.5735 -0.0654
 9244SOL    HW139194   1.649   1.823   2.392 -0.5056 -0.9971 -1.1360
 9244SOL    HW239195   1.548   1.708   2.390 -1.0098 -0.0755 -0.2882
 9245SOL     OW39196   4.692   0.624   7.703  0.5135 -0.2329 -0.5380
 9245SOL    HW139197   4.705   0.531   7.724 -0.8530 -0.1942  0.4820
 9245SOL    HW239198   0.066   0.640   7.717  0.1671  0.7617  0.6768
 9246SOL     OW39199   3.485   3.778  13.223 -0.3357  0.2986 -0.0570
 9246SOL    HW139200   3.575   3.783  13.255  0.1173 -0.0942 -1.2599
 9246SOL    HW239201   3.455   3.867  13.243  0.9656  0.7118  0.0159
 9247SOL     OW39202   1.357   3.177   6.746  0.3791 -0.2838  0.1948
 9247SOL    HW139203   1.444   3.171   6.706  0.2671 -1.9184  0.2049
 9247SOL    HW239204   1.330   3.086   6.750  2.2174 -0.8508 -0.3246
 9248SOL     OW39205   4.276   0.355  10.994  0.4044  0.4972 -0.0402
 9248SOL    HW139206   4.323   0.312  11.066  0.0154  0.8511  0.4249
 9248SOL    HW239207   4.329   0.434  10.981  0.7325 -0.1355 -2.4669
 9249SOL     OW39208   0.310   0.177   3.947 -0.0113  0.1682 -0.4587
 9249SOL    HW139209   0.379   0.113   3.928 -0.7983 -0.6768 -0.4636
 9249SOL    HW239210   0.236   0.117   3.943 -0.1906  0.5661 -3.1868
 9250SOL     OW39211   4.203   1.426  10.235 -0.2138 -0.4102 -0.2434
 9250SOL    HW139212   4.287   1.465  10.259  0.9108 -2.2257 -1.2469
 9250SOL    HW239213   4.204   1.351  10.295  1.0743  0.3384  0.6730
 9251SOL     OW39214   2.961   4.161   8.676  0.1158  0.1320 -0.3984
 9251SOL    HW139215   3.048   4.122   8.662  1.1799  2.2645  0.2347
 9251SOL    HW239216   2.981   4.253   8.659  0.6422  0.4265  1.7668
 9252SOL     OW39217   0.500   4.647   3.800  0.2327 -0.0568 -0.0939
 9252SOL    HW139218   0.562   4.648   3.873 -0.6104  0.3124  0.6213
 9252SOL    HW239219   0.516   0.008   3.752  0.0999  0.2486  0.3700
 9253SOL     OW39220   2.633   1.148   8.359 -0.0396 -0.7347  0.1712
 9253SOL    HW139221   2.677   1.123   8.278 -0.4210 -1.5931  0.2289
 9253SOL    HW239222   2.691   1.104   8.421 -1.1631  1.5843  2.8874
 9254SOL     OW39223   1.051   1.931  16.574  0.2793 -0.5893 -0.1309
 9254SOL    HW139224   1.049   1.927  16.478  2.1531 -1.0076 -0.1425
 9254SOL    HW239225   1.016   1.842  16.583  1.4304 -1.0217  0.0358
 9255SOL     OW39226   0.073   3.068   2.943 -0.0419  0.1603  0.1119
 9255SOL    HW139227   0.044   3.083   3.033 -1.0504 -2.1824  0.1857
 9255SOL    HW239228   0.128   3.144   2.924 -1.0951  0.5821 -1.2082
 9256SOL     OW39229   4.699   4.145   4.558  0.1208 -0.6187  0.0977
 9256SOL    HW139230   0.018   4.112   4.638  1.1346 -0.9695 -0.5380
 9256SOL    HW239231   0.033   4.222   4.539 -0.5048  0.3509  2.3036
 9257SOL     OW39232   0.566   2.336  11.508 -0.4464 -0.3425  0.2543
 9257SOL    HW139233   0.643   2.388  11.531 -0.4228 -0.0054 -0.5922
 9257SOL    HW239234   0.569   2.270  11.576 -3.6018 -0.1532  0.5673
 9258SOL     OW39235   1.030   4.506  16.463 -0.4126  0.2403 -0.7581
 9258SOL    HW139236   1.047   4.435  16.525  0.8734  0.5450 -0.7508
 9258SOL    HW239237   0.939   4.526  16.485 -0.4875 -1.1412  0.1733
 9259SOL     OW39238   4.227   0.459   5.247  0.0301 -0.2790  0.5853
 9259SOL    HW139239   4.266   0.371   5.242  0.8467 -0.0508  2.7774
 9259SOL    HW239240   4.308   0.507   5.266  0.3336 -0.2193 -0.8625
 9260SOL     OW39241   0.911   0.730   7.906 -0.0402 -1.4941 -0.1373
 9260SOL    HW139242   0.829   0.753   7.862 -1.0870  0.4392  2.7702
 9260SOL    HW239243   0.869   0.713   7.991 -0.3778 -1.2732 -0.2620
 9261SOL     OW39244   1.459   2.451  14.050 -0.6097  0.0589 -0.4727
 9261SOL    HW139245   1.421   2.415  14.129 -1.1887  1.3924 -0.1404
 9261SOL    HW239246   1.472   2.541  14.081  2.1481 -0.8059  0.8870
 9262SOL     OW39247   2.976   1.204   3.989  0.5151  0.2668 -0.1320
 9262SOL    HW139248   2.971   1.108   3.992  0.4801  0.3458  2.3818
 9262SOL    HW239249   2.995   1.223   4.081  0.4965  1.7325 -0.4382
 9263SOL     OW39250   2.417   1.876   8.373  0.9596 -0.5431 -0.0843
 9263SOL    HW139251   2.454   1.927   8.445  0.5979 -0.9352  0.3814
 9263SOL    HW239252   2.324   1.891   8.394  1.5716  0.6433  1.7281
 9264SOL     OW39253   0.268   0.360   9.737 -0.1254 -0.0573 -0.1185
 9264SOL    HW139254   0.360   0.335   9.731 -0.5384 -1.4856 -0.6069
 9264SOL    HW239255   0.214   0.281   9.727 -0.6157  0.1086  1.1797
 9265SOL     OW39256   0.181   2.808   4.574 -0.1133 -0.1819  0.1908
 9265SOL    HW139257   0.143   2.757   4.645  0.0471  0.9307  1.0755
 9265SOL    HW239258   0.252   2.853   4.619 -2.1609  1.2698  1.9777
 9266SOL     OW39259   1.896   2.358   3.301 -0.1647 -0.0588  0.5728
 9266SOL    HW139260   1.802   2.370   3.292 -0.0879 -0.0797 -0.2421
 9266SOL    HW239261   1.913   2.266   3.282 -2.5152 -0.6493  1.3326
 9267SOL     OW39262   3.646   3.696   4.592  0.4601  0.1291  0.4308
 9267SOL    HW139263   3.660   3.602   4.597 -2.6997 -0.4515 -1.4231
 9267SOL    HW239264   3.604   3.707   4.507  1.2273 -2.5878 -0.2829
 9268SOL     OW39265   4.067   4.409   5.026  0.3696  0.4267 -0.1442
 9268SOL    HW139266   4.100   4.461   5.100 -0.6343 -0.2784  0.7990
 9268SOL    HW239267   4.142   4.407   4.967  1.6877 -0.2203  1.5811
 9269SOL     OW39268   1.704   3.418   8.344  0.7657 -0.0709 -0.5073
 9269SOL    HW139269   1.717   3.438   8.252  0.1424 -0.0332 -0.5866
 9269SOL    HW239270   1.770   3.475   8.385 -2.0932  2.5872  0.4209
 9270SOL     OW39271   2.711   4.652   4.681 -0.5004  0.0965  0.1717
 9270SOL    HW139272   2.781   4.631   4.619 -0.9871  0.2853 -0.4439
 9270SOL    HW239273   2.722   4.582   4.746 -2.9571 -0.8211 -0.4046
 9271SOL     OW39274   0.068   2.484   8.386 -0.1066  0.2207 -0.7423
 9271SOL    HW139275   4.696   2.498   8.359 -0.0112 -0.6742 -1.5586
 9271SOL    HW239276   0.102   2.435   8.312 -0.9386  0.2460 -1.1470
 9272SOL     OW39277   3.632   0.904   4.427  0.1023 -0.0427  0.1157
 9272SOL    HW139278   3.645   0.864   4.341  1.2313 -1.0404  0.7476
 9272SOL    HW239279   3.633   0.994   4.394  0.8935  0.4692  1.5187
 9273SOL     OW39280   4.109   3.914  17.151 -0.4256 -0.1936  0.4608
 9273SOL    HW139281   4.187   3.950  17.109 -0.2509 -0.8364  0.2428
 9273SOL    HW239282   4.056   3.994  17.147 -0.9475 -0.5714 -0.2795
 9274SOL     OW39283   1.260   4.355  16.877  0.3515 -0.3720 -0.3758
 9274SOL    HW139284   1.326   4.400  16.824  0.5923 -0.1398  0.1216
 9274SOL    HW239285   1.309   4.330  16.955  0.0462 -2.0079 -0.6970
 9275SOL     OW39286   0.057   1.883   6.335 -0.2157  0.2850 -0.1625
 9275SOL    HW139287   0.050   1.925   6.249  0.7032 -2.5259 -1.6202
 9275SOL    HW239288   0.135   1.828   6.331 -0.1300  0.3629  0.3735
 9276SOL     OW39289   2.720   0.160   2.579 -0.0020  0.4997 -0.2917
 9276SOL    HW139290   2.812   0.183   2.571  0.2592  0.3979  2.4141
 9276SOL    HW239291   2.726   0.084   2.637 -0.0409 -0.4936 -1.5982
 9277SOL     OW39292   4.113   3.857   4.247 -0.3694  0.3464 -0.0723
 9277SOL    HW139293   4.101   3.818   4.160 -0.4680  0.8650 -0.2931
 9277SOL    HW239294   4.020   3.880   4.251 -0.0685  1.5627 -0.0630
 9278SOL     OW39295   4.230   2.863  13.204 -0.3940 -0.3096  0.6277
 9278SOL    HW139296   4.309   2.897  13.163 -1.6014 -0.7699 -2.1091
 9278SOL    HW239297   4.256   2.771  13.196  2.7465  0.5619  0.8868
 9279SOL     OW39298   2.772   0.431   7.901 -0.4065  0.0060 -0.3059
 9279SOL    HW139299   2.839   0.378   7.859 -2.2049 -1.4205 -1.3602
 9279SOL    HW239300   2.722   0.363   7.945 -0.2815  0.7336  0.9725
 9280SOL     OW39301   1.671   3.984   1.597  0.7333  0.2251  0.3567
 9280SOL    HW139302   1.711   3.902   1.626  0.8281  0.7474  1.6968
 9280SOL    HW239303   1.624   4.007   1.677  2.2474 -0.8193  1.5493
 9281SOL     OW39304   2.494   3.244   9.208  0.2859 -0.3008 -0.3533
 9281SOL    HW139305   2.400   3.258   9.199  0.6028  1.2573 -1.3471
 9281SOL    HW239306   2.522   3.327   9.170 -1.1771  0.7984  0.9821
 9282SOL     OW39307   1.858   4.488   2.763 -0.3650 -0.2092  0.1683
 9282SOL    HW139308   1.937   4.436   2.753  1.1366  2.0737 -0.0085
 9282SOL    HW239309   1.870   4.524   2.675  1.4834 -0.8082  0.1792
 9283SOL     OW39310   2.077   0.013   4.044 -0.4112 -0.2719 -0.3598
 9283SOL    HW139311   2.020   4.656   4.038 -2.4235  1.3157 -1.5312
 9283SOL    HW239312   2.014   0.084   4.057 -0.4249 -0.0480 -1.6018
 9284SOL     OW39313   3.919   2.054   4.469  0.4004  0.3605  0.4205
 9284SOL    HW139314   3.861   1.979   4.481  0.1189  0.1065 -2.5128
 9284SOL    HW239315   3.856   2.122   4.443 -0.5439 -0.7753 -0.2662
 9285SOL     OW39316   0.685   1.918  10.644 -0.1542  0.1518 -0.4849
 9285SOL    HW139317   0.743   1.943  10.716 -2.3756  1.9313  0.6727
 9285SOL    HW239318   0.637   1.841  10.676  0.0918 -0.0617 -0.6226
 9286SOL     OW39319   2.276   1.453   5.351  0.7408  0.3785  0.4832
 9286SOL    HW139320   2.332   1.451   5.428  1.9295 -1.0014 -0.4193
 9286SOL    HW239321   2.344   1.437   5.285 -0.5283  0.7405 -0.9087
 9287SOL     OW39322   0.963   2.660  13.634  0.0432  0.3394  0.3765
 9287SOL    HW139323   0.992   2.749  13.653 -0.9945  0.6035  0.7532
 9287SOL    HW239324   0.992   2.599  13.702 -2.0215  0.9970  1.8570
 9288SOL     OW39325   1.703   2.988  13.770  0.0250  0.1182  0.2577
 9288SOL    HW139326   1.715   3.054  13.837  0.4851  0.8283 -0.5224
 9288SOL    HW239327   1.633   2.935  13.808  0.5224  0.3155  1.4241
 9289SOL     OW39328   1.466   3.112   1.822  0.1549 -0.9689 -0.5390
 9289SOL    HW139329   1.492   3.020   1.814  0.1167 -1.0471  0.2299
 9289SOL    HW239330   1.508   3.144   1.743  0.1532 -1.5309 -0.7687
 9290SOL     OW39331   3.086   3.858  16.697  0.1262  0.4877 -0.5011
 9290SOL    HW139332   3.166   3.880  16.649  0.5714 -0.6792 -0.2862
 9290SOL    HW239333   3.040   3.804  16.633  0.8489 -0.0689 -0.5599
 9291SOL     OW39334   3.953   0.073   4.277 -0.1361 -0.0535  0.0126
 9291SOL    HW139335   3.938   0.156   4.232 -3.2670 -0.4673  0.3021
 9291SOL    HW239336   4.049   0.073   4.284 -0.1341  1.6736  0.1418
 9292SOL     OW39337   2.501   0.163   9.344  0.2866  0.0804 -0.3109
 9292SOL    HW139338   2.431   0.208   9.393  1.1468 -2.2869  3.0653
 9292SOL    HW239339   2.564   0.154   9.415 -0.3072  1.6151  0.4125
 9293SOL     OW39340   3.269   2.846   3.129  0.4898 -0.1745 -0.2480
 9293SOL    HW139341   3.179   2.874   3.140  0.5057 -0.4397  0.5752
 9293SOL    HW239342   3.255   2.842   3.035  1.9426  1.8831 -0.5372
 9294SOL     OW39343   1.551   2.525   2.237  0.2585  0.7251 -0.0182
 9294SOL    HW139344   1.456   2.532   2.223  0.0633 -0.9585  0.3897
 9294SOL    HW239345   1.560   2.465   2.312  3.6643  0.1613 -0.8680
 9295SOL     OW39346   4.063   3.413   7.490 -0.2926  0.0301  0.0016
 9295SOL    HW139347   4.083   3.387   7.580 -2.5957 -3.0747 -0.3809
 9295SOL    HW239348   4.134   3.378   7.437 -0.0908  1.6573 -0.8084
 9296SOL     OW39349   2.623   2.375  10.768  0.3637 -0.0904 -0.4790
 9296SOL    HW139350   2.645   2.435  10.697  1.1303 -2.2414 -2.0291
 9296SOL    HW239351   2.543   2.338  10.730  0.3800  0.7422 -1.3284
 9297SOL     OW39352   2.162   1.245  15.845 -0.5621  0.1434 -0.2221
 9297SOL    HW139353   2.110   1.290  15.912 -0.2811  1.3158 -0.7775
 9297SOL    HW239354   2.249   1.246  15.884 -0.2497 -3.4806 -0.8968
 9298SOL     OW39355   4.131   4.551   3.758 -0.0615  0.0588 -0.2111
 9298SOL    HW139356   4.080   4.474   3.784 -0.0607 -0.3274 -1.3245
 9298SOL    HW239357   4.194   4.517   3.694 -5.1392 -1.9053 -4.2452
 9299SOL     OW39358   2.041   2.991  16.175 -0.4913  0.0630 -0.2944
 9299SOL    HW139359   2.084   2.907  16.194 -0.9284 -0.2027 -0.4782
 9299SOL    HW239360   2.035   3.033  16.261  0.9306 -1.2466  0.4468
 9300SOL     OW39361   3.142   1.309  16.190  0.2964 -0.3202  0.1314
 9300SOL    HW139362   3.077   1.317  16.259 -0.0140  1.1785 -0.3197
 9300SOL    HW239363   3.080   1.320  16.118  1.0167  1.0845 -0.2804
 9301SOL     OW39364   2.583   3.297   2.989  0.3818  0.0243  0.8541
 9301SOL    HW139365   2.637   3.373   2.971 -0.0585  0.4877  1.4862
 9301SOL    HW239366   2.501   3.346   2.979  0.4705 -0.8593 -4.2025
 9302SOL     OW39367   4.231   3.389   7.260  0.1123 -0.2568  0.1437
 9302SOL    HW139368   4.284   3.342   7.195 -0.1437 -1.5872  0.8878
 9302SOL    HW239369   4.235   3.479   7.228 -0.6453 -0.1222  0.4412
 9303SOL     OW39370   0.534   2.290   5.002 -0.7374 -0.0923  0.1412
 9303SOL    HW139371   0.483   2.358   4.958  1.5621  0.3653 -1.8384
 9303SOL    HW239372   0.478   2.218   4.973  1.2159 -1.6420  0.2200
 9304SOL     OW39373   1.369   1.325   4.737  0.2036  0.4188  0.5068
 9304SOL    HW139374   1.322   1.269   4.675 -0.8081  3.1902 -1.2563
 9304SOL    HW239375   1.394   1.267   4.809 -1.4616  0.0101  0.7732
 9305SOL     OW39376   1.226   4.669  11.828 -0.2357 -0.1182 -0.3524
 9305SOL    HW139377   1.163   0.021  11.833 -1.6886 -1.3720 -0.7150
 9305SOL    HW239378   1.240   4.638  11.918  1.0607  0.4503 -0.3540
 9306SOL     OW39379   1.833   3.887  10.809 -0.1524  0.2057 -0.0356
 9306SOL    HW139380   1.915   3.860  10.850  0.0082  1.8768  0.7595
 9306SOL    HW239381   1.804   3.948  10.877 -0.9513  0.2279 -0.3986
 9307SOL     OW39382   1.817   3.059   5.744  0.0555  0.5264 -0.0954
 9307SOL    HW139383   1.895   3.087   5.792 -0.2154 -2.4049  2.0020
 9307SOL    HW239384   1.783   3.140   5.705 -1.1549 -0.0453 -0.2282
 9308SOL     OW39385   2.149   3.380   0.314 -0.3091  0.5001 -0.1600
 9308SOL    HW139386   2.192   3.330   0.383 -0.5671 -1.7672 -1.6268
 9308SOL    HW239387   2.220   3.371   0.251 -0.6245  3.2565 -0.9065
 9309SOL     OW39388   4.594   3.694   9.440 -0.4007 -0.1796 -0.0075
 9309SOL    HW139389   4.652   3.746   9.495  0.3740 -0.2655 -0.7396
 9309SOL    HW239390   4.566   3.764   9.381  0.9592 -0.5067 -1.0546
 9310SOL     OW39391   2.818   0.003   5.791 -0.0785  0.4163 -0.4459
 9310SOL    HW139392   2.842   0.079   5.738  1.4223 -1.7098 -2.8157
 9310SOL    HW239393   2.899   4.673   5.781  0.7870  1.7299  0.1018
 9311SOL     OW39394   2.626   2.978  11.151 -0.2000 -0.0893 -0.7867
 9311SOL    HW139395   2.705   2.923  11.142 -0.1041 -0.3517  1.6998
 9311SOL    HW239396   2.595   2.954  11.238  0.5177  1.0578 -0.2135
 9312SOL     OW39397   1.608   3.853   4.504 -0.6535 -0.5833  0.5966
 9312SOL    HW139398   1.684   3.882   4.555 -0.7499 -2.5641  1.8342
 9312SOL    HW239399   1.657   3.848   4.422 -0.5665  1.5961  0.5046
 9313SOL     OW39400   1.814   1.946  15.681 -0.0984  0.1133 -0.3841
 9313SOL    HW139401   1.741   1.990  15.636  0.2845  1.7156  0.5428
 9313SOL    HW239402   1.875   1.935  15.609  0.1979 -1.0346  0.0415
 9314SOL     OW39403   2.972   0.911  16.887 -0.4926 -0.6032 -0.3625
 9314SOL    HW139404   2.897   0.955  16.928 -0.2149  1.9404 -2.5872
 9314SOL    HW239405   2.935   0.897  16.800  0.7575  1.4988 -1.2435
 9315SOL     OW39406   0.351   1.712   2.501 -0.3581  0.3343  0.0838
 9315SOL    HW139407   0.377   1.673   2.584  0.4608  1.2023  0.2390
 9315SOL    HW239408   0.271   1.760   2.521  0.5009  1.6897  0.3063
 9316SOL     OW39409   0.176   1.890   1.034  0.1350  0.4479 -0.0434
 9316SOL    HW139410   0.120   1.914   1.108 -1.9405 -1.2024 -1.0859
 9316SOL    HW239411   0.264   1.891   1.071 -0.8008  0.5629  2.2112
 9317SOL     OW39412   1.724   2.697   2.923  0.5190 -0.4527 -0.0915
 9317SOL    HW139413   1.691   2.650   2.846 -3.1088  0.0755  1.1426
 9317SOL    HW239414   1.640   2.703   2.970  0.7093 -2.5673  0.5254
 9318SOL     OW39415   0.116   4.387   4.829 -0.1597  0.4226 -0.1279
 9318SOL    HW139416   0.197   4.388   4.779  1.6435  1.0160  2.8368
 9318SOL    HW239417   0.085   4.300   4.802  1.7620  0.0548 -1.1097
 9319SOL     OW39418   4.257   3.742   5.353  0.2770 -0.0405  0.0155
 9319SOL    HW139419   4.217   3.673   5.301 -0.3657  1.3876 -1.3798
 9319SOL    HW239420   4.347   3.711   5.344 -0.1308 -0.9733 -0.7873
 9320SOL     OW39421   2.781   3.736   6.784 -0.1179 -0.1456 -0.0729
 9320SOL    HW139422   2.789   3.697   6.697  0.7892 -0.1379  0.0149
 9320SOL    HW239423   2.753   3.824   6.762  0.6179 -1.0511 -4.6291
 9321SOL     OW39424   3.700   1.297   1.830  0.5784 -0.2094  0.0256
 9321SOL    HW139425   3.628   1.243   1.861  1.0883 -0.2966  1.0626
 9321SOL    HW239426   3.753   1.232   1.784  1.3193 -1.5751  2.8371
 9322SOL     OW39427   3.541   4.020   5.299  0.2618  0.2210  0.3565
 9322SOL    HW139428   3.465   3.987   5.251  1.1836 -0.9931 -0.2409
 9322SOL    HW239429   3.515   4.105   5.336  0.9476  1.0998 -1.1794
 9323SOL     OW39430   2.103   2.671   1.854  0.1483 -0.4543  0.4690
 9323SOL    HW139431   2.188   2.710   1.876 -0.1979 -1.3134  3.4237
 9323SOL    HW239432   2.132   2.612   1.785 -0.8134 -0.3212 -0.0435
 9324SOL     OW39433   2.468   4.311  14.871 -0.2705 -0.0662  0.0206
 9324SOL    HW139434   2.429   4.364  14.941  0.2955 -0.5555  0.7008
 9324SOL    HW239435   2.541   4.268  14.916  0.2979 -1.5085 -2.3006
 9325SOL     OW39436   1.469   3.111   9.518  0.0816 -0.0692  0.0816
 9325SOL    HW139437   1.456   3.205   9.530  1.5056 -0.0342  1.2946
 9325SOL    HW239438   1.564   3.118   9.509  0.1569  1.1226  1.8831
 9326SOL     OW39439   0.697   3.515  14.034 -0.3347 -0.1101  0.1576
 9326SOL    HW139440   0.603   3.529  14.042 -0.5324 -0.3963 -1.5654
 9326SOL    HW239441   0.729   3.574  13.966 -4.1951 -0.6488 -2.1124
 9327SOL     OW39442   1.490   3.601   5.978 -0.1718 -0.2834 -0.2675
 9327SOL    HW139443   1.459   3.547   5.904  1.3108  0.1212 -1.1737
 9327SOL    HW239444   1.471   3.684   5.935 -0.4262 -0.6578 -0.8912
 9328SOL     OW39445   0.673   1.734   9.231  0.1030  0.0956  0.0083
 9328SOL    HW139446   0.587   1.776   9.229 -0.7619 -1.6348  0.5301
 9328SOL    HW239447   0.659   1.663   9.169  1.3571 -0.1124 -0.0330
 9329SOL     OW39448   1.725   2.077   7.522 -0.5615  0.2982  0.5240
 9329SOL    HW139449   1.749   2.033   7.604 -0.4089  0.0533  0.3463
 9329SOL    HW239450   1.630   2.073   7.527 -0.5051 -0.4778  1.0509
 9330SOL     OW39451   3.456   4.555   3.570 -0.1038  0.4344 -0.0777
 9330SOL    HW139452   3.459   4.633   3.625 -1.7285 -0.6417  1.5139
 9330SOL    HW239453   3.513   4.502   3.624 -0.0609  0.9107  0.3406
 9331SOL     OW39454   1.735   1.253  15.724  0.6099  0.3396 -0.9079
 9331SOL    HW139455   1.707   1.164  15.700  0.5223  0.1763 -0.1990
 9331SOL    HW239456   1.817   1.254  15.675 -0.1454  3.0050 -2.1182
 9332SOL     OW39457   3.878   2.929   8.688 -0.3104  0.0651 -0.3025
 9332SOL    HW139458   3.910   3.019   8.693 -2.9138  0.9571  0.8600
 9332SOL    HW239459   3.840   2.922   8.776  1.6729 -0.2807  0.5081
 9333SOL     OW39460   0.523   1.298   7.631  0.1461  0.4796 -0.3242
 9333SOL    HW139461   0.481   1.276   7.547 -0.4980  1.7467 -0.3353
 9333SOL    HW239462   0.543   1.390   7.616 -1.4303  1.1411  1.6237
 9334SOL     OW39463   2.653   2.460   2.502 -0.0901  0.7181  0.2067
 9334SOL    HW139464   2.733   2.490   2.545 -1.1910  1.8082  1.5050
 9334SOL    HW239465   2.581   2.503   2.549 -0.2002 -0.2841  0.9564
 9335SOL     OW39466   4.559   1.970   3.308  0.1052 -0.5096  0.1326
 9335SOL    HW139467   4.544   1.973   3.403  1.0150 -0.7969  0.2918
 9335SOL    HW239468   4.644   1.926   3.306 -0.4201 -1.5551  0.5036
 9336SOL     OW39469   3.960   2.216  14.256 -0.1314 -0.1649 -0.3247
 9336SOL    HW139470   3.888   2.156  14.276 -1.6471  1.7766 -0.0263
 9336SOL    HW239471   3.988   2.229  14.347  1.6616 -0.9402 -0.7810
 9337SOL     OW39472   1.937   1.845   0.081 -0.4994 -0.4104  0.2663
 9337SOL    HW139473   1.979   1.920   0.039 -0.8122 -0.5357 -0.2735
 9337SOL    HW239474   1.879   1.820   0.009 -0.4401 -0.0228  0.0840
 9338SOL     OW39475   4.477   0.264   3.253  0.1871  0.7626  0.0680
 9338SOL    HW139476   4.450   0.291   3.166 -2.9193 -1.5737  0.2807
 9338SOL    HW239477   4.470   0.342   3.308 -0.1668  1.9637 -1.6724
 9339SOL     OW39478   1.515   1.810   2.125  0.5561 -0.5284 -0.0539
 9339SOL    HW139479   1.451   1.743   2.150 -0.4763  0.7602  0.7823
 9339SOL    HW239480   1.532   1.765   2.042  0.3948  0.0440 -0.3970
 9340SOL     OW39481   3.616   2.767  15.145 -0.2141 -0.1528 -0.1724
 9340SOL    HW139482   3.642   2.857  15.125 -0.6336 -0.3235 -1.4685
 9340SOL    HW239483   3.616   2.791  15.238 -1.9435  1.0189 -0.4760
 9341SOL     OW39484   0.601   4.010   4.093  0.0489  0.2382 -0.1192
 9341SOL    HW139485   0.660   4.077   4.058 -2.3092  1.6403 -1.4311
 9341SOL    HW239486   0.659   3.934   4.106  2.7943  2.3875  0.1404
 9342SOL     OW39487   2.013   2.459   2.401 -0.2730 -0.1019  0.7481
 9342SOL    HW139488   2.095   2.503   2.379  0.0904 -1.2940 -0.2968
 9342SOL    HW239489   1.949   2.528   2.381 -0.1387  0.1753  1.2648
 9343SOL     OW39490   3.322   4.159  17.292  0.2549  0.2296  0.1869
 9343SOL    HW139491   3.383   4.229  17.315  0.2274  0.3069  0.0248
 9343SOL    HW239492   3.299   4.127  17.380  0.5116 -0.1682  0.1075
 9344SOL     OW39493   4.040   4.163   3.365  0.3469  0.7885 -0.7035
 9344SOL    HW139494   4.000   4.097   3.309  0.5212  1.7748 -1.9915
 9344SOL    HW239495   3.991   4.146   3.446  1.9029  2.2235  0.5394
 9345SOL     OW39496   1.125   0.627   7.683  1.1275  0.3342 -0.1166
 9345SOL    HW139497   1.183   0.595   7.753  0.5346 -1.2811 -0.3682
 9345SOL    HW239498   1.041   0.593   7.714  1.7310 -2.0410 -1.0779
 9346SOL     OW39499   1.556   3.793   4.046 -0.0735 -0.4339 -0.0439
 9346SOL    HW139500   1.539   3.883   4.072 -1.3691 -0.5601 -0.4748
 9346SOL    HW239501   1.544   3.737   4.123 -0.9459  0.1288  0.2243
 9347SOL     OW39502   1.917   2.739  14.733  0.1283  0.6480 -0.4347
 9347SOL    HW139503   1.903   2.803  14.802 -0.9972  0.0622 -0.1191
 9347SOL    HW239504   1.975   2.788  14.675 -1.5139  3.0510 -0.0356
 9348SOL     OW39505   3.982   1.882   5.279 -0.3509  0.0146  0.9134
 9348SOL    HW139506   3.956   1.832   5.202  1.7357 -0.5376  0.5432
 9348SOL    HW239507   4.043   1.945   5.240  1.3227 -2.5551 -0.6722
 9349SOL     OW39508   1.251   3.242   7.991 -0.2163 -0.1899 -0.1862
 9349SOL    HW139509   1.202   3.207   7.916 -0.7490  0.0971  0.0263
 9349SOL    HW239510   1.232   3.336   7.986  0.4708 -0.1469 -2.0708
 9350SOL     OW39511   0.590   0.085   5.337 -0.4447 -0.3221 -0.1957
 9350SOL    HW139512   0.551   0.115   5.255 -0.5374  1.0692  0.3705
 9350SOL    HW239513   0.522   0.030   5.378 -2.1227  1.4858 -0.5516
 9351SOL     OW39514   1.524   1.549   7.068  0.0008  0.6025 -0.3392
 9351SOL    HW139515   1.461   1.503   7.012 -1.5858  1.7642  0.4917
 9351SOL    HW239516   1.607   1.534   7.023  0.8797 -0.2555  1.5842
 9352SOL     OW39517   3.983   0.169  15.690 -0.2790  0.4510 -0.1967
 9352SOL    HW139518   3.920   0.169  15.618  0.6368 -0.8708 -1.0032
 9352SOL    HW239519   3.949   0.235  15.750 -0.2541  0.1203  0.1795
 9353SOL     OW39520   1.655   3.023   6.070 -0.0835 -0.3077  0.3526
 9353SOL    HW139521   1.567   3.001   6.100 -0.8347  0.6898 -1.0835
 9353SOL    HW239522   1.632   3.013   5.977 -1.8143  0.9882  0.6245
 9354SOL     OW39523   0.405   3.977   2.066  0.4957 -0.5511  0.4061
 9354SOL    HW139524   0.481   3.942   2.019  0.3673  0.5010 -0.5666
 9354SOL    HW239525   0.433   4.068   2.076 -0.5496 -0.2014  0.1275
 9355SOL     OW39526   3.346   0.474  12.380  0.3427  0.2322 -0.0823
 9355SOL    HW139527   3.318   0.523  12.303 -1.1693  1.2890  1.1334
 9355SOL    HW239528   3.289   0.521  12.441  0.9095 -0.7005  1.1847
 9356SOL     OW39529   0.094   3.251   6.131 -0.5801 -0.2366  0.1313
 9356SOL    HW139530   0.126   3.164   6.106  0.8763  0.9925 -2.2471
 9356SOL    HW239531   0.022   3.229   6.191  0.9250  0.6037  2.2688
 9357SOL     OW39532   4.679   2.677   7.762 -0.1537  0.3513  0.2187
 9357SOL    HW139533   4.630   2.754   7.788  1.0387  0.2547  2.7653
 9357SOL    HW239534   4.701   2.705   7.673 -1.1236  1.5270  0.3600
 9358SOL     OW39535   3.807   0.796   3.457  0.4632  0.6837 -0.5544
 9358SOL    HW139536   3.818   0.809   3.551 -2.4488  0.7455 -0.2401
 9358SOL    HW239537   3.846   0.708   3.453 -0.2041  0.4260 -1.5186
 9359SOL     OW39538   2.399   1.315   4.463 -0.3555  0.1929  0.0882
 9359SOL    HW139539   2.393   1.335   4.370 -0.1788  1.5247  0.3654
 9359SOL    HW239540   2.494   1.320   4.479 -0.1920  1.4619 -1.2662
 9360SOL     OW39541   1.210   1.818   8.811  0.0212 -0.1380  0.0610
 9360SOL    HW139542   1.214   1.729   8.844  0.1909 -0.2402 -0.2349
 9360SOL    HW239543   1.143   1.856   8.866 -0.9276  0.3410 -1.4247
 9361SOL     OW39544   4.675   3.559   2.148 -0.1886 -0.0971 -0.1706
 9361SOL    HW139545   4.617   3.549   2.073  1.7620 -3.1469 -1.2799
 9361SOL    HW239546   0.025   3.501   2.116  1.3305  0.9088  1.3384
 9362SOL     OW39547   3.688   4.220   6.695 -0.2801 -0.5420 -0.3864
 9362SOL    HW139548   3.612   4.263   6.657  0.6229  0.2827 -1.2964
 9362SOL    HW239549   3.708   4.161   6.622  2.4952 -1.0599  0.7840
 9363SOL     OW39550   4.145   2.040   3.989  1.1506 -0.1302  0.4940
 9363SOL    HW139551   4.111   2.128   4.008  1.3774 -0.1358  0.9282
 9363SOL    HW239552   4.067   1.997   3.955  0.7810  0.4846  0.5612
 9364SOL     OW39553   2.798   1.149   1.279 -0.0324 -0.4187 -0.1376
 9364SOL    HW139554   2.719   1.133   1.227 -0.7423  1.8526  0.2242
 9364SOL    HW239555   2.839   1.062   1.275  2.7684  0.9759 -2.4425
 9365SOL     OW39556   4.024   2.285   4.035 -0.1542  0.3866  0.1408
 9365SOL    HW139557   3.947   2.269   3.981  0.2535  0.4980 -0.4820
 9365SOL    HW239558   3.990   2.314   4.119 -0.7364  0.0972  0.0091
 9366SOL     OW39559   0.342   4.689  13.747  0.3901 -0.5234  0.1588
 9366SOL    HW139560   0.380   0.040  13.694 -0.8122 -0.0823 -0.1113
 9366SOL    HW239561   0.411   4.622  13.745  0.0318 -0.8197 -2.3821
 9367SOL     OW39562   0.162   1.140   5.213  0.5758  0.3791 -0.3990
 9367SOL    HW139563   0.198   1.096   5.290  0.9003 -1.4710 -1.6014
 9367SOL    HW239564   0.068   1.132   5.225  0.6701  2.1425  1.4034
 9368SOL     OW39565   4.427   3.812  10.632  0.3666  0.2430 -0.7398
 9368SOL    HW139566   4.475   3.738  10.669 -2.8398 -0.5379  1.7552
 9368SOL    HW239567   4.339   3.776  10.632  0.1823  0.6770 -2.2396
 9369SOL     OW39568   2.302   2.286   1.433 -0.5233 -0.0318 -0.6343
 9369SOL    HW139569   2.373   2.339   1.468 -0.9991 -0.1464  0.5333
 9369SOL    HW239570   2.293   2.335   1.351 -0.1526 -1.3015 -1.4304
 9370SOL     OW39571   1.700   1.713   9.394 -0.1575  0.8437 -0.4006
 9370SOL    HW139572   1.729   1.794   9.436  1.1065 -0.0414  0.4481
 9370SOL    HW239573   1.672   1.761   9.317 -0.0145  0.2332 -0.8361
 9371SOL     OW39574   1.216   0.522   0.268 -0.4564  0.2255  0.2899
 9371SOL    HW139575   1.250   0.441   0.304 -0.2434  1.1921  2.2097
 9371SOL    HW239576   1.226   0.587   0.337  0.6010  0.0632  0.2762
 9372SOL     OW39577   1.409   3.408   2.062  0.1627 -0.3097  0.0203
 9372SOL    HW139578   1.346   3.372   1.999  0.9330 -0.9425 -0.3860
 9372SOL    HW239579   1.422   3.336   2.124  0.7580 -0.5112 -0.3349
 9373SOL     OW39580   2.127   2.069  12.669 -0.0941  0.2597  0.0233
 9373SOL    HW139581   2.072   2.148  12.671 -0.7576 -0.2006 -0.2825
 9373SOL    HW239582   2.200   2.096  12.613 -0.1841  0.0476 -0.1939
 9374SOL     OW39583   3.575   2.810   3.606  0.5206  1.0204 -0.3555
 9374SOL    HW139584   3.533   2.896   3.606 -1.0885  0.2473 -0.8543
 9374SOL    HW239585   3.503   2.763   3.564  0.0089  2.9435 -1.6568
 9375SOL     OW39586   0.643   3.503  15.808 -1.1819  0.8937  0.1751
 9375SOL    HW139587   0.701   3.510  15.883  0.0329 -1.1309 -0.5664
 9375SOL    HW239588   0.663   3.413  15.783  0.3794  1.3340 -0.1278
 9376SOL     OW39589   0.674   2.486  15.619 -0.2034  0.5831 -0.4843
 9376SOL    HW139590   0.590   2.441  15.630  1.2147 -2.0759 -0.5903
 9376SOL    HW239591   0.719   2.424  15.562  0.3267  0.7078 -0.1996
 9377SOL     OW39592   0.590   3.888   6.900 -0.5266  0.3671  0.1460
 9377SOL    HW139593   0.595   3.984   6.905 -1.2726  0.5565 -2.7453
 9377SOL    HW239594   0.681   3.862   6.886 -0.8526 -0.6318 -0.0525
 9378SOL     OW39595   2.651   3.402   6.657  0.1947  0.2543 -0.1497
 9378SOL    HW139596   2.669   3.399   6.751 -0.9405  0.7762  0.0831
 9378SOL    HW239597   2.578   3.341   6.668  0.8395 -0.6176 -0.8065
 9379SOL     OW39598   2.853   1.069   7.894 -0.1528 -0.0487  0.1108
 9379SOL    HW139599   2.854   0.976   7.872 -0.3119  0.5664 -2.4751
 9379SOL    HW239600   2.837   1.109   7.809  1.1121  1.3391  0.5091
 9380SOL     OW39601   0.878   0.767   4.822  0.1121 -0.2809  0.6896
 9380SOL    HW139602   0.800   0.814   4.793 -0.9002 -1.3845  1.6094
 9380SOL    HW239603   0.869   0.791   4.915  1.7532  0.6953  0.5937
 9381SOL     OW39604   2.670   4.073   4.947  0.6803  0.3230  0.2505
 9381SOL    HW139605   2.604   4.096   5.012  0.7640 -1.1144  0.8402
 9381SOL    HW239606   2.691   3.981   4.965 -1.0610  0.0794  0.9556
 9382SOL     OW39607   3.830   1.402   6.493  0.0139  0.0592 -0.1878
 9382SOL    HW139608   3.792   1.315   6.501  0.1520  0.0214  0.0588
 9382SOL    HW239609   3.795   1.448   6.570  0.8962  0.5964 -0.1051
 9383SOL     OW39610   4.718   2.665   6.483  0.3449 -0.0014  0.6581
 9383SOL    HW139611   4.671   2.589   6.515 -0.7244 -0.2934 -1.6543
 9383SOL    HW239612   4.644   2.726   6.488  0.5247  0.2232  0.5973
 9384SOL     OW39613   2.032   3.450   2.546 -0.0810  0.5421 -0.0955
 9384SOL    HW139614   1.974   3.398   2.601  0.3242 -0.1236 -0.2917
 9384SOL    HW239615   1.999   3.439   2.457 -0.8333  2.1400  0.0012
 9385SOL     OW39616   0.264   4.257  15.221  0.3208 -0.3075  0.3887
 9385SOL    HW139617   0.227   4.182  15.267 -1.1025 -1.6261 -2.9358
 9385SOL    HW239618   0.351   4.270  15.259  0.6136 -1.5870  0.1561
 9386SOL     OW39619   2.066   3.933   1.325  0.7601  0.0695  0.2733
 9386SOL    HW139620   2.013   3.969   1.396 -0.8482  1.2145 -1.4775
 9386SOL    HW239621   2.031   3.845   1.310  2.4804 -0.1643 -2.4349
 9387SOL     OW39622   1.276   3.784   1.503  0.1984 -0.0522 -0.2964
 9387SOL    HW139623   1.272   3.828   1.419  0.5313 -1.2852 -0.9517
 9387SOL    HW239624   1.217   3.838   1.556  1.4997 -0.2795  1.4066
 9388SOL     OW39625   3.320   1.502  10.769 -0.4146 -0.6591 -0.1571
 9388SOL    HW139626   3.360   1.548  10.843 -4.6355  0.8269  1.2507
 9388SOL    HW239627   3.235   1.477  10.806 -0.2184 -0.6341  0.3171
 9389SOL     OW39628   1.127   1.411   8.393  0.6328  0.1178 -0.2363
 9389SOL    HW139629   1.182   1.445   8.464  0.7605  0.8793 -0.7037
 9389SOL    HW239630   1.073   1.489   8.377  0.2667  0.2006  1.3283
 9390SOL     OW39631   1.468   0.189   6.842  0.1585  0.1734  0.0865
 9390SOL    HW139632   1.377   0.196   6.813 -0.6880  0.1429  2.7606
 9390SOL    HW239633   1.514   0.235   6.771  0.4943  1.3984  1.1104
 9391SOL     OW39634   3.830   4.055   7.538  0.1802 -0.0709  0.2398
 9391SOL    HW139635   3.780   4.135   7.554  3.8516  2.9632 -3.5736
 9391SOL    HW239636   3.905   4.072   7.595 -1.0465 -1.0781  2.1420
 9392SOL     OW39637   0.873   2.429   8.072 -0.2497 -0.1636  0.2088
 9392SOL    HW139638   0.959   2.455   8.104 -0.1643  2.3259 -2.0663
 9392SOL    HW239639   0.875   2.453   7.980 -3.2205  3.4425  1.0466
 9393SOL     OW39640   3.024   3.380   8.516 -0.2479 -0.2932  0.1043
 9393SOL    HW139641   3.085   3.375   8.443 -1.2690  1.3173 -0.8613
 9393SOL    HW239642   3.082   3.400   8.589  0.1525 -1.2688  0.0447
 9394SOL     OW39643   0.618   2.896   9.200 -0.0879  0.7365 -0.3426
 9394SOL    HW139644   0.559   2.908   9.274  1.4448  2.7757  0.5629
 9394SOL    HW239645   0.699   2.905   9.251 -0.5834 -0.3434  0.6466
 9395SOL     OW39646   2.992   4.656   4.208  0.5262 -0.0031  0.6532
 9395SOL    HW139647   3.054   0.008   4.220  0.0415  0.6440 -0.7152
 9395SOL    HW239648   2.911   4.704   4.227  1.0153  1.4216 -0.8141
 9396SOL     OW39649   1.548   4.632   4.008 -0.7365  0.3896 -0.0291
 9396SOL    HW139650   1.560   0.000   4.043  2.0144  0.6359 -1.5668
 9396SOL    HW239651   1.597   4.650   3.928 -0.8937 -2.2117 -0.7440
 9397SOL     OW39652   4.227   1.180   3.593  0.1793 -0.0377 -0.3064
 9397SOL    HW139653   4.197   1.130   3.669  0.9089  0.2452  0.1721
 9397SOL    HW239654   4.292   1.237   3.635 -1.1772  1.1596  0.1653
 9398SOL     OW39655   0.963   0.500   2.433  0.1050 -0.2966 -0.4491
 9398SOL    HW139656   0.912   0.579   2.451  1.4958  0.3773  0.5171
 9398SOL    HW239657   0.960   0.504   2.337  2.0895 -0.3560 -0.5011
 9399SOL     OW39658   3.286   0.539   5.900  0.5468  0.1582 -0.2315
 9399SOL    HW139659   3.212   0.515   5.844  0.3221  0.6649 -0.1570
 9399SOL    HW239660   3.262   0.528   5.992  1.2350 -0.3104 -0.1124
 9400SOL     OW39661   4.458   4.136   2.651  0.3850  0.2066 -0.3439
 9400SOL    HW139662   4.499   4.050   2.645  1.2514  0.6227 -0.4778
 9400SOL    HW239663   4.397   4.129   2.577  0.3545  3.0089 -0.5834
 9401SOL     OW39664   2.931   1.574  15.817 -0.7369  0.2943  0.2793
 9401SOL    HW139665   2.945   1.498  15.873 -1.3935 -1.4257 -1.8888
 9401SOL    HW239666   2.840   1.601  15.834  0.0025  2.5581  0.5968
 9402SOL     OW39667   4.608   2.451   4.880  0.5243  0.7044  0.5538
 9402SOL    HW139668   4.661   2.372   4.889  1.0407  0.7840 -1.7778
 9402SOL    HW239669   4.584   2.462   4.972  0.2265  1.5345  0.3822
 9403SOL     OW39670   0.263   1.458  11.331 -0.0393  0.3063  0.1897
 9403SOL    HW139671   0.229   1.429  11.416 -0.4598 -0.7311 -0.3224
 9403SOL    HW239672   0.344   1.407  11.324 -0.6260 -0.5950 -0.1294
 9404SOL     OW39673   2.077   4.359   5.707  0.5108 -0.2706 -0.4039
 9404SOL    HW139674   2.077   4.266   5.730 -1.1750 -0.6260 -1.8350
 9404SOL    HW239675   1.983   4.372   5.719  0.6269  0.6969 -0.5533
 9405SOL     OW39676   2.656   3.777   7.035 -0.2718 -0.4756 -0.4807
 9405SOL    HW139677   2.704   3.768   6.952  0.7583 -2.8617  0.3592
 9405SOL    HW239678   2.571   3.797   6.995 -0.4222  0.0386  0.1020
 9406SOL     OW39679   0.980   1.070   4.631 -0.5357 -0.2147 -0.5702
 9406SOL    HW139680   1.003   1.079   4.539  0.0101 -2.2046 -0.6138
 9406SOL    HW239681   1.067   1.081   4.669 -0.8747 -0.3352  0.2468
 9407SOL     OW39682   0.449   3.686   9.105 -0.1409 -0.1363  0.4260
 9407SOL    HW139683   0.446   3.678   9.200  1.1559  1.6583  0.6163
 9407SOL    HW239684   0.478   3.777   9.094 -1.8253  0.4984  1.1074
 9408SOL     OW39685   4.523   4.429   2.422  0.0080  0.0136  0.2820
 9408SOL    HW139686   4.458   4.484   2.379  1.5608  1.5728 -0.0792
 9408SOL    HW239687   4.560   4.374   2.353  0.6153 -0.5710  1.0710
 9409SOL     OW39688   2.441   4.484   5.140 -0.3871 -0.5473 -0.6918
 9409SOL    HW139689   2.489   4.437   5.208  1.0512 -0.4029 -1.6047
 9409SOL    HW239690   2.480   4.571   5.144  0.2508 -0.9137  0.9564
 9410SOL     OW39691   3.733   2.965   5.999  0.6905 -0.5262  0.1177
 9410SOL    HW139692   3.683   2.909   5.940  0.5412 -2.3525  2.0006
 9410SOL    HW239693   3.757   2.895   6.059  0.2461  0.7517  1.7915
 9411SOL     OW39694   2.384   2.551   3.569  0.7544  0.1254 -0.2449
 9411SOL    HW139695   2.415   2.465   3.598 -2.1036 -1.0297 -0.5654
 9411SOL    HW239696   2.453   2.553   3.502 -0.9407 -0.0822 -1.9891
 9412SOL     OW39697   2.994   2.604  10.545 -0.1522  0.5019  0.3083
 9412SOL    HW139698   3.053   2.530  10.563  0.8191  1.5757  1.4583
 9412SOL    HW239699   2.916   2.550  10.529  0.2953  0.4439 -1.6623
 9413SOL     OW39700   4.308   3.158   0.826  1.2088 -0.1272  0.6393
 9413SOL    HW139701   4.390   3.171   0.874  0.5423  1.3259  1.4017
 9413SOL    HW239702   4.239   3.133   0.888  2.5139 -0.7360  1.8463
 9414SOL     OW39703   0.976   1.629   5.853 -0.1254  0.2006  0.1121
 9414SOL    HW139704   0.916   1.622   5.779 -0.3619  1.2887  0.2063
 9414SOL    HW239705   0.968   1.723   5.869  0.2562  0.3862 -0.8164
 9415SOL     OW39706   0.580   1.731   7.248  0.3620 -0.0820 -0.2909
 9415SOL    HW139707   0.590   1.756   7.156  2.4000  0.0356 -0.0305
 9415SOL    HW239708   0.566   1.821   7.279 -1.4809 -1.9058  4.1801
 9416SOL     OW39709   2.167   3.852   7.322  0.3417 -0.0466 -0.1976
 9416SOL    HW139710   2.095   3.817   7.270  1.3023  0.0703 -1.6269
 9416SOL    HW239711   2.166   3.944   7.299 -1.8788  0.0727  0.4542
 9417SOL     OW39712   1.973   0.312   6.012  0.0300  0.2589 -0.8489
 9417SOL    HW139713   1.989   0.249   6.083 -0.4716  0.5923 -0.4449
 9417SOL    HW239714   1.980   0.255   5.936  0.9604 -2.1903  1.0686
 9418SOL     OW39715   1.599   3.958   4.924  0.2976 -0.0931  0.2549
 9418SOL    HW139716   1.663   4.029   4.911  1.6795 -0.9159  2.5676
 9418SOL    HW239717   1.628   3.927   5.009  1.0566 -1.5366 -0.5367
 9419SOL     OW39718   3.184   2.261   5.227 -0.1214 -0.1983  0.3170
 9419SOL    HW139719   3.236   2.207   5.168 -1.2748 -0.9881  0.0155
 9419SOL    HW239720   3.179   2.336   5.168 -0.4454 -1.4366 -1.2367
 9420SOL     OW39721   1.493   1.300   5.419 -0.5757  0.4399  0.6211
 9420SOL    HW139722   1.397   1.303   5.415 -0.3906 -1.6486 -5.3312
 9420SOL    HW239723   1.501   1.205   5.409 -1.1893  0.5307 -0.6955
 9421SOL     OW39724   0.911   2.245   3.928  0.4695 -0.4202  0.0654
 9421SOL    HW139725   0.973   2.248   4.001  0.1433  0.1970  0.3171
 9421SOL    HW239726   0.956   2.305   3.868 -0.0654  0.6625  0.7429
 9422SOL     OW39727   2.435   4.421  10.858  0.0764 -0.1670 -0.3835
 9422SOL    HW139728   2.431   4.431  10.763 -1.4565 -0.1512 -0.3054
 9422SOL    HW239729   2.468   4.332  10.867  0.4080  0.2637  2.5865
 9423SOL     OW39730   3.046   1.234   3.026  0.1021  0.1129 -0.8171
 9423SOL    HW139731   3.055   1.186   3.108  1.0447  0.5590 -0.6543
 9423SOL    HW239732   3.083   1.166   2.970  0.5388  0.7753 -1.3341
 9424SOL     OW39733   3.915   3.192   8.541  0.1670  0.6080  0.7495
 9424SOL    HW139734   3.909   3.266   8.481  0.2953  0.1943  0.2294
 9424SOL    HW239735   3.974   3.133   8.494  2.2526  2.5509  0.9237
 9425SOL     OW39736   2.589   4.138  14.609  0.8625 -0.6542 -0.0693
 9425SOL    HW139737   2.610   4.107  14.520  1.5714 -1.0098  0.2180
 9425SOL    HW239738   2.672   4.182  14.629  0.1842  0.7644 -0.3642
 9426SOL     OW39739   2.872   2.667   9.001 -0.2212 -0.1763 -0.0802
 9426SOL    HW139740   2.967   2.676   8.997 -0.1725 -0.0032  1.4063
 9426SOL    HW239741   2.854   2.761   8.999 -2.6104 -0.5858  1.8961
 9427SOL     OW39742   2.171   0.798   3.017 -0.4794  0.4793 -0.2325
 9427SOL    HW139743   2.169   0.703   3.010 -1.2802  0.4094  0.9623
 9427SOL    HW239744   2.080   0.813   2.990 -0.2849 -0.3333 -1.3623
 9428SOL     OW39745   2.357   3.876   9.518  0.1009  0.3261 -0.1413
 9428SOL    HW139746   2.426   3.894   9.583  0.8029 -1.7516 -0.3228
 9428SOL    HW239747   2.386   3.928   9.443  0.6800 -0.3255 -0.3624
 9429SOL     OW39748   3.699   1.334   4.374 -0.4994 -0.4539 -0.2538
 9429SOL    HW139749   3.641   1.396   4.419  2.1144  1.3177  0.6521
 9429SOL    HW239750   3.748   1.314   4.454  3.1657 -1.5106 -2.7598
 9430SOL     OW39751   3.937   1.006   1.329 -0.2906 -0.3363  0.5582
 9430SOL    HW139752   3.851   0.983   1.294  0.5154  0.2353 -1.7806
 9430SOL    HW239753   3.929   1.097   1.358  0.1739 -0.1883  0.2218
 9431SOL     OW39754   0.007   0.999   6.655 -0.0850 -0.2121 -0.7105
 9431SOL    HW139755   4.706   1.063   6.723 -0.8230  0.7322 -1.8268
 9431SOL    HW239756   4.661   1.029   6.592 -2.6446 -0.6207  1.7495
 9432SOL     OW39757   3.635   2.970  15.341 -0.1540  0.0696  0.1860
 9432SOL    HW139758   3.581   3.048  15.348 -2.2461 -1.3763  0.2884
 9432SOL    HW239759   3.715   2.994  15.387 -1.1273  2.6813  0.5075
 9433SOL     OW39760   3.328   2.946   7.787  0.3803  0.6368 -0.4793
 9433SOL    HW139761   3.368   2.867   7.823 -2.6286  0.5679  2.6934
 9433SOL    HW239762   3.385   3.015   7.821 -0.0980  0.6686  0.2540
 9434SOL     OW39763   4.007   4.106   7.283  0.1191 -0.6038 -0.6492
 9434SOL    HW139764   3.954   4.159   7.342  1.7976  0.4562 -0.1000
 9434SOL    HW239765   4.095   4.102   7.318 -0.7274  0.0908  1.5402
 9435SOL     OW39766   4.295   1.185   2.914 -0.3158 -0.2087  0.5649
 9435SOL    HW139767   4.221   1.242   2.892 -1.3676 -2.3844 -1.5201
 9435SOL    HW239768   4.356   1.242   2.961  1.6779 -1.0501 -1.0259
 9436SOL     OW39769   3.784   2.174  12.076 -0.7662  0.1122  0.4717
 9436SOL    HW139770   3.844   2.112  12.036 -0.9341  0.4250 -0.2643
 9436SOL    HW239771   3.844   2.221  12.134 -0.2260  0.9325 -0.7437
 9437SOL     OW39772   4.019   0.660   0.950  0.5531 -0.0213 -0.3233
 9437SOL    HW139773   4.063   0.717   0.887 -0.7691  0.2146 -1.0416
 9437SOL    HW239774   3.969   0.603   0.892 -0.4803 -0.1361  0.6691
 9438SOL     OW39775   0.014   1.920  10.617 -0.1588  0.5946 -0.3344
 9438SOL    HW139776   4.695   1.901  10.703 -0.5829  0.9125 -0.4560
 9438SOL    HW239777   0.057   2.002  10.644  0.7613  0.2932 -0.8939
 9439SOL     OW39778   0.497   2.547  16.576  0.3477 -0.6534 -0.0569
 9439SOL    HW139779   0.577   2.503  16.546  1.3523  1.8019 -0.9551
 9439SOL    HW239780   0.441   2.473  16.600 -3.2912  1.7257 -1.3283
 9440SOL     OW39781   3.908   3.498   6.424  0.1880  0.2922 -0.0714
 9440SOL    HW139782   3.937   3.492   6.515 -3.7353  2.4038  1.3507
 9440SOL    HW239783   3.818   3.464   6.427  0.3735 -0.3363 -2.2861
 9441SOL     OW39784   0.645   1.809   7.585 -0.0142  0.0283  0.2639
 9441SOL    HW139785   0.621   1.724   7.621 -1.9569  1.1116  1.5045
 9441SOL    HW239786   0.555   1.840   7.578  0.2420  0.6954 -0.0408
 9442SOL     OW39787   4.665   2.538   2.427 -0.2914 -0.2323 -0.4054
 9442SOL    HW139788   4.678   2.448   2.398  2.1084  0.4570 -1.5307
 9442SOL    HW239789   4.655   2.524   2.521  1.4615 -0.7598 -0.2920
 9443SOL     OW39790   1.023   1.161   7.749  0.4050  0.3883  0.3597
 9443SOL    HW139791   1.066   1.098   7.808 -0.4642 -0.6965 -0.1764
 9443SOL    HW239792   0.959   1.198   7.810 -1.7216 -1.7867 -0.5909
 9444SOL     OW39793   2.732   0.781  15.257  0.5800  0.6109  0.2715
 9444SOL    HW139794   2.677   0.811  15.329  1.5029  0.1275  1.1773
 9444SOL    HW239795   2.690   0.697  15.238 -1.9436  2.3442 -1.7354
 9445SOL     OW39796   3.841   0.942  11.918  0.4564 -0.0165  0.4980
 9445SOL    HW139797   3.825   0.993  11.838  2.9262  2.2024  1.3961
 9445SOL    HW239798   3.906   0.996  11.964 -0.0891 -1.4206  2.8693
 9446SOL     OW39799   0.955   2.668   0.628  0.1145  0.0347  0.2128
 9446SOL    HW139800   0.888   2.604   0.605  1.1072 -0.6870 -0.6529
 9446SOL    HW239801   1.003   2.687   0.547 -0.3427  1.4310  0.2561
 9447SOL     OW39802   0.216   2.855  11.180  0.9051  0.0293 -0.0524
 9447SOL    HW139803   0.268   2.794  11.127  2.9962  1.3287  0.4801
 9447SOL    HW239804   0.225   2.815  11.266 -1.0338  0.2363  0.2314
 9448SOL     OW39805   4.631   1.953  10.887 -0.2293  0.3353  0.3416
 9448SOL    HW139806   4.687   1.961  10.964  0.3343  0.1963 -0.0608
 9448SOL    HW239807   4.549   1.932  10.933 -0.3769  1.1123  0.4295
 9449SOL     OW39808   2.359   3.461   2.912 -0.3923  0.3370 -0.0127
 9449SOL    HW139809   2.327   3.548   2.933  0.9958  0.7710  0.3173
 9449SOL    HW239810   2.350   3.469   2.817  0.1203  0.7911 -0.0247
 9450SOL     OW39811   0.910   0.342   1.608  0.4564 -0.5124 -0.3851
 9450SOL    HW139812   0.967   0.268   1.584  2.6789  1.1580 -0.3120
 9450SOL    HW239813   0.917   0.407   1.537 -3.1477  0.3177  0.0428
 9451SOL     OW39814   1.333   4.105   7.883  0.1673 -0.3940 -0.3000
 9451SOL    HW139815   1.383   4.078   7.960 -0.4996 -0.9556 -0.0648
 9451SOL    HW239816   1.256   4.048   7.887  0.5275 -0.8374  0.2109
 9452SOL     OW39817   2.889   1.975   0.773  0.0530 -0.4067 -0.5738
 9452SOL    HW139818   2.936   1.893   0.791 -0.7340 -1.4745 -3.3223
 9452SOL    HW239819   2.953   2.016   0.715 -1.1343  0.5724 -1.2027
 9453SOL     OW39820   4.447   0.307  13.810 -0.5336  0.8607 -0.4349
 9453SOL    HW139821   4.531   0.263  13.797 -0.7182  0.3149  0.2348
 9453SOL    HW239822   4.440   0.369  13.737 -0.8225 -0.1804 -1.2932
 9454SOL     OW39823   0.933   3.431  13.050 -0.5416 -0.4398 -0.3519
 9454SOL    HW139824   0.957   3.433  13.142 -0.8140  0.5085 -0.3024
 9454SOL    HW239825   0.876   3.354  13.054  0.4325 -1.1398 -0.0233
 9455SOL     OW39826   3.800   3.262   6.745 -0.2877  0.4965 -0.3869
 9455SOL    HW139827   3.768   3.352   6.742  0.4765  0.7965  0.4789
 9455SOL    HW239828   3.792   3.246   6.839 -1.0631 -0.9241 -0.6972
 9456SOL     OW39829   1.106   2.262  14.666  0.0487  0.7825  0.0888
 9456SOL    HW139830   1.082   2.202  14.737  2.4415 -2.3271 -1.7325
 9456SOL    HW239831   1.015   2.272  14.641  0.0013  1.2475  0.4301
 9457SOL     OW39832   3.456   0.819   8.144  0.0511  0.0579  0.1799
 9457SOL    HW139833   3.541   0.818   8.187  0.1789  1.6927 -0.0100
 9457SOL    HW239834   3.450   0.727   8.119  0.2785 -0.1930  1.0439
 9458SOL     OW39835   2.537   4.388   8.390  0.4666  0.7775 -0.3937
 9458SOL    HW139836   2.556   4.308   8.438  0.2197 -0.0185 -1.6259
 9458SOL    HW239837   2.441   4.381   8.392  0.6117 -1.2882 -1.3467
 9459SOL     OW39838   1.445   0.254  12.214 -0.2518  0.1250 -0.4000
 9459SOL    HW139839   1.450   0.243  12.309 -1.6729  2.2013 -0.0909
 9459SOL    HW239840   1.435   0.165  12.178  0.4226 -0.5285  1.0384
 9460SOL     OW39841   2.442   0.863   0.928 -0.1680 -0.6655 -0.1828
 9460SOL    HW139842   2.464   0.875   1.020 -1.8871  0.4199  0.0898
 9460SOL    HW239843   2.352   0.831   0.930 -0.4813  0.2893  0.8319
 9461SOL     OW39844   2.790   3.683   6.509  0.1897  0.1651  0.1269
 9461SOL    HW139845   2.696   3.697   6.496 -0.0418 -1.5548 -0.0835
 9461SOL    HW239846   2.811   3.646   6.423  3.3494  0.9269  0.5833
 9462SOL     OW39847   3.322   4.188   7.742 -0.2141  0.0986  0.0995
 9462SOL    HW139848   3.367   4.206   7.825 -1.2518 -1.6741  1.0374
 9462SOL    HW239849   3.388   4.143   7.689  0.5016  0.9200  0.2893
 9463SOL     OW39850   4.304   1.193   5.987 -0.1592  0.8728  0.8094
 9463SOL    HW139851   4.378   1.232   6.034  0.3013  0.7962  0.1393
 9463SOL    HW239852   4.236   1.200   6.055 -2.0117 -1.9595 -0.7449
 9464SOL     OW39853   3.324   0.971  12.569  0.1188 -0.1337 -0.2242
 9464SOL    HW139854   3.363   1.014  12.493 -1.4404 -1.7655 -1.9585
 9464SOL    HW239855   3.242   1.021  12.568 -0.8034 -1.6135  1.9394
 9465SOL     OW39856   0.999   4.271   2.095 -0.2789 -0.3167 -0.0524
 9465SOL    HW139857   1.060   4.298   2.026 -0.2262 -0.9745 -0.2584
 9465SOL    HW239858   1.061   4.241   2.161  1.1968 -0.5018 -1.5257
 9466SOL     OW39859   4.128   0.952   0.452 -0.3733 -0.2309  0.2208
 9466SOL    HW139860   4.088   0.918   0.373 -2.0077  1.8775  0.1364
 9466SOL    HW239861   4.187   1.021   0.423  2.1687 -0.9071  3.7185
 9467SOL     OW39862   3.762   2.270   2.638 -0.1961  0.2710  0.0609
 9467SOL    HW139863   3.740   2.362   2.655  0.9217  0.5567 -0.0738
 9467SOL    HW239864   3.757   2.263   2.542 -2.3690 -2.0114  0.3391
 9468SOL     OW39865   2.661   2.860   4.411 -0.1225  0.5098  0.4107
 9468SOL    HW139866   2.664   2.769   4.382 -2.4183  0.6141 -0.0771
 9468SOL    HW239867   2.702   2.909   4.340  0.7013 -0.3428  0.2988
 9469SOL     OW39868   4.073   2.990  13.963 -0.0584  0.2577  0.2063
 9469SOL    HW139869   4.104   3.071  14.004  1.8765 -0.4877  0.2227
 9469SOL    HW239870   4.010   2.961  14.029  0.1823  1.8638  1.1477
 9470SOL     OW39871   2.160   2.299   9.223 -0.1446 -0.2853  0.1453
 9470SOL    HW139872   2.142   2.364   9.155 -0.6507 -0.5694  0.0022
 9470SOL    HW239873   2.093   2.320   9.289  0.2275 -0.9996  0.7452
 9471SOL     OW39874   2.144   3.735   4.713 -0.0397 -0.2399 -0.6412
 9471SOL    HW139875   2.140   3.751   4.619  0.8560 -2.5173 -1.0425
 9471SOL    HW239876   2.238   3.723   4.722  0.1123  0.4766 -1.2348
 9472SOL     OW39877   0.140   2.883   7.924  1.0356 -0.1439  0.5479
 9472SOL    HW139878   0.187   2.803   7.945  0.3834 -0.6665  0.0126
 9472SOL    HW239879   0.054   2.845   7.906  0.8769  0.3222  0.3305
 9473SOL     OW39880   4.623   0.924  17.632  0.3016 -0.0332 -0.0733
 9473SOL    HW139881   4.593   0.837  17.607  0.4172  0.2998 -1.3880
 9473SOL    HW239882   4.699   0.906   0.007  0.7943 -0.4870 -0.8956
 9474SOL     OW39883   0.791   2.555  17.177  1.1670 -0.2689 -0.3189
 9474SOL    HW139884   0.868   2.545  17.234  2.3317 -1.4898 -2.1222
 9474SOL    HW239885   0.792   2.470  17.134 -0.4123 -1.0525  1.2031
 9475SOL     OW39886   4.035   0.714  17.431  0.0543 -0.4465 -0.2752
 9475SOL    HW139887   4.035   0.640  17.370  0.0199 -0.2250 -0.5422
 9475SOL    HW239888   3.972   0.767  17.382 -0.8239 -1.9296 -0.7631
 9476SOL     OW39889   4.192   0.049   6.255 -0.2710  0.4161 -0.0528
 9476SOL    HW139890   4.157   4.679   6.259 -3.7219  1.7436 -0.4016
 9476SOL    HW239891   4.153   0.081   6.173  0.7996  1.5760 -0.1081
 9477SOL     OW39892   0.880   2.708   7.711  0.0735 -0.1427 -0.1210
 9477SOL    HW139893   0.974   2.723   7.721 -0.2392  1.2488  0.7235
 9477SOL    HW239894   0.885   2.720   7.616 -2.7135  3.0854  0.1461
 9478SOL     OW39895   1.438   3.425   8.847  0.3070  0.0909  0.3832
 9478SOL    HW139896   1.369   3.491   8.837  1.2115  0.9079 -0.4777
 9478SOL    HW239897   1.378   3.351   8.852  0.0698  0.4141  2.4604
 9479SOL     OW39898   0.842   2.342   1.216  0.0355  1.0698  0.1147
 9479SOL    HW139899   0.937   2.350   1.219  0.2627 -1.2372 -0.8915
 9479SOL    HW239900   0.829   2.360   1.123  2.3883 -1.1173 -0.6428
 9480SOL     OW39901   4.442   2.956   5.751 -0.1244 -0.1095 -0.1612
 9480SOL    HW139902   4.426   3.049   5.740 -1.3697 -0.2209  0.7130
 9480SOL    HW239903   4.379   2.924   5.686 -0.2333  1.5755 -0.8714
 9481SOL     OW39904   0.014   2.664  17.424  0.4882  0.4872  0.0422
 9481SOL    HW139905   0.104   2.688  17.445  1.2823 -1.4992 -1.1344
 9481SOL    HW239906   4.714   2.592  17.484 -0.8446  0.0763 -0.8899
 9482SOL     OW39907   2.343   4.678   9.279  0.9776  0.0901  0.3904
 9482SOL    HW139908   2.283   4.715   9.214  0.5292 -0.7041  0.3561
 9482SOL    HW239909   2.400   0.033   9.299  2.3866 -0.4322 -1.7546
 9483SOL     OW39910   3.920   1.389   5.499  0.1793  0.0164 -0.6089
 9483SOL    HW139911   3.919   1.380   5.404 -2.7737 -0.8868 -0.5161
 9483SOL    HW239912   3.893   1.300   5.523 -0.0096 -0.0583 -1.1057
 9484SOL     OW39913   2.326   3.204  13.555 -0.3604  0.2362 -0.1053
 9484SOL    HW139914   2.373   3.284  13.579  0.0935  0.3127 -1.2243
 9484SOL    HW239915   2.247   3.245  13.522  0.3175  0.7651 -1.0803
 9485SOL     OW39916   1.731   3.285   7.382  0.1226  0.0495 -0.3427
 9485SOL    HW139917   1.808   3.277   7.326 -0.2328 -3.0538 -0.4028
 9485SOL    HW239918   1.745   3.234   7.463 -0.3121 -0.8977 -0.8591
 9486SOL     OW39919   0.717   2.309  14.939 -0.4441  0.9270 -0.5517
 9486SOL    HW139920   0.724   2.235  14.880  0.3892  0.7695 -0.2579
 9486SOL    HW239921   0.623   2.309  14.959 -0.8360  0.6598 -2.3802
 9487SOL     OW39922   2.772   1.647  13.803  0.4579 -0.4587 -0.0913
 9487SOL    HW139923   2.819   1.600  13.871  4.9095  0.1963 -2.6920
 9487SOL    HW239924   2.736   1.717  13.857 -0.2414 -0.8700 -0.0273
 9488SOL     OW39925   4.421   1.169   2.103 -0.4166  0.1709 -0.4966
 9488SOL    HW139926   4.471   1.135   2.028 -0.5492 -0.3354 -0.3563
 9488SOL    HW239927   4.483   1.239   2.125  0.1977 -0.3959 -0.4064
 9489SOL     OW39928   4.284   2.332   8.497 -0.0572  0.4633 -0.6629
 9489SOL    HW139929   4.211   2.339   8.437 -0.1795 -1.1686 -0.6969
 9489SOL    HW239930   4.238   2.292   8.571  1.4927 -0.6177 -0.2910
 9490SOL     OW39931   2.763   1.010  10.344 -0.4667  0.0813  0.5111
 9490SOL    HW139932   2.825   1.061  10.396  1.9328 -1.6026 -0.6851
 9490SOL    HW239933   2.702   0.969  10.405 -2.6458  3.2984  0.5144
 9491SOL     OW39934   1.579   2.825   7.390 -0.3350 -0.1490 -0.3431
 9491SOL    HW139935   1.618   2.882   7.324  0.7252 -0.0417  0.3776
 9491SOL    HW239936   1.658   2.803   7.438 -0.9162 -0.4535  0.4747
 9492SOL     OW39937   4.271   0.957  15.852 -0.2673  0.1750  0.2858
 9492SOL    HW139938   4.251   1.048  15.873  2.5781  0.6122  1.0788
 9492SOL    HW239939   4.193   0.918  15.811 -0.2002 -0.1206  0.4382
 9493SOL     OW39940   4.365   1.052   7.653 -0.2877  0.5972 -0.1169
 9493SOL    HW139941   4.367   1.140   7.615  0.1998  0.6903  0.1280
 9493SOL    HW239942   4.399   1.055   7.742  1.4776 -0.3424 -0.7539
 9494SOL     OW39943   1.610   1.070   7.863  0.9704  0.3438  0.0878
 9494SOL    HW139944   1.619   1.103   7.952 -0.6521  2.0178 -0.3807
 9494SOL    HW239945   1.517   1.048   7.861  0.4482  2.5596  0.2909
 9495SOL     OW39946   1.300   2.039   5.276 -0.9215  0.4984  0.6256
 9495SOL    HW139947   1.235   2.104   5.302 -0.8468  1.2761 -1.1546
 9495SOL    HW239948   1.368   2.095   5.239 -1.0739  0.6857  0.6259
 9496SOL     OW39949   3.983   2.254   4.679  0.9587 -0.5656 -0.4508
 9496SOL    HW139950   3.943   2.219   4.600  0.7273 -2.8680  0.6751
 9496SOL    HW239951   3.936   2.215   4.752  2.4502 -0.3553  0.6311
 9497SOL     OW39952   3.315   1.827   4.627 -0.2051  0.2179 -0.5484
 9497SOL    HW139953   3.289   1.752   4.573  0.4966 -2.5273  2.9327
 9497SOL    HW239954   3.331   1.794   4.716  0.8342  2.6210  0.1592
 9498SOL     OW39955   2.381   1.990   0.244 -0.5096 -0.0430  0.1484
 9498SOL    HW139956   2.369   1.895   0.236 -2.5997  0.2729 -0.3361
 9498SOL    HW239957   2.414   1.994   0.334 -0.3271  1.1789  0.0291
 9499SOL     OW39958   2.615   4.398   5.343 -0.1390 -0.2552  0.3252
 9499SOL    HW139959   2.574   4.322   5.383 -0.6565 -0.3158 -0.3063
 9499SOL    HW239960   2.698   4.370   5.306 -1.6555 -2.0358 -1.7623
 9500SOL     OW39961   3.234   0.887   4.034 -0.5067 -0.1811 -0.0298
 9500SOL    HW139962   3.286   0.966   4.046 -0.3612 -0.1894 -0.6276
 9500SOL    HW239963   3.189   0.887   4.119  3.4746  2.0322  2.0770
 9501SOL     OW39964   3.094   0.491   0.301  0.3208  0.1386  0.3034
 9501SOL    HW139965   3.078   0.585   0.306 -1.3263 -0.0776 -0.9833
 9501SOL    HW239966   3.177   0.484   0.254 -0.4998 -2.5405 -0.7537
 9502SOL     OW39967   1.925   1.090  15.434 -0.0319 -0.3867  0.4311
 9502SOL    HW139968   1.955   1.137  15.511  0.3614 -0.4492  0.3182
 9502SOL    HW239969   1.873   1.018  15.468  1.1715 -0.6510  1.6791
 9503SOL     OW39970   2.502   2.386   8.523  0.2405 -0.1547  0.4758
 9503SOL    HW139971   2.409   2.403   8.540  0.1443 -0.0640 -0.1621
 9503SOL    HW239972   2.530   2.423   8.607  2.4086 -0.6486 -0.0316
 9504SOL     OW39973   4.672   3.208   0.841  0.1807  0.1356  0.1140
 9504SOL    HW139974   0.007   3.253   0.905  0.2975  1.6952 -1.0724
 9504SOL    HW239975   4.595   3.189   0.895 -1.5327  1.0185 -2.0010
 9505SOL     OW39976   1.952   1.622   2.718  0.2132  0.0240  0.0346
 9505SOL    HW139977   1.940   1.714   2.694  0.5615 -0.8802 -3.5768
 9505SOL    HW239978   2.016   1.590   2.655  1.4972  3.7822 -0.5872
 9506SOL     OW39979   2.133   2.923  11.079 -0.4256 -0.3171  0.7070
 9506SOL    HW139980   2.095   2.861  11.017  3.6838 -1.0728 -1.0652
 9506SOL    HW239981   2.138   3.002  11.026  1.3264 -1.1123 -0.3227
 9507SOL     OW39982   0.848   3.220   6.447 -0.1602 -0.3290 -0.1471
 9507SOL    HW139983   0.939   3.238   6.421  0.1210 -0.3384  0.8532
 9507SOL    HW239984   0.842   3.258   6.534  0.6819 -0.5029 -0.0087
 9508SOL     OW39985   0.480   0.603   4.052 -0.3317  0.2114 -0.5052
 9508SOL    HW139986   0.511   0.653   3.977  1.3842  0.8821  0.6642
 9508SOL    HW239987   0.400   0.571   4.011 -0.2196  1.0136 -1.3364
 9509SOL     OW39988   4.151   4.226  10.668 -0.1053  0.3102  0.0084
 9509SOL    HW139989   4.227   4.182  10.630  0.4828  0.0863  1.4186
 9509SOL    HW239990   4.147   4.293  10.600  0.8993 -0.1842 -0.5364
 9510SOL     OW39991   2.036   3.481  10.086  0.1297  0.0443 -0.5510
 9510SOL    HW139992   1.946   3.514  10.077 -0.7727 -2.3811 -0.4343
 9510SOL    HW239993   2.020   3.387  10.080  0.0217  0.1737 -2.3853
 9511SOL     OW39994   1.813   1.744  17.536  0.1680  0.0091  0.2668
 9511SOL    HW139995   1.828   1.734  17.442 -4.1536  1.1263 -0.5439
 9511SOL    HW239996   1.819   1.653  17.563  0.4982 -0.9369 -3.0445
 9512SOL     OW39997   4.445   0.396   6.884 -0.5274 -0.0637 -0.1542
 9512SOL    HW139998   4.468   0.469   6.942 -1.4135  0.6023 -0.6482
 9512SOL    HW239999   4.443   0.326   6.950  0.1014 -1.1572 -1.2955
 9513SOL     OW40000   0.237   0.424  14.939 -0.3812 -0.6282 -0.2510
 9513SOL    HW140001   0.306   0.489  14.925 -0.5338 -0.7988 -1.8214
 9513SOL    HW240002   0.288   0.343  14.940 -0.8368 -0.9102  0.4843
 9514SOL     OW40003   1.186   2.491  10.031  0.3697 -0.4931  0.0574
 9514SOL    HW140004   1.127   2.559  10.062 -1.1287 -0.8523 -2.0155
 9514SOL    HW240005   1.135   2.415  10.059 -1.1009  0.2336 -0.7089
 9515SOL     OW40006   4.640   0.917   2.520  0.1648  0.3280  0.0153
 9515SOL    HW140007   4.659   1.006   2.489 -0.4427 -0.0043 -1.3172
 9515SOL    HW240008   4.613   0.865   2.444  0.0080  2.8207 -1.6229
 9516SOL     OW40009   4.136   3.034   7.026  0.1713 -0.4231 -0.1557
 9516SOL    HW140010   4.183   3.117   7.015 -0.9764  0.1362 -0.8837
 9516SOL    HW240011   4.122   3.024   7.121 -1.2809  1.4945 -0.1661
 9517SOL     OW40012   3.308   2.775   4.483 -0.0061 -0.0576 -0.5211
 9517SOL    HW140013   3.361   2.843   4.442 -1.2501 -0.0870 -2.2000
 9517SOL    HW240014   3.368   2.740   4.548  0.1816  3.0775  0.9909
 9518SOL     OW40015   1.388   0.053   9.734  0.2031  0.2830  0.7923
 9518SOL    HW140016   1.402   0.148   9.733 -3.6197  0.8734  1.6267
 9518SOL    HW240017   1.476   0.024   9.758  0.0068  0.8523  2.1747
 9519SOL     OW40018   3.852   2.181   8.717  0.6395  0.2902 -0.6283
 9519SOL    HW140019   3.858   2.261   8.768 -0.9968 -0.6963  1.1226
 9519SOL    HW240020   3.757   2.165   8.721  0.6748 -0.6316 -3.2190
 9520SOL     OW40021   0.879   3.105  16.587  0.3522  0.9018 -0.6513
 9520SOL    HW140022   0.783   3.101  16.584  0.2825  3.0667 -1.2337
 9520SOL    HW240023   0.903   3.127  16.497  0.6407  1.1861 -0.5030
 9521SOL     OW40024   0.670   2.105   4.446  0.1398 -0.0052  0.3746
 9521SOL    HW140025   0.617   2.047   4.500 -0.7968  1.6548  1.2249
 9521SOL    HW240026   0.733   2.038   4.419 -0.6413 -0.7766  0.4676
 9522SOL     OW40027   2.258   2.339  15.845 -0.0927 -0.0537  0.2106
 9522SOL    HW140028   2.311   2.370  15.771 -1.3810  0.1758 -0.6060
 9522SOL    HW240029   2.218   2.265  15.801 -1.0987 -0.0198  1.0763
 9523SOL     OW40030   3.588   1.067   8.741 -0.0154  0.4202  0.3645
 9523SOL    HW140031   3.522   1.049   8.674 -0.1761  2.9348 -0.1588
 9523SOL    HW240032   3.567   1.157   8.767 -0.5061  0.0516  1.2465
 9524SOL     OW40033   4.169   3.236  14.096 -0.0537 -0.2043  0.0605
 9524SOL    HW140034   4.076   3.233  14.114  0.0957 -4.0100  0.1578
 9524SOL    HW240035   4.201   3.252  14.185  0.2968 -2.5085  0.3303
 9525SOL     OW40036   1.338   2.930   5.367  0.0808  0.2247 -0.5368
 9525SOL    HW140037   1.253   2.917   5.326  0.4856 -1.2660 -0.8963
 9525SOL    HW240038   1.362   3.009   5.318  0.7020 -0.4764 -1.3655
 9526SOL     OW40039   2.236   2.440   1.178  0.0851  0.2219  0.7773
 9526SOL    HW140040   2.219   2.359   1.130 -0.2341  0.2286  0.8781
 9526SOL    HW240041   2.212   2.497   1.104 -1.8496 -0.3899  0.9220
 9527SOL     OW40042   0.100   1.713   5.257  0.0503  0.1327  0.6042
 9527SOL    HW140043   0.109   1.618   5.264  0.1173 -0.0113 -1.5391
 9527SOL    HW240044   0.013   1.716   5.218  0.0066 -1.4774  0.5494
 9528SOL     OW40045   4.238   3.766   2.626  0.0792  0.6125 -0.1533
 9528SOL    HW140046   4.156   3.807   2.654  0.8084  0.9613  1.4606
 9528SOL    HW240047   4.223   3.772   2.531 -0.3794  2.1543  0.0095
 9529SOL     OW40048   0.140   3.716   2.295  0.3436  0.0798  0.4684
 9529SOL    HW140049   0.076   3.668   2.243  1.4891 -0.0064 -0.8819
 9529SOL    HW240050   0.148   3.797   2.244  0.4913  0.4100  1.0242
 9530SOL     OW40051   4.533   2.084   6.176  0.5506  0.2999 -0.5846
 9530SOL    HW140052   4.471   2.011   6.175  0.1419  0.6467 -0.8296
 9530SOL    HW240053   4.610   2.037   6.146  0.9527  0.2225  0.5896
 9531SOL     OW40054   2.065   4.711   7.076 -0.0336 -0.2399  0.5083
 9531SOL    HW140055   2.043   4.666   7.158  0.5544  0.3678  1.0035
 9531SOL    HW240056   2.086   0.080   7.107 -1.7134 -0.1668  1.3879
 9532SOL     OW40057   1.969   3.983  16.181 -0.1410  0.4593 -0.7303
 9532SOL    HW140058   1.939   3.949  16.266 -0.9557 -0.4713 -1.3901
 9532SOL    HW240059   2.062   3.962  16.173 -0.7282 -2.0642 -1.1254
 9533SOL     OW40060   2.937   2.586  10.246 -1.0084 -0.0271 -0.0983
 9533SOL    HW140061   2.888   2.664  10.222 -0.9042 -0.4066 -1.5535
 9533SOL    HW240062   3.006   2.625  10.300  0.9651 -2.4411 -0.8956
 9534SOL     OW40063   0.732   0.273   8.417 -0.0879  0.1378 -0.3736
 9534SOL    HW140064   0.800   0.268   8.350  1.0956 -0.9167  0.9135
 9534SOL    HW240065   0.730   0.369   8.422 -2.4707  0.0233  0.9418
 9535SOL     OW40066   0.659   1.531   7.643 -0.2785  0.4133  0.2409
 9535SOL    HW140067   0.743   1.488   7.625  0.2620  0.8424  1.7189
 9535SOL    HW240068   0.692   1.550   7.731  0.0780 -0.9601  0.4039
 9536SOL     OW40069   4.123   1.291   2.711 -0.7823 -0.0059 -0.6231
 9536SOL    HW140070   4.213   1.292   2.679 -0.8014  4.4055 -0.5502
 9536SOL    HW240071   4.088   1.376   2.684 -3.0216 -0.1989  1.6833
 9537SOL     OW40072   2.010   1.542   3.334 -0.0869 -0.6715 -0.2516
 9537SOL    HW140073   1.990   1.601   3.261  0.1056  2.0580  1.8962
 9537SOL    HW240074   2.094   1.504   3.308  2.1711  3.9482  0.1365
 9538SOL     OW40075   4.140   3.349   1.060 -0.0222  0.0095 -0.4408
 9538SOL    HW140076   4.200   3.290   1.107  0.7046  2.5304  1.7630
 9538SOL    HW240077   4.109   3.401   1.133 -0.7057  0.8989 -1.3586
 9539SOL     OW40078   4.042   1.133   9.168  0.2384 -0.2937  0.2653
 9539SOL    HW140079   4.039   1.131   9.073  1.0876 -1.2952  0.2561
 9539SOL    HW240080   4.006   1.218   9.194 -1.7308 -0.1048 -3.1619
 9540SOL     OW40081   1.044   2.265   4.946 -0.3484 -0.2445 -0.8809
 9540SOL    HW140082   1.016   2.206   4.876 -0.7958 -0.6587 -0.3552
 9540SOL    HW240083   0.981   2.253   5.017  0.7510 -3.4984 -0.5002
 9541SOL     OW40084   0.446   1.258   6.623 -0.5268 -0.2090 -0.0240
 9541SOL    HW140085   0.369   1.313   6.636  1.0080  1.5268  1.8449
 9541SOL    HW240086   0.425   1.193   6.691  2.3024 -2.1191 -1.0065
 9542SOL     OW40087   2.346   1.421   4.206  0.2440 -0.0977 -0.2409
 9542SOL    HW140088   2.267   1.398   4.158  0.3346 -0.8724 -0.0237
 9542SOL    HW240089   2.395   1.479   4.148  2.1746 -1.4627 -0.0121
 9543SOL     OW40090   2.075   3.275  13.727  0.0329 -0.2255  0.3575
 9543SOL    HW140091   2.028   3.241  13.803 -1.9527  2.5161  0.3780
 9543SOL    HW240092   2.148   3.311  13.777  0.9813 -3.7099  1.4249
 9544SOL     OW40093   4.683   2.835  10.639  0.5975 -1.0375  0.1191
 9544SOL    HW140094   4.628   2.842  10.717  1.6041 -0.1701  0.7538
 9544SOL    HW240095   4.674   2.923  10.601  1.4077 -0.2324  1.8077
 9545SOL     OW40096   4.415   1.150   1.494 -0.6226  0.1767 -0.6213
 9545SOL    HW140097   4.423   1.225   1.435  0.5673 -0.0645 -0.7772
 9545SOL    HW240098   4.391   1.190   1.577  2.1576  1.7318 -0.5829
 9546SOL     OW40099   3.076   3.933  17.655  0.2991  0.9152 -0.1687
 9546SOL    HW140100   3.055   3.923  17.562 -1.7282 -1.3328  0.5431
 9546SOL    HW240101   3.010   3.998  17.679 -0.3607  0.7471 -1.5322
 9547SOL     OW40102   1.298   0.418  13.892 -0.2613  0.7133  0.1115
 9547SOL    HW140103   1.360   0.368  13.945  0.3101  1.9013  0.5739
 9547SOL    HW240104   1.335   0.403  13.805 -0.2291 -1.8327  0.5549
 9548SOL     OW40105   4.071   1.422   2.109  0.0381 -0.2516 -0.3575
 9548SOL    HW140106   4.154   1.467   2.096  0.1325 -0.9964 -2.3973
 9548SOL    HW240107   4.009   1.470   2.054  0.5909 -0.7289 -1.3974
 9549SOL     OW40108   1.954   4.075  11.579 -0.9067  0.0376 -0.1772
 9549SOL    HW140109   2.017   4.013  11.543 -1.2783  0.3526 -1.4060
 9549SOL    HW240110   1.991   4.163  11.575 -0.3472 -0.2410 -1.0687
 9550SOL     OW40111   0.092   0.963  16.688 -0.6202 -0.3217  0.4893
 9550SOL    HW140112   0.074   0.977  16.594 -1.1292 -0.4191  0.5726
 9550SOL    HW240113   0.035   1.032  16.723 -0.5975  0.2306 -0.5296
 9551SOL     OW40114   3.551   0.942  14.611 -0.1724 -0.0846  0.2351
 9551SOL    HW140115   3.607   0.867  14.592 -1.7154 -1.7534  2.2963
 9551SOL    HW240116   3.520   0.960  14.522 -2.5170  1.2897  1.3137
 9552SOL     OW40117   3.937   4.707   2.429 -0.1720  0.9181 -0.2320
 9552SOL    HW140118   3.941   4.642   2.358 -0.8535  0.2981  0.2960
 9552SOL    HW240119   3.952   0.072   2.387 -1.6095  0.7277 -1.1552
 9553SOL     OW40120   4.196   0.673  15.627  0.4729  0.3948  0.6140
 9553SOL    HW140121   4.111   0.716  15.620 -0.8410 -2.1674  0.6243
 9553SOL    HW240122   4.254   0.719  15.567 -0.1669  0.9495  0.4284
 9554SOL     OW40123   0.479   0.118   8.244  0.1685 -0.1164  0.0442
 9554SOL    HW140124   0.544   0.114   8.174  1.4088 -1.1509  1.2677
 9554SOL    HW240125   0.528   0.162   8.313 -1.7872  1.2645  0.5780
 9555SOL     OW40126   2.132   3.723  13.821 -0.3475  0.7367  0.6694
 9555SOL    HW140127   2.176   3.737  13.904 -0.2254 -1.2975  0.9549
 9555SOL    HW240128   2.185   3.667  13.764  1.7872  1.2823  2.1733
 9556SOL     OW40129   0.583   4.276   5.210 -0.6192  0.0638  0.5468
 9556SOL    HW140130   0.510   4.237   5.160 -0.0372 -0.6426  0.2485
 9556SOL    HW240131   0.652   4.210   5.209 -0.5975  0.0972 -0.9653
 9557SOL     OW40132   3.524   2.458   7.203 -0.4589 -0.2196  0.0120
 9557SOL    HW140133   3.483   2.544   7.198  1.2864  0.5696 -0.8814
 9557SOL    HW240134   3.452   2.398   7.221 -0.0309 -0.7022  0.1328
 9558SOL     OW40135   3.323   4.521   4.699 -0.2046  0.5143  0.2036
 9558SOL    HW140136   3.344   4.459   4.630 -0.9905 -0.5451  0.9055
 9558SOL    HW240137   3.402   4.529   4.752  0.0565  1.4900 -0.3287
 9559SOL     OW40138   0.447   2.082   4.878 -0.4131 -0.2405 -0.4781
 9559SOL    HW140139   0.404   2.097   4.794 -1.2867  0.0699  0.0164
 9559SOL    HW240140   0.398   2.009   4.917  2.1835 -1.1948  0.9581
 9560SOL     OW40141   3.413   4.293   0.072 -0.4758 -0.2717 -0.1538
 9560SOL    HW140142   3.371   4.275  17.669 -1.3453  1.7025 -0.1511
 9560SOL    HW240143   3.389   4.380   0.105  0.1559  0.0740 -0.6158
 9561SOL     OW40144   3.797   1.061  15.008  0.0378 -0.2753 -0.2065
 9561SOL    HW140145   3.791   1.055  14.912  1.5747 -0.5186 -0.2773
 9561SOL    HW240146   3.887   1.036  15.027 -0.3142 -0.4797  1.1596
 9562SOL     OW40147   4.040   4.108   5.762 -0.2506  0.0612  0.4221
 9562SOL    HW140148   4.129   4.142   5.768  0.2715 -1.7965  3.0007
 9562SOL    HW240149   3.985   4.172   5.716  0.3806 -0.0029 -0.4175
 9563SOL     OW40150   1.329   0.388   4.440 -0.2279 -0.3055 -0.4410
 9563SOL    HW140151   1.303   0.470   4.398 -1.4845 -0.1777  0.5997
 9563SOL    HW240152   1.243   0.346   4.432  1.0074 -3.2258  1.4618
 9564SOL     OW40153   2.847   3.874   7.241 -0.2965 -0.1312  0.0989
 9564SOL    HW140154   2.786   3.842   7.175 -1.9143 -2.3999  2.6915
 9564SOL    HW240155   2.835   3.816   7.316  1.0185  0.5711  0.8625
 9565SOL     OW40156   2.023   0.025   7.906 -0.2121 -0.2320 -0.0338
 9565SOL    HW140157   1.932   0.046   7.886 -0.4157 -0.9110  0.2119
 9565SOL    HW240158   2.028   0.051   7.998 -0.6578  1.4555 -0.4763
 9566SOL     OW40159   3.652   2.316  12.838  0.6267  0.1558 -0.1312
 9566SOL    HW140160   3.668   2.230  12.799 -0.3884 -0.6864  1.3312
 9566SOL    HW240161   3.706   2.325  12.916  0.8701  1.8786 -0.4970
 9567SOL     OW40162   2.776   4.025   3.665 -0.1503 -0.9098 -0.0143
 9567SOL    HW140163   2.694   3.977   3.663 -0.7486  0.1677 -0.9430
 9567SOL    HW240164   2.773   4.071   3.749 -0.2235 -0.3558 -0.3192
 9568SOL     OW40165   4.008   2.432   7.398  1.3169 -0.3490 -0.1073
 9568SOL    HW140166   4.019   2.344   7.432  0.1370 -0.3108  0.3839
 9568SOL    HW240167   4.007   2.412   7.305 -2.0845  0.0344 -0.1461
   4.71949   4.71949  17.68078
