Membrane in water
40167
    1TCq1    O1    1   2.119   0.144  12.203  0.2078  0.1698  0.3918
    1TCq1    C1    2   2.021   0.105  12.113 -0.5993  0.2241  0.1662
    1TCq1    O2    3   2.051   0.020  12.029  0.1073 -0.1415  0.3674
    1TCq1    C2    4   1.896   0.105  12.192  0.2147 -0.2136 -0.3108
    1TCq1    C3    5   1.894   0.189  12.300 -0.1775 -0.4614  0.2864
    1TCq1    C4    6   1.815   0.163  12.409  0.0699  0.1689 -0.0568
    1TCq1    C5    7   1.726   0.059  12.397  0.1573 -0.2439  0.0785
    1TCq1    C6    8   1.719   4.710  12.281  0.2958  0.5124 -0.3555
    1TCq1    C7    9   1.816   4.722  12.185  0.2188  0.2752 -0.1150
    1TCq1    C8   10   1.675   4.571  12.304  0.3583  0.5476 -0.4169
    1TCq1    O4   11   1.574   4.558  12.374  0.2028  0.1174  0.7017
    1TCq1    C9   12   1.807   0.266  12.513 -0.1972  0.4434  0.0930
    1TCq1    O5   13   1.912   0.339  12.521 -0.3107  0.5004 -0.2830
    1TCq1    O6   14   1.716   0.256  12.596 -0.0551 -0.1899 -0.4507
    1TCq1    H1   15   2.092   0.204  12.276 -0.1872  0.9265 -0.3744
    1TCq1    H2   16   1.948   0.283  12.294 -3.2454  1.2819 -0.1053
    1TCq1    H3   17   1.655   0.029  12.474  0.1684  2.7264  1.2504
    1TCq1    H4   18   1.804   4.662  12.095 -1.4047 -0.3108  0.5053
    2MPD2     C   19   1.715   4.060  12.272  0.1450 -0.0531 -0.6350
    2MPD2    C1   20   1.619   4.144  12.322 -0.4320 -0.1761  0.6730
    2MPD2    C2   21   1.627   4.278  12.316 -0.0469  0.5469  0.3621
    2MPD2    C3   22   1.745   4.334  12.267 -0.7435 -0.0249 -0.3425
    2MPD2    C4   23   1.853   4.252  12.229 -0.2303  0.2509 -0.3079
    2MPD2    C5   24   1.838   4.116  12.235 -0.1253  0.1348 -0.4388
    2MPD2     H   25   1.543   4.336  12.351  0.5627  1.9943 -0.6109
    2MPD2    H1   26   1.955   4.278  12.200 -0.1395  1.0397  0.7338
    2MPD2    H2   27   1.716   3.952  12.280 -1.2363  0.0463  0.8435
    2MPD2    H3   28   1.921   4.056  12.202 -0.7402 -0.7305 -0.4185
    2MPD2     N   29   1.762   4.476  12.254  0.1075  0.0230 -0.5559
    2MPD2    H5   30   1.852   4.502  12.213 -0.8327 -0.0153 -2.6360
    2MPD2    N1   31   1.486   4.107  12.350 -0.5613  0.2116 -0.5467
    2MPD2    H7   32   1.412   4.170  12.378 -1.2785 -1.1039  0.4987
    3TCq1    O1   33   0.533   0.983  10.262  0.0102  0.0890 -0.0399
    3TCq1    C1   34   0.446   1.078  10.219  0.1977 -0.2883 -0.4585
    3TCq1    O2   35   0.426   1.089  10.100  0.1434  0.7280  0.1329
    3TCq1    C2   36   0.466   1.193  10.302 -0.6459  0.5364 -0.8191
    3TCq1    C3   37   0.504   1.313  10.249 -0.3221  0.2717  0.2544
    3TCq1    C4   38   0.554   1.405  10.338  0.7398  0.1408  0.0137
    3TCq1    C5   39   0.551   1.392  10.470 -0.1292  0.7955  0.5707
    3TCq1    C6   40   0.508   1.271  10.518  0.4059  0.1799  0.4214
    3TCq1    C7   41   0.465   1.170  10.438 -0.3186  0.7604  0.2569
    3TCq1    C8   42   0.560   1.232  10.654  0.5064  0.3832  0.3256
    3TCq1    O4   43   0.574   1.112  10.679  0.9527  0.3244 -0.2132
    3TCq1    C9   44   0.608   1.534  10.287 -0.4157  0.1666 -0.1568
    3TCq1    O5   45   0.639   1.535  10.165  0.2229  0.0252  0.1518
    3TCq1    O6   46   0.626   1.631  10.369  0.1918  0.4421  0.9323
    3TCq1    H1   47   0.582   1.001  10.345  0.6905 -3.0269  0.2046
    3TCq1    H2   48   0.499   1.340  10.144  2.6947 -1.6452 -0.3796
    3TCq1    H3   49   0.601   1.473  10.522  1.8006 -1.5227  2.3268
    3TCq1    H4   50   0.461   1.068  10.473 -2.5268  0.2281 -1.5335
    4MPD2     C   51   0.666   1.351  11.140  0.2164 -0.0328  0.5125
    4MPD2    C1   52   0.629   1.467  11.076  0.1134  1.0609 -0.2428
    4MPD2    C2   53   0.603   1.460  10.939 -0.8176 -0.7923  0.6541
    4MPD2    C3   54   0.595   1.341  10.877 -0.4257  0.0167 -0.3501
    4MPD2    C4   55   0.631   1.221  10.945  0.1008 -0.5826  0.1061
    4MPD2    C5   56   0.669   1.232  11.077  0.8290 -0.3127  0.6902
    4MPD2     H   57   0.573   1.554  10.895  2.4465 -0.2401 -0.3772
    4MPD2    H1   58   0.642   1.122  10.902  1.4975 -0.5620  0.4009
    4MPD2    H2   59   0.679   1.350  11.248 -1.1250 -1.5680  0.6465
    4MPD2    H3   60   0.702   1.145  11.134 -2.6293 -2.1941 -0.1492
    4MPD2     N   61   0.561   1.340  10.733 -0.4913  0.0901 -0.1047
    4MPD2    H5   62   0.546   1.426  10.681  2.2751 -1.0434 -2.7442
    4MPD2    N1   63   0.624   1.593  11.140 -0.0037 -0.2414 -0.0228
    4MPD2    H7   64   0.629   1.676  11.082 -1.3459  0.7804  1.3117
    5TCq1    O1   65   0.830   2.974  10.781 -0.6228 -0.2146  0.6592
    5TCq1    C1   66   0.824   2.988  10.919  0.1201 -0.2301 -0.3178
    5TCq1    O2   67   0.777   3.093  10.973  0.9377  0.0752  0.1065
    5TCq1    C2   68   0.828   2.848  10.970  0.5327 -1.0230  0.3426
    5TCq1    C3   69   0.749   2.812  11.075  0.0555 -0.0615 -0.4299
    5TCq1    C4   70   0.740   2.684  11.115  0.5712 -0.0202 -0.6088
    5TCq1    C5   71   0.813   2.586  11.049 -0.1118  0.0750  0.1500
    5TCq1    C6   72   0.891   2.623  10.943  0.4078  0.0647 -0.2753
    5TCq1    C7   73   0.900   2.756  10.900 -0.5533 -0.5003 -0.0670
    5TCq1    C8   74   0.960   2.515  10.875 -0.3232  0.3414 -0.8090
    5TCq1    O4   75   0.962   2.407  10.927  0.0060  0.1700  0.1584
    5TCq1    C9   76   0.674   2.652  11.238  0.1991 -0.3944 -0.3333
    5TCq1    O5   77   0.640   2.755  11.301  0.3268 -0.0561  0.1304
    5TCq1    O6   78   0.678   2.534  11.286  0.1526  0.1177  0.5655
    5TCq1    H1   79   0.863   2.893  10.736 -2.3705 -0.2890 -0.4913
    5TCq1    H2   80   0.684   2.884  11.125  1.0778 -0.5173  1.5241
    5TCq1    H3   81   0.802   2.483  11.079 -1.8829  1.3280  3.7651
    5TCq1    H4   82   0.972   2.780  10.824 -1.9176  2.2428 -0.5159
    6MPD2     C   83   1.166   2.571  10.578  0.1474 -0.0471 -0.7199
    6MPD2    C1   84   1.092   2.498  10.672 -0.1584  0.4202  0.4808
    6MPD2    C2   85   1.099   2.357  10.674  0.0426 -0.5899  0.0627
    6MPD2    C3   86   1.175   2.291  10.576 -0.0635  0.2759  0.3982
    6MPD2    C4   87   1.231   2.363  10.479 -0.3994 -1.0988 -0.0773
    6MPD2    C5   88   1.229   2.499  10.484  0.3655  0.8931  0.2433
    6MPD2     H   89   1.043   2.294  10.742 -0.0866  2.6226  2.9885
    6MPD2    H1   90   1.288   2.317  10.399  2.7004 -0.1650  1.5928
    6MPD2    H2   91   1.162   2.679  10.571 -1.1785 -0.0460 -0.0686
    6MPD2    H3   92   1.298   2.551  10.419  0.3499 -1.0482 -1.3344
    6MPD2     N   93   1.191   2.152  10.592  0.0477 -0.1501 -0.3437
    6MPD2    H5   94   1.157   2.121  10.682 -1.9525  1.6938 -0.4389
    6MPD2    N1   95   1.016   2.565  10.763 -0.1775  0.1619 -1.1143
    6MPD2    H7   96   1.012   2.665  10.746 -3.5089  0.3052  0.5062
    7TCq1    O1   97   3.844   2.057  12.702 -0.1007 -0.2101  0.2426
    7TCq1    C1   98   3.813   1.948  12.772  0.0316 -0.3508 -0.2233
    7TCq1    O2   99   3.831   1.837  12.725  0.2556 -0.2242  0.0373
    7TCq1    C2  100   3.711   1.989  12.866 -0.1307 -0.1816 -0.4050
    7TCq1    C3  101   3.651   2.113  12.869 -0.7004  0.5053  0.0738
    7TCq1    C4  102   3.538   2.128  12.937  0.5617 -0.3524 -0.2508
    7TCq1    C5  103   3.498   2.030  13.024 -0.4648 -0.7844  0.3690
    7TCq1    C6  104   3.563   1.911  13.032 -0.9017  0.1870 -0.1687
    7TCq1    C7  105   3.671   1.886  12.950 -0.0053  1.2310  0.2297
    7TCq1    C8  106   3.538   1.819  13.143 -0.1224  0.1691 -0.8551
    7TCq1    O4  107   3.578   1.705  13.132 -0.4010 -0.5116 -0.5186
    7TCq1    C9  108   3.483   2.262  12.937 -0.0112 -0.3775  0.4046
    7TCq1    O5  109   3.554   2.345  12.876  0.1455  0.1090  0.3576
    7TCq1    O6  110   3.370   2.274  12.997 -0.2548  0.1954 -0.3069
    7TCq1    H1  111   3.858   2.126  12.770  0.0955  2.0338 -2.0576
    7TCq1    H2  112   3.673   2.192  12.799  0.7178  0.3022  0.2865
    7TCq1    H3  113   3.405   2.033  13.079 -0.5151  1.2126  0.1883
    7TCq1    H4  114   3.728   1.794  12.953  0.5860  1.6232  0.9121
    8MPD2     C  115   3.468   1.733  13.647  0.0861 -0.3351 -0.0245
    8MPD2    C1  116   3.464   1.642  13.541  0.0518 -0.0646  0.1577
    8MPD2    C2  117   3.468   1.681  13.408 -0.1021 -0.0476  1.0102
    8MPD2    C3  118   3.476   1.821  13.386 -0.2915 -0.5779  0.3379
    8MPD2    C4  119   3.464   1.904  13.493  0.4346 -0.2105  0.4456
    8MPD2    C5  120   3.456   1.866  13.623  0.1990 -0.4830  0.9697
    8MPD2     H  121   3.480   1.611  13.326  0.6117 -1.1857  2.0681
    8MPD2    H1  122   3.447   2.009  13.472 -0.2440 -0.5675 -0.7908
    8MPD2    H2  123   3.488   1.703  13.750 -0.8504  0.8168  0.4874
    8MPD2    H3  124   3.463   1.934  13.706 -3.1909  2.4332 -1.1358
    8MPD2     N  125   3.486   1.878  13.259  0.2235 -0.4209 -0.4817
    8MPD2    H5  126   3.499   1.978  13.255  0.1863 -0.4336 -0.9125
    8MPD2    N1  127   3.473   1.511  13.583  0.7560 -0.5705  0.4759
    8MPD2    H7  128   3.474   1.495  13.683  0.9041 -0.1307  0.5478
    9TCq1    O1  129   1.055   0.570  10.612 -0.5024  0.5036  0.4255
    9TCq1    C1  130   1.159   0.606  10.537  0.3490  0.5530 -0.1394
    9TCq1    O2  131   1.169   0.681  10.438  0.6698 -0.5881  0.1018
    9TCq1    C2  132   1.273   0.521  10.568  0.2106 -0.1564 -0.8097
    9TCq1    C3  133   1.357   0.484  10.465 -0.1206  0.6217  0.3044
    9TCq1    C4  134   1.479   0.437  10.485 -0.2871  0.0289  0.1387
    9TCq1    C5  135   1.505   0.394  10.617  0.3545 -0.3654 -0.0316
    9TCq1    C6  136   1.413   0.420  10.721 -0.1100  0.7055 -0.5291
    9TCq1    C7  137   1.301   0.492  10.698 -0.5699 -0.3580 -0.4181
    9TCq1    C8  138   1.458   0.405  10.854 -0.2064 -0.3720  0.2976
    9TCq1    O4  139   1.575   0.369  10.871 -0.5785 -0.2255  0.2054
    9TCq1    C9  140   1.573   0.416  10.381  0.2701 -0.4571 -0.0740
    9TCq1    O5  141   1.684   0.366  10.417  0.1835 -0.1630 -0.2448
    9TCq1    O6  142   1.544   0.454  10.261  0.1862  0.4395  0.2330
    9TCq1    H1  143   1.073   0.501  10.680 -1.2727 -0.4027 -0.2923
    9TCq1    H2  144   1.332   0.526  10.368  1.7096  1.1667  0.0695
    9TCq1    H3  145   1.591   0.329  10.633 -0.1285 -1.2415 -0.9483
    9TCq1    H4  146   1.230   0.524  10.772  0.1239  0.3412 -0.0514
   10MPD2     C  147   1.490   0.448  11.149 -0.4695 -0.0358 -0.4528
   10MPD2    C1  148   1.370   0.417  11.086 -0.8752 -0.5900  0.3722
   10MPD2    C2  149   1.271   0.356  11.166  0.2016  0.1110  0.2114
   10MPD2    C3  150   1.279   0.338  11.301  0.3233 -0.5892  0.4910
   10MPD2    C4  151   1.389   0.398  11.361  0.2126  0.2823  0.1877
   10MPD2    C5  152   1.496   0.440  11.291  0.8350  0.5679  0.3416
   10MPD2     H  153   1.173   0.332  11.127  2.5701 -2.1285 -4.3606
   10MPD2    H1  154   1.399   0.409  11.468 -3.5394  0.3206  0.5352
   10MPD2    H2  155   1.576   0.481  11.092  1.9106 -1.9241  2.0015
   10MPD2    H3  156   1.589   0.462  11.341  0.1045 -0.1794  2.0274
   10MPD2     N  157   1.179   0.290  11.388  0.0793  0.0651  0.0417
   10MPD2    H5  158   1.195   0.303  11.487  0.9204 -1.7678  0.1450
   10MPD2    N1  159   1.354   0.406  10.947  0.0894 -0.6911 -0.1845
   10MPD2    H7  160   1.265   0.374  10.909  1.4012 -2.5728 -1.7086
   11TCq1    O1  161   2.735   0.956  14.584 -0.0442  0.8657 -0.1798
   11TCq1    C1  162   2.659   1.070  14.598  0.9072  0.6662  0.1744
   11TCq1    O2  163   2.639   1.123  14.705  0.1900  0.0293 -0.2599
   11TCq1    C2  164   2.563   1.060  14.496 -0.1037 -0.1996  0.5972
   11TCq1    C3  165   2.584   1.070  14.362  0.1443 -0.0925 -0.4165
   11TCq1    C4  166   2.484   1.051  14.270 -1.0344 -0.1881 -0.1980
   11TCq1    C5  167   2.362   1.011  14.315  0.3487 -0.2162 -0.4370
   11TCq1    C6  168   2.337   1.002  14.450 -0.0210 -0.1212 -0.0595
   11TCq1    C7  169   2.437   1.029  14.536 -0.7565  0.2613  0.0663
   11TCq1    C8  170   2.222   0.929  14.501  0.5167 -0.1302 -0.2230
   11TCq1    O4  171   2.203   0.943  14.618 -0.8111 -0.2909  0.0453
   11TCq1    C9  172   2.508   1.051  14.126  0.4588 -0.3473 -0.8140
   11TCq1    O5  173   2.625   1.083  14.095  0.1945  0.3259 -0.3391
   11TCq1    O6  174   2.428   0.984  14.055  0.3343  0.4121 -0.0810
   11TCq1    H1  175   2.716   0.919  14.495  1.3691 -2.1063  0.7345
   11TCq1    H2  176   2.686   1.067  14.325 -0.0045  1.4893 -0.9168
   11TCq1    H3  177   2.291   0.970  14.244  0.9683 -1.4951 -0.3142
   11TCq1    H4  178   2.416   1.008  14.641  1.3994 -0.6300  0.3169
   12MPD2     C  179   1.960   0.786  14.520 -0.4821 -0.1234 -0.2341
   12MPD2    C1  180   2.056   0.763  14.420  0.7904 -0.4423  0.0576
   12MPD2    C2  181   2.022   0.679  14.317  0.1726  0.1905  0.0818
   12MPD2    C3  182   1.902   0.600  14.318  1.0629  0.4943  0.3095
   12MPD2    C4  183   1.816   0.620  14.426 -0.5051  0.4139  0.5101
   12MPD2    C5  184   1.842   0.717  14.514 -0.0522 -0.3929  0.9166
   12MPD2     H  185   2.097   0.653  14.244 -0.2316  0.0699 -0.2898
   12MPD2    H1  186   1.717   0.575  14.433  0.6458 -2.1544  0.4268
   12MPD2    H2  187   1.979   0.851  14.605  0.0283  0.2506 -0.6370
   12MPD2    H3  188   1.769   0.734  14.593  0.7522  1.4630  1.2555
   12MPD2     N  189   1.873   0.510  14.217 -0.3951 -0.5057 -0.5997
   12MPD2    H5  190   1.939   0.493  14.142  1.1874  0.4644  0.5595
   12MPD2    N1  191   2.174   0.837  14.409  0.0960 -0.2323 -0.8781
   12MPD2    H7  192   2.223   0.827  14.320 -0.7877  0.9531 -1.5161
   13TCq1    O1  193   1.276   0.087  10.271  0.5445 -0.1388  0.0332
   13TCq1    C1  194   1.268   0.096  10.402  0.2560 -0.4439  0.3488
   13TCq1    O2  195   1.357   0.080  10.485  0.7464  0.8203  0.4357
   13TCq1    C2  196   1.136   0.129  10.440  0.5292 -0.5141  0.1436
   13TCq1    C3  197   1.028   0.072  10.376  0.5949 -0.8425  0.1707
   13TCq1    C4  198   0.908   0.089  10.438 -0.0553 -0.0696  0.0361
   13TCq1    C5  199   0.893   0.163  10.554 -0.1231  0.5857  0.4339
   13TCq1    C6  200   1.005   0.206  10.614 -0.6394 -0.5296  0.8531
   13TCq1    C7  201   1.130   0.195  10.553  0.7057  0.3009  0.0656
   13TCq1    C8  202   0.982   0.279  10.742 -0.0776  0.4090 -0.3554
   13TCq1    O4  203   1.084   0.331  10.784  0.1240  0.1771  0.1611
   13TCq1    C9  204   0.793   0.022  10.379  0.0970  0.0588  0.5681
   13TCq1    O5  205   0.679   0.056  10.416  0.8653 -0.3038 -0.0663
   13TCq1    O6  206   0.815   4.677  10.279 -0.2983  0.0650 -0.1840
   13TCq1    H1  207   1.206   0.132  10.220 -1.0928 -1.2762  1.2928
   13TCq1    H2  208   1.038   0.020  10.281 -0.3915 -1.2095  0.2699
   13TCq1    H3  209   0.795   0.183  10.596  0.4136  1.7786  1.1181
   13TCq1    H4  210   1.219   0.210  10.612  1.7697  2.1502 -1.9952
   14MPD2     C  211   0.692   0.265  10.974 -1.2351 -0.3603 -0.0434
   14MPD2    C1  212   0.816   0.302  10.930  0.0864  0.7901  0.1444
   14MPD2    C2  213   0.898   0.382  11.011 -0.0243 -0.0516 -0.6655
   14MPD2    C3  214   0.852   0.433  11.130  0.1781 -0.2567 -0.5551
   14MPD2    C4  215   0.723   0.387  11.170  0.2407  0.4373  0.0315
   14MPD2    C5  216   0.646   0.309  11.093  0.3534  0.2773  0.2793
   14MPD2     H  217   1.000   0.406  10.981  0.0209  0.9781  0.3038
   14MPD2    H1  218   0.683   0.405  11.269 -0.1005 -0.1576 -0.0032
   14MPD2    H2  219   0.622   0.212  10.910  0.1517 -1.2093 -0.8343
   14MPD2    H3  220   0.550   0.271  11.126  0.7240 -0.1026  0.9290
   14MPD2     N  221   0.948   0.509  11.207 -0.0722 -0.1532  0.2927
   14MPD2    H5  222   1.039   0.526  11.166  0.2270  1.2610  1.5330
   14MPD2    N1  223   0.865   0.255  10.805  0.3820  0.0115  0.1156
   14MPD2    H7  224   0.796   0.200  10.754  0.6916 -0.8638  0.6496
   15TCq1    O1  225   1.695   4.537   1.755 -0.2876 -1.3400  0.1001
   15TCq1    C1  226   1.816   4.473   1.751  0.3213  0.2310 -0.1964
   15TCq1    O2  227   1.828   4.360   1.804  0.5547 -0.1743 -0.0262
   15TCq1    C2  228   1.927   4.562   1.712  0.0702  0.6950 -0.1068
   15TCq1    C3  229   1.918   4.703   1.726 -0.5030 -0.3822 -0.2593
   15TCq1    C4  230   2.033   0.054   1.701 -0.2666 -0.9195  0.1056
   15TCq1    C5  231   2.151   4.722   1.674  0.8514  0.4852 -0.5019
   15TCq1    C6  232   2.162   4.588   1.671  0.5379  0.3568 -0.9147
   15TCq1    C7  233   2.051   4.508   1.687 -0.2201  0.0724  0.6174
   15TCq1    C8  234   2.265   4.528   1.600  0.4354 -0.1923 -0.0838
   15TCq1    O4  235   2.304   4.418   1.637  0.2808 -0.0272 -0.2273
   15TCq1    C9  236   2.023   0.201   1.722  0.5794 -0.0385  0.6875
   15TCq1    O5  237   2.125   0.274   1.716 -0.0588 -0.1066 -0.8149
   15TCq1    O6  238   1.924   0.237   1.790 -0.0560  0.0473 -0.6342
   15TCq1    H1  239   1.700   4.610   1.690  0.0341 -1.4434  0.0026
   15TCq1    H2  240   1.831   0.024   1.770 -1.5308 -3.4128  0.9702
   15TCq1    H3  241   2.236   0.062   1.668  1.7935 -0.6410  0.3195
   15TCq1    H4  242   2.062   4.400   1.698 -2.7095 -0.2305  0.0500
   16MPD2     C  243   2.372   4.666   1.277 -0.3884  0.0345 -0.6661
   16MPD2    C1  244   2.361   4.565   1.378 -0.1682  0.1474 -0.3071
   16MPD2    C2  245   2.424   4.447   1.367 -0.4673  0.0089  0.4183
   16MPD2    C3  246   2.492   4.414   1.248  0.0367 -0.4582 -0.6015
   16MPD2    C4  247   2.485   4.500   1.142 -0.0707  0.1913  0.7648
   16MPD2    C5  248   2.438   4.632   1.155  0.3270  1.2416 -0.2511
   16MPD2     H  249   2.433   4.377   1.449 -1.6627 -2.3275 -1.4318
   16MPD2    H1  250   2.518   4.475   1.042  2.3157  0.1952  1.5346
   16MPD2    H2  251   2.340   0.042   1.278 -0.1453  0.1242 -2.7000
   16MPD2    H3  252   2.439   4.704   1.074  2.3228  0.1270 -1.2259
   16MPD2     N  253   2.551   4.285   1.237  0.4474  0.6025 -0.1961
   16MPD2    H5  254   2.568   4.233   1.322  2.2489  4.0464  1.5301
   16MPD2    N1  255   2.285   4.608   1.491 -0.3066  0.0814  0.6739
   16MPD2    H7  256   2.242   4.699   1.479  0.2302  0.4108  1.1959
   17TCq1    O1  257   1.907   0.037  11.668  0.1294 -0.4030 -0.2476
   17TCq1    C1  258   1.883   4.662  11.584 -0.0699 -0.2177 -0.1347
   17TCq1    O2  259   1.783   4.593  11.592  0.4863 -0.1603 -0.1406
   17TCq1    C2  260   1.928   4.722  11.460  0.3142 -0.8516 -0.0919
   17TCq1    C3  261   1.834   4.726  11.362 -0.4555  0.7069 -0.3396
   17TCq1    C4  262   1.863   0.068  11.241 -0.3074  0.5267  0.1419
   17TCq1    C5  263   1.987   0.125  11.229 -0.2030  0.1964 -0.3500
   17TCq1    C6  264   2.071   0.135  11.336  0.5679 -0.3733 -1.1249
   17TCq1    C7  265   2.045   0.070  11.453 -0.7206 -0.3334 -0.0674
   17TCq1    C8  266   2.198   0.206  11.332 -0.2275 -0.3730  0.1433
   17TCq1    O4  267   2.249   0.227  11.444  0.2937  0.4518  0.2337
   17TCq1    C9  268   1.754   0.080  11.145 -0.1317 -0.1518 -0.6999
   17TCq1    O5  269   1.769   0.151  11.038 -0.5628 -0.0616  0.1006
   17TCq1    O6  270   1.638   0.064  11.191 -0.3620 -0.2683  0.2093
   17TCq1    H1  271   1.970   0.108  11.645 -0.1256 -0.2195 -0.3819
   17TCq1    H2  272   1.733   4.689  11.380 -0.4004  0.6394 -0.1784
   17TCq1    H3  273   2.009   0.176  11.136  2.5150 -0.9858 -0.3577
   17TCq1    H4  274   2.119   0.047  11.529  0.0779  0.8535 -0.4896
   18MPD2     C  275   2.459   0.332  11.271 -0.3112  0.2243 -0.6404
   18MPD2    C1  276   2.369   0.286  11.177 -0.6906 -0.1826 -0.0339
   18MPD2    C2  277   2.413   0.295  11.046 -0.1510  0.6735  0.2031
   18MPD2    C3  278   2.532   0.347  11.010  0.1025 -0.1959 -0.5434
   18MPD2    C4  279   2.613   0.397  11.110  0.7461  0.5729 -0.6569
   18MPD2    C5  280   2.578   0.386  11.236  0.0477 -0.1606  0.1335
   18MPD2     H  281   2.350   0.242  10.975  0.2619 -0.4875  0.7038
   18MPD2    H1  282   2.706   0.443  11.076  1.9356 -1.1281  0.3243
   18MPD2    H2  283   2.434   0.350  11.375 -3.4414 -1.6910 -1.0670
   18MPD2    H3  284   2.646   0.427  11.310  0.7011 -1.7472  0.4198
   18MPD2     N  285   2.576   0.361  10.876 -0.0307 -0.1991  0.0590
   18MPD2    H5  286   2.662   0.414  10.864 -1.2789  1.4070 -1.6742
   18MPD2    N1  287   2.243   0.227  11.203  0.3002 -0.5773  0.0509
   18MPD2    H7  288   2.192   0.180  11.129  0.8688 -2.4890  0.8503
   19TMC2    C1  289   3.159   0.237  13.772 -0.3989 -0.0395 -0.6870
   19TMC2    C2  290   3.087   0.253  13.656  0.2337 -0.1171  0.1489
   19TMC2    C3  291   2.962   0.200  13.652 -0.1871  0.5973  0.3544
   19TMC2    C4  292   3.100   0.181  13.885  0.2852  0.1338 -0.0970
   19TMC2    C5  293   2.971   0.132  13.880 -0.2343 -0.0627 -0.2089
   19TMC2    C6  294   2.901   0.139  13.759  0.3821  0.2059  0.6557
   19TMC2     C  295   3.292   0.289  13.771 -0.5256  0.4878 -0.8621
   19TMC2     O  296   3.315   0.385  13.702 -0.3691  0.4423 -1.0117
   19TMC2     H  297   3.140   0.284  13.567 -2.0132  1.7168 -0.5245
   19TMC2    H1  298   3.145   0.207  13.980  1.5721 -1.2262 -0.3442
   19TMC2    H2  299   2.801   0.100  13.749  0.2952 -0.1559  2.8152
   19TMC2    C7  300   2.916   0.061  13.998 -0.4756  0.3058 -0.2760
   19TMC2    C8  301   2.889   0.232  13.535 -0.1040 -0.4227  0.1100
   19TMC2    O1  302   2.801   0.012  13.995 -0.4480 -0.3672  0.8447
   19TMC2    O2  303   2.788   0.169  13.511 -0.5363 -0.2904  0.0184
   19TMC2    O5  304   2.906   0.365  13.515  0.1364 -0.1427 -0.0939
   19TMC2    H5  305   2.977   0.402  13.571  1.9548 -0.7156 -2.0043
   20MPD2     C  306   3.581   0.352  13.803 -0.1267 -0.2382  0.0911
   20MPD2    C1  307   3.505   0.287  13.897 -0.3165 -0.5683 -1.2386
   20MPD2    C2  308   3.569   0.247  14.013  0.3556  0.1117 -0.7741
   20MPD2    C3  309   3.700   0.289  14.050  0.4700 -0.0157 -0.4356
   20MPD2    C4  310   3.764   0.372  13.960  0.3200  0.5008  0.0756
   20MPD2    C5  311   3.703   0.396  13.839  0.0097 -0.0458 -0.0151
   20MPD2     H  312   3.506   0.192  14.083 -0.0910  2.6666  0.8247
   20MPD2    H1  313   3.853   0.431  13.978  2.0910 -2.5597  1.3563
   20MPD2    H2  314   3.546   0.397  13.711 -1.4246 -0.9681  0.2243
   20MPD2    H3  315   3.746   0.468  13.769  0.5646 -0.2505  0.1113
   20MPD2     N  316   3.759   0.270  14.179 -0.3702 -0.3962 -0.6690
   20MPD2    H5  317   3.843   0.323  14.196 -0.2956 -1.0932  1.1667
   20MPD2    N1  318   3.369   0.249  13.878  0.6954 -0.1266 -0.5826
   20MPD2    H7  319   3.339   0.179  13.945  0.0979  0.6644 -0.0317
   21MPD2     C  320   0.797   0.960  14.226 -0.6076  0.4659  0.3109
   21MPD2    C1  321   0.830   0.837  14.281 -0.3860 -0.2484 -0.1990
   21MPD2    C2  322   0.741   0.781  14.372  0.6619 -0.5955  0.0662
   21MPD2    C3  323   0.631   0.851  14.424 -0.2899  0.5162 -0.5369
   21MPD2    C4  324   0.604   0.979  14.376 -0.6949 -0.0760  0.2174
   21MPD2    C5  325   0.688   1.028  14.274 -0.2181  0.9560  0.0782
   21MPD2     H  326   0.774   0.691  14.422  0.5344  0.0906  1.4115
   21MPD2    H1  327   0.525   1.042  14.415 -0.7907 -0.0617  0.0037
   21MPD2    H2  328   0.855   1.012  14.150  1.7088 -2.7303 -0.1071
   21MPD2    H3  329   0.666   1.123  14.228 -2.7510  0.4403  0.2370
   21MPD2     N  330   0.547   0.805  14.528 -0.1134  0.1877  0.3158
   21MPD2    H5  331   0.490   0.879  14.567 -0.0047  0.3046  0.2489
   21MPD2    N1  332   0.939   0.762  14.253 -0.0010  0.4360 -0.0752
   21MPD2    H7  333   0.933   0.671  14.297  2.1002 -0.1355 -0.9904
   22TCq2    C1  334   0.561   0.686  14.594  0.1412  0.1401  0.4489
   22TCq2    O2  335   0.609   0.576  14.555 -0.2128 -0.1068  0.0354
   22TCq2    C2  336   0.506   0.687  14.728  0.0658 -0.0957 -0.6917
   22TCq2    C3  337   0.524   0.580  14.804  0.6439 -0.8050 -0.7205
   22TCq2    C4  338   0.448   0.566  14.917  0.6313 -0.0508 -0.0187
   22TCq2    C5  339   0.363   0.669  14.954  0.5340 -0.2566 -0.8859
   22TCq2    C6  340   0.357   0.783  14.882 -0.4411  0.0587 -0.0102
   22TCq2    C7  341   0.428   0.789  14.769 -0.1370 -0.3553  0.0604
   22TCq2    C8  342   0.278   0.896  14.926  1.0235 -0.6368 -0.2744
   22TCq2    O4  343   0.261   0.898  15.045 -0.7576  0.2132  0.6272
   22TCq2    C9  344   0.467   0.447  14.994  0.0872 -0.1226  0.1033
   22TCq2    O5  345   0.390   0.422  15.092  0.2196  0.0409  0.1623
   22TCq2    O6  346   0.566   0.370  14.969  0.0181 -0.1291  0.2588
   22TCq2    H2  347   0.598   0.505  14.781  0.1320 -0.9854 -1.7914
   22TCq2    H3  348   0.317   0.664  15.052 -0.1195 -1.9437 -1.2857
   22TCq2    H4  349   0.433   0.885  14.719 -0.1954  0.4478  1.6092
   23MPD2     C  350   2.604   1.535  14.796 -0.2670  0.1418  0.0556
   23MPD2    C1  351   2.528   1.594  14.893 -0.4193  0.2853  0.1360
   23MPD2    C2  352   2.429   1.680  14.863  0.5921 -0.1128 -0.6034
   23MPD2    C3  353   2.409   1.716  14.727 -0.7466 -0.8496 -0.4486
   23MPD2    C4  354   2.484   1.647  14.639  0.2822  0.2853  0.1312
   23MPD2    C5  355   2.588   1.568  14.667  0.1756  0.4573 -0.5904
   23MPD2     H  356   2.370   1.726  14.942  2.4051  1.7269 -0.2915
   23MPD2    H1  357   2.474   1.667  14.533 -1.5670  0.5578  0.3547
   23MPD2    H2  358   2.686   1.466  14.817 -2.0304 -1.8129  0.4727
   23MPD2    H3  359   2.654   1.524  14.594 -0.6422 -0.2008 -0.9357
   23MPD2     N  360   2.311   1.809  14.682 -0.1251 -0.8356  0.3892
   23MPD2    H5  361   2.292   1.825  14.584  0.7805  1.7213  0.6386
   23MPD2    N1  362   2.555   1.572  15.028 -0.2368  0.4045 -0.4524
   23MPD2    H7  363   2.505   1.629  15.097  0.9513  0.1394  0.6216
   24TCq2    C1  364   2.254   1.911  14.765 -0.7415 -0.6598 -0.6505
   24TCq2    O2  365   2.278   1.930  14.883 -0.3186  0.3976 -0.6092
   24TCq2    C2  366   2.144   1.986  14.715 -1.1518  0.4717  0.7364
   24TCq2    C3  367   2.112   2.093  14.789  0.3939  0.8441 -0.4850
   24TCq2    C4  368   1.999   2.160  14.751  0.2861 -0.1578  0.4652
   24TCq2    C5  369   1.923   2.129  14.639 -0.0253 -0.4496 -0.1574
   24TCq2    C6  370   1.966   2.018  14.572  0.3353  0.3701  0.1265
   24TCq2    C7  371   2.079   1.951  14.602  0.6375  0.1256 -0.8601
   24TCq2    C8  372   1.886   1.956  14.466  0.4692 -0.5316 -0.1123
   24TCq2    O4  373   1.942   1.894  14.374  0.0688 -0.3495 -0.1797
   24TCq2    C9  374   1.951   2.265  14.837 -0.2262  0.0043  0.3394
   24TCq2    O5  375   1.840   2.316  14.811 -0.1939  0.3781  0.3256
   24TCq2    O6  376   2.017   2.296  14.941 -0.7449 -0.0438 -0.2168
   24TCq2    H2  377   2.161   2.126  14.880  0.7910 -1.4916  0.1457
   24TCq2    H3  378   1.831   2.181  14.615  2.6113  3.6364 -1.4025
   24TCq2    H4  379   2.108   1.864  14.544 -1.4426  0.7606 -2.8591
   25TMC2    C1  380   0.564   4.264  12.162  0.8469  0.2753 -0.2725
   25TMC2    C2  381   0.692   4.300  12.205  0.7092 -0.5308 -0.1403
   25TMC2    C3  382   0.727   4.279  12.333 -0.8959  0.4534  0.2982
   25TMC2    C4  383   0.479   4.206  12.252  0.1874  0.2040 -0.2611
   25TMC2    C5  384   0.516   4.182  12.378  0.5936  0.1875 -0.2309
   25TMC2    C6  385   0.640   4.210  12.415  0.4710  0.0108  1.4263
   25TMC2     C  386   0.519   4.311  12.043 -0.3608  0.0993 -0.1147
   25TMC2     O  387   0.571   4.413  12.001  0.2722 -0.7411  0.0544
   25TMC2     H  388   0.777   4.320  12.140  0.3165 -0.9095 -0.7715
   25TMC2    H1  389   0.374   4.196  12.224  0.4547 -1.9143 -0.4886
   25TMC2    H2  390   0.669   4.201  12.519  3.7819  2.1561  0.6799
   25TMC2    C7  391   0.423   4.152  12.480  0.6506  0.0813  0.5907
   25TMC2    C8  392   0.861   4.300  12.375  0.0447  0.4362  0.5069
   25TMC2    O1  393   0.466   4.136  12.591  0.3975  0.4208  0.0151
   25TMC2    O2  394   0.938   4.395  12.373  0.7238 -0.4669 -0.1970
   25TMC2    O5  395   0.901   4.181  12.415  0.3517 -0.1771 -0.0022
   25TMC2    H5  396   0.843   4.107  12.389 -1.2657  0.6867  1.1253
   26MPD2     C  397   0.308   4.203  11.584  0.3685 -0.0650 -0.0072
   26MPD2    C1  398   0.296   4.094  11.672 -0.5312 -0.4585  0.4334
   26MPD2    C2  399   0.332   4.104  11.808 -0.0003  0.5920  0.0334
   26MPD2    C3  400   0.406   4.212  11.845  0.4501 -0.4320  0.1131
   26MPD2    C4  401   0.432   4.321  11.761 -0.1783 -0.0928  0.0426
   26MPD2    C5  402   0.376   4.311  11.629 -0.4990  0.5848 -0.4816
   26MPD2     H  403   0.308   4.029  11.882 -2.1839  0.2296 -1.0619
   26MPD2    H1  404   0.483   4.414  11.780  0.7060 -0.8679  1.4061
   26MPD2    H2  405   0.269   4.195  11.483 -3.1181 -0.3474  1.3596
   26MPD2    H3  406   0.391   4.396  11.564  0.2478 -1.1692 -2.5892
   26MPD2     N  407   0.432   4.218  11.982 -0.4578 -0.1341 -0.2965
   26MPD2    H5  408   0.420   4.137  12.042  1.5537  1.1487  1.8408
   26MPD2    N1  409   0.219   3.983  11.622  0.1637  0.5929  0.8455
   26MPD2    H7  410   0.177   3.998  11.531 -1.5619  1.0624  1.6997
   27TMC2    C1  411   4.498   1.740  12.146 -0.5945 -0.4729  0.2073
   27TMC2    C2  412   4.423   1.756  12.034 -0.3185  1.2065  0.3129
   27TMC2    C3  413   4.380   1.886  12.009 -0.4429 -0.0897 -0.7161
   27TMC2    C4  414   4.558   1.845  12.211  0.0869 -0.6729  0.1934
   27TMC2    C5  415   4.530   1.971  12.172  0.1501  1.2312 -0.0257
   27TMC2    C6  416   4.435   1.991  12.077  0.7141  0.3105  0.3836
   27TMC2     C  417   4.508   1.612  12.216  0.8037 -0.3993  0.2858
   27TMC2     O  418   4.598   1.538  12.192  0.4086 -0.8455 -0.1991
   27TMC2     H  419   4.382   1.666  11.990 -0.6534  1.9879 -0.9941
   27TMC2    H1  420   4.602   1.813  12.305  2.1255 -0.4953 -0.7145
   27TMC2    H2  421   4.408   2.090  12.041 -0.4427 -0.5575 -1.1463
   27TMC2    C7  422   4.544   2.063  12.278 -0.3359  0.3261  0.0555
   27TMC2    C8  423   4.327   1.913  11.882  0.2082 -0.1372 -0.0385
   27TMC2    O1  424   4.644   2.055  12.345 -0.7820  0.3433 -0.3382
   27TMC2    O2  425   4.275   1.822  11.819  0.0392 -0.8133  0.2033
   27TMC2    O5  426   4.414   2.000  11.822  0.3711 -0.0136  0.0410
   27TMC2    H5  427   4.470   2.061  11.874 -0.9272  1.7462 -0.6577
   28MPD2     C  428   4.320   1.283  12.541 -0.3499 -0.2844  0.0578
   28MPD2    C1  429   4.262   1.409  12.573 -0.1750 -0.5431  0.1500
   28MPD2    C2  430   4.297   1.522  12.495  0.3813 -0.5747 -0.3919
   28MPD2    C3  431   4.384   1.503  12.395 -1.0528 -0.0939 -0.4212
   28MPD2    C4  432   4.430   1.376  12.356 -0.8497  0.5962  0.4676
   28MPD2    C5  433   4.408   1.273  12.437 -0.3326  0.4283  0.3128
   28MPD2     H  434   4.256   1.620  12.518 -0.2280 -1.5566  2.7321
   28MPD2    H1  435   4.490   1.350  12.269  0.8982 -0.6882  2.0577
   28MPD2    H2  436   4.302   1.204  12.613  1.7609 -0.5001  0.3460
   28MPD2    H3  437   4.465   1.183  12.416 -1.6353 -0.0221 -1.3478
   28MPD2     N  438   4.418   1.616  12.315  0.1029  0.4472 -0.0979
   28MPD2    H5  439   4.364   1.700  12.333 -0.0692  0.6582 -1.6678
   28MPD2    N1  440   4.183   1.413  12.694 -0.6489  0.6503  0.4217
   28MPD2    H7  441   4.168   1.332  12.753 -1.3476  0.0728 -0.5518
   29MPD2     C  442   3.637   3.408  14.388 -0.7334  0.3294  0.0700
   29MPD2    C1  443   3.711   3.402  14.506 -0.5705  0.2078 -0.2321
   29MPD2    C2  444   3.774   3.519  14.551  0.3109  0.0316 -0.3598
   29MPD2    C3  445   3.764   3.639  14.485  0.5199 -0.5612  0.2615
   29MPD2    C4  446   3.684   3.643  14.375  0.4058 -0.3711 -0.1723
   29MPD2    C5  447   3.635   3.531  14.321 -0.1142 -0.4918 -0.5305
   29MPD2     H  448   3.829   3.507  14.644 -1.2904  0.9384  0.6835
   29MPD2    H1  449   3.650   3.740  14.340 -0.3636 -0.5050  0.1974
   29MPD2    H2  450   3.598   3.323  14.334  0.9971 -1.6435  1.9048
   29MPD2    H3  451   3.571   3.535  14.234  1.7036 -0.7630 -1.8721
   29MPD2     N  452   3.813   3.762  14.530  0.0144  0.1191 -0.3345
   29MPD2    H5  453   3.789   3.837  14.465  1.6272  1.0117  0.0803
   29MPD2    N1  454   3.714   3.280  14.576 -0.4576 -0.3365  0.1664
   29MPD2    H7  455   3.764   3.275  14.665 -0.7590 -1.0207  0.2971
   30TCq2    C1  456   3.880   3.788  14.646 -0.9585  0.2282  0.0865
   30TCq2    O2  457   3.925   3.718  14.731 -0.6825 -0.6194  0.9625
   30TCq2    C2  458   3.894   3.929  14.683  0.0460  0.8172  0.2096
   30TCq2    C3  459   3.912   3.953  14.817 -1.1902 -0.2860 -0.2044
   30TCq2    C4  460   3.905   4.083  14.858  0.9348 -0.3769 -0.0342
   30TCq2    C5  461   3.883   4.185  14.769  0.1469 -0.2901  0.0933
   30TCq2    C6  462   3.867   4.157  14.638  0.9367 -0.0429  0.2450
   30TCq2    C7  463   3.855   4.027  14.593 -0.0662 -0.0504  0.5755
   30TCq2    C8  464   3.901   4.258  14.536 -0.3363  0.3744  0.4400
   30TCq2    O4  465   3.860   4.235  14.426 -0.3171 -0.3132 -0.6867
   30TCq2    C9  466   3.934   4.108  14.994  0.3161  0.0677 -0.1300
   30TCq2    O5  467   3.984   4.222  15.012  0.1558 -0.1733 -0.4345
   30TCq2    O6  468   3.921   4.022  15.084 -0.3674  0.4457 -0.0254
   30TCq2    H2  469   3.945   3.881  14.890 -1.2303 -0.9997 -0.8969
   30TCq2    H3  470   3.897   4.288  14.802 -2.2011 -0.5651  2.0038
   30TCq2    H4  471   3.862   4.015  14.486 -2.7243 -1.4557  0.5796
   31MPD2     C  472   2.241   2.956  14.783 -0.1934  0.2448  0.1930
   31MPD2    C1  473   2.112   2.977  14.743 -0.1782  0.3816  0.0205
   31MPD2    C2  474   2.010   2.953  14.839  0.3542 -0.4164  0.5334
   31MPD2    C3  475   2.039   2.905  14.966 -0.0378  0.0587 -0.2106
   31MPD2    C4  476   2.170   2.886  15.006  0.2640  0.3568 -0.5426
   31MPD2    C5  477   2.270   2.920  14.915  0.4175 -0.4127  0.4297
   31MPD2     H  478   1.907   2.964  14.805  0.5432 -1.1125 -0.2672
   31MPD2    H1  479   2.186   2.854  15.108  0.0294  2.1379  0.0642
   31MPD2    H2  480   2.323   2.982  14.717  0.1702 -0.3710  0.4011
   31MPD2    H3  481   2.369   2.919  14.957 -0.3583 -1.9154  2.2249
   31MPD2     N  482   1.943   2.871  15.057 -1.0575 -0.0226  0.8523
   31MPD2    H5  483   1.969   2.821  15.141 -0.8411 -1.3417  0.0138
   31MPD2    N1  484   2.092   3.004  14.607  0.5179  0.1024  0.1967
   31MPD2    H7  485   2.173   2.996  14.546  0.4502 -0.5669  0.1979
   32TCq2    C1  486   1.809   2.899  15.046 -0.2342  0.3815 -0.5071
   32TCq2    O2  487   1.761   2.984  14.970 -0.1540 -0.0140 -0.0854
   32TCq2    C2  488   1.716   2.846  15.150  0.5465 -0.1475 -0.0341
   32TCq2    C3  489   1.588   2.895  15.138  0.9314 -0.3794  0.0643
   32TCq2    C4  490   1.494   2.829  15.207 -0.0277 -0.4943 -0.1036
   32TCq2    C5  491   1.519   2.739  15.307 -0.0357  0.5492 -0.2460
   32TCq2    C6  492   1.647   2.692  15.314  0.0741  0.5093 -0.4151
   32TCq2    C7  493   1.745   2.742  15.235 -0.4933 -0.5451  0.2627
   32TCq2    C8  494   1.689   2.604  15.418  0.2948 -0.3069  0.8238
   32TCq2    O4  495   1.809   2.584  15.444  0.0592 -0.3424 -0.2154
   32TCq2    C9  496   1.355   2.868  15.184  0.1145  0.4675  0.3262
   32TCq2    O5  497   1.268   2.798  15.242  0.2057  0.0477 -0.2625
   32TCq2    O6  498   1.329   2.944  15.087 -0.2323 -0.3542 -0.5008
   32TCq2    H2  499   1.572   2.971  15.062  1.5469  0.3550  0.6669
   32TCq2    H3  500   1.449   2.700  15.380  1.0445  1.0076  1.0298
   32TCq2    H4  501   1.849   2.712  15.237 -0.0350  0.9863 -0.9636
   33MPD2     C  502   2.642   0.589   9.993 -0.5442  0.2299  0.2915
   33MPD2    C1  503   2.548   0.549  10.085 -0.3592 -0.1383  0.0697
   33MPD2    C2  504   2.413   0.570  10.054  0.7401  0.4606 -0.8935
   33MPD2    C3  505   2.376   0.604   9.928 -0.4204  0.5304 -0.3627
   33MPD2    C4  506   2.473   0.639   9.837  0.5367 -0.8079  0.5649
   33MPD2    C5  507   2.602   0.633   9.868  0.0255  0.9443  0.8429
   33MPD2     H  508   2.338   0.549  10.129  1.4219 -2.1514 -0.9292
   33MPD2    H1  509   2.457   0.673   9.735 -2.6047 -0.5003  1.1602
   33MPD2    H2  510   2.747   0.604  10.015 -0.7605 -0.9973  2.1677
   33MPD2    H3  511   2.670   0.664   9.790  0.1384 -0.7360  0.2689
   33MPD2     N  512   2.240   0.620   9.887 -0.3170 -0.0025 -0.2590
   33MPD2    H5  513   2.221   0.653   9.793 -1.6971 -2.5302 -0.8630
   33MPD2    N1  514   2.594   0.501  10.202  0.1263  0.0678  0.8650
   33MPD2    H7  515   2.692   0.522  10.223 -0.5579  0.8173  3.3176
   34TCq2    C1  516   2.130   0.585   9.960 -0.2674 -0.0289 -0.4740
   34TCq2    O2  517   2.127   0.505  10.058 -0.0206 -0.0121 -0.4386
   34TCq2    C2  518   2.001   0.639   9.909  0.2383 -0.3717 -0.1609
   34TCq2    C3  519   1.894   0.571   9.950 -0.0102  0.1698 -0.4004
   34TCq2    C4  520   1.764   0.609   9.922 -0.2420 -0.7732 -0.6792
   34TCq2    C5  521   1.738   0.713   9.842  0.0790 -0.0867  0.3618
   34TCq2    C6  522   1.846   0.784   9.801  0.3185  0.6749 -0.5846
   34TCq2    C7  523   1.980   0.746   9.831  0.1794  0.3822  0.5738
   34TCq2    C8  524   1.838   0.905   9.714 -0.0007  0.1579 -0.1064
   34TCq2    O4  525   1.937   0.975   9.700 -0.2216  0.5197 -0.2325
   34TCq2    C9  526   1.665   0.509   9.941 -0.0198 -0.6438  0.7566
   34TCq2    O5  527   1.694   0.418  10.019 -0.1182  0.2818 -0.0927
   34TCq2    O6  528   1.545   0.521   9.886  0.0057 -0.3874 -0.7064
   34TCq2    H2  529   1.910   0.479  10.006  1.1955 -1.1850 -2.9571
   34TCq2    H3  530   1.635   0.742   9.825  0.0798  0.2094  0.8524
   34TCq2    H4  531   2.061   0.803   9.787 -0.8923 -1.1067 -3.2710
   35MPD2     C  532   3.525   2.294  12.119  0.6645 -0.0549  0.7833
   35MPD2    C1  533   3.517   2.157  12.136 -0.9295 -0.2249 -0.2942
   35MPD2    C2  534   3.439   2.086  12.045 -0.2207 -0.1460  1.0043
   35MPD2    C3  535   3.368   2.148  11.944  0.0448  0.3429 -0.1921
   35MPD2    C4  536   3.386   2.281  11.923  0.1524  0.7472  0.0481
   35MPD2    C5  537   3.462   2.354  12.011  0.0037 -0.5798 -0.3728
   35MPD2     H  538   3.431   1.979  12.063  1.9024  0.0087  2.8911
   35MPD2    H1  539   3.329   2.318  11.839 -2.4808 -1.4127  0.8808
   35MPD2    H2  540   3.569   2.343  12.205  2.8722  1.5376 -1.2347
   35MPD2    H3  541   3.470   2.461  12.003  0.8019 -0.4919  1.6850
   35MPD2     N  542   3.269   2.090  11.862 -0.3331  0.4429 -0.5868
   35MPD2    H5  543   3.227   2.145  11.788 -1.7291  0.7428  0.4010
   35MPD2    N1  544   3.560   2.099  12.258  0.4509  0.4542 -0.3054
   35MPD2    H7  545   3.601   2.161  12.327  2.8581 -1.2624 -0.2238
   36TCq2    C1  546   3.217   1.965  11.875  0.6607 -1.0879  0.5045
   36TCq2    O2  547   3.267   1.875  11.937  0.1439 -0.1267  0.6450
   36TCq2    C2  548   3.143   1.928  11.751 -0.3719 -0.5873 -0.0943
   36TCq2    C3  549   3.162   2.001  11.632 -0.8369 -0.2914 -0.0695
   36TCq2    C4  550   3.099   1.967  11.516  0.0676  0.1600  0.1952
   36TCq2    C5  551   3.025   1.853  11.506 -0.2376 -0.3498  0.8364
   36TCq2    C6  552   3.006   1.783  11.623 -0.0092  0.1470  0.9566
   36TCq2    C7  553   3.064   1.820  11.752 -0.4558 -0.5521 -0.2826
   36TCq2    C8  554   2.915   1.669  11.603  0.6659 -0.5144  0.2324
   36TCq2    O4  555   2.914   1.624  11.487  0.2606  0.7706 -0.6835
   36TCq2    C9  556   3.121   2.037  11.398 -0.3787  0.2553 -0.1314
   36TCq2    O5  557   3.068   1.997  11.291  0.6140 -0.0904  0.4119
   36TCq2    O6  558   3.209   2.127  11.396  0.2806  0.3412  0.5121
   36TCq2    H2  559   3.235   2.082  11.632 -0.8576 -0.2705  0.7758
   36TCq2    H3  560   2.983   1.828  11.409  1.0153  0.0521  0.1781
   36TCq2    H4  561   3.042   1.763  11.842 -0.2628 -0.1387  0.0286
   37TMC2    C1  562   0.837   1.294  11.758 -0.4545 -0.7527  0.4962
   37TMC2    C2  563   0.870   1.184  11.684  0.0570 -0.1559 -0.5976
   37TMC2    C3  564   0.944   1.200  11.571  0.4409  0.1023 -0.2546
   37TMC2    C4  565   0.869   1.421  11.717  0.7632 -0.0832 -0.3703
   37TMC2    C5  566   0.937   1.438  11.599  0.3561 -0.0227 -0.0215
   37TMC2    C6  567   0.977   1.326  11.526  0.6108 -1.0943  0.3482
   37TMC2     C  568   0.738   1.280  11.860 -0.3091 -0.3622  0.4420
   37TMC2     O  569   0.715   1.170  11.905 -0.4260  0.5290  0.1822
   37TMC2     H  570   0.857   1.084  11.722  3.6144 -1.5271 -3.0150
   37TMC2    H1  571   0.860   1.514  11.771  2.4683  0.1228 -0.4333
   37TMC2    H2  572   1.036   1.343  11.436  1.3636 -0.5154  0.9441
   37TMC2    C7  573   0.957   1.572  11.551  1.0176  0.8299 -0.2835
   37TMC2    C8  574   0.984   1.077  11.497  0.8272  0.1529  0.6851
   37TMC2    O1  575   0.958   1.663  11.633 -0.2815 -0.3318  0.5983
   37TMC2    O2  576   0.925   0.973  11.507 -0.1780 -0.0142  0.1400
   37TMC2    O5  577   1.073   1.112  11.405  0.6410  0.2201  0.0121
   37TMC2    H5  578   1.112   1.202  11.418  0.2478  0.4971 -0.7292
   38MPD2     C  579   0.396   1.493  12.167  0.1448  0.8358 -0.5360
   38MPD2    C1  580   0.398   1.559  12.045  0.5482  0.4205  0.2224
   38MPD2    C2  581   0.488   1.522  11.952  0.6189  0.2706 -0.5702
   38MPD2    C3  582   0.567   1.417  11.972 -0.3935  0.5810  0.7901
   38MPD2    C4  583   0.563   1.345  12.092 -0.6452  0.4856  0.2565
   38MPD2    C5  584   0.475   1.388  12.185  0.0629 -0.2993 -0.1727
   38MPD2     H  585   0.491   1.565  11.853 -1.4076 -0.0925 -0.7885
   38MPD2    H1  586   0.635   1.267  12.116 -1.0874 -0.1608 -0.5217
   38MPD2    H2  587   0.327   1.511  12.249  0.5606 -0.7275  0.1481
   38MPD2    H3  588   0.493   1.344  12.283  2.1956  2.3207  0.6158
   38MPD2     N  589   0.669   1.393  11.872 -0.3428 -0.3665 -0.3459
   38MPD2    H5  590   0.671   1.465  11.801 -0.4107 -0.3173 -0.2978
   38MPD2    N1  591   0.314   1.677  12.009 -0.1198  0.0906  0.0833
   38MPD2    H7  592   0.352   1.740  11.939  1.6805  1.7304  2.5737
   39MPD2     C  593   3.151   3.221   1.414 -0.7644 -0.1917 -0.7523
   39MPD2    C1  594   3.077   3.290   1.502  0.1709  0.2691  0.4302
   39MPD2    C2  595   2.963   3.355   1.454  0.6688  0.4602  1.0485
   39MPD2    C3  596   2.929   3.358   1.323  0.1226  0.5727 -1.2295
   39MPD2    C4  597   3.019   3.300   1.234  0.0516  0.0020 -0.1924
   39MPD2    C5  598   3.125   3.231   1.278 -0.1690 -0.0324 -0.4506
   39MPD2     H  599   2.893   3.404   1.520 -2.3065 -1.2161 -0.8439
   39MPD2    H1  600   2.981   3.273   1.135  2.2420  0.8698 -1.2740
   39MPD2    H2  601   3.238   3.170   1.452 -1.3991 -0.5192  0.2786
   39MPD2    H3  602   3.186   3.168   1.214  0.3810 -0.7367  0.7757
   39MPD2     N  603   2.819   3.421   1.267 -0.1328 -0.1576  0.1147
   39MPD2    H5  604   2.830   3.430   1.167 -0.1567 -0.2124  0.1072
   39MPD2    N1  605   3.108   3.282   1.641  0.4999 -0.2480  0.4319
   39MPD2    H7  606   3.203   3.255   1.665 -0.8096 -1.5748  4.0562
   40TCq2    C1  607   3.023   3.307   1.744  0.0420  0.4329  0.8169
   40TCq2    O2  608   2.903   3.338   1.736  0.7596 -0.4727 -0.0129
   40TCq2    C2  609   3.080   3.293   1.877  0.7998 -0.0348  0.1757
   40TCq2    C3  610   2.998   3.254   1.976 -0.3619  0.5853  0.6158
   40TCq2    C4  611   3.042   3.270   2.096  0.3790  0.4843 -0.0535
   40TCq2    C5  612   3.175   3.307   2.120  0.5184  0.2456 -0.7565
   40TCq2    C6  613   3.264   3.324   2.016  0.7403  0.5435 -0.0509
   40TCq2    C7  614   3.212   3.326   1.893 -0.0561  0.0768  0.0289
   40TCq2    C8  615   3.401   3.319   2.041  0.3680 -0.5939  0.3115
   40TCq2    O4  616   3.436   3.277   2.149 -0.2946 -0.0343 -0.1158
   40TCq2    C9  617   2.952   3.253   2.205 -0.5137 -0.5994 -0.2493
   40TCq2    O5  618   2.987   3.302   2.312 -0.3792  0.5489  0.2854
   40TCq2    O6  619   2.848   3.189   2.183  0.5759 -0.6278 -0.2789
   40TCq2    H2  620   2.891   3.236   1.964 -0.3599  0.5627  0.6300
   40TCq2    H3  621   3.209   3.308   2.223  0.6888  0.0173 -0.8099
   40TCq2    H4  622   3.268   3.356   1.805  0.1584 -2.8751 -0.8581
   41TMC2    C1  623   3.101   1.844  13.484  0.8647  0.2841  0.7372
   41TMC2    C2  624   3.057   1.966  13.453  0.1860 -0.0529  0.1086
   41TMC2    C3  625   3.036   1.997  13.322  0.2929  0.1163 -0.2276
   41TMC2    C4  626   3.124   1.747  13.385 -0.0041 -0.2728 -0.6015
   41TMC2    C5  627   3.106   1.786  13.252 -0.1469 -0.0869 -0.5113
   41TMC2    C6  628   3.051   1.907  13.214  0.0716  0.7530 -0.2289
   41TMC2     C  629   3.057   1.807  13.619 -0.3962 -0.2004  0.1417
   41TMC2     O  630   2.986   1.885  13.679 -0.2802 -0.1694  0.4645
   41TMC2     H  631   3.043   2.041  13.530  0.8885  0.9086 -0.7154
   41TMC2    H1  632   3.169   1.651  13.404 -1.2080 -0.9798 -1.3207
   41TMC2    H2  633   3.049   1.943  13.111 -0.0407 -1.4824 -1.0239
   41TMC2    C7  634   3.153   1.697  13.150 -0.5933  0.2470 -0.6840
   41TMC2    C8  635   2.971   2.129  13.296 -0.0254  0.0598  0.4253
   41TMC2    O1  636   3.246   1.624  13.187  0.2436  0.2584 -0.0735
   41TMC2    O2  637   2.917   2.185  13.385  0.2537 -0.5358 -0.5705
   41TMC2    O5  638   3.005   2.187  13.178 -0.2201 -0.3843  0.7001
   41TMC2    H5  639   3.081   2.141  13.136  1.2216  0.7573  2.0265
   42MPD2     C  640   3.211   1.519  13.793 -0.1628 -0.8751  0.0507
   42MPD2    C1  641   3.132   1.632  13.782 -0.0471  0.3365 -0.3360
   42MPD2    C2  642   3.069   1.675  13.902  0.0609  0.4439  0.5174
   42MPD2    C3  643   3.077   1.599  14.023 -0.3496  0.2167 -0.9962
   42MPD2    C4  644   3.151   1.481  14.024 -0.5537  0.1772  0.0310
   42MPD2    C5  645   3.210   1.443  13.910  0.1124  0.4353 -0.1088
   42MPD2     H  646   2.997   1.755  13.891  0.9267  1.3107  1.1327
   42MPD2    H1  647   3.148   1.406  14.103 -0.3077 -1.6089 -1.6586
   42MPD2    H2  648   3.260   1.473  13.708  0.1420 -1.7773  0.7135
   42MPD2    H3  649   3.259   1.347  13.915  0.3197  0.5128 -0.6105
   42MPD2     N  650   3.008   1.626  14.138  0.6289 -0.4143 -0.1354
   42MPD2    H5  651   3.022   1.563  14.216  0.2039 -0.3479 -0.0038
   42MPD2    N1  652   3.129   1.700  13.655 -0.0498 -0.0647  0.1566
   42MPD2    H7  653   3.200   1.674  13.587 -0.6876 -0.7315 -0.2618
   43MPD2     C  654   4.239   4.657   1.204  0.0245 -0.1984 -0.3217
   43MPD2    C1  655   4.186   4.682   1.077 -1.0596 -0.1818 -0.5790
   43MPD2    C2  656   4.207   0.085   1.016 -0.2109  0.8972  0.6475
   43MPD2    C3  657   4.275   0.183   1.083  0.0780  0.6617 -0.2628
   43MPD2    C4  658   4.313   0.161   1.212 -0.1522  0.4172  0.2362
   43MPD2    C5  659   4.300   0.036   1.269 -0.4132  0.4387  0.3912
   43MPD2     H  660   4.150   0.101   0.925  1.4114  1.9785 -0.1838
   43MPD2    H1  661   4.378   0.234   1.259  1.2161  0.3274 -1.5187
   43MPD2    H2  662   4.232   4.563   1.258  0.7212 -0.5469 -0.8347
   43MPD2    H3  663   4.339   0.020   1.369  1.2462 -1.6140 -0.5677
   43MPD2     N  664   4.300   0.313   1.030  0.2237  0.3020  0.4975
   43MPD2    H5  665   4.349   0.379   1.090  1.1255 -0.1063  0.2144
   43MPD2    N1  666   4.112   4.578   1.000  0.2850  0.2549 -0.2773
   43MPD2    H7  667   4.081   4.604   0.906 -2.0060  2.4767  1.0906
   44TCq2    C1  668   4.382   0.770   1.112  0.1677 -0.2196  0.4844
   44TCq2    O2  669   4.475   0.712   1.167  0.1889 -0.1383 -0.6430
   44TCq2    C2  670   4.322   0.701   1.003 -0.4538 -0.7723 -0.2908
   44TCq2    C3  671   4.241   0.770   0.919 -0.6853  0.0168  0.0018
   44TCq2    C4  672   4.172   0.703   0.826 -0.2885 -0.0123  0.1775
   44TCq2    C5  673   4.182   0.570   0.815  0.7432  0.7314 -0.0138
   44TCq2    C6  674   4.281   0.503   0.885  0.4643 -0.2361  0.7634
   44TCq2    C7  675   4.359   0.573   0.978 -0.3040  0.6638 -0.1946
   44TCq2    C8  676   4.259   0.366   0.912  0.2617 -0.1113 -0.1257
   44TCq2    O4  677   4.205   0.311   0.820 -0.1246  0.1917  0.2456
   44TCq2    C9  678   4.078   0.778   0.744 -0.2248  0.1164  0.3486
   44TCq2    O5  679   4.101   0.899   0.725 -0.1535  0.4634 -0.1433
   44TCq2    O6  680   3.973   0.719   0.715  0.4866 -0.2568  0.0199
   44TCq2    H2  681   4.222   0.877   0.918 -1.7397 -0.1581  4.1307
   44TCq2    H3  682   4.110   0.519   0.752 -0.1082  1.4114  0.4102
   44TCq2    H4  683   4.436   0.520   1.032 -0.8938  1.4650  1.4381
   45TMC2    C1  684   0.355   1.776  10.143 -0.3479 -0.1111  0.3551
   45TMC2    C2  685   0.358   1.738  10.274 -0.0554  0.1474  0.6667
   45TMC2    C3  686   0.378   1.828  10.369  0.6879  0.6210 -1.0117
   45TMC2    C4  687   0.366   1.911  10.105  0.6263 -0.1414  0.6871
   45TMC2    C5  688   0.399   2.001  10.204 -0.5066 -0.0769  0.0408
   45TMC2    C6  689   0.402   1.963  10.339  0.1978 -0.9013 -1.1201
   45TMC2     C  690   0.299   1.677  10.049 -0.2808  0.6855  0.1929
   45TMC2     O  691   0.314   1.559  10.083  0.4165  0.2646 -0.0397
   45TMC2     H  692   0.320   1.645  10.316 -2.2515  0.0299 -1.5897
   45TMC2    H1  693   0.358   1.942  10.002  1.3911  2.1214  1.3098
   45TMC2    H2  694   0.430   2.031  10.419  0.3532  0.1111 -2.0201
   45TMC2    C7  695   0.432   2.137  10.169 -0.2819  0.1894 -0.6768
   45TMC2    C8  696   0.364   1.796  10.513  0.3725  0.1828 -0.8397
   45TMC2    O1  697   0.462   2.152  10.049 -0.2359  0.3371  0.0352
   45TMC2    O2  698   0.284   1.851  10.585  0.4500 -0.0022  0.0908
   45TMC2    O5  699   0.432   1.680  10.532 -0.2085  0.2670  0.5972
   45TMC2    H5  700   0.494   1.660  10.459  0.2001 -3.4289  1.9069
   46MPD2     C  701   0.125   1.538   9.860  0.0774  0.0928  0.0580
   46MPD2    C1  702   0.164   1.666   9.845 -0.3836 -0.3655 -0.3322
   46MPD2    C2  703   0.107   1.740   9.743  0.1283 -0.4061 -0.4659
   46MPD2    C3  704   0.007   1.685   9.662 -0.1954  0.3244 -0.2244
   46MPD2    C4  705   4.697   1.556   9.681 -0.1405  0.8558 -0.0604
   46MPD2    C5  706   0.021   1.483   9.785 -0.1939  0.3434  0.0675
   46MPD2     H  707   0.136   1.844   9.735  0.0841 -0.2714  1.0543
   46MPD2    H1  708   4.629   1.503   9.616 -0.3360 -0.7380  1.4392
   46MPD2    H2  709   0.163   1.477   9.942  1.1560 -0.2225 -0.6722
   46MPD2    H3  710   4.710   1.384   9.807  0.1808  0.0020 -0.8339
   46MPD2     N  711   4.680   1.763   9.559 -0.7242  0.4738  0.2559
   46MPD2    H5  712   0.000   1.852   9.546  1.3540 -0.4853  1.2754
   46MPD2    N1  713   0.241   1.740   9.940  0.7599 -0.0692 -0.3762
   46MPD2    H7  714   0.268   1.834   9.914 -1.2311  0.5306 -0.3039
   47TMC2    C1  715   1.608   2.026   9.801 -0.6083 -0.4386 -0.6776
   47TMC2    C2  716   1.674   1.906   9.764  0.1888 -0.4865 -0.6462
   47TMC2    C3  717   1.609   1.836   9.669  0.3914  0.0305 -0.1113
   47TMC2    C4  718   1.484   2.059   9.754  0.4932  0.2364  0.1994
   47TMC2    C5  719   1.430   1.981   9.657 -0.0043 -0.1263  0.2769
   47TMC2    C6  720   1.489   1.869   9.618 -0.2934  0.2397  0.3269
   47TMC2     C  721   1.670   2.114   9.896  0.1663 -0.4166 -0.3338
   47TMC2     O  722   1.604   2.210   9.926  0.6362  0.7167 -0.2810
   47TMC2     H  723   1.772   1.873   9.795 -0.2864 -0.8542  0.4683
   47TMC2    H1  724   1.428   2.139   9.801  1.9141 -0.1356  2.5266
   47TMC2    H2  725   1.454   1.809   9.534  0.7159 -1.4951  1.1671
   47TMC2    C7  726   1.299   2.010   9.599  0.2952 -0.7315  0.0332
   47TMC2    C8  727   1.686   1.719   9.627  0.6181 -0.4693 -0.4525
   47TMC2    O1  728   1.243   1.929   9.520 -0.2638 -0.0233 -0.0645
   47TMC2    O2  729   1.808   1.736   9.610  0.2033 -0.5359  0.2364
   47TMC2    O5  730   1.613   1.636   9.554  0.2391  0.0083  0.6831
   47TMC2    H5  731   1.524   1.623   9.593  0.3920  0.4342  1.1639
   48MPD2     C  732   1.868   2.302  10.026  0.2967 -0.2250  0.1002
   48MPD2    C1  733   1.896   2.175   9.990 -0.1622 -0.4222  0.0818
   48MPD2    C2  734   2.019   2.120  10.019  0.3158 -0.0764 -0.8313
   48MPD2    C3  735   2.117   2.202  10.075 -0.6180  0.6543  0.3237
   48MPD2    C4  736   2.086   2.334  10.106 -0.5612 -0.2724 -0.9474
   48MPD2    C5  737   1.958   2.375  10.092  0.2526  0.2798  0.1042
   48MPD2     H  738   2.042   2.015  10.006 -1.3470 -0.7788  1.9059
   48MPD2    H1  739   2.164   2.393  10.152 -0.1558  0.0808 -2.1045
   48MPD2    H2  740   1.772   2.352  10.026 -0.4848 -1.7284  0.4593
   48MPD2    H3  741   1.924   2.476  10.111  0.3898 -0.0269  1.9245
   48MPD2     N  742   2.246   2.145  10.089  0.0688 -0.4244  0.7432
   48MPD2    H5  743   2.255   2.048  10.058  0.2017 -0.2127  0.1058
   48MPD2    N1  744   1.808   2.087   9.919  0.6221  0.1575 -0.2491
   48MPD2    H7  745   1.837   1.999   9.878 -3.5449 -1.5265  0.4420
   49MPD2     C  746   1.355   4.272  10.219 -0.0291 -0.4374 -0.9391
   49MPD2    C1  747   1.238   4.242  10.289 -0.0052 -0.6684  0.1858
   49MPD2    C2  748   1.201   4.325  10.397 -0.0517 -0.0155 -0.2043
   49MPD2    C3  749   1.279   4.428  10.440 -0.6151  0.8653  0.1031
   49MPD2    C4  750   1.392   4.459  10.368 -0.5406 -0.7333 -0.1659
   49MPD2    C5  751   1.422   4.386  10.253 -0.0679  0.4528  0.1900
   49MPD2     H  752   1.110   4.297  10.449  0.9422  2.0044  2.5763
   49MPD2    H1  753   1.445   4.550  10.391 -0.5985 -0.2653 -1.9206
   49MPD2    H2  754   1.395   4.217  10.134 -0.2065 -2.5352  0.3403
   49MPD2    H3  755   1.501   4.428  10.192  1.1056 -0.6043  0.9840
   49MPD2     N  756   1.238   4.514  10.545  0.1029  0.4157  0.0638
   49MPD2    H5  757   1.305   4.573  10.593  0.4195  0.8502 -0.9106
   49MPD2    N1  758   1.152   4.135  10.248 -0.5066  0.8030 -0.4487
   49MPD2    H7  759   1.066   4.124  10.300  0.0015 -0.1941  0.1630
   50TCq2    C1  760   1.166   4.064  10.132 -0.1510 -0.2175  0.6111
   50TCq2    O2  761   1.235   4.090  10.032 -0.1469 -0.1077 -0.3929
   50TCq2    C2  762   1.071   3.956  10.125  0.3610 -0.1020  0.4963
   50TCq2    C3  763   0.984   3.930  10.232 -0.5687  0.6080  0.2155
   50TCq2    C4  764   0.910   3.817  10.232  0.6954  0.4059 -0.6652
   50TCq2    C5  765   0.928   3.727  10.137 -0.1566 -0.3615  0.6910
   50TCq2    C6  766   1.011   3.753  10.030  0.9333 -0.0474 -0.2514
   50TCq2    C7  767   1.079   3.869  10.023 -0.1355  0.0999 -0.8513
   50TCq2    C8  768   1.040   3.655   9.925  0.4186  1.6041 -0.2865
   50TCq2    O4  769   1.120   3.687   9.840  0.0699  0.3589  0.6877
   50TCq2    C9  770   0.816   3.797  10.341  0.2808 -0.0186 -0.6176
   50TCq2    O5  771   0.707   3.739  10.315 -0.2093  0.1366  0.3136
   50TCq2    O6  772   0.831   3.873  10.442  0.2826 -0.3972  0.5331
   50TCq2    H2  773   0.967   4.007  10.308 -0.3398  0.8014  0.0697
   50TCq2    H3  774   0.859   3.643  10.138  2.0555 -2.1834  0.2943
   50TCq2    H4  775   1.146   3.899   9.943 -2.2956 -0.0904 -2.7107
   51MPD2     C  776   0.951   2.569   1.968 -0.2302 -0.1528 -0.1086
   51MPD2    C1  777   0.999   2.629   1.851  0.1587  0.2489 -0.0399
   51MPD2    C2  778   0.923   2.734   1.796  0.0492  0.0549 -0.8531
   51MPD2    C3  779   0.820   2.796   1.873  0.1379 -1.1639  0.2603
   51MPD2    C4  780   0.797   2.747   1.998  0.4002 -0.3538 -0.2960
   51MPD2    C5  781   0.862   2.637   2.042  0.8475 -0.2340  0.1678
   51MPD2     H  782   0.953   2.779   1.702  0.0701 -2.0517 -1.8625
   51MPD2    H1  783   0.728   2.794   2.068  1.8217  0.9170  0.2612
   51MPD2    H2  784   0.993   2.478   2.009 -0.1873 -0.1794 -0.2112
   51MPD2    H3  785   0.834   2.610   2.144 -0.5448 -0.1390 -0.1924
   51MPD2     N  786   0.748   2.910   1.838  0.2700 -0.1966  0.7694
   51MPD2    H5  787   0.675   2.949   1.897 -0.0053  1.2760 -0.5390
   51MPD2    N1  788   1.108   2.582   1.774 -0.5760 -0.0914  0.1371
   51MPD2    H7  789   1.136   2.646   1.700  1.1054 -1.6879 -0.6249
   52TCq2    C1  790   0.768   2.979   1.725 -0.2835 -0.3939 -0.3004
   52TCq2    O2  791   0.848   2.970   1.637  0.6592 -0.3275  0.0881
   52TCq2    C2  792   0.679   3.099   1.718  0.2458 -0.1390  0.7018
   52TCq2    C3  793   0.565   3.095   1.793 -0.3658 -0.2783  0.0056
   52TCq2    C4  794   0.492   3.204   1.791  0.2020 -0.2698  0.0778
   52TCq2    C5  795   0.532   3.317   1.721  0.4803  0.8425 -0.0258
   52TCq2    C6  796   0.654   3.319   1.654  0.0878  0.8002  0.1094
   52TCq2    C7  797   0.728   3.209   1.650 -0.5613 -0.3764 -0.1331
   52TCq2    C8  798   0.712   3.448   1.650  0.2092  0.2755 -0.6835
   52TCq2    O4  799   0.686   3.534   1.730 -0.2186  0.0723  0.3581
   52TCq2    C9  800   0.367   3.206   1.857  0.5646 -0.2297 -0.0476
   52TCq2    O5  801   0.335   3.106   1.923  0.3465 -0.3102 -0.2592
   52TCq2    O6  802   0.297   3.311   1.847  0.0749 -0.4369  0.0845
   52TCq2    H2  803   0.530   3.005   1.842 -1.0340  0.5773  1.0912
   52TCq2    H3  804   0.469   3.405   1.725 -0.5095 -0.0188  3.8691
   52TCq2    H4  805   0.822   3.207   1.597 -1.2161 -0.3123 -1.3046
   53TMC2    C1  806   1.031   2.287  11.329  0.2018  0.6025 -0.8766
   53TMC2    C2  807   1.037   2.398  11.248  0.4402 -0.1588  0.1282
   53TMC2    C3  808   1.017   2.523  11.300  0.0625 -0.5051 -0.2719
   53TMC2    C4  809   1.006   2.303  11.466  0.7549  0.5329 -0.2597
   53TMC2    C5  810   0.994   2.437  11.511 -0.1804 -0.1355 -0.6308
   53TMC2    C6  811   0.982   2.546  11.433 -0.1601 -0.0062 -0.3554
   53TMC2     C  812   1.013   2.163  11.254 -0.3300 -0.5167  0.2641
   53TMC2     O  813   0.975   2.184  11.137  0.3883  0.0851 -0.5096
   53TMC2     H  814   1.058   2.384  11.143  2.7080  1.1789  0.4018
   53TMC2    H1  815   0.997   2.222  11.537 -2.2332  1.3499  0.2810
   53TMC2    H2  816   0.962   2.648  11.465 -0.0142  0.0399 -0.4126
   53TMC2    C7  817   0.940   2.452  11.649  0.1737  0.8920  0.0218
   53TMC2    C8  818   1.046   2.644  11.224 -0.9034 -0.5061 -0.9544
   53TMC2    O1  819   0.871   2.549  11.676 -0.2940  0.6729 -0.3275
   53TMC2    O2  820   0.994   2.751  11.255  0.2828  0.2979  0.8295
   53TMC2    O5  821   1.133   2.618  11.125  0.7221 -0.6567 -0.5429
   53TMC2    H5  822   1.177   2.531  11.131 -2.1883 -2.0313  0.6781
   54MPD2     C  823   0.979   1.892  11.155  0.4924 -0.3451 -0.1332
   54MPD2    C1  824   0.984   1.920  11.291 -0.1484  0.0416 -0.8077
   54MPD2    C2  825   0.977   1.814  11.380  0.3214  0.2127 -0.7283
   54MPD2    C3  826   0.965   1.685  11.335  0.0506  0.8642 -0.1465
   54MPD2    C4  827   0.968   1.664  11.202 -0.2576  0.5145 -0.0800
   54MPD2    C5  828   0.982   1.763  11.112 -0.2679 -0.4662 -0.5330
   54MPD2     H  829   0.978   1.834  11.486 -1.8724 -0.9441 -0.4932
   54MPD2    H1  830   0.985   1.565  11.160 -2.5528  1.1220 -2.4247
   54MPD2    H2  831   1.000   1.966  11.080  1.2185  0.5084  0.9066
   54MPD2    H3  832   1.000   1.731  11.010  4.2284  2.0369 -0.5124
   54MPD2     N  833   0.965   1.569  11.414  0.8574  0.3052 -0.4217
   54MPD2    H5  834   0.945   1.481  11.367 -0.7136 -0.5399  1.7904
   54MPD2    N1  835   0.999   2.056  11.336 -0.3001  0.2202  0.0225
   54MPD2    H7  836   1.021   2.071  11.434  1.0896 -0.3021 -0.2012
   55MPD2     C  837   1.991   0.420  17.284 -0.2560  0.1080 -0.2571
   55MPD2    C1  838   1.952   0.299  17.337 -0.2889  0.5409 -0.2362
   55MPD2    C2  839   1.864   0.292  17.447  0.1412 -0.3875 -1.0447
   55MPD2    C3  840   1.828   0.409  17.515 -0.5784 -0.3077 -0.1204
   55MPD2    C4  841   1.868   0.525  17.464  0.3285 -0.1171  0.4046
   55MPD2    C5  842   1.955   0.534  17.356  0.1837 -0.7640 -0.1063
   55MPD2     H  843   1.832   0.196  17.486 -1.8648  0.5282 -0.4815
   55MPD2    H1  844   1.833   0.616  17.512  1.0194  1.8489 -2.8588
   55MPD2    H2  845   2.060   0.424  17.201 -1.0586 -1.3770 -0.9964
   55MPD2    H3  846   1.987   0.632  17.325  1.1813 -1.2970 -0.7638
   55MPD2     N  847   1.738   0.389  17.632  0.4495 -0.2274 -0.5083
   55MPD2    H5  848   1.704   0.296  17.655  1.8581 -0.6658 -0.1788
   55MPD2    N1  849   1.992   0.183  17.270 -0.5554  1.2712 -0.4294
   55MPD2    H7  850   2.034   0.194  17.178 -0.3435  2.4514 -0.1992
   56TCq2    C1  851   1.987   0.062  17.325 -0.0250  0.4156 -0.5586
   56TCq2    O2  852   1.961   0.030  17.438  0.3940  0.4725 -0.7145
   56TCq2    C2  853   2.012   4.680  17.234 -0.1522 -0.8005 -0.2854
   56TCq2    C3  854   1.959   4.685  17.111 -0.1463 -0.6018 -0.2440
   56TCq2    C4  855   1.927   4.565  17.045 -0.2678 -0.5908 -1.0122
   56TCq2    C5  856   1.943   4.447  17.115 -0.0617  0.1584 -0.9632
   56TCq2    C6  857   1.983   4.451  17.242  0.1464 -0.0006  0.0455
   56TCq2    C7  858   2.032   4.560  17.303  0.1139  0.4538 -0.4364
   56TCq2    C8  859   1.987   4.318  17.310 -0.0866  0.4357 -0.0929
   56TCq2    O4  860   2.002   4.218  17.242 -0.1131 -0.5247 -0.0822
   56TCq2    C9  861   1.902   4.570  16.901  0.1047 -0.2832 -1.2596
   56TCq2    O5  862   1.988   4.624  16.827 -0.1815  0.1496 -0.1079
   56TCq2    O6  863   1.831   4.472  16.862 -0.3642  0.3202  0.3640
   56TCq2    H2  864   1.943   0.058  17.071  2.5580 -1.0279 -2.3396
   56TCq2    H3  865   1.908   4.356  17.068 -0.9881 -1.4145  2.8002
   56TCq2    H4  866   2.063   4.552  17.406 -0.4814 -0.4785 -0.3370
   57TMC2    C1  867   1.491   0.548  13.677  0.4767  0.1797  0.3403
   57TMC2    C2  868   1.617   0.547  13.734  0.2307  0.1357 -0.3238
   57TMC2    C3  869   1.719   0.465  13.690  0.4356  0.6517 -0.3916
   57TMC2    C4  870   1.462   0.450  13.588  0.0195  0.4531  0.2638
   57TMC2    C5  871   1.561   0.359  13.558  0.4332  0.2377  0.0243
   57TMC2    C6  872   1.689   0.367  13.605  0.7502  0.0568 -0.4122
   57TMC2     C  873   1.380   0.608  13.750 -0.4162  0.4474 -0.2853
   57TMC2     O  874   1.400   0.726  13.783 -0.3498 -0.1132  0.0443
   57TMC2     H  875   1.626   0.617  13.816  1.2290  1.3419 -1.4881
   57TMC2    H1  876   1.362   0.436  13.548 -0.5318  2.3855  0.9856
   57TMC2    H2  877   1.765   0.299  13.568 -0.5588 -1.7679  0.2578
   57TMC2    C7  878   1.518   0.243  13.484 -0.4035 -0.7262 -0.1996
   57TMC2    C8  879   1.841   0.451  13.766 -0.7258 -0.0704  0.5702
   57TMC2    O1  880   1.425   0.260  13.408  0.4665 -0.1184  0.3520
   57TMC2    O2  881   1.901   0.347  13.779  0.4850 -0.3090 -0.2824
   57TMC2    O5  882   1.850   0.555  13.852  0.3647  0.2690  0.2098
   57TMC2    H5  883   1.821   0.631  13.798 -2.5344 -1.6150 -0.8598
   58MPD2     C  884   0.876   0.586  13.862  0.2110  0.2747 -0.3639
   58MPD2    C1  885   0.948   0.696  13.828 -0.3382  0.3706 -0.1766
   58MPD2    C2  886   1.084   0.680  13.787 -0.5290  0.6330 -0.7172
   58MPD2    C3  887   1.141   0.553  13.791  0.2898  0.1968  0.3397
   58MPD2    C4  888   1.058   0.446  13.822 -0.4095 -0.7253 -0.0011
   58MPD2    C5  889   0.931   0.462  13.861 -0.0337 -0.1921  0.4655
   58MPD2     H  890   1.146   0.759  13.746  1.2010 -0.8741 -0.9863
   58MPD2    H1  891   1.092   0.344  13.807 -1.9660 -1.3292  0.5939
   58MPD2    H2  892   0.777   0.585  13.905  0.6812 -0.7670  0.6989
   58MPD2    H3  893   0.870   0.379  13.895 -0.8494  1.0849  2.1658
   58MPD2     N  894   1.274   0.519  13.762 -0.0971  0.4935  0.1815
   58MPD2    H5  895   1.314   0.425  13.764  0.1995  0.5922 -0.9864
   58MPD2    N1  896   0.900   0.830  13.842 -0.7529 -0.2726 -0.5483
   58MPD2    H7  897   0.965   0.901  13.811  0.5634 -0.7017  1.2280
   59MPD2     C  898   3.731   0.797  13.229  0.3988  0.0485  0.0247
   59MPD2    C1  899   3.812   0.852  13.139 -0.0586 -1.0165  0.3048
   59MPD2    C2  900   3.915   0.935  13.177 -0.4763  0.1106  0.1596
   59MPD2    C3  901   3.943   0.953  13.316  0.4328 -0.1058  0.3564
   59MPD2    C4  902   3.858   0.890  13.410  0.3043  0.3622 -0.0962
   59MPD2    C5  903   3.750   0.815  13.366 -0.1497  1.3383  0.2216
   59MPD2     H  904   3.976   0.972  13.096  1.5300  0.1157  1.6539
   59MPD2    H1  905   3.871   0.892  13.518 -0.8380  0.8278  0.0362
   59MPD2    H2  906   3.644   0.736  13.210  0.9927 -0.2282 -1.7841
   59MPD2    H3  907   3.676   0.772  13.433  0.7735 -0.5182  0.0486
   59MPD2     N  908   4.049   1.030  13.369 -0.0999  0.0807  0.2913
   59MPD2    H5  909   4.064   1.028  13.469 -0.5607 -1.6705  0.3391
   59MPD2    N1  910   3.795   0.837  12.997 -0.3501  0.6175 -0.0208
   59MPD2    H7  911   3.852   0.894  12.935  1.6949 -2.0224 -0.5848
   60TCq2    C1  912   3.703   0.754  12.929  0.4853  0.2867 -0.6735
   60TCq2    O2  913   3.600   0.701  12.975  0.1297  0.4199 -0.3292
   60TCq2    C2  914   3.718   0.755  12.788  0.1779  0.7074 -0.0812
   60TCq2    C3  915   3.602   0.724  12.724 -0.1156 -0.1672  0.2607
   60TCq2    C4  916   3.586   0.776  12.600 -0.3146  0.3791  0.4418
   60TCq2    C5  917   3.669   0.867  12.541 -0.3097  0.3454 -0.1957
   60TCq2    C6  918   3.781   0.889  12.603  0.0380  0.1841 -0.6424
   60TCq2    C7  919   3.812   0.831  12.724 -0.3847 -0.2504 -1.3718
   60TCq2    C8  920   3.867   1.000  12.554  0.1455 -0.0557  0.2864
   60TCq2    O4  921   3.987   0.984  12.559 -0.1069  0.1786 -0.1608
   60TCq2    C9  922   3.462   0.758  12.536  0.3746  0.3382  0.4817
   60TCq2    O5  923   3.382   0.669  12.579  0.5472 -0.1231  0.5104
   60TCq2    O6  924   3.442   0.830  12.438  0.1076  0.5368 -0.2033
   60TCq2    H2  925   3.526   0.658  12.764  1.0103 -0.8761  1.2383
   60TCq2    H3  926   3.641   0.920  12.450 -0.6630  0.0929 -0.2360
   60TCq2    H4  927   3.904   0.858  12.775  0.4470 -2.3749 -1.7707
   61MPD2     C  928   3.377   2.246  15.780  0.1736 -0.4528 -0.0074
   61MPD2    C1  929   3.263   2.271  15.700 -0.7341  0.5689  0.1598
   61MPD2    C2  930   3.279   2.287  15.564 -0.4165 -0.2434 -0.2548
   61MPD2    C3  931   3.400   2.272  15.503 -0.3496  0.1475  0.8219
   61MPD2    C4  932   3.505   2.229  15.580 -0.0129 -0.6251  0.1770
   61MPD2    C5  933   3.498   2.241  15.720  0.7205 -0.4573  0.1617
   61MPD2     H  934   3.199   2.329  15.504 -0.0487  1.3228  0.3590
   61MPD2    H1  935   3.603   2.211  15.538 -1.2533 -0.8271 -2.5844
   61MPD2    H2  936   3.370   2.227  15.886  0.3410  0.1868  0.1225
   61MPD2    H3  937   3.583   2.207  15.778  1.7939  3.2642  0.8035
   61MPD2     N  938   3.421   2.274  15.360 -0.2285  0.1186  0.2431
   61MPD2    H5  939   3.515   2.260  15.325  0.2133  0.0007  1.4673
   61MPD2    N1  940   3.133   2.290  15.751  0.3825 -0.1518  0.1930
   61MPD2    H7  941   3.055   2.308  15.689  0.5809  1.7656  0.5161
   62TCq2    C1  942   3.096   2.300  15.883 -0.2629  0.5651  0.0456
   62TCq2    O2  943   3.161   2.287  15.986  0.7595  0.0224 -0.2393
   62TCq2    C2  944   2.959   2.364  15.880 -0.4800 -0.2034 -0.0136
   62TCq2    C3  945   2.873   2.349  15.987  0.3160 -0.0822  0.7513
   62TCq2    C4  946   2.751   2.411  15.985  0.3983 -0.4945  0.1660
   62TCq2    C5  947   2.712   2.492  15.880  0.6182  0.0209  0.1668
   62TCq2    C6  948   2.794   2.503  15.768 -0.3089 -0.4774 -0.4114
   62TCq2    C7  949   2.924   2.446  15.773 -0.0364  0.1298  0.0633
   62TCq2    C8  950   2.786   2.607  15.667  0.6036  0.2869  0.2247
   62TCq2    O4  951   2.889   2.631  15.605 -0.2649  0.0580 -0.0635
   62TCq2    C9  952   2.682   2.427  16.112 -0.4992  0.5757  1.0782
   62TCq2    O5  953   2.710   2.346  16.203 -0.0587  0.0494  0.2097
   62TCq2    O6  954   2.572   2.490  16.104  0.0538 -0.3159 -0.2145
   62TCq2    H2  955   2.909   2.296  16.074  1.5250 -2.0020 -0.8839
   62TCq2    H3  956   2.624   2.554  15.887 -0.7470 -2.1924  2.5367
   62TCq2    H4  957   2.997   2.462  15.693 -1.3158 -1.8486 -1.5047
   63TMC2    C1  958   2.328   2.042  11.226 -0.0344 -0.2435 -0.2798
   63TMC2    C2  959   2.379   2.048  11.357  0.1901 -0.2439 -0.2705
   63TMC2    C3  960   2.471   2.150  11.379  0.3988 -0.0319  0.5757
   63TMC2    C4  961   2.371   2.120  11.124 -0.1169 -0.5033  0.4940
   63TMC2    C5  962   2.461   2.216  11.157 -0.7934 -0.1956  0.3346
   63TMC2    C6  963   2.516   2.230  11.282  0.2079 -0.3845 -0.0063
   63TMC2     C  964   2.244   1.934  11.186  0.1316 -0.2004 -0.8146
   63TMC2     O  965   2.214   1.923  11.065  0.2227 -0.3859 -0.3130
   63TMC2     H  966   2.344   1.988  11.440 -1.1957  2.7280  1.3125
   63TMC2    H1  967   2.342   2.098  11.022 -1.6041  0.4631  0.7131
   63TMC2    H2  968   2.579   2.314  11.306 -0.1312  0.1152 -0.8754
   63TMC2    C7  969   2.523   2.288  11.044 -0.2214 -0.4180 -0.3917
   63TMC2    C8  970   2.485   2.194  11.521 -0.2580  0.2632 -0.0828
   63TMC2    O1  971   2.445   2.314  10.953 -0.8155  0.3548 -0.1192
   63TMC2    O2  972   2.581   2.261  11.564  0.3684  0.4736 -0.1292
   63TMC2    O5  973   2.363   2.215  11.565  1.3055  0.4054  0.1454
   63TMC2    H5  974   2.290   2.213  11.500  1.6262  2.6540 -0.2713
   64MPD2     C  975   2.207   1.423  11.185 -0.1308 -0.2688  0.4385
   64MPD2    C1  976   2.241   1.509  11.087 -0.0953  0.7649  0.2534
   64MPD2    C2  977   2.247   1.647  11.112 -0.2815  0.6197 -0.1952
   64MPD2    C3  978   2.216   1.699  11.235 -0.4696 -0.7873 -0.3622
   64MPD2    C4  979   2.162   1.610  11.328 -0.0836 -0.1379  0.2837
   64MPD2    C5  980   2.155   1.477  11.298  0.0927  0.0131 -0.2960
   64MPD2     H  981   2.288   1.709  11.033 -2.0073 -2.1749 -3.2749
   64MPD2    H1  982   2.127   1.648  11.423 -0.9950  1.0338 -0.5172
   64MPD2    H2  983   2.194   1.316  11.184 -0.4061 -0.2257 -0.1192
   64MPD2    H3  984   2.120   1.411  11.377  1.9715 -2.0206 -1.1510
   64MPD2     N  985   2.235   1.829  11.276  0.4277  0.3248 -0.0683
   64MPD2    H5  986   2.264   1.838  11.373 -2.1060  2.3923  0.4785
   64MPD2    N1  987   2.281   1.470  10.957 -0.8336  0.0943 -0.2952
   64MPD2    H7  988   2.301   1.548  10.896  0.8944 -0.4087 -0.3565
   65MPD2     C  989   3.770   1.613  15.966  0.5613  0.2665 -0.5263
   65MPD2    C1  990   3.796   1.628  15.836 -0.0734  0.4259 -0.3336
   65MPD2    C2  991   3.777   1.519  15.751  0.3835  0.4567  0.2633
   65MPD2    C3  992   3.724   1.403  15.800  0.3882  0.4009 -0.5717
   65MPD2    C4  993   3.690   1.393  15.934  0.0974  0.5810 -0.1341
   65MPD2    C5  994   3.720   1.500  16.017  0.4700 -0.3299 -0.0604
   65MPD2     H  995   3.796   1.528  15.644 -1.8801 -2.0539 -0.3474
   65MPD2    H1  996   3.645   1.306  15.980 -0.0645  0.3131 -0.8063
   65MPD2    H2  997   3.787   1.696  16.034  0.3592 -1.2650  1.3956
   65MPD2    H3  998   3.696   1.490  16.122  0.4964  1.3072  0.1018
   65MPD2     N  999   3.689   1.298  15.719 -0.7192 -0.3242  0.0097
   65MPD2    H5 1000   3.645   1.217  15.761  0.4394  0.0484  1.9640
   65MPD2    N1 1001   3.827   1.749  15.775  0.6349  0.3678 -0.4001
   65MPD2    H7 1002   3.837   1.749  15.674  1.5856  2.0613 -0.3038
   66TCq2    C1 1003   3.848   1.870  15.843  0.1073  0.0418  0.4353
   66TCq2    O2 1004   3.833   1.893  15.960  0.2991  0.3727  0.6253
   66TCq2    C2 1005   3.898   1.975  15.752  0.1796  0.1314  0.9885
   66TCq2    C3 1006   3.902   1.947  15.616  0.2763  0.2577 -0.6730
   66TCq2    C4 1007   3.900   2.053  15.535  1.2159 -0.3343  0.5739
   66TCq2    C5 1008   3.915   2.182  15.579  0.1967  0.5398  0.3650
   66TCq2    C6 1009   3.927   2.199  15.712 -0.1383 -0.0811  0.5876
   66TCq2    C7 1010   3.900   2.104  15.804  0.6728 -0.0140 -0.0665
   66TCq2    C8 1011   3.913   2.337  15.758  0.1055 -0.4031  0.2820
   66TCq2    O4 1012   3.969   2.433  15.701  1.1370  0.2883 -0.4947
   66TCq2    C9 1013   3.905   2.015  15.390 -0.1370  0.4845 -0.1890
   66TCq2    O5 1014   3.905   2.110  15.308 -0.1504  0.0072  0.0870
   66TCq2    O6 1015   3.916   1.891  15.358  0.5291 -0.2966 -0.0503
   66TCq2    H2 1016   3.898   1.847  15.575  1.0134  0.9834 -2.5500
   66TCq2    H3 1017   3.943   2.262  15.511 -1.4681 -0.3138 -1.3156
   66TCq2    H4 1018   3.913   2.121  15.910  2.6234 -0.6735 -0.2130
   67MPD2     C 1019   3.803   0.766  14.191  0.2474  0.1267  0.3697
   67MPD2    C1 1020   3.765   0.897  14.170  0.6769 -0.0992  0.5213
   67MPD2    C2 1021   3.657   0.937  14.093 -1.2315 -0.3001 -0.0317
   67MPD2    C3 1022   3.584   0.842  14.026  0.1736 -0.2369 -0.1280
   67MPD2    C4 1023   3.611   0.710  14.049  0.0042 -0.3919 -0.0170
   67MPD2    C5 1024   3.716   0.676  14.132 -0.1778 -0.0285  0.6202
   67MPD2     H 1025   3.651   1.041  14.061  0.5648  0.1055  0.9724
   67MPD2    H1 1026   3.540   0.633  14.022  1.2732 -0.6498 -2.7042
   67MPD2    H2 1027   3.890   0.733  14.246  1.4137  0.1754 -1.4309
   67MPD2    H3 1028   3.750   0.574  14.147  0.2715  0.1841  1.0392
   67MPD2     N 1029   3.468   0.875  13.945 -0.2006  0.0547  0.5606
   67MPD2    H5 1030   3.410   0.803  13.903  0.7261  1.7499 -3.5996
   67MPD2    N1 1031   3.835   0.999  14.231  0.2577  0.3785 -0.2424
   67MPD2    H7 1032   3.793   1.091  14.223  0.3278  0.5995  2.0671
   68TCq2    C1 1033   3.943   0.985  14.315 -0.0931 -0.5290  0.2318
   68TCq2    O2 1034   4.024   0.893  14.328 -0.0480 -0.0663 -0.5569
   68TCq2    C2 1035   3.971   1.105  14.390  0.4882 -0.1904  0.4005
   68TCq2    C3 1036   3.870   1.201  14.419  0.0305  0.5953  0.3739
   68TCq2    C4 1037   3.909   1.291  14.512 -0.5023  0.5802  0.4181
   68TCq2    C5 1038   4.046   1.306  14.549  0.0252 -0.2632 -0.2692
   68TCq2    C6 1039   4.133   1.203  14.527 -0.0464 -0.5698 -0.9652
   68TCq2    C7 1040   4.100   1.100  14.445 -0.1482 -0.1186 -0.1438
   68TCq2    C8 1041   4.251   1.186  14.621  0.2808  0.2483  0.8338
   68TCq2    O4 1042   4.350   1.127  14.581 -0.1370 -0.7073  0.2312
   68TCq2    C9 1043   3.813   1.399  14.559 -0.3511 -0.3802 -0.0423
   68TCq2    O5 1044   3.858   1.484  14.643 -0.1794 -0.5298  0.6555
   68TCq2    O6 1045   3.691   1.379  14.527 -0.5534  0.8100 -0.3679
   68TCq2    H2 1046   3.765   1.205  14.390  0.2086  0.8858 -0.2281
   68TCq2    H3 1047   4.081   1.393  14.603 -0.9500  0.1139 -0.2423
   68TCq2    H4 1048   4.182   1.037  14.413 -0.6366 -1.1319  0.6298
   69TMC2    C1 1049   1.089   2.499  12.335 -0.3469 -0.0522  0.5952
   69TMC2    C2 1050   0.963   2.556  12.351  0.3753  0.5705 -0.6686
   69TMC2    C3 1051   0.924   2.643  12.255 -0.5100  0.1040  0.4261
   69TMC2    C4 1052   1.180   2.533  12.239  0.3441  0.1045  0.3119
   69TMC2    C5 1053   1.140   2.630  12.152 -0.4819 -0.4203 -0.6331
   69TMC2    C6 1054   1.014   2.689  12.157 -0.4538  0.0825 -0.4624
   69TMC2     C 1055   1.116   2.375  12.403 -0.2304  0.3273 -0.5970
   69TMC2     O 1056   1.221   2.314  12.379  0.0539  0.0246  0.1654
   69TMC2     H 1057   0.883   2.521  12.415  1.0921 -0.5897 -0.4171
   69TMC2    H1 1058   1.278   2.488  12.229  0.3801  0.7559 -2.1883
   69TMC2    H2 1059   0.980   2.766  12.089 -0.8728  1.1566  0.9660
   69TMC2    C7 1060   1.226   2.648  12.034  0.3646 -0.1556  0.1618
   69TMC2    C8 1061   0.780   2.680  12.253 -0.7449 -0.5110  0.1629
   69TMC2    O1 1062   1.344   2.615  12.033 -0.0806 -0.7632  0.6115
   69TMC2    O2 1063   0.701   2.655  12.346  0.2976  0.0517  0.6153
   69TMC2    O5 1064   0.742   2.745  12.136  0.2182  0.0201 -0.8814
   69TMC2    H5 1065   0.803   2.727  12.061 -0.9791 -1.5017 -1.4976
   70MPD2     C 1066   1.129   2.168  12.601 -0.4155 -0.1993 -0.6388
   70MPD2    C1 1067   1.010   2.220  12.556  0.4363 -0.4261 -0.3738
   70MPD2    C2 1068   0.892   2.160  12.598  1.2663 -0.2221  0.2519
   70MPD2    C3 1069   0.907   2.046  12.680  0.1783  0.7156  0.0473
   70MPD2    C4 1070   1.028   1.994  12.720  0.4911 -0.4923 -0.7344
   70MPD2    C5 1071   1.139   2.054  12.674  0.1607 -0.3690  0.1592
   70MPD2     H 1072   0.793   2.198  12.573  1.2080 -0.7369 -0.2776
   70MPD2    H1 1073   1.045   1.907  12.782 -1.7607 -0.0057  0.5988
   70MPD2    H2 1074   1.222   2.220  12.580  0.0701 -0.5031  0.7879
   70MPD2    H3 1075   1.238   2.016  12.695 -0.8474 -3.3300 -0.5147
   70MPD2     N 1076   0.795   1.968  12.721 -0.8382  0.5049  0.3273
   70MPD2    H5 1077   0.813   1.875  12.757 -0.7262  1.4976  2.8309
   70MPD2    N1 1078   1.013   2.334  12.476  0.2997  0.0596  0.2872
   70MPD2    H7 1079   0.925   2.385  12.474 -0.5413 -1.2947  2.5899
   71TMC2    C1 1080   2.615   3.127   1.473  0.4211 -0.1807 -0.3484
   71TMC2    C2 1081   2.680   3.103   1.591  0.4658  0.4319  0.5959
   71TMC2    C3 1082   2.602   3.102   1.705  0.5034 -0.4560 -0.1217
   71TMC2    C4 1083   2.485   3.152   1.470 -0.1497  0.3875  0.5053
   71TMC2    C5 1084   2.413   3.146   1.580  0.2226 -0.3245 -0.4758
   71TMC2    C6 1085   2.472   3.135   1.704 -0.3482  0.6027 -0.6451
   71TMC2     C 1086   2.666   3.084   1.353 -0.5181  0.0832 -0.1673
   71TMC2     O 1087   2.611   3.120   1.248  0.0462 -1.6015  0.0420
   71TMC2     H 1088   2.786   3.081   1.594  0.7038  1.4285 -0.4556
   71TMC2    H1 1089   2.431   3.159   1.376  0.4066 -0.6154  0.1113
   71TMC2    H2 1090   2.416   3.135   1.797  1.1638 -2.5337  0.2831
   71TMC2    C7 1091   2.275   3.190   1.587 -0.7256 -0.6670  0.3689
   71TMC2    C8 1092   2.663   3.106   1.837 -1.0025 -0.1617  0.1382
   71TMC2    O1 1093   2.234   3.251   1.686  0.2004 -0.6989 -0.2637
   71TMC2    O2 1094   2.616   3.171   1.933 -0.4830 -0.2139  0.4513
   71TMC2    O5 1095   2.762   3.009   1.847  0.1385 -0.4115  0.1985
   71TMC2    H5 1096   2.766   2.961   1.762 -0.7320 -0.9909  0.4805
   72MPD2     C 1097   3.084   2.919   1.110  0.0365 -0.7918 -0.4889
   72MPD2    C1 1098   2.981   3.001   1.069 -0.1547  0.0009  0.3150
   72MPD2    C2 1099   2.862   3.007   1.141 -0.0552 -0.5532  0.5524
   72MPD2    C3 1100   2.859   2.952   1.267 -0.5178 -0.0374 -1.1609
   72MPD2    C4 1101   2.960   2.868   1.306  0.8668  0.5141 -0.1749
   72MPD2    C5 1102   3.073   2.851   1.226 -0.0918 -0.1626 -0.4705
   72MPD2     H 1103   2.787   3.078   1.106  2.6203  1.3489 -1.2974
   72MPD2    H1 1104   2.956   2.840   1.410 -0.1699 -0.6987 -0.5439
   72MPD2    H2 1105   3.175   2.911   1.052  0.0487  1.8075 -0.8353
   72MPD2    H3 1106   3.160   2.793   1.253  0.6204  0.5957 -1.1219
   72MPD2     N 1107   2.772   2.999   1.369 -0.3099  0.3923 -0.4231
   72MPD2    H5 1108   2.793   2.969   1.463 -0.0816 -1.2392 -0.9838
   72MPD2    N1 1109   2.989   3.072   0.948 -0.3730 -0.2502 -0.6768
   72MPD2    H7 1110   2.902   3.108   0.909  0.0472  0.2525 -1.1671
   73TMC2    C1 1111   2.837   0.203  13.060  0.0481  0.5178  0.2521
   73TMC2    C2 1112   2.733   0.247  13.135 -0.1340 -0.0789 -0.3389
   73TMC2    C3 1113   2.685   0.171  13.234  0.0442 -0.0842  0.2352
   73TMC2    C4 1114   2.881   0.074  13.086  0.4081 -0.1893  0.7747
   73TMC2    C5 1115   2.838   0.001  13.194  0.1881 -0.6109 -0.1186
   73TMC2    C6 1116   2.726   0.040  13.263  0.4238  1.0744 -0.1463
   73TMC2     C 1117   2.961   0.279  13.057 -0.0469 -0.1589 -0.5913
   73TMC2     O 1118   3.065   0.223  13.095 -0.1006  0.1141  0.1424
   73TMC2     H 1119   2.709   0.353  13.141 -1.0177 -0.2684 -0.5437
   73TMC2    H1 1120   2.961   0.042  13.021  2.0357 -0.0689  2.7287
   73TMC2    H2 1121   2.681   4.697  13.332  1.6394  1.3820  0.9638
   73TMC2    C7 1122   2.936   4.671  13.283  0.5971 -0.0580  0.2210
   73TMC2    C8 1123   2.546   0.192  13.266  0.1698 -0.5136 -0.0477
   73TMC2    O1 1124   2.902   4.577  13.348 -0.5858  0.4157  0.9024
   73TMC2    O2 1125   2.466   0.260  13.202 -0.3847 -0.1908  1.0601
   73TMC2    O5 1126   2.554   0.191  13.400  0.6235 -0.3571 -0.8579
   73TMC2    H5 1127   2.642   0.166  13.435 -0.6474  0.5432  2.9656
   74MPD2     C 1128   3.242   0.711  12.977  0.2859  0.1321  0.2997
   74MPD2    C1 1129   3.265   0.593  13.048 -0.6804 -0.0244  0.3147
   74MPD2    C2 1130   3.166   0.494  13.057 -0.3774 -0.0150  0.0655
   74MPD2    C3 1131   3.043   0.504  13.001  0.2159 -0.3297  0.3623
   74MPD2    C4 1132   3.021   0.620  12.926  0.1720  0.1677 -1.5303
   74MPD2    C5 1133   3.118   0.718  12.913 -0.2088 -0.0587 -0.1459
   74MPD2     H 1134   3.199   0.406  13.111 -2.4193 -1.2199 -0.6466
   74MPD2    H1 1135   2.925   0.649  12.884 -0.4939 -0.5953 -0.5237
   74MPD2    H2 1136   3.321   0.785  12.968 -1.4661  1.8958 -0.7321
   74MPD2    H3 1137   3.093   0.812  12.865 -2.8078  0.0181  1.3760
   74MPD2     N 1138   2.944   0.407  13.016 -0.5583  0.4140  0.0409
   74MPD2    H5 1139   2.852   0.436  12.985 -1.0861  2.5946  3.5788
   74MPD2    N1 1140   3.389   0.575  13.110 -0.9716 -0.3349 -0.2945
   74MPD2    H7 1141   3.466   0.630  13.074 -0.3890  0.4115  2.1167
   75TCq2    C1 1142   3.413   0.997  13.927 -0.1668 -0.1807  0.0862
   75TCq2    O2 1143   3.464   1.108  13.944 -0.4634 -0.1975  0.2481
   75TCq2    C2 1144   3.282   0.988  13.872 -0.1312 -0.7294 -0.4572
   75TCq2    C3 1145   3.203   0.876  13.887 -0.8407 -0.1720 -0.3989
   75TCq2    C4 1146   3.065   0.890  13.882 -0.1883 -0.3287 -0.3606
   75TCq2    C5 1147   3.013   1.012  13.835  0.7158  0.4302  0.5073
   75TCq2    C6 1148   3.097   1.118  13.816 -0.4296 -0.3745  0.9437
   75TCq2    C7 1149   3.233   1.108  13.829  0.7373  0.1478 -0.0060
   75TCq2    C8 1150   3.059   1.196  13.698 -0.2117  0.7128 -0.2502
   75TCq2    O4 1151   3.136   1.208  13.604  0.1915 -0.2523  0.0198
   75TCq2    C9 1152   2.966   0.788  13.931 -0.2100 -0.2045 -0.1669
   75TCq2    O5 1153   2.845   0.830  13.931  0.6211  0.4719  0.3608
   75TCq2    O6 1154   3.009   0.681  13.979  0.3861 -0.5609  0.1398
   75TCq2    H2 1155   3.236   0.782  13.931 -0.3414  0.1036 -0.1891
   75TCq2    H3 1156   2.906   1.026  13.825  0.6271 -0.4011  0.2732
   75TCq2    H4 1157   3.297   1.195  13.814  0.1656  0.3803 -1.0471
   76MPD2     C 1158   2.108   2.000  11.655  0.2184 -0.4230  0.3225
   76MPD2    C1 1159   1.983   1.949  11.649  0.9165 -0.9059 -0.7961
   76MPD2    C2 1160   1.969   1.812  11.662 -0.5173 -0.4062  1.0689
   76MPD2    C3 1161   2.080   1.726  11.677  0.3486 -1.1970 -0.0969
   76MPD2    C4 1162   2.204   1.779  11.682 -0.2482 -0.0874 -0.0434
   76MPD2    C5 1163   2.217   1.914  11.679  1.0174  0.4671  0.4279
   76MPD2     H 1164   1.867   1.775  11.658 -0.1010 -1.4542 -0.1348
   76MPD2    H1 1165   2.287   1.710  11.695 -0.5566 -0.1290  1.7305
   76MPD2    H2 1166   2.131   2.106  11.664 -1.6103 -0.0090  0.0207
   76MPD2    H3 1167   2.310   1.956  11.715  0.6578 -0.5189  2.4981
   76MPD2     N 1168   2.069   1.586  11.683 -0.3717  0.4646  0.1572
   76MPD2    H5 1169   2.150   1.528  11.699 -2.0036 -2.3521 -1.7120
   76MPD2    N1 1170   1.873   2.031  11.616  0.0896  0.6601 -0.0488
   76MPD2    H7 1171   1.784   1.983  11.610  0.7969 -0.8241  1.1399
   77TCq2    C1 1172   1.957   1.514  11.665  0.3844 -0.5014 -0.0696
   77TCq2    O2 1173   1.854   1.539  11.607  0.0246  0.3800 -0.5001
   77TCq2    C2 1174   1.983   1.372  11.693  0.2171  0.0328 -0.2066
   77TCq2    C3 1175   1.896   1.283  11.636  0.7034  0.2348 -0.2900
   77TCq2    C4 1176   1.902   1.156  11.681 -0.0447  0.4158  0.7086
   77TCq2    C5 1177   1.976   1.115  11.783  0.0813  0.2747  0.1698
   77TCq2    C6 1178   2.049   1.212  11.855  0.1910  0.5182  0.3554
   77TCq2    C7 1179   2.059   1.339  11.800 -0.3972 -0.5543 -0.5165
   77TCq2    C8 1180   2.160   1.162  11.936  0.2831  0.1317  0.1448
   77TCq2    O4 1181   2.204   1.053  11.902 -0.0252  0.0577 -0.1592
   77TCq2    C9 1182   1.816   1.060  11.609 -0.2351 -0.2576 -0.2797
   77TCq2    O5 1183   1.806   0.943  11.655  0.2289 -0.2577 -0.1564
   77TCq2    O6 1184   1.756   1.097  11.504 -0.1868  0.1339 -0.4970
   77TCq2    H2 1185   1.840   1.308  11.546 -1.4283  0.7850  1.1944
   77TCq2    H3 1186   1.978   1.011  11.812 -0.8665  0.6925  1.7844
   77TCq2    H4 1187   2.119   1.412  11.853  0.1382 -1.1351 -0.3230
   78MPD1     C 1188   3.574   3.242   0.943 -0.1354 -1.0033  0.3941
   78MPD1    C1 1189   3.539   3.196   1.066  0.4240  0.3748 -0.2149
   78MPD1    C2 1190   3.641   3.150   1.154 -0.1698 -0.2480  0.0633
   78MPD1    C3 1191   3.768   3.130   1.115 -0.2744 -0.0555  0.4316
   78MPD1    C4 1192   3.804   3.178   0.989 -0.0442 -0.3347  0.0679
   78MPD1    C5 1193   3.708   3.237   0.908 -0.7032  0.2268  0.0813
   78MPD1     H 1194   3.604   3.124   1.253  0.8995 -1.5057  0.1277
   78MPD1    H1 1195   3.907   3.183   0.956  0.2780 -0.0422  1.1120
   78MPD1    H2 1196   3.507   3.289   0.871  0.9677  1.4596  0.9719
   78MPD1    H3 1197   3.733   3.272   0.809 -2.0736  2.1059  0.3975
   78MPD1     N 1198   3.868   3.076   1.204  0.0045 -0.0682  0.3175
   78MPD1    H5 1199   3.967   3.088   1.184  0.0609  1.3635  1.5034
   78MPD1    N1 1200   3.413   3.222   1.111  0.1138  0.5222  0.5471
   78MPD1    H6 1201   3.346   3.199   1.038 -1.2221 -0.2708  2.0104
   78MPD1    H7 1202   3.386   3.155   1.183  0.9459  0.1013  0.4680
   79TCq2    C1 1203   3.838   3.007   1.315  0.5946  0.1132  0.3866
   79TCq2    O2 1204   3.730   2.961   1.344  0.6614  0.8150  0.6560
   79TCq2    C2 1205   3.950   2.974   1.408 -0.6044  0.2866 -0.0743
   79TCq2    C3 1206   3.910   2.872   1.492  0.1423 -0.1516  0.4274
   79TCq2    C4 1207   4.006   2.810   1.571 -0.7618 -0.2153 -0.3305
   79TCq2    C5 1208   4.141   2.830   1.550 -0.3033  0.3194 -0.2695
   79TCq2    C6 1209   4.175   2.931   1.461 -0.4029 -0.0909 -0.0153
   79TCq2    C7 1210   4.079   2.992   1.383  0.3200  0.4821  0.0473
   79TCq2    C8 1211   4.316   2.934   1.414 -0.2181  0.2591  0.0155
   79TCq2    O4 1212   4.385   2.836   1.425  0.1266 -0.0258  0.0342
   79TCq2    C9 1213   3.969   2.705   1.653 -0.0224 -0.3810 -0.0489
   79TCq2    O5 1214   4.049   2.665   1.739  0.2500  0.1564  0.1658
   79TCq2    O6 1215   3.868   2.641   1.617  0.0643  0.0498 -0.1766
   79TCq2    H2 1216   3.810   2.860   1.532 -0.0553 -0.2358 -0.0892
   79TCq2    H3 1217   4.227   2.791   1.602 -1.3490 -1.6690 -0.0430
   79TCq2    H4 1218   4.105   3.073   1.316  0.2249  0.7407  0.3239
   80MPD2     C 1219   1.050   1.899  12.239 -0.5151  0.1584  0.6814
   80MPD2    C1 1220   0.995   1.927  12.115 -0.4986  0.1658 -0.2228
   80MPD2    C2 1221   0.858   1.946  12.095  0.2131  0.7178 -0.1588
   80MPD2    C3 1222   0.776   1.936  12.203  0.3794 -0.3930  0.0828
   80MPD2    C4 1223   0.829   1.905  12.328  0.2848 -0.2690  0.1429
   80MPD2    C5 1224   0.960   1.891  12.348 -0.5864  0.3882  0.3985
   80MPD2     H 1225   0.815   1.973  12.000 -1.0380 -0.1028  0.1762
   80MPD2    H1 1226   0.766   1.889  12.415 -1.2787  0.5409 -0.8481
   80MPD2    H2 1227   1.156   1.879  12.246 -0.1961  1.0811 -1.4884
   80MPD2    H3 1228   0.998   1.862  12.445 -1.2183  1.0192  0.8250
   80MPD2     N 1229   0.633   1.939  12.202 -0.3234 -0.3206 -0.1876
   80MPD2    H5 1230   0.588   1.915  12.290 -1.0552  0.1934 -0.4264
   80MPD2    N1 1231   1.078   1.927  12.003  0.0023  0.3017 -0.4937
   80MPD2    H7 1232   1.029   1.918  11.914 -0.7192  1.6041 -0.2301
   81TCq2    C1 1233   1.213   1.917  12.007  0.6175 -0.0552  0.2808
   81TCq2    O2 1234   1.283   1.980  12.089  0.7791  0.2312  0.5056
   81TCq2    C2 1235   1.273   1.867  11.883  0.4042  0.0898  0.1975
   81TCq2    C3 1236   1.389   1.925  11.842  0.1462  0.0259 -0.2683
   81TCq2    C4 1237   1.471   1.855  11.746 -0.0917 -0.4429 -0.1901
   81TCq2    C5 1238   1.433   1.730  11.703 -0.5405  0.2962  0.3070
   81TCq2    C6 1239   1.313   1.681  11.745  0.6359  0.1632  0.3872
   81TCq2    C7 1240   1.237   1.750  11.838 -0.4511 -0.4228  0.6439
   81TCq2    C8 1241   1.291   1.538  11.740  0.0976 -0.3004  0.1720
   81TCq2    O4 1242   1.369   1.480  11.666 -0.2660 -0.0252  0.5959
   81TCq2    C9 1243   1.599   1.910  11.701 -0.8950  0.3017  0.6269
   81TCq2    O5 1244   1.623   2.024  11.751  0.2865  0.4548 -0.1537
   81TCq2    O6 1245   1.656   1.863  11.597 -0.1194 -0.4800  0.3129
   81TCq2    H2 1246   1.415   2.019  11.888  1.2481  0.9283 -2.7422
   81TCq2    H3 1247   1.501   1.681  11.636 -0.7685  1.2282 -0.6161
   81TCq2    H4 1248   1.138   1.715  11.861 -0.9982  1.1610  0.7491
   82MPD2     C 1249   3.629   1.406  11.171 -0.3723 -0.7045  0.0344
   82MPD2    C1 1250   3.651   1.312  11.079 -0.5719 -0.7104  0.1648
   82MPD2    C2 1251   3.762   1.222  11.089 -0.3133 -0.6608 -0.7204
   82MPD2    C3 1252   3.847   1.241  11.195  0.0605 -0.1795 -0.9378
   82MPD2    C4 1253   3.834   1.352  11.279 -0.3323  0.4211 -0.0944
   82MPD2    C5 1254   3.727   1.437  11.265  0.0374 -0.3634 -0.7264
   82MPD2     H 1255   3.786   1.149  11.013 -0.3482 -0.9701 -0.4374
   82MPD2    H1 1256   3.909   1.387  11.349  2.7523 -2.0445 -2.1835
   82MPD2    H2 1257   3.557   1.487  11.165 -1.6556 -1.6678  2.5146
   82MPD2    H3 1258   3.727   1.521  11.334  1.8607  0.8544 -2.2277
   82MPD2     N 1259   3.964   1.163  11.218 -0.6541  0.7981  1.1040
   82MPD2    H5 1260   4.019   1.190  11.298  1.0742  1.1613 -0.1962
   82MPD2    N1 1261   3.567   1.316  10.968  0.4368 -0.1438 -0.3778
   82MPD2    H7 1262   3.507   1.397  10.961 -0.4447 -0.7838 -0.3631
   83TCq2    C1 1263   4.000   1.043  11.161 -0.6656  0.0572 -0.0511
   83TCq2    O2 1264   3.940   0.973  11.081 -0.2136  0.0462 -0.1447
   83TCq2    C2 1265   4.139   1.004  11.184  0.3175  0.3192 -0.3572
   83TCq2    C3 1266   4.230   1.100  11.210  0.5418  0.3011 -0.3850
   83TCq2    C4 1267   4.345   1.066  11.274 -0.0219  0.5098 -0.0913
   83TCq2    C5 1268   4.378   0.936  11.306 -0.2243  0.7587  0.7022
   83TCq2    C6 1269   4.286   0.844  11.274 -0.5375  0.3603  0.7855
   83TCq2    C7 1270   4.164   0.877  11.212  0.8352  0.2034  0.1523
   83TCq2    C8 1271   4.296   0.712  11.340  0.4801  0.4042  0.1288
   83TCq2    O4 1272   4.365   0.695  11.438  0.7902  0.8203  0.0035
   83TCq2    C9 1273   4.446   1.167  11.295 -0.0523  0.5687 -0.4191
   83TCq2    O5 1274   4.556   1.129  11.344  0.1067 -0.6699  0.2062
   83TCq2    O6 1275   4.423   1.286  11.260 -0.7634  0.2363  0.2714
   83TCq2    H2 1276   4.204   1.204  11.192 -1.2918 -0.0259  0.3633
   83TCq2    H3 1277   4.475   0.907  11.344 -0.8103  0.5271  2.0210
   83TCq2    H4 1278   4.094   0.794  11.208  1.9741 -0.7868  0.6576
   84TCq2    C1 1279   1.107   4.527  10.593  0.2001  0.1768 -0.3376
   84TCq2    O2 1280   1.004   4.471  10.555  0.0977 -0.1686 -0.2024
   84TCq2    C2 1281   1.102   4.618  10.713  0.2198 -0.5736  1.4865
   84TCq2    C3 1282   1.214   4.680  10.768  0.4584 -0.3321  0.0887
   84TCq2    C4 1283   1.202   0.004  10.898  0.1566  0.2870 -0.2684
   84TCq2    C5 1284   1.083   4.725  10.962  1.1894 -0.3310  0.6284
   84TCq2    C6 1285   0.976   4.667  10.906 -0.2665 -0.5232  0.5113
   84TCq2    C7 1286   0.990   4.608  10.785 -0.5735  0.6466 -0.0444
   84TCq2    C8 1287   0.859   4.630  10.992  0.1619  0.2141 -0.1522
   84TCq2    O4 1288   0.787   4.545  10.938  0.3266  0.4530 -0.3101
   84TCq2    C9 1289   1.324   0.056  10.960 -0.4267 -0.1113  0.1737
   84TCq2    O5 1290   1.428   0.068  10.891  0.4732  0.2015 -0.2129
   84TCq2    O6 1291   1.324   0.083  11.085  0.2693  0.3891 -0.0770
   84TCq2    H2 1292   1.310   4.695  10.720 -0.6051  0.3182 -1.8262
   84TCq2    H3 1293   1.074   0.022  11.067 -0.9348 -1.1322  0.6186
   84TCq2    H4 1294   0.898   4.584  10.733  0.2551  1.3088 -1.7787
   85MPD2     C 1295   0.909   2.517  16.620  0.8967 -0.1708  0.7099
   85MPD2    C1 1296   0.860   2.501  16.488 -0.7722  0.1148  0.5465
   85MPD2    C2 1297   0.857   2.611  16.408 -0.0905  1.0163 -0.1155
   85MPD2    C3 1298   0.910   2.733  16.454  0.4689 -0.6977 -0.4153
   85MPD2    C4 1299   0.967   2.744  16.580  0.2010  0.1383  0.2431
   85MPD2    C5 1300   0.966   2.637  16.663 -0.0973  0.2049 -0.3683
   85MPD2     H 1301   0.829   2.598  16.304  1.4804 -1.7188 -0.1795
   85MPD2    H1 1302   1.010   2.835  16.621 -0.9285 -0.4666  2.7607
   85MPD2    H2 1303   0.903   2.442  16.699 -0.3534  0.2974  1.0577
   85MPD2    H3 1304   1.005   2.642  16.764 -0.1347 -0.6906 -0.3130
   85MPD2     N 1305   0.916   2.835  16.358  0.3543 -0.5130 -0.3967
   85MPD2    H5 1306   0.872   2.808  16.271  0.1562  1.3818 -0.8707
   85MPD2    N1 1307   0.810   2.380  16.442 -0.0124  0.2403  0.2966
   85MPD2    H7 1308   0.763   2.391  16.353 -0.5433  0.4464  0.6027
   86TCq2    C1 1309   0.959   2.962  16.385  0.0613  0.1450 -0.2037
   86TCq2    O2 1310   0.998   3.010  16.494 -0.7408  0.2177  0.4806
   86TCq2    C2 1311   0.952   3.056  16.273  0.5045  0.2676 -0.0988
   86TCq2    C3 1312   0.955   3.191  16.307  0.3494  0.2658  0.4525
   86TCq2    C4 1313   0.957   3.283  16.209 -0.3135  0.0890  0.2635
   86TCq2    C5 1314   0.968   3.251  16.077  0.6042  0.3367 -0.5146
   86TCq2    C6 1315   0.975   3.114  16.054 -0.3322 -0.3370 -0.2685
   86TCq2    C7 1316   0.984   3.015  16.150  0.3990  0.4642  0.3058
   86TCq2    C8 1317   1.009   3.055  15.931  0.2883  0.4712 -0.4385
   86TCq2    O4 1318   1.063   2.946  15.943  0.5129 -0.2742 -0.0187
   86TCq2    C9 1319   0.977   3.417  16.256  0.2329 -0.4694 -0.6133
   86TCq2    O5 1320   1.031   3.433  16.372 -0.0968 -0.5887 -0.2031
   86TCq2    O6 1321   0.948   3.504  16.172 -0.3537  0.2341  0.1956
   86TCq2    H2 1322   0.957   3.234  16.406 -0.1020  0.4483  0.3836
   86TCq2    H3 1323   0.984   3.331  16.006  1.3987 -0.1285 -0.8549
   86TCq2    H4 1324   0.979   2.910  16.125  1.4101  0.0952  1.7024
   87MPD2     C 1325   2.539   1.561   1.287  0.4265 -0.6527  0.1770
   87MPD2    C1 1326   2.645   1.644   1.255 -0.2352  0.2479  0.3785
   87MPD2    C2 1327   2.626   1.758   1.174  0.1466  0.2329 -0.1699
   87MPD2    C3 1328   2.497   1.770   1.114  0.5996 -0.2529  0.4526
   87MPD2    C4 1329   2.391   1.693   1.157  1.1179 -0.3447  0.4749
   87MPD2    C5 1330   2.417   1.589   1.241  0.3624 -0.2252 -0.3676
   87MPD2     H 1331   2.705   1.827   1.145  1.0583  0.3851  2.6954
   87MPD2    H1 1332   2.289   1.715   1.128  0.9464 -1.3971  0.3092
   87MPD2    H2 1333   2.552   1.482   1.360 -1.4877 -2.8514 -1.8924
   87MPD2    H3 1334   2.329   1.539   1.281 -0.5325  2.5776  1.1581
   87MPD2     N 1335   2.468   1.863   1.010  0.4865 -0.4763  0.6576
   87MPD2    H5 1336   2.371   1.879   0.984  0.5608 -1.0589  0.0395
   87MPD2    N1 1337   2.772   1.614   1.312 -0.1839  0.2997  0.5166
   87MPD2    H7 1338   2.763   1.536   1.376 -1.4549 -1.0505 -1.2887
   88TCq2    C1 1339   2.885   1.679   1.277  0.3431  0.6875  0.8382
   88TCq2    O2 1340   2.913   1.757   1.185  0.1490 -0.2132 -0.1777
   88TCq2    C2 1341   3.003   1.636   1.348  0.3028 -0.3478 -0.2001
   88TCq2    C3 1342   2.998   1.589   1.478 -0.0702  0.6878  0.1879
   88TCq2    C4 1343   3.116   1.563   1.549 -0.4719 -0.0128 -0.0883
   88TCq2    C5 1344   3.236   1.582   1.491  0.5616  0.2548  0.7998
   88TCq2    C6 1345   3.238   1.627   1.361  0.0241 -0.0893 -1.0297
   88TCq2    C7 1346   3.123   1.656   1.291 -0.5532 -0.4640 -0.0712
   88TCq2    C8 1347   3.366   1.646   1.287  0.2841 -0.0231 -0.2122
   88TCq2    O4 1348   3.470   1.664   1.344 -0.3807 -0.2408 -0.1004
   88TCq2    C9 1349   3.104   1.507   1.680 -0.8208  0.0471  0.3403
   88TCq2    O5 1350   2.994   1.451   1.705  0.2831 -0.0473  0.1990
   88TCq2    O6 1351   3.215   1.481   1.735  0.2722 -0.0093  0.2245
   88TCq2    H2 1352   2.906   1.565   1.531  0.8904 -0.6194  1.2705
   88TCq2    H3 1353   3.325   1.568   1.552  2.9988 -0.2733 -2.8845
   88TCq2    H4 1354   3.123   1.706   1.194 -1.1361  0.4965  0.4261
   89MPD2     C 1355   3.689   3.329   2.003 -0.0446 -0.0527  0.1179
   89MPD2    C1 1356   3.607   3.418   1.942  0.3143 -0.3353  0.1757
   89MPD2    C2 1357   3.649   3.516   1.856 -0.6633 -0.1679  0.1262
   89MPD2    C3 1358   3.782   3.514   1.826 -0.0409  0.3991 -0.5507
   89MPD2    C4 1359   3.868   3.420   1.877 -0.1627 -0.2508 -0.0176
   89MPD2    C5 1360   3.823   3.339   1.977 -0.3750  0.3728 -0.0005
   89MPD2     H 1361   3.586   3.590   1.808 -0.4862 -1.2497 -1.7599
   89MPD2    H1 1362   3.973   3.410   1.855 -0.4459 -0.5894 -1.2404
   89MPD2    H2 1363   3.657   3.254   2.075 -0.5489  1.6507  1.6872
   89MPD2    H3 1364   3.896   3.269   2.016  0.3888  0.9416 -0.3905
   89MPD2     N 1365   3.815   3.617   1.724  0.4256  0.0937  0.6385
   89MPD2    H5 1366   3.739   3.681   1.707  0.1741 -0.2760  0.3742
   89MPD2    N1 1367   3.471   3.403   1.958 -0.4821 -0.2089 -0.3723
   89MPD2    H7 1368   3.425   3.471   1.899 -2.2205  0.0867  1.2987
   90TCq2    C1 1369   3.934   3.623   1.666 -0.0449 -0.4179 -0.2548
   90TCq2    O2 1370   4.037   3.560   1.693 -0.4649 -0.5790 -0.4292
   90TCq2    C2 1371   3.934   3.731   1.565  0.3975 -0.2564 -0.8483
   90TCq2    C3 1372   3.844   3.833   1.582  0.2734 -0.6880 -0.2022
   90TCq2    C4 1373   3.830   3.921   1.479  0.6286  0.4438 -0.1888
   90TCq2    C5 1374   3.893   3.915   1.362  0.2526 -0.7077  0.7370
   90TCq2    C6 1375   3.977   3.804   1.351  0.0703  0.1703 -1.0099
   90TCq2    C7 1376   3.980   3.701   1.445 -0.2635  0.8133 -0.0619
   90TCq2    C8 1377   4.088   3.807   1.262  0.0016 -0.2084 -0.1649
   90TCq2    O4 1378   4.145   3.704   1.225 -0.0010  0.5863 -0.0169
   90TCq2    C9 1379   3.740   4.036   1.497  0.4120  0.0894  0.2296
   90TCq2    O5 1380   3.758   4.129   1.413  0.1519  0.1961  0.1882
   90TCq2    O6 1381   3.672   4.027   1.604  0.1858  0.5968  0.2225
   90TCq2    H2 1382   3.812   3.865   1.681  0.1826 -2.9298  0.5007
   90TCq2    H3 1383   3.889   3.990   1.283 -1.0470 -2.4323 -0.8507
   90TCq2    H4 1384   4.044   3.614   1.448  1.0885  1.8289  0.3724
   91TMC2    C1 1385   1.406   4.052  17.163 -0.6461  0.1529  0.4886
   91TMC2    C2 1386   1.346   4.008  17.279 -0.1227  0.0180 -0.0132
   91TMC2    C3 1387   1.218   4.057  17.304  0.2520 -0.3562  0.0975
   91TMC2    C4 1388   1.337   4.132  17.073  0.3387 -0.1146 -0.0939
   91TMC2    C5 1389   1.217   4.184  17.110  0.0248  0.6466 -0.4228
   91TMC2    C6 1390   1.156   4.148  17.229 -0.0901 -0.2039 -0.2358
   91TMC2     C 1391   1.531   3.978  17.132 -0.0654 -0.1711  0.9916
   91TMC2     O 1392   1.542   3.872  17.197 -0.3555  0.5640  0.1203
   91TMC2     H 1393   1.385   3.943  17.356 -0.4892  0.7746  0.8073
   91TMC2    H1 1394   1.347   4.135  16.965 -0.2936 -0.9153 -0.1781
   91TMC2    H2 1395   1.065   4.197  17.265  1.7037  3.7529 -1.1059
   91TMC2    C7 1396   1.144   4.247  17.001 -0.5381 -0.3842  0.9121
   91TMC2    C8 1397   1.161   4.023  17.435 -0.8331  0.0502  0.2707
   91TMC2    O1 1398   1.194   4.341  16.940 -0.5080  0.4331 -0.2760
   91TMC2    O2 1399   1.230   4.004  17.535  0.4095  0.9493  0.0259
   91TMC2    O5 1400   1.027   4.039  17.437 -0.5834  0.1965 -0.1059
   91TMC2    H5 1401   0.991   4.061  17.348  3.3699  2.8459 -1.0370
   92MPD2     C 1402   1.714   3.822  16.967  0.1984  0.4853 -0.1613
   92MPD2    C1 1403   1.679   3.948  16.937 -0.1657  0.1113 -0.0124
   92MPD2    C2 1404   1.745   4.008  16.827 -0.8078  0.1252  0.0159
   92MPD2    C3 1405   1.831   3.940  16.744  0.1049  0.0859 -0.1175
   92MPD2    C4 1406   1.871   3.815  16.790  0.1109  0.0509 -0.2373
   92MPD2    C5 1407   1.809   3.758  16.896 -0.1129  0.3138  0.5658
   92MPD2     H 1408   1.709   4.107  16.799 -0.0538 -0.0113 -1.4085
   92MPD2    H1 1409   1.956   3.765  16.747 -0.1191 -0.5390  0.0004
   92MPD2    H2 1410   1.668   3.766  17.047 -0.0912  0.2301 -0.5081
   92MPD2    H3 1411   1.841   3.663  16.938  0.7993 -0.0339 -0.9095
   92MPD2     N 1412   1.891   4.003  16.631  0.0281 -0.4741  0.5744
   92MPD2    H5 1413   1.875   4.102  16.615  1.9509 -0.2818 -0.1254
   92MPD2    N1 1414   1.586   4.014  17.012  0.1697 -0.7258  0.0185
   92MPD2    H7 1415   1.574   4.111  16.984  0.4567 -0.3693  1.1210
   93MPD2     C 1416   2.706   4.391  13.955 -0.7874 -0.4243 -0.1013
   93MPD2    C1 1417   2.693   4.321  14.077 -0.2294 -0.4229  0.4047
   93MPD2    C2 1418   2.569   4.280  14.110 -0.3460 -0.9242 -0.1203
   93MPD2    C3 1419   2.464   4.280  14.015  0.0185 -0.1893 -0.0060
   93MPD2    C4 1420   2.479   4.351  13.898 -0.3909  0.3273 -0.1684
   93MPD2    C5 1421   2.600   4.408  13.870 -0.5206  0.2079 -0.4973
   93MPD2     H 1422   2.557   4.246  14.212 -1.6701 -0.1187 -0.0171
   93MPD2    H1 1423   2.399   4.366  13.826  1.2969 -2.2913 -2.6200
   93MPD2    H2 1424   2.801   4.422  13.913  0.2453 -2.9862  0.2956
   93MPD2    H3 1425   2.618   4.461  13.777  0.0260  0.0217 -0.5017
   93MPD2     N 1426   2.332   4.224  14.031  0.3367  0.0065 -0.3677
   93MPD2    H5 1427   2.272   4.231  13.950  2.0112 -1.6601 -1.7629
   93MPD2    N1 1428   2.798   4.315  14.166 -0.2504 -0.7720 -1.0443
   93MPD2    H7 1429   2.774   4.282  14.259 -3.0109 -0.0133 -1.4703
   94TCq2    C1 1430   2.932   4.343  14.132 -0.3064 -0.1800 -0.2119
   94TCq2    O2 1431   2.985   4.345  14.022  0.8141 -0.0007 -0.0198
   94TCq2    C2 1432   3.024   4.332  14.244 -0.5103  0.1475  0.1037
   94TCq2    C3 1433   2.981   4.322  14.370  0.1849  0.5571 -0.3458
   94TCq2    C4 1434   3.062   4.277  14.469 -0.6475 -0.0042 -0.0577
   94TCq2    C5 1435   3.196   4.247  14.447  0.7043  0.2428  0.2216
   94TCq2    C6 1436   3.238   4.257  14.318  0.7485 -0.0335  0.7853
   94TCq2    C7 1437   3.153   4.289  14.217  0.4833 -0.6579 -0.6137
   94TCq2    C8 1438   3.383   4.244  14.290 -0.6157 -0.3022 -0.3592
   94TCq2    O4 1439   3.464   4.182  14.356  0.2071  0.5136 -0.3361
   94TCq2    C9 1440   3.020   4.280  14.605  0.0026  0.1067  0.6873
   94TCq2    O5 1441   3.104   4.278  14.697  0.4269  0.3240 -0.4663
   94TCq2    O6 1442   2.893   4.279  14.620  0.1542  0.2264 -0.6156
   94TCq2    H2 1443   2.899   4.379  14.413 -0.8010 -0.5336 -0.7516
   94TCq2    H3 1444   3.270   4.244  14.527  2.5892 -0.6163 -1.5439
   94TCq2    H4 1445   3.183   4.279  14.113  0.5142  1.9216 -0.8539
   95TMC2    C1 1446   2.706   0.696  15.723 -0.3191 -0.2507  1.1080
   95TMC2    C2 1447   2.590   0.741  15.783  0.0744 -0.6968 -0.1960
   95TMC2    C3 1448   2.503   0.651  15.847  0.6184  0.3336 -0.5612
   95TMC2    C4 1449   2.738   0.561  15.729  0.0535  0.1883 -0.2466
   95TMC2    C5 1450   2.662   0.474  15.805  0.0891 -0.1309 -0.8504
   95TMC2    C6 1451   2.540   0.517  15.863 -0.5542  0.1951 -0.1009
   95TMC2     C 1452   2.806   0.787  15.680  0.5948 -0.9596  0.2786
   95TMC2     O 1453   2.909   0.741  15.637  0.0729  0.1751 -0.2192
   95TMC2     H 1454   2.542   0.838  15.774  0.6233 -0.3867  0.2372
   95TMC2    H1 1455   2.836   0.529  15.697 -0.5126  0.4187 -2.1851
   95TMC2    H2 1456   2.481   0.455  15.929 -1.4982  1.4878  0.2768
   95TMC2    C7 1457   2.694   0.335  15.812 -0.6481  0.2287 -0.4291
   95TMC2    C8 1458   2.397   0.703  15.925 -0.5044  0.3468 -0.7195
   95TMC2    O1 1459   2.601   0.261  15.834 -0.3239 -0.9065  0.1100
   95TMC2    O2 1460   2.405   0.816  15.970 -0.4255  0.2469 -0.1476
   95TMC2    O5 1461   2.290   0.626  15.917 -0.4385 -0.6452  0.0988
   95TMC2    H5 1462   2.308   0.544  15.866  1.7390 -0.1492  0.0953
   96MPD2     C 1463   3.039   1.229  15.742  0.0811 -0.1316 -0.0407
   96MPD2    C1 1464   3.079   1.124  15.667 -0.1709 -0.3685  0.1429
   96MPD2    C2 1465   2.992   1.012  15.650 -0.0533 -0.0362 -0.2827
   96MPD2    C3 1466   2.867   1.018  15.708  0.1541 -0.0291 -0.4315
   96MPD2    C4 1467   2.824   1.134  15.766 -0.3599  0.2129  0.1045
   96MPD2    C5 1468   2.911   1.238  15.786 -0.3259 -0.0251 -0.4108
   96MPD2     H 1469   3.022   0.933  15.582  1.0097  1.3300 -1.4296
   96MPD2    H1 1470   2.722   1.151  15.799 -0.0771 -1.7068  1.9557
   96MPD2    H2 1471   3.098   1.320  15.745 -1.7739  1.0941 -0.8727
   96MPD2    H3 1472   2.891   1.322  15.851 -0.3835 -0.9370  0.7630
   96MPD2     N 1473   2.772   0.917  15.713 -0.2213  0.1052 -0.1821
   96MPD2    H5 1474   2.680   0.926  15.755 -0.4989 -0.1763 -0.7354
   96MPD2    N1 1475   3.218   1.129  15.614  0.9847  0.5308  0.1405
   96MPD2    H7 1476   3.267   1.216  15.632 -2.1925  2.6438 -1.3473
   97MPD2     C 1477   0.327   3.061   1.490  0.8671  0.9842 -0.2530
   97MPD2    C1 1478   0.212   3.136   1.502 -0.6340 -0.0057  0.4763
   97MPD2    C2 1479   0.196   3.263   1.447 -0.0296  0.5487  0.4634
   97MPD2    C3 1480   0.312   3.329   1.394  0.2767 -0.6384  0.1698
   97MPD2    C4 1481   0.428   3.261   1.376 -0.2068  0.2605  0.9959
   97MPD2    C5 1482   0.431   3.124   1.418 -0.1371 -0.2368 -0.1064
   97MPD2     H 1483   0.096   3.304   1.444 -0.8702 -1.6469 -1.8579
   97MPD2    H1 1484   0.517   3.311   1.340  0.3543 -1.0038  0.6079
   97MPD2    H2 1485   0.327   2.958   1.524  0.4896  1.5373  1.4057
   97MPD2    H3 1486   0.522   3.066   1.405 -0.7881 -0.8343 -2.0622
   97MPD2     N 1487   0.305   3.459   1.343  0.3663  0.3583 -0.1752
   97MPD2    H5 1488   0.393   3.494   1.306  1.2428 -1.5476  0.1055
   97MPD2    N1 1489   0.112   3.085   1.583 -0.4381 -0.1838  0.8082
   97MPD2    H7 1490   0.121   2.990   1.618 -1.2395  0.2483  2.1500
   98TCq2    C1 1491   0.196   3.540   1.349 -0.4602  0.5821 -0.4590
   98TCq2    O2 1492   0.094   3.524   1.411 -0.0188  0.3972 -0.7280
   98TCq2    C2 1493   0.210   3.678   1.298 -0.3370  0.4477  0.1360
   98TCq2    C3 1494   0.137   3.770   1.364  0.1724  0.4687 -0.3045
   98TCq2    C4 1495   0.171   3.905   1.348 -0.4797  0.1995  0.0234
   98TCq2    C5 1496   0.262   3.936   1.251 -0.2996  0.0036 -0.1478
   98TCq2    C6 1497   0.344   3.840   1.193 -0.2373 -0.0198 -0.4764
   98TCq2    C7 1498   0.315   3.710   1.215 -0.5234 -0.2900 -0.0743
   98TCq2    C8 1499   0.408   3.870   1.065  1.3666 -0.7725  0.3832
   98TCq2    O4 1500   0.513   3.806   1.033 -0.3251 -0.1396 -0.4048
   98TCq2    C9 1501   0.113   4.019   1.420 -0.9259 -0.2812 -0.8015
   98TCq2    O5 1502   0.144   4.133   1.387 -0.3045  0.0277 -0.5394
   98TCq2    O6 1503   0.025   3.997   1.509 -0.1002  0.1667 -0.0388
   98TCq2    H2 1504   0.061   3.751   1.439  1.0263  1.2225  0.7679
   98TCq2    H3 1505   0.284   4.041   1.236 -3.0364  0.6636  0.5482
   98TCq2    H4 1506   0.387   3.640   1.173  1.5328  0.8366  1.5726
   99MPD2     C 1507   4.280   1.024   1.535  0.0191  0.0469  0.4488
   99MPD2    C1 1508   4.169   1.033   1.452 -0.3002 -0.2104  0.0164
   99MPD2    C2 1509   4.171   0.977   1.322 -0.7448  0.3106  0.7333
   99MPD2    C3 1510   4.293   0.924   1.279 -0.3359  0.1129  0.3126
   99MPD2    C4 1511   4.406   0.920   1.366  0.3667  0.1696 -0.5742
   99MPD2    C5 1512   4.396   0.967   1.494  0.0481  0.0992  0.4724
   99MPD2     H 1513   4.081   1.000   1.266 -0.5429 -1.1017 -0.1795
   99MPD2    H1 1514   4.497   0.870   1.338  1.5443  1.2530  1.3529
   99MPD2    H2 1515   4.283   1.053   1.639 -0.7921 -0.8430  0.7238
   99MPD2    H3 1516   4.486   0.974   1.554 -0.9132  0.4428  1.8781
   99MPD2     N 1517   4.292   0.858   1.159  0.4062  0.0165 -0.0770
   99MPD2    H5 1518   4.204   0.871   1.110  0.3987  1.4890  0.3186
   99MPD2    N1 1519   4.043   1.086   1.492 -0.0456  0.4160 -0.4989
   99MPD2    H7 1520   3.964   1.054   1.437 -0.4230  1.0236 -0.3027
  100TCq2    C1 1521   4.009   1.135   1.617 -0.3192 -0.0653  0.9893
  100TCq2    O2 1522   4.063   1.157   1.722  0.5042  0.2434 -0.4140
  100TCq2    C2 1523   3.868   1.114   1.630  0.4054  0.1349 -0.3464
  100TCq2    C3 1524   3.821   1.053   1.744 -0.9898 -0.4300  0.7263
  100TCq2    C4 1525   3.692   1.012   1.748  1.1515 -0.4252 -0.1615
  100TCq2    C5 1526   3.601   1.045   1.650 -0.3033  0.3212 -0.6059
  100TCq2    C6 1527   3.653   1.122   1.546  0.0193  0.5724 -0.1256
  100TCq2    C7 1528   3.786   1.157   1.531 -0.1067 -0.3939 -0.1158
  100TCq2    C8 1529   3.554   1.184   1.457  0.0925 -0.1773  0.1375
  100TCq2    O4 1530   3.567   1.298   1.420 -0.0641 -0.2014  0.2119
  100TCq2    C9 1531   3.645   0.950   1.871  0.6108 -0.8127  0.2894
  100TCq2    O5 1532   3.546   1.004   1.923 -0.1351  0.0899 -0.6190
  100TCq2    O6 1533   3.716   0.863   1.928 -0.1338 -0.1613 -0.5553
  100TCq2    H2 1534   3.890   1.029   1.823  1.0528  2.1255 -0.2498
  100TCq2    H3 1535   3.495   1.019   1.652 -0.1624 -0.3125 -1.7730
  100TCq2    H4 1536   3.819   1.231   1.460 -2.2069  0.8444  0.1810
  101MPD2     C 1537   0.029   1.675  13.027 -0.0667  0.7503 -0.4556
  101MPD2    C1 1538   4.678   1.715  13.128  0.2981  0.0854 -0.4486
  101MPD2    C2 1539   4.647   1.634  13.230 -1.0406 -0.2532 -0.7521
  101MPD2    C3 1540   4.679   1.502  13.227  0.1297 -0.5151  0.5229
  101MPD2    C4 1541   0.029   1.457  13.119  0.2514  0.3967 -0.6498
  101MPD2    C5 1542   0.065   1.541  13.020 -0.0318  0.1804  0.5140
  101MPD2     H 1543   4.583   1.668  13.310 -0.9936 -2.8591  0.3774
  101MPD2    H1 1544   0.071   1.358  13.111 -1.7918 -0.9369  4.7144
  101MPD2    H2 1545   0.043   1.740  12.942 -0.4374  0.7703 -0.5015
  101MPD2    H3 1546   0.125   1.506  12.937 -0.6497 -0.6331  0.4054
  101MPD2     N 1547   4.621   1.420  13.324  0.4889 -0.0878 -0.6151
  101MPD2    H5 1548   4.563   1.473  13.388 -2.7188 -1.3167 -2.4871
  101MPD2    N1 1549   4.645   1.847  13.111  0.9321 -0.4846 -0.4130
  101MPD2    H7 1550   4.673   1.903  13.030  1.0515  0.1947  0.0981
  102TCq2    C1 1551   4.563   2.233  12.818 -0.1738  0.6753  0.6265
  102TCq2    O2 1552   4.671   2.188  12.776 -0.5261  0.6821  0.8975
  102TCq2    C2 1553   4.512   2.188  12.951 -0.1549 -0.2356  0.0802
  102TCq2    C3 1554   4.406   2.254  13.012  1.1217  0.1570  0.2060
  102TCq2    C4 1555   4.373   2.226  13.142 -0.8020 -0.1412  0.2760
  102TCq2    C5 1556   4.434   2.121  13.205 -0.3149  0.3454 -0.7801
  102TCq2    C6 1557   4.537   2.056  13.139  0.4746 -0.6046  1.0637
  102TCq2    C7 1558   4.578   2.084  13.012  0.3266  0.8347 -0.7181
  102TCq2    C8 1559   4.563   1.924  13.191  0.0857 -0.8374 -0.1638
  102TCq2    O4 1560   4.497   1.883  13.285  0.0547  0.2911  1.1327
  102TCq2    C9 1561   4.256   2.283  13.201  0.5509 -0.7985 -0.5846
  102TCq2    O5 1562   4.194   2.371  13.136 -0.1574  0.9227  0.5714
  102TCq2    O6 1563   4.234   2.241  13.320  0.3108  0.5597  0.4465
  102TCq2    H2 1564   4.361   2.348  12.981 -3.6386 -2.5041 -1.0229
  102TCq2    H3 1565   4.396   2.097  13.304  0.1826  0.2472 -0.6144
  102TCq2    H4 1566   4.662   2.032  12.966 -0.5313 -1.7558  0.6517
  103TMC2    C1 1567   2.643   1.663  12.298  0.5281  0.3791 -0.0117
  103TMC2    C2 1568   2.716   1.707  12.191 -0.0831  1.1223 -0.2189
  103TMC2    C3 1569   2.841   1.742  12.209 -0.7057  0.8132 -0.6736
  103TMC2    C4 1570   2.706   1.633  12.421 -0.1690 -0.6680 -0.5555
  103TMC2    C5 1571   2.837   1.670  12.420 -0.0387  0.1698  0.6850
  103TMC2    C6 1572   2.913   1.714  12.320 -0.2575 -0.6133 -0.7256
  103TMC2     C 1573   2.544   1.569  12.259 -0.1932  0.2869  0.2126
  103TMC2     O 1574   2.471   1.600  12.162 -0.0335 -0.4428 -0.0623
  103TMC2     H 1575   2.664   1.739  12.102  0.2699  0.2070 -0.7503
  103TMC2    H1 1576   2.658   1.588  12.507  0.0602  0.9829  0.4362
  103TMC2    H2 1577   3.011   1.754  12.340  0.3555 -1.2785 -2.4176
  103TMC2    C7 1578   2.882   1.654  12.558 -0.2142  0.2003 -0.0361
  103TMC2    C8 1579   2.912   1.753  12.084 -0.4687 -0.6388 -0.1852
  103TMC2    O1 1580   2.803   1.672  12.653  0.8924 -0.0699  0.2275
  103TMC2    O2 1581   2.852   1.770  11.980 -0.0192  0.0868  0.6497
  103TMC2    O5 1582   3.003   1.658  12.099 -0.1084 -0.7101 -0.5800
  103TMC2    H5 1583   2.997   1.627  12.192  0.8625  3.1252  0.8003
  104MPD2     C 1584   2.570   1.214  12.242  0.3778  0.2052  0.1808
  104MPD2    C1 1585   2.498   1.330  12.248  0.2145 -0.0963 -0.3595
  104MPD2    C2 1586   2.383   1.340  12.170 -0.2238 -0.0408 -0.4424
  104MPD2    C3 1587   2.320   1.231  12.108  0.5277 -0.7793 -0.0559
  104MPD2    C4 1588   2.384   1.105  12.126  0.0047  0.1878 -0.9351
  104MPD2    C5 1589   2.511   1.105  12.178  0.5800  0.2472  0.1509
  104MPD2     H 1590   2.333   1.436  12.161  0.7668  0.5866  0.6082
  104MPD2    H1 1591   2.344   1.013  12.085  0.8406 -0.5149 -0.1672
  104MPD2    H2 1592   2.672   1.200  12.276  0.7395  0.3610 -0.8632
  104MPD2    H3 1593   2.566   1.012  12.169 -0.3176 -0.5138  2.4392
  104MPD2     N 1594   2.206   1.253  12.028  1.2046  0.2156 -0.1339
  104MPD2    H5 1595   2.163   1.341  12.051 -0.2403  0.1634 -2.6146
  104MPD2    N1 1596   2.566   1.438  12.307  0.4768 -0.0473  0.1229
  104MPD2    H7 1597   2.647   1.420  12.366  0.1462 -0.8816  0.3143
  105MPD2     C 1598   4.583   1.428   0.425 -0.3150  0.4767 -0.1086
  105MPD2    C1 1599   4.472   1.504   0.386 -0.9396 -0.1805 -0.2021
  105MPD2    C2 1600   4.383   1.545   0.485  0.0928 -0.5407  0.4345
  105MPD2    C3 1601   4.420   1.526   0.621  0.5609  0.1825 -0.0270
  105MPD2    C4 1602   4.532   1.451   0.648  0.7129  0.0872 -0.4920
  105MPD2    C5 1603   4.606   1.396   0.551  0.1564 -0.1577  0.7751
  105MPD2     H 1604   4.302   1.612   0.462 -1.3290 -1.8023  1.7223
  105MPD2    H1 1605   4.574   1.442   0.748  0.5357 -0.8769 -0.5038
  105MPD2    H2 1606   4.646   1.390   0.345  2.5189  0.0500  2.3251
  105MPD2    H3 1607   4.694   1.343   0.584  2.1080  2.9609  0.5981
  105MPD2     N 1608   4.340   1.583   0.726 -0.1273 -0.6168 -0.3022
  105MPD2    H5 1609   4.246   1.610   0.699 -0.2454 -0.0883  0.6257
  105MPD2    N1 1610   4.437   1.541   0.250 -0.1307 -0.1305  0.1769
  105MPD2    H7 1611   4.343   1.575   0.230 -0.7207 -2.6479 -1.4175
  106TCq2    C1 1612   4.371   1.610   0.855  0.3226  0.4820 -0.0034
  106TCq2    O2 1613   4.478   1.620   0.910 -0.0235 -0.1331 -0.0099
  106TCq2    C2 1614   4.247   1.652   0.922  0.1467  0.0570 -0.4402
  106TCq2    C3 1615   4.264   1.705   1.049  0.9470 -0.5663  0.0435
  106TCq2    C4 1616   4.154   1.741   1.119 -0.2110 -0.4721  0.0697
  106TCq2    C5 1617   4.030   1.716   1.063  0.3763  0.3387  0.2179
  106TCq2    C6 1618   4.018   1.654   0.941 -0.2977  0.4662  0.1655
  106TCq2    C7 1619   4.120   1.620   0.867  0.0012  0.2392  0.3752
  106TCq2    C8 1620   3.884   1.628   0.885 -0.1531 -0.7167  0.4138
  106TCq2    O4 1621   3.879   1.580   0.775 -0.8609 -0.3504 -0.4209
  106TCq2    C9 1622   4.162   1.800   1.251  0.5328  0.5403  0.0584
  106TCq2    O5 1623   4.277   1.818   1.304 -0.5416  0.1801 -0.0709
  106TCq2    O6 1624   4.058   1.856   1.294 -0.0494 -0.4441 -1.0037
  106TCq2    H2 1625   4.359   1.734   1.093  1.1631 -3.0121  1.1776
  106TCq2    H3 1626   3.949   1.770   1.111 -1.7942 -1.6333 -1.2483
  106TCq2    H4 1627   4.116   1.554   0.781 -1.7557  0.4736  0.2939
  107TMC2    C1 1628   0.576   0.449  11.864 -0.0903 -0.0891  0.0157
  107TMC2    C2 1629   0.618   0.562  11.791  1.2441  0.2966  0.2941
  107TMC2    C3 1630   0.642   0.544  11.662 -0.0942 -0.3920  0.4439
  107TMC2    C4 1631   0.561   0.327  11.805  0.0449 -0.4613  0.7019
  107TMC2    C5 1632   0.586   0.320  11.672  0.3581  0.4813 -0.9062
  107TMC2    C6 1633   0.626   0.425  11.594 -0.3680 -0.4216 -0.7367
  107TMC2     C 1634   0.493   0.467  11.987 -0.2791 -0.0084  0.1946
  107TMC2     O 1635   0.461   0.363  12.043 -0.4575 -0.2085  0.3567
  107TMC2     H 1636   0.634   0.660  11.834 -0.4052  0.2192  1.0655
  107TMC2    H1 1637   0.539   0.241  11.868 -0.8253 -1.0526 -0.4225
  107TMC2    H2 1638   0.656   0.415  11.490  1.2404 -2.7900 -0.0463
  107TMC2    C7 1639   0.563   0.191  11.609  0.0703 -0.0575  0.4296
  107TMC2    C8 1640   0.635   0.669  11.586  0.7437 -0.0114 -0.0428
  107TMC2    O1 1641   0.504   0.102  11.676  0.6234  0.0950 -0.2505
  107TMC2    O2 1642   0.654   0.771  11.644 -0.0663  0.0104  0.2018
  107TMC2    O5 1643   0.574   0.661  11.466  0.1787  0.9463 -0.2997
  107TMC2    H5 1644   0.524   0.577  11.455 -1.2967  1.5600  1.6034
  108MPD2     C 1645   0.292   0.742  12.110 -0.2330 -1.0306 -0.0393
  108MPD2    C1 1646   0.372   0.632  12.119  0.2039 -0.5388 -0.1946
  108MPD2    C2 1647   0.376   0.565  12.242 -0.1122  0.6718  0.4997
  108MPD2    C3 1648   0.306   0.611  12.350  0.7116  0.4680  0.0372
  108MPD2    C4 1649   0.236   0.724  12.340  1.1910  0.3942 -0.3753
  108MPD2    C5 1650   0.227   0.792  12.220 -0.0257 -0.5095  0.4166
  108MPD2     H 1651   0.433   0.473  12.254 -1.5745 -0.4510 -1.0097
  108MPD2    H1 1652   0.179   0.774  12.418  0.3599 -0.0357 -0.7157
  108MPD2    H2 1653   0.295   0.806  12.023  3.1184  1.6748  2.0269
  108MPD2    H3 1654   0.181   0.889  12.207  0.0319 -0.3435  1.3932
  108MPD2     N 1655   0.296   0.548  12.469 -0.0489 -0.3725  0.2649
  108MPD2    H5 1656   0.229   0.591  12.532  0.5450  0.3025  0.4349
  108MPD2    N1 1657   0.445   0.594  12.005  0.1549 -0.1144 -0.4280
  108MPD2    H7 1658   0.450   0.666  11.934  2.6934 -0.3137 -0.4601
  109MPD2     C 1659   0.756   2.446   1.471  0.0237 -0.2007  0.2016
  109MPD2    C1 1660   0.632   2.469   1.502  0.3018  0.0540  0.5160
  109MPD2    C2 1661   0.587   2.426   1.627  0.3355 -0.5778 -0.1911
  109MPD2    C3 1662   0.680   2.389   1.727  0.1201 -0.4426 -0.0149
  109MPD2    C4 1663   0.808   2.376   1.701  0.4658  0.2169 -0.0774
  109MPD2    C5 1664   0.842   2.403   1.570 -0.4074  0.0353  0.1589
  109MPD2     H 1665   0.484   2.444   1.656  0.8176  0.4574  0.9020
  109MPD2    H1 1666   0.889   2.347   1.768 -0.6347 -0.1432  1.0923
  109MPD2    H2 1667   0.793   2.455   1.369  1.0516  2.7823  0.8498
  109MPD2    H3 1668   0.945   2.384   1.539 -1.0146 -1.7363 -0.7522
  109MPD2     N 1669   0.619   2.371   1.860  0.4493  0.5501 -0.2024
  109MPD2    H5 1670   0.519   2.385   1.871  0.3248  1.2133 -2.1477
  109MPD2    N1 1671   0.568   2.542   1.405  0.1956  0.7474 -0.1538
  109MPD2    H7 1672   0.610   2.547   1.313  2.3643 -0.2597  0.7961
  110TCq2    C1 1673   0.686   2.339   1.974 -0.2437  0.1549 -0.3758
  110TCq2    O2 1674   0.795   2.282   1.973  0.1474  0.1976 -0.2202
  110TCq2    C2 1675   0.603   2.317   2.088 -0.2873  0.3697 -0.0209
  110TCq2    C3 1676   0.589   2.182   2.121  0.1393  0.2904 -0.4541
  110TCq2    C4 1677   0.469   2.140   2.174  0.0609  0.0005  0.3271
  110TCq2    C5 1678   0.369   2.227   2.207  0.2603  0.0896 -0.3706
  110TCq2    C6 1679   0.374   2.355   2.155  0.1466 -0.3676  0.4777
  110TCq2    C7 1680   0.487   2.397   2.098  0.2147  0.2913 -0.0554
  110TCq2    C8 1681   0.261   2.450   2.154  0.2140  0.3332 -0.1893
  110TCq2    O4 1682   0.277   2.571   2.116 -0.4256  0.0600  0.8037
  110TCq2    C9 1683   0.453   2.005   2.208  0.5759  0.0284 -0.0087
  110TCq2    O5 1684   0.339   1.962   2.219 -0.4749  0.9896  0.2997
  110TCq2    O6 1685   0.563   1.957   2.247  0.2897 -0.2659 -0.1190
  110TCq2    H2 1686   0.675   2.116   2.119 -0.9480 -1.1115 -0.7295
  110TCq2    H3 1687   0.294   2.196   2.279  0.7036  1.4759  0.7025
  110TCq2    H4 1688   0.492   2.499   2.063  0.3319  0.3389  0.0994
  111TMC2    C1 1689   4.291   2.824  11.417  0.4912 -0.1808 -0.2130
  111TMC2    C2 1690   4.191   2.729  11.413  0.7969  0.2763  0.0194
  111TMC2    C3 1691   4.190   2.634  11.513 -0.7869 -0.0486  0.0381
  111TMC2    C4 1692   4.385   2.833  11.517  0.6072  0.1327 -0.1736
  111TMC2    C5 1693   4.386   2.725  11.606  0.2116 -0.7969  0.4070
  111TMC2    C6 1694   4.284   2.629  11.606 -0.2162 -0.4313 -0.0285
  111TMC2     C 1695   4.283   2.933  11.320 -0.4291  0.0836  0.0694
  111TMC2     O 1696   4.276   2.910  11.198  0.3867 -0.5277  0.3539
  111TMC2     H 1697   4.118   2.724  11.333  0.9950  1.9157 -0.2695
  111TMC2    H1 1698   4.460   2.910  11.523  0.5580  0.3978 -3.2838
  111TMC2    H2 1699   4.295   2.541  11.669  0.0797 -0.4860 -0.1544
  111TMC2    C7 1700   4.503   2.678  11.665  0.0214  0.1169 -0.7920
  111TMC2    C8 1701   4.113   2.510  11.496 -0.3171  0.2911 -0.1083
  111TMC2    O1 1702   4.499   2.597  11.758  0.1927 -0.1781  0.1129
  111TMC2    O2 1703   4.088   2.425  11.583  0.0273 -0.5891 -0.2827
  111TMC2    O5 1704   4.133   2.472  11.372 -0.3804  0.3773  0.2167
  111TMC2    H5 1705   4.152   2.549  11.314  0.4767 -1.2838 -1.6715
  112MPD2     C 1706   4.256   3.442  11.229 -0.6770 -0.6537  0.3796
  112MPD2    C1 1707   4.268   3.334  11.140 -0.2316 -0.0192  0.3565
  112MPD2    C2 1708   4.278   3.201  11.187 -1.1355  0.4065 -0.3117
  112MPD2    C3 1709   4.269   3.180  11.326  0.5904 -0.7001 -1.1000
  112MPD2    C4 1710   4.250   3.291  11.408 -0.2924 -0.0935  0.1481
  112MPD2    C5 1711   4.256   3.424  11.364  0.3182 -0.5102 -0.5219
  112MPD2     H 1712   4.296   3.127  11.111  0.6096  0.1333  0.3857
  112MPD2    H1 1713   4.237   3.288  11.516 -0.3819 -1.0743  0.1139
  112MPD2    H2 1714   4.257   3.542  11.189 -2.0906 -1.0033 -0.5086
  112MPD2    H3 1715   4.245   3.507  11.433  0.3489 -0.9498  0.0160
  112MPD2     N 1716   4.274   3.057  11.386  0.7864  0.6011 -0.1505
  112MPD2    H5 1717   4.264   3.045  11.486 -1.4790 -2.0783 -0.7020
  112MPD2    N1 1718   4.269   3.356  10.999 -0.3126  0.9027 -0.5945
  112MPD2    H7 1719   4.282   3.274  10.941  0.0709  0.3370  0.2931
  113MPD2     C 1720   3.207   0.594   0.903  0.6327  0.6379  0.1940
  113MPD2    C1 1721   3.134   0.712   0.878 -0.6746 -0.0530 -0.4369
  113MPD2    C2 1722   2.999   0.702   0.845  0.3871  0.5399 -0.3007
  113MPD2    C3 1723   2.946   0.577   0.828 -0.7313 -0.4860 -0.4322
  113MPD2    C4 1724   3.018   0.468   0.856  0.0239 -0.4678 -0.2455
  113MPD2    C5 1725   3.145   0.474   0.904  0.1234  0.3660 -0.7026
  113MPD2     H 1726   2.950   0.798   0.831  2.3272  1.5545 -0.1648
  113MPD2    H1 1727   2.968   0.372   0.851 -0.5324 -0.0417 -2.6529
  113MPD2    H2 1728   3.314   0.598   0.920  1.0888  0.2090 -2.5268
  113MPD2    H3 1729   3.207   0.385   0.914  2.0759  1.4737 -2.7222
  113MPD2     N 1730   2.807   0.559   0.799 -0.0088  1.0446 -0.3850
  113MPD2    H5 1731   2.770   0.467   0.779  0.3133  0.4851  1.5686
  113MPD2    N1 1732   3.193   0.843   0.877 -0.0198 -0.7552 -0.6776
  113MPD2    H7 1733   3.132   0.920   0.851  0.6254  0.2437  0.7288
  114TCq2    C1 1734   2.712   0.662   0.785 -0.7094  0.7736  0.1473
  114TCq2    O2 1735   2.717   0.780   0.820 -0.2749 -0.8939 -1.0431
  114TCq2    C2 1736   2.584   0.611   0.739 -0.4644  0.0567 -0.1466
  114TCq2    C3 1737   2.468   0.676   0.769 -0.2137 -0.8229 -0.3796
  114TCq2    C4 1738   2.346   0.617   0.743  0.4976 -0.3531  0.0229
  114TCq2    C5 1739   2.336   0.485   0.709  0.6207 -0.5307  0.5544
  114TCq2    C6 1740   2.458   0.415   0.691  0.2891 -0.4382 -0.1837
  114TCq2    C7 1741   2.583   0.478   0.695 -0.7105  0.0807  0.3137
  114TCq2    C8 1742   2.454   0.272   0.666 -0.0750 -0.6092  0.6921
  114TCq2    O4 1743   2.555   0.229   0.623 -0.5836 -0.1745 -0.2669
  114TCq2    C9 1744   2.225   0.679   0.791 -0.0244 -0.2720  1.2121
  114TCq2    O5 1745   2.203   0.802   0.761  0.2890 -0.2875 -0.0398
  114TCq2    O6 1746   2.154   0.607   0.865  0.1428  0.4028 -0.4132
  114TCq2    H2 1747   2.474   0.773   0.817  2.8213 -1.5181  0.6210
  114TCq2    H3 1748   2.247   0.427   0.691  2.5179 -3.7584  1.6137
  114TCq2    H4 1749   2.669   0.415   0.676 -0.6116 -0.1626  1.5424
  115TMC2    C1 1750   3.907   2.800   0.371  0.1835 -0.6085  0.1236
  115TMC2    C2 1751   3.929   2.819   0.502  1.0710  0.4031  0.5030
  115TMC2    C3 1752   3.901   2.944   0.544  0.8860  0.4713 -0.4012
  115TMC2    C4 1753   3.840   2.886   0.287  1.2062  0.7431  0.5471
  115TMC2    C5 1754   3.807   3.002   0.337  0.3318  0.3908 -0.4856
  115TMC2    C6 1755   3.834   3.038   0.470  0.0520 -0.3920  0.1270
  115TMC2     C 1756   3.940   2.673   0.304  0.4605 -0.0787  0.3868
  115TMC2     O 1757   3.879   2.642   0.206 -0.0209  0.3577  0.0062
  115TMC2     H 1758   3.962   2.742   0.571 -0.2993 -0.2844  0.3780
  115TMC2    H1 1759   3.840   2.867   0.180 -0.1929  0.2421  0.6441
  115TMC2    H2 1760   3.815   3.136   0.512  1.0565  1.5972 -4.1153
  115TMC2    C7 1761   3.715   3.076   0.250 -0.1418 -0.1600  0.3348
  115TMC2    C8 1762   3.929   2.982   0.678 -0.5751 -0.0752  0.3283
  115TMC2    O1 1763   3.658   3.014   0.164  0.1761 -0.5412  0.3488
  115TMC2    O2 1764   3.987   3.083   0.711 -0.4360 -0.7474  1.0908
  115TMC2    O5 1765   3.874   2.885   0.760  0.2211  0.3244  0.1804
  115TMC2    H5 1766   3.818   2.820   0.713  0.5109 -0.1290  0.4626
  116MPD2     C 1767   4.178   2.226   0.272  0.4805  0.0696  0.7400
  116MPD2    C1 1768   4.080   2.282   0.201  0.1703  0.1222  0.1929
  116MPD2    C2 1769   4.035   2.407   0.235  0.2959  0.1045 -0.0362
  116MPD2    C3 1770   4.088   2.474   0.338  0.7165 -0.0340  0.1785
  116MPD2    C4 1771   4.191   2.418   0.406  0.1154  0.5214 -0.2403
  116MPD2    C5 1772   4.227   2.289   0.381 -1.0385 -0.5448 -0.7223
  116MPD2     H 1773   3.958   2.450   0.173 -1.1599  0.0140  1.6866
  116MPD2    H1 1774   4.229   2.471   0.493 -1.9354 -0.3765  1.2085
  116MPD2    H2 1775   4.225   2.133   0.241 -0.4876 -0.5156  1.0155
  116MPD2    H3 1776   4.292   2.244   0.455 -0.6252 -0.1505 -0.8417
  116MPD2     N 1777   4.038   2.603   0.369  0.2904  0.4608  0.0583
  116MPD2    H5 1778   4.084   2.658   0.442 -2.7538 -0.4708  2.7164
  116MPD2    N1 1779   4.030   2.211   0.090 -0.7125 -0.1358  0.0001
  116MPD2    H7 1780   4.064   2.118   0.070 -0.5618 -0.6295  2.4574
  117TMC2    C1 1781   2.339   4.358  14.530  0.2165  0.2087 -0.8228
  117TMC2    C2 1782   2.326   4.397  14.659  0.6113 -0.3216 -0.4129
  117TMC2    C3 1783   2.416   4.483  14.720 -0.1902  0.2206  0.7129
  117TMC2    C4 1784   2.437   4.415  14.458  0.3276  0.4813 -0.0669
  117TMC2    C5 1785   2.529   4.496  14.514 -0.3861  0.7065 -0.1163
  117TMC2    C6 1786   2.522   4.532  14.649  0.3955 -0.2086  0.5276
  117TMC2     C 1787   2.217   4.319  14.462 -0.6722 -0.3490  0.1009
  117TMC2     O 1788   2.155   4.227  14.521 -0.4134  0.1484  0.3937
  117TMC2     H 1789   2.243   4.359  14.717  0.6745 -0.0985 -0.1785
  117TMC2    H1 1790   2.463   4.369  14.362  0.8561  1.3947 -0.3578
  117TMC2    H2 1791   2.582   4.618  14.680  0.5739  0.1072 -0.6959
  117TMC2    C7 1792   2.624   4.551  14.424  0.1430  0.8583 -0.6826
  117TMC2    C8 1793   2.405   4.500  14.855 -0.1072 -0.0316 -0.2865
  117TMC2    O1 1794   2.581   4.568  14.310 -0.2538  0.0305  0.1913
  117TMC2    O2 1795   2.304   4.476  14.921  0.7313 -0.5637 -0.3478
  117TMC2    O5 1796   2.530   4.477  14.904 -0.4044 -0.5438  0.2188
  117TMC2    H5 1797   2.604   4.494  14.842  0.9690 -1.1926  1.6820
  118MPD2     C 1798   2.964   4.664  14.501 -0.0249 -1.1700 -0.1234
  118MPD2    C1 1799   2.852   4.652  14.418  0.4039 -1.0027 -0.2749
  118MPD2    C2 1800   2.859   4.690  14.283 -0.3516  0.0709 -0.3686
  118MPD2    C3 1801   2.978   0.008  14.229 -0.6145  0.0198 -0.4628
  118MPD2    C4 1802   3.091   0.015  14.313 -0.2112  0.0213 -0.1782
  118MPD2    C5 1803   3.083   4.707  14.448  0.3487  1.0894 -0.8497
  118MPD2     H 1804   2.766   4.682  14.226 -1.4109  0.2376  1.3275
  118MPD2    H1 1805   3.181   0.050  14.265 -0.7688  1.9997  0.2017
  118MPD2    H2 1806   2.956   4.628  14.603  1.9951 -0.4489  0.2861
  118MPD2    H3 1807   3.164   4.707  14.520 -0.6319  1.7406  0.2692
  118MPD2     N 1808   3.005   0.059  14.104  0.2725  0.2914  0.4844
  118MPD2    H5 1809   3.104   0.081  14.091  0.5482  0.7563  3.2365
  118MPD2    N1 1810   2.738   4.592  14.482 -0.4039  0.6885  0.1301
  118MPD2    H7 1811   2.743   4.572  14.581 -0.8585  1.6864  0.3577
  119MPD2     C 1812   0.875   1.533  13.535 -0.0504  0.4989  0.5335
  119MPD2    C1 1813   0.761   1.465  13.566 -0.4003 -0.2615  0.1544
  119MPD2    C2 1814   0.644   1.496  13.503 -0.6134  0.3739  0.1119
  119MPD2    C3 1815   0.638   1.581  13.393 -0.3173 -0.4411 -0.7589
  119MPD2    C4 1816   0.759   1.638  13.352 -0.8819  0.2502 -0.0151
  119MPD2    C5 1817   0.872   1.608  13.425 -0.0181  0.3832 -0.5567
  119MPD2     H 1818   0.552   1.455  13.544  0.6777 -1.9171  0.7155
  119MPD2    H1 1819   0.759   1.697  13.262 -1.5241  0.6313  0.2328
  119MPD2    H2 1820   0.965   1.530  13.594 -1.2508 -0.5753  2.3254
  119MPD2    H3 1821   0.964   1.666  13.413 -0.7501  1.5096 -0.7296
  119MPD2     N 1822   0.520   1.590  13.315 -0.1095  0.1971 -0.6503
  119MPD2    H5 1823   0.534   1.628  13.222  0.7363  0.5335 -0.3828
  119MPD2    N1 1824   0.746   1.375  13.669  0.3298 -0.0833  0.1433
  119MPD2    H7 1825   0.654   1.332  13.675  0.4861 -0.4073  0.2435
  120TCq2    C1 1826   0.391   1.559  13.361 -0.7447  0.0648 -0.0586
  120TCq2    O2 1827   0.350   1.575  13.472 -0.1742  1.2837 -0.5040
  120TCq2    C2 1828   0.322   1.467  13.272 -0.0739  0.2595 -0.4923
  120TCq2    C3 1829   0.386   1.435  13.156 -0.1148 -0.5463  0.0338
  120TCq2    C4 1830   0.385   1.307  13.125  0.0967 -0.5811 -0.1224
  120TCq2    C5 1831   0.334   1.207  13.201 -0.5325 -0.0710  0.4682
  120TCq2    C6 1832   0.280   1.245  13.319  0.4448 -0.4340  0.4562
  120TCq2    C7 1833   0.250   1.373  13.343  0.1160  0.1598 -0.1810
  120TCq2    C8 1834   0.248   1.153  13.426 -0.5446  0.1763  0.3518
  120TCq2    O4 1835   0.153   1.164  13.500 -0.5059  0.4677  0.4508
  120TCq2    C9 1836   0.455   1.268  13.003 -0.8314  0.5283 -0.9599
  120TCq2    O5 1837   0.527   1.356  12.948 -0.9355  0.0135 -0.1953
  120TCq2    O6 1838   0.471   1.144  12.995 -0.5595  0.0628  0.7678
  120TCq2    H2 1839   0.424   1.510  13.088 -1.6324 -1.0505 -1.3660
  120TCq2    H3 1840   0.345   1.103  13.172 -1.1957 -0.2803  0.9587
  120TCq2    H4 1841   0.199   1.395  13.436  0.4378 -0.8653  0.2436
  121TMC2    C1 1842   1.982   2.532  13.937  0.1131  0.1194  0.6250
  121TMC2    C2 1843   2.075   2.452  13.871 -0.5203  0.2424  0.5646
  121TMC2    C3 1844   2.040   2.318  13.860  0.2830  0.4634  0.0790
  121TMC2    C4 1845   1.883   2.481  14.017 -0.2030 -0.3343  0.0459
  121TMC2    C5 1846   1.861   2.344  14.010 -0.2215  0.3870  0.4416
  121TMC2    C6 1847   1.934   2.263  13.927 -0.0789  0.5016 -0.0770
  121TMC2     C 1848   2.028   2.668  13.971 -0.7826 -0.0397  0.3659
  121TMC2     O 1849   2.013   2.710  14.084  0.1664  0.1258  0.5150
  121TMC2     H 1850   2.139   2.498  13.796  0.4210 -1.9843  0.0239
  121TMC2    H1 1851   1.826   2.550  14.078  1.1258  0.3863  0.4833
  121TMC2    H2 1852   1.913   2.157  13.918  1.2733  0.2256  0.0135
  121TMC2    C7 1853   1.729   2.297  14.042 -0.8572 -0.3834 -0.2848
  121TMC2    C8 1854   2.085   2.236  13.749  0.2165 -0.0258  0.0620
  121TMC2    O1 1855   1.727   2.178  14.065  0.2123 -0.6922  0.0279
  121TMC2    O2 1856   2.007   2.161  13.692  0.0923  0.5486 -0.5524
  121TMC2    O5 1857   2.182   2.305  13.687 -0.0005 -0.2299  0.6124
  121TMC2    H5 1858   2.234   2.344  13.761 -1.8481  1.0563  1.2240
  122MPD2     C 1859   2.200   2.908  13.983  0.3635  0.2468 -0.5856
  122MPD2    C1 1860   2.151   2.851  13.865  0.4419 -0.6228  0.3481
  122MPD2    C2 1861   2.172   2.921  13.749 -0.2730  0.0265 -0.7474
  122MPD2    C3 1862   2.254   3.036  13.751  0.1610 -0.0192 -0.5332
  122MPD2    C4 1863   2.323   3.070  13.866  0.2409  0.6389  0.9139
  122MPD2    C5 1864   2.288   3.014  13.985  0.4412 -0.1991  0.5714
  122MPD2     H 1865   2.114   2.905  13.659 -1.0298  0.4703 -0.3426
  122MPD2    H1 1866   2.386   3.157  13.864 -0.5759  1.2327  1.1321
  122MPD2    H2 1867   2.184   2.852  14.074 -0.7973  2.4249  0.5421
  122MPD2    H3 1868   2.339   3.047  14.074 -0.8007 -1.4133  1.7332
  122MPD2     N 1869   2.291   3.117  13.640 -0.2811 -0.0326  0.4373
  122MPD2    H5 1870   2.376   3.172  13.647 -0.5143  0.3908 -0.0246
  122MPD2    N1 1871   2.080   2.731  13.858  0.1192 -0.3060 -0.0663
  122MPD2    H7 1872   2.046   2.689  13.772  1.0477  1.7206 -1.4051
  123MPD2     C 1873   4.585   1.091  10.007 -0.0067 -0.4907  0.3424
  123MPD2    C1 1874   4.690   1.093  10.089  0.2508 -0.1402  0.3172
  123MPD2    C2 1875   0.090   1.111  10.044  0.2212  0.1551  0.6361
  123MPD2    C3 1876   0.112   1.136   9.909 -0.5956  0.4051 -0.0128
  123MPD2    C4 1877   0.005   1.124   9.818 -0.0919  0.1500  0.4467
  123MPD2    C5 1878   4.607   1.097   9.869 -0.2833  0.1449  0.0450
  123MPD2     H 1879   0.176   1.119  10.109  0.6058  0.7545  0.0420
  123MPD2    H1 1880   0.009   1.147   9.712 -1.9941  2.9797  0.9882
  123MPD2    H2 1881   4.480   1.085  10.030  0.0839  0.8482  1.0810
  123MPD2    H3 1882   4.518   1.092   9.807  0.8354  0.5064 -1.5774
  123MPD2     N 1883   0.234   1.198   9.879 -0.1974  0.1276 -0.3887
  123MPD2    H5 1884   0.296   1.218   9.957 -0.1803  2.2295 -0.9460
  123MPD2    N1 1885   4.670   1.080  10.223 -0.2418  0.3120  0.3125
  123MPD2    H7 1886   4.577   1.060  10.258  0.4255  1.1327  2.5528
  124TCq2    C1 1887   0.273   1.251   9.759 -0.2610 -0.0340 -0.5822
  124TCq2    O2 1888   0.213   1.260   9.651  0.1244  0.1145 -0.1769
  124TCq2    C2 1889   0.406   1.319   9.772 -0.0626 -0.1106 -0.2942
  124TCq2    C3 1890   0.411   1.452   9.755  0.0562  0.3423 -0.1972
  124TCq2    C4 1891   0.521   1.515   9.812  0.7140  0.3723  0.3798
  124TCq2    C5 1892   0.626   1.450   9.872 -0.1539 -0.4856  0.4742
  124TCq2    C6 1893   0.613   1.316   9.880 -0.2821  0.0771  0.2406
  124TCq2    C7 1894   0.506   1.248   9.831  0.2978  0.7702 -0.5130
  124TCq2    C8 1895   0.720   1.238   9.946 -0.1718  0.1299 -0.3075
  124TCq2    O4 1896   0.723   1.117   9.923 -0.5240 -0.1941  0.2170
  124TCq2    C9 1897   0.525   1.660   9.798 -0.2653 -0.1801 -0.0223
  124TCq2    O5 1898   0.614   1.720   9.871 -0.0980 -0.4243  1.0826
  124TCq2    O6 1899   0.459   1.707   9.707 -0.0143 -0.2394 -0.2109
  124TCq2    H2 1900   0.343   1.506   9.690 -0.7122 -0.9217 -0.4326
  124TCq2    H3 1901   0.711   1.509   9.906 -0.2813  0.8790 -1.6086
  124TCq2    H4 1902   0.506   1.140   9.846 -1.0836  0.8033 -0.2552
  125TMC2    C1 1903   0.335   2.028   9.475  0.3343  0.3048  0.6374
  125TMC2    C2 1904   0.343   1.900   9.427  0.1791  0.2313  0.5947
  125TMC2    C3 1905   0.465   1.851   9.400 -1.1577 -0.2680 -0.2338
  125TMC2    C4 1906   0.444   2.112   9.472  0.3087  0.2063  0.2204
  125TMC2    C5 1907   0.567   2.055   9.452  0.0892  0.4372 -0.0504
  125TMC2    C6 1908   0.578   1.923   9.414 -0.4093  0.1695  0.1195
  125TMC2     C 1909   0.212   2.074   9.540 -0.1664  0.7667 -0.0828
  125TMC2     O 1910   0.127   1.985   9.559  0.2814  0.3694  0.2011
  125TMC2     H 1911   0.263   1.826   9.426  1.3354 -1.0136 -0.8595
  125TMC2    H1 1912   0.431   2.209   9.518 -0.5731 -0.8632  2.2093
  125TMC2    H2 1913   0.668   1.868   9.389 -0.2475  1.6528 -2.5399
  125TMC2    C7 1914   0.670   2.156   9.444 -0.0257 -0.0633  0.4458
  125TMC2    C8 1915   0.489   1.711   9.357  0.2717 -0.5244  0.0905
  125TMC2    O1 1916   0.631   2.272   9.442 -0.0302 -0.3225 -0.0698
  125TMC2    O2 1917   0.496   1.679   9.240 -0.2735 -0.0238  0.4768
  125TMC2    O5 1918   0.431   1.645   9.461 -0.5537 -0.1229 -0.1955
  125TMC2    H5 1919   0.437   1.689   9.549  1.8699  0.7954 -0.8240
  126MPD1     C 1920   4.569   2.433   9.596  0.2708 -0.6976  1.2255
  126MPD1    C1 1921   4.692   2.502   9.613 -0.2725  0.1731  0.3600
  126MPD1    C2 1922   0.077   2.421   9.593  0.2803 -0.5256 -0.0588
  126MPD1    C3 1923   0.076   2.285   9.574  0.8477 -0.2223  0.5815
  126MPD1    C4 1924   4.679   2.222   9.569  0.0653 -0.0888  1.0451
  126MPD1    C5 1925   4.560   2.298   9.574 -0.0728  0.2726 -0.2897
  126MPD1     H 1926   0.175   2.469   9.596 -0.0515 -0.0480  3.1009
  126MPD1    H1 1927   4.665   2.115   9.562 -0.2998 -0.0401  1.0265
  126MPD1    H2 1928   4.477   2.487   9.615  0.5881  0.5119 -0.6277
  126MPD1    H3 1929   4.469   2.241   9.573 -0.0597  0.2160  2.0149
  126MPD1     N 1930   0.199   2.211   9.551 -0.2287  0.2726  0.0724
  126MPD1    H5 1931   0.281   2.269   9.539 -0.6555  0.8505 -0.0461
  126MPD1    N1 1932   4.692   2.639   9.626  0.4914 -0.4869 -0.0530
  126MPD1    H6 1933   0.055   2.681   9.648  0.8283  0.1326 -2.6966
  126MPD1    H7 1934   4.622   2.677   9.690  0.7589  0.7440 -0.4846
  127MPD2     C 1935   2.523   1.628   9.486  0.0134 -0.8212 -0.2293
  127MPD2    C1 1936   2.405   1.661   9.543 -0.1312  0.5521  0.1514
  127MPD2    C2 1937   2.412   1.718   9.668  0.2731 -0.3743 -0.5098
  127MPD2    C3 1938   2.533   1.748   9.731 -0.6663  0.3581 -0.3820
  127MPD2    C4 1939   2.648   1.704   9.673 -0.7747 -0.7420 -0.0303
  127MPD2    C5 1940   2.645   1.652   9.547  0.0160  0.0263 -0.2826
  127MPD2     H 1941   2.317   1.740   9.714 -0.8510 -1.2065 -2.4435
  127MPD2    H1 1942   2.740   1.715   9.730  0.1292 -2.5472 -1.1687
  127MPD2    H2 1943   2.519   1.583   9.388  0.3212  1.0940 -1.1265
  127MPD2    H3 1944   2.729   1.593   9.512 -1.1096 -0.3630 -2.3614
  127MPD2     N 1945   2.526   1.808   9.855  0.6136 -0.4183 -0.1525
  127MPD2    H5 1946   2.432   1.812   9.892  1.2917 -0.7992  1.5797
  127MPD2    N1 1947   2.292   1.633   9.465 -0.5419 -0.1624  0.2576
  127MPD2    H7 1948   2.316   1.591   9.376 -1.6336 -2.4700  1.0626
  128TCq2    C1 1949   2.158   1.637   9.502 -0.2738  0.0783 -1.2956
  128TCq2    O2 1950   2.107   1.671   9.610  0.2950  0.1774  0.1143
  128TCq2    C2 1951   2.066   1.630   9.393  0.1763 -0.3253 -0.4024
  128TCq2    C3 1952   2.112   1.673   9.270 -0.1042  0.4965 -0.2374
  128TCq2    C4 1953   2.038   1.633   9.161 -0.2814 -0.2781  0.2196
  128TCq2    C5 1954   1.922   1.564   9.174  0.3201  0.3125  0.2664
  128TCq2    C6 1955   1.893   1.513   9.295 -0.0512 -0.0737  0.1942
  128TCq2    C7 1956   1.967   1.540   9.408 -0.2690 -0.3405 -0.3390
  128TCq2    C8 1957   1.786   1.418   9.298  0.3721 -0.3819  0.7044
  128TCq2    O4 1958   1.700   1.417   9.210  0.4434 -0.2683  0.2309
  128TCq2    C9 1959   2.089   1.672   9.030 -0.4260  0.3099  0.1094
  128TCq2    O5 1960   2.190   1.747   9.018 -0.0615  0.1819 -0.0179
  128TCq2    O6 1961   2.015   1.632   8.935 -0.3849 -0.1937  0.4476
  128TCq2    H2 1962   2.192   1.743   9.247  2.7708 -1.8292  2.7856
  128TCq2    H3 1963   1.882   1.517   9.084  0.9017  0.7541 -0.2279
  128TCq2    H4 1964   1.947   1.506   9.509  0.8119 -2.0631 -0.7062
  129MPD2     C 1965   1.757   1.825   1.924  0.3426  0.8406  0.6370
  129MPD2    C1 1966   1.626   1.862   1.957 -0.2497 -0.2249 -0.9247
  129MPD2    C2 1967   1.573   1.985   1.925 -0.5778  0.1164 -0.1369
  129MPD2    C3 1968   1.635   2.069   1.832  0.5013 -0.1967  0.1676
  129MPD2    C4 1969   1.764   2.033   1.796 -0.3158  0.1077  0.7905
  129MPD2    C5 1970   1.819   1.915   1.840 -0.0305  0.0145 -0.1523
  129MPD2     H 1971   1.475   2.012   1.962 -0.8368  0.1134 -0.8147
  129MPD2    H1 1972   1.824   2.090   1.726 -1.6089  1.5449  0.8662
  129MPD2    H2 1973   1.807   1.737   1.963  0.0034  0.4227  0.1109
  129MPD2    H3 1974   1.924   1.904   1.816  0.1711 -0.6557  1.0852
  129MPD2     N 1975   1.577   2.188   1.790 -0.8911 -0.2689 -0.7339
  129MPD2    H5 1976   1.486   2.208   1.831 -0.2587  0.5962  0.2386
  129MPD2    N1 1977   1.537   1.777   2.020 -0.1851  1.0776  0.0082
  129MPD2    H7 1978   1.443   1.811   2.035 -0.5386  0.6605 -1.2335
  130TCq2    C1 1979   1.559   1.656   2.070 -0.1139  0.1799 -0.4363
  130TCq2    O2 1980   1.665   1.593   2.091  0.3030 -0.3596  0.7735
  130TCq2    C2 1981   1.443   1.597   2.137 -0.1176 -0.2698 -0.0065
  130TCq2    C3 1982   1.464   1.479   2.206 -0.0319  0.6636  0.2438
  130TCq2    C4 1983   1.356   1.403   2.242  0.5398  1.1561 -0.4427
  130TCq2    C5 1984   1.227   1.435   2.208 -0.2107  0.0454 -0.3576
  130TCq2    C6 1985   1.206   1.551   2.138 -1.2904 -0.4091  0.5566
  130TCq2    C7 1986   1.310   1.632   2.106  0.6820 -0.3533 -0.1761
  130TCq2    C8 1987   1.067   1.596   2.105 -0.0588 -0.2676  0.8590
  130TCq2    O4 1988   0.983   1.513   2.099 -0.1872 -0.1187  0.4433
  130TCq2    C9 1989   1.379   1.278   2.323 -0.1809  0.5270  0.8642
  130TCq2    O5 1990   1.497   1.245   2.359 -0.4195  0.0345  0.3912
  130TCq2    O6 1991   1.279   1.209   2.355 -0.7285 -0.8546  0.1576
  130TCq2    H2 1992   1.562   1.442   2.231 -0.2685  1.2058  1.9480
  130TCq2    H3 1993   1.141   1.374   2.231 -0.5718  0.5216 -0.4476
  130TCq2    H4 1994   1.301   1.713   2.034 -0.1829 -1.2108 -1.0303
  131MPD2     C 1995   0.259   1.524  11.108 -0.1701 -0.1262  0.0271
  131MPD2    C1 1996   0.214   1.582  10.991  0.2170 -0.3486 -0.6091
  131MPD2    C2 1997   0.154   1.503  10.891 -0.8750 -0.1369  0.6723
  131MPD2    C3 1998   0.153   1.364  10.906 -0.2450 -0.8479 -0.3804
  131MPD2    C4 1999   0.196   1.305  11.024 -1.0242  0.4612 -0.1128
  131MPD2    C5 2000   0.252   1.385  11.123 -0.6851 -0.5508  0.1523
  131MPD2     H 2001   0.121   1.557  10.804  0.6365  0.6522  0.5855
  131MPD2    H1 2002   0.199   1.201  11.054  2.2601  1.0870  1.6833
  131MPD2    H2 2003   0.313   1.575  11.186 -0.0068  2.6431 -1.8805
  131MPD2    H3 2004   0.276   1.338  11.218 -1.6583  0.2658  0.8020
  131MPD2     N 2005   0.112   1.281  10.798 -0.1558  0.0521  0.1582
  131MPD2    H5 2006   0.063   1.328  10.722 -0.2225 -0.1439  0.0781
  131MPD2    N1 2007   0.228   1.716  10.977  0.2027  0.6814  0.0738
  131MPD2    H7 2008   0.217   1.753  10.883  3.1234 -1.2232 -1.0217
  132TCq2    C1 2009   0.444   2.110  10.736  0.6109 -0.0697 -0.3111
  132TCq2    O2 2010   0.452   2.228  10.703  0.0032 -1.1246 -0.3835
  132TCq2    C2 2011   0.345   2.079  10.846  0.2838  0.3631  0.0572
  132TCq2    C3 2012   0.293   2.188  10.911  0.7771 -0.2999  0.4730
  132TCq2    C4 2013   0.241   2.169  11.039  0.1243 -0.2167 -0.2746
  132TCq2    C5 2014   0.236   2.044  11.096  0.2013  0.3644  0.1205
  132TCq2    C6 2015   0.278   1.939  11.011 -0.0486  0.1950  0.2282
  132TCq2    C7 2016   0.327   1.950  10.888 -0.5453 -0.1092  0.3260
  132TCq2    C8 2017   0.258   1.809  11.073 -0.6297  0.4630 -0.0923
  132TCq2    O4 2018   0.256   1.799  11.197 -0.1598  0.2603 -0.0268
  132TCq2    C9 2019   0.214   2.280  11.119  0.4658  1.2345 -0.0349
  132TCq2    O5 2020   0.180   2.281  11.238  0.0984  0.5088  0.1983
  132TCq2    O6 2021   0.215   2.389  11.057 -0.1066 -0.6039  0.3327
  132TCq2    H2 2022   0.314   2.286  10.869  1.0589 -0.8573 -0.6787
  132TCq2    H3 2023   0.198   2.037  11.197 -0.8988  0.0980 -0.3207
  132TCq2    H4 2024   0.357   1.865  10.827 -3.1565  0.0055 -1.1552
  133MPD2     C 2025   0.379   2.173   9.050  0.4521 -0.2106  0.1322
  133MPD2    C1 2026   0.322   2.248   9.146 -0.7546 -0.0800  0.1808
  133MPD2    C2 2027   0.195   2.220   9.197 -0.4875 -0.3231 -0.5556
  133MPD2    C3 2028   0.122   2.113   9.138  0.0136 -0.1036 -0.3977
  133MPD2    C4 2029   0.183   2.035   9.041  0.6033  0.7721  0.8746
  133MPD2    C5 2030   0.313   2.060   9.002 -0.4765  0.8834 -0.2605
  133MPD2     H 2031   0.155   2.267   9.286  0.6881 -1.2590  0.4681
  133MPD2    H1 2032   0.131   1.949   9.001  1.8263  0.5386 -0.1889
  133MPD2    H2 2033   0.481   2.180   9.013 -0.0580  3.1420 -0.6395
  133MPD2    H3 2034   0.367   1.993   8.936  0.0854  1.1625 -0.0816
  133MPD2     N 2035   4.721   2.070   9.171 -0.0060  0.6035  0.4564
  133MPD2    H5 2036   4.692   1.977   9.142  1.5586  0.3022 -0.1749
  133MPD2    N1 2037   0.407   2.352   9.194 -0.3040 -0.3266 -0.1227
  133MPD2    H7 2038   0.499   2.354   9.150  1.4473 -2.4605  3.4172
  134TCq2    C1 2039   0.360   2.442   9.283 -0.5999 -0.0882  0.6167
  134TCq2    O2 2040   0.250   2.468   9.330 -0.2390 -0.1413  0.4566
  134TCq2    C2 2041   0.463   2.540   9.305  0.0636  0.8397 -0.7199
  134TCq2    C3 2042   0.567   2.560   9.214  0.0235 -0.4527  0.4221
  134TCq2    C4 2043   0.688   2.599   9.253  0.3990 -0.0559  0.8994
  134TCq2    C5 2044   0.707   2.646   9.382 -0.1965  0.0188 -0.3692
  134TCq2    C6 2045   0.603   2.628   9.469 -0.0027 -0.0824 -0.7994
  134TCq2    C7 2046   0.477   2.582   9.437  0.4585  0.1537 -0.3102
  134TCq2    C8 2047   0.622   2.672   9.603  0.0877  0.4332 -0.0842
  134TCq2    O4 2048   0.526   2.648   9.678  0.5078 -0.4843 -0.3925
  134TCq2    C9 2049   0.790   2.626   9.152  0.9178 -0.7427 -0.0345
  134TCq2    O5 2050   0.768   2.583   9.036  0.0939 -0.0325  0.1751
  134TCq2    O6 2051   0.867   2.717   9.183  0.5340  0.5534  0.4215
  134TCq2    H2 2052   0.552   2.540   9.108  1.0395 -1.1169  0.4051
  134TCq2    H3 2053   0.806   2.682   9.408 -1.2959  2.6040  0.2980
  134TCq2    H4 2054   0.415   2.544   9.517 -0.0400  0.2878 -0.6317
  135MPD2     C 2055   2.370   3.328  10.075 -0.1170  0.0167  0.3143
  135MPD2    C1 2056   2.247   3.309  10.017  0.9110  0.2494 -0.3223
  135MPD2    C2 2057   2.207   3.181   9.979  0.4255  0.2802  0.0829
  135MPD2    C3 2058   2.283   3.070  10.009 -0.6750  0.0228 -0.6216
  135MPD2    C4 2059   2.409   3.095  10.062 -0.1693  0.0193  0.4156
  135MPD2    C5 2060   2.449   3.217  10.103  0.3206  0.3724  0.4394
  135MPD2     H 2061   2.117   3.175   9.919  1.1366 -1.2060 -0.8192
  135MPD2    H1 2062   2.466   3.004  10.078 -0.6975 -0.1511  1.3857
  135MPD2    H2 2063   2.402   3.429  10.095  1.5877 -0.9975  2.6483
  135MPD2    H3 2064   2.551   3.224  10.140  0.7230 -2.5231 -0.1198
  135MPD2     N 2065   2.231   2.941   9.986 -0.3392 -0.1562 -0.1288
  135MPD2    H5 2066   2.291   2.860   9.994  0.5447  0.2929 -2.0699
  135MPD2    N1 2067   2.155   3.413   9.997  0.1602  0.8291  0.1221
  135MPD2    H7 2068   2.072   3.378   9.950  0.3139  0.6266  0.0042
  136TCq2    C1 2069   2.170   3.548  10.024  0.9604  0.1146 -0.2563
  136TCq2    O2 2070   2.268   3.607  10.065 -0.5418 -0.5714 -0.5878
  136TCq2    C2 2071   2.043   3.616  10.008 -0.3106 -0.5212  0.3026
  136TCq2    C3 2072   1.949   3.548   9.933 -0.3555  0.3990 -0.6184
  136TCq2    C4 2073   1.816   3.557   9.964  0.0916 -0.7722  0.4189
  136TCq2    C5 2074   1.782   3.625  10.076 -0.5097  0.3825  0.0874
  136TCq2    C6 2075   1.875   3.701  10.145  0.8589 -0.0104 -0.0933
  136TCq2    C7 2076   2.007   3.701  10.114 -0.6323 -0.2936 -0.2510
  136TCq2    C8 2077   1.834   3.756  10.268 -0.0826 -0.7785 -0.1787
  136TCq2    O4 2078   1.909   3.840  10.315  0.4576 -0.5721  0.3355
  136TCq2    C9 2079   1.710   3.492   9.893  0.0073 -0.1193 -0.1463
  136TCq2    O5 2080   1.602   3.474   9.953  0.3197 -0.3281 -0.2943
  136TCq2    O6 2081   1.743   3.443   9.783 -0.0137  0.7170  0.2952
  136TCq2    H2 2082   1.976   3.501   9.839  2.1703 -1.2453  0.9244
  136TCq2    H3 2083   1.676   3.632  10.096 -0.7888 -0.9410 -0.9564
  136TCq2    H4 2084   2.079   3.757  10.172 -0.5726  1.3698 -1.9416
  137MPD2     C 2085   1.630   1.756  10.834  0.4955  0.0094  0.1466
  137MPD2    C1 2086   1.607   1.844  10.731 -0.2530  0.3876 -0.1195
  137MPD2    C2 2087   1.591   1.981  10.758  0.4388 -0.0795  0.0575
  137MPD2    C3 2088   1.604   2.029  10.890 -0.0718 -0.0288 -0.1943
  137MPD2    C4 2089   1.635   1.937  10.986 -0.5181 -0.2235 -0.1574
  137MPD2    C5 2090   1.638   1.801  10.961  0.9962 -0.3851 -0.4842
  137MPD2     H 2091   1.572   2.063  10.690 -2.8562  0.1042  1.1956
  137MPD2    H1 2092   1.657   1.963  11.089 -1.0899  0.8103 -0.2943
  137MPD2    H2 2093   1.664   1.657  10.804 -0.0044  0.3100 -1.4075
  137MPD2    H3 2094   1.676   1.736  11.040  0.7974  0.4096  0.2638
  137MPD2     N 2095   1.620   2.170  10.913  0.1360 -0.5628 -0.0681
  137MPD2    H5 2096   1.597   2.229  10.833  0.5484 -1.1857 -0.6438
  137MPD2    N1 2097   1.616   1.792  10.595 -0.3573  0.0333  0.2586
  137MPD2    H7 2098   1.629   1.692  10.586 -0.3154  0.0005  0.6947
  138TCq2    C1 2099   1.592   1.863  10.480 -0.5875 -0.4809  0.6260
  138TCq2    O2 2100   1.565   1.983  10.457 -0.2980 -0.1678  0.6484
  138TCq2    C2 2101   1.590   1.781  10.364  0.8510 -0.3652  0.2478
  138TCq2    C3 2102   1.673   1.670  10.352 -0.2181 -0.1520  0.1091
  138TCq2    C4 2103   1.671   1.595  10.243 -0.1055 -0.4253  0.5392
  138TCq2    C5 2104   1.584   1.624  10.146  0.4970  0.2236  0.2118
  138TCq2    C6 2105   1.497   1.740  10.150 -0.5551  0.5237  0.1987
  138TCq2    C7 2106   1.503   1.819  10.260  0.6543  0.2737 -0.6548
  138TCq2    C8 2107   1.409   1.759  10.042 -0.4436 -0.0387 -0.4453
  138TCq2    O4 2108   1.383   1.672   9.961  0.0401  0.9004  0.2227
  138TCq2    C9 2109   1.753   1.478  10.222 -0.3460 -0.1443 -0.3583
  138TCq2    O5 2110   1.864   1.463  10.283 -0.5720 -0.2279 -0.4141
  138TCq2    O6 2111   1.734   1.421  10.110  0.3202 -0.6933  0.0362
  138TCq2    H2 2112   1.739   1.642  10.432 -0.3778 -1.6190 -0.2770
  138TCq2    H3 2113   1.575   1.562  10.057 -1.1277  0.2126  0.3742
  138TCq2    H4 2114   1.429   1.896  10.278 -0.6989 -0.5196 -2.7729
  139TMC2    C1 2115   1.881   4.630  13.090 -0.0638  0.1292  0.3796
  139TMC2    C2 2116   1.769   4.562  13.047  0.0552  0.1128  0.8621
  139TMC2    C3 2117   1.652   4.627  13.038 -0.4219  0.1868  0.6751
  139TMC2    C4 2118   1.876   0.042  13.118 -0.3252  0.3408 -0.3329
  139TMC2    C5 2119   1.757   0.105  13.106  0.0052  0.8243 -0.2211
  139TMC2    C6 2120   1.647   0.032  13.056  0.6087 -0.2909 -0.6197
  139TMC2     C 2121   1.994   4.549  13.111  0.3705 -0.5327 -0.2443
  139TMC2     O 2122   1.982   4.435  13.068  0.6000 -0.2695  0.0230
  139TMC2     H 2123   1.772   4.456  13.025 -1.5155  0.2554 -0.0323
  139TMC2    H1 2124   1.962   0.086  13.168  0.2259 -0.1136 -0.8735
  139TMC2    H2 2125   1.550   0.080  13.063  1.3440  1.2376 -0.9424
  139TMC2    C7 2126   1.733   0.245  13.150 -0.9575  0.5396 -0.4796
  139TMC2    C8 2127   1.529   4.548  13.006  0.1760  0.4110  0.0528
  139TMC2    O1 2128   1.634   0.311  13.119 -0.5833  0.6638 -0.4543
  139TMC2    O2 2129   1.519   4.428  13.029 -0.4501  0.3206  0.7801
  139TMC2    O5 2130   1.444   4.619  12.935  0.6314 -0.0372  0.2332
  139TMC2    H5 2131   1.475   4.709  12.912 -1.6659  0.4377 -1.0800
  140MPD2     C 2132   2.296   4.586  13.314  0.0640 -0.2262 -0.0651
  140MPD2    C1 2133   2.218   4.534  13.221  0.0322 -0.4606  0.6369
  140MPD2    C2 2134   2.254   4.415  13.160 -0.0110  0.5984 -0.2301
  140MPD2    C3 2135   2.356   4.341  13.210  0.2000 -0.3381  0.0650
  140MPD2    C4 2136   2.443   4.398  13.299  0.0586  0.7671 -0.4109
  140MPD2    C5 2137   2.410   4.523  13.350  0.1068  0.3972  0.0096
  140MPD2     H 2138   2.196   4.374  13.079 -0.5449  0.5181  0.1945
  140MPD2    H1 2139   2.534   4.349  13.330 -1.2451 -1.4703 -0.1143
  140MPD2    H2 2140   2.278   4.681  13.362 -0.0203 -0.1716 -0.2047
  140MPD2    H3 2141   2.470   4.565  13.431  1.9398  0.0564 -1.1589
  140MPD2     N 2142   2.372   4.206  13.168  0.6142 -0.0585 -0.0381
  140MPD2    H5 2143   2.321   4.177  13.085  2.1509  1.0973 -1.3864
  140MPD2    N1 2144   2.094   4.600  13.192 -0.2543  0.3597  0.0716
  140MPD2    H7 2145   2.073   4.690  13.233  2.1869  1.6169 -1.5175
  141TCq2    C1 2146   2.941   1.740  14.162  0.1102  0.3846 -0.3204
  141TCq2    O2 2147   2.902   1.830  14.085  0.5793 -0.2556  0.1303
  141TCq2    C2 2148   2.883   1.755  14.289  0.4124 -0.2020  0.1122
  141TCq2    C3 2149   2.912   1.653  14.383 -0.0314 -0.3423 -0.0222
  141TCq2    C4 2150   2.870   1.674  14.506 -0.5299  0.4793  0.9137
  141TCq2    C5 2151   2.799   1.785  14.545 -0.7547 -0.3913  0.0732
  141TCq2    C6 2152   2.753   1.867  14.441  0.5523 -0.9337 -0.1376
  141TCq2    C7 2153   2.792   1.855  14.310 -0.0619  0.6859 -0.0621
  141TCq2    C8 2154   2.710   2.001  14.468  0.2049  0.4361  0.6306
  141TCq2    O4 2155   2.652   2.076  14.390  0.2970  0.8529  1.1498
  141TCq2    C9 2156   2.910   1.582  14.611 -0.1508  1.2452  0.0238
  141TCq2    O5 2157   2.931   1.632  14.724  0.1249  0.1136 -0.1175
  141TCq2    O6 2158   2.948   1.464  14.578  0.0043  0.5094 -0.4466
  141TCq2    H2 2159   2.971   1.566  14.356 -0.2762 -1.1984  2.2080
  141TCq2    H3 2160   2.747   1.791  14.640 -0.6499 -0.9491  0.1677
  141TCq2    H4 2161   2.766   1.930  14.237  1.8311  2.0395  0.6674
  142MPD2     C 2162   0.505   0.501  10.848  0.5640  0.5762  0.1510
  142MPD2    C1 2163   0.491   0.412  10.738  0.1125  0.4691  0.7077
  142MPD2    C2 2164   0.579   0.415  10.635  0.8943  0.1946  0.1305
  142MPD2    C3 2165   0.672   0.512  10.625  0.4623 -0.1504  0.3665
  142MPD2    C4 2166   0.681   0.599  10.728 -0.1644  0.6357  0.2955
  142MPD2    C5 2167   0.604   0.597  10.842  0.0827  0.8010 -0.6116
  142MPD2     H 2168   0.575   0.348  10.550  2.1897 -1.1407  1.1429
  142MPD2    H1 2169   0.748   0.684  10.722 -0.9572  1.3222  1.2539
  142MPD2    H2 2170   0.435   0.512  10.930  0.0684  1.5966 -0.4009
  142MPD2    H3 2171   0.619   0.670  10.922  0.0712 -1.1435  1.1662
  142MPD2     N 2172   0.767   0.530  10.519 -0.7330  0.5144  0.2288
  142MPD2    H5 2173   0.829   0.610  10.519 -1.2446  0.9286  2.0953
  142MPD2    N1 2174   0.399   0.313  10.744  0.9411  0.0382  0.0170
  142MPD2    H7 2175   0.359   0.291  10.835  0.9969 -0.9690 -0.2012
  143TCq2    C1 2176   0.788   0.444  10.416 -0.0072 -0.7023 -0.1114
  143TCq2    O2 2177   0.729   0.341  10.389 -0.0922  0.5377  0.2322
  143TCq2    C2 2178   0.878   0.496  10.316  0.0996 -0.1556  0.5299
  143TCq2    C3 2179   0.960   0.403  10.256  0.2799  0.2693 -0.6389
  143TCq2    C4 2180   1.058   0.446  10.168  0.0210 -0.0449  0.4090
  143TCq2    C5 2181   1.070   0.583  10.138 -0.5034 -0.4390 -0.6657
  143TCq2    C6 2182   0.995   0.674  10.212 -0.2286 -0.4131  0.5107
  143TCq2    C7 2183   0.899   0.630  10.299  0.0577 -0.6395 -0.2429
  143TCq2    C8 2184   0.984   0.815  10.167  0.2977  0.0902 -0.2757
  143TCq2    O4 2185   0.999   0.841  10.049  0.3091  0.2722  0.1262
  143TCq2    C9 2186   1.140   0.354  10.093  0.8241  0.4105 -0.7381
  143TCq2    O5 2187   1.129   0.232  10.120 -0.3203 -0.2173  0.6389
  143TCq2    O6 2188   1.248   0.405  10.051  0.2790  0.2844  0.2545
  143TCq2    H2 2189   0.954   0.296  10.272 -3.5535  0.8904  2.1496
  143TCq2    H3 2190   1.127   0.616  10.052 -0.5223 -1.0700 -0.9219
  143TCq2    H4 2191   0.832   0.701  10.347 -0.6293 -1.0533 -0.5966
  144MPD2     C 2192   2.654   4.594   0.402  0.3374 -0.8977  0.2364
  144MPD2    C1 2193   2.640   4.457   0.429  0.7310  0.2866  0.6135
  144MPD2    C2 2194   2.685   4.408   0.545  0.0114  0.6095  0.1125
  144MPD2    C3 2195   2.754   4.490   0.636  0.2590  0.0419  0.0930
  144MPD2    C4 2196   2.770   4.625   0.605 -0.1285  0.0121 -0.1241
  144MPD2    C5 2197   2.721   4.674   0.483  0.2663 -0.6384 -0.0866
  144MPD2     H 2198   2.672   4.300   0.548 -0.4468  0.6586 -0.0728
  144MPD2    H1 2199   2.832   4.693   0.662  0.9094 -0.7838 -0.2872
  144MPD2    H2 2200   2.627   4.646   0.311  2.0821  0.1161  0.2928
  144MPD2    H3 2201   2.723   0.052   0.458 -0.2332 -0.8319 -0.9307
  144MPD2     N 2202   2.802   4.439   0.760 -0.0917 -0.2496 -0.2319
  144MPD2    H5 2203   2.856   4.500   0.820 -2.9377  0.6464  1.3885
  144MPD2    N1 2204   2.581   4.364   0.337 -0.0159  0.5079  0.0074
  144MPD2    H7 2205   2.573   4.267   0.367  0.1217  0.7015  0.6761
  145TCq2    C1 2206   2.806   4.305   0.798 -0.2713 -0.1735 -0.4238
  145TCq2    O2 2207   2.760   4.207   0.741  0.0329  0.0966  0.3376
  145TCq2    C2 2208   2.862   4.290   0.930  0.2202  0.3492  0.1257
  145TCq2    C3 2209   2.937   4.175   0.941 -0.0816 -0.5365 -0.0739
  145TCq2    C4 2210   2.992   4.148   1.062  0.3054  0.1893  0.1615
  145TCq2    C5 2211   2.981   4.232   1.170  0.6476 -0.0459 -0.5078
  145TCq2    C6 2212   2.903   4.341   1.154  0.0955  0.3235  0.0192
  145TCq2    C7 2213   2.834   4.369   1.040  0.5032 -0.0334 -0.1770
  145TCq2    C8 2214   2.869   4.423   1.264  0.1198  0.0440  0.0711
  145TCq2    O4 2215   2.861   4.379   1.377 -0.1331  0.2350  0.3591
  145TCq2    C9 2216   3.051   4.018   1.071 -0.0162  0.3303 -0.6185
  145TCq2    O5 2217   3.077   3.963   1.183  0.7312 -0.2458 -0.0660
  145TCq2    O6 2218   3.087   3.969   0.967  0.4122  0.6958 -0.6059
  145TCq2    H2 2219   2.958   4.112   0.854 -1.7085  0.0814 -0.9027
  145TCq2    H3 2220   3.026   4.213   1.267 -0.8091  1.7420  0.5288
  145TCq2    H4 2221   2.769   4.454   1.023  1.1712  0.0925 -2.2005
  146TMC2    C1 2222   4.320   2.907  12.257 -0.6168  0.7441 -0.1273
  146TMC2    C2 2223   4.231   2.890  12.152  0.5320  0.3690  0.5645
  146TMC2    C3 2224   4.280   2.843  12.034 -0.0654 -0.4250  0.8799
  146TMC2    C4 2225   4.455   2.878  12.248 -0.4918 -0.1127  0.5964
  146TMC2    C5 2226   4.501   2.823  12.130  0.2353 -0.6121  0.0936
  146TMC2    C6 2227   4.410   2.803  12.025 -0.1746  0.6548  0.2313
  146TMC2     C 2228   4.262   2.936  12.388  0.1229 -0.2828 -0.0704
  146TMC2     O 2229   4.145   2.972  12.394 -0.1135  0.1327 -0.4694
  146TMC2     H 2230   4.130   2.922  12.172  0.3859  1.0706 -1.3620
  146TMC2    H1 2231   4.526   2.908  12.324  0.1443  2.0993 -0.8697
  146TMC2    H2 2232   4.449   2.758  11.935 -1.5579  2.7081 -1.3793
  146TMC2    C7 2233   4.634   2.793  12.102 -0.0837  0.5682  0.3566
  146TMC2    C8 2234   4.174   2.794  11.945 -0.2020  0.1466 -0.0290
  146TMC2    O1 2235   4.672   2.815  11.986  0.1588  0.2813  0.6393
  146TMC2    O2 2236   4.131   2.864  11.849 -0.2427 -0.1079  0.2151
  146TMC2    O5 2237   4.203   2.664  11.941 -0.2504 -0.1585 -0.0895
  146TMC2    H5 2238   4.219   2.623  12.029 -1.4846  0.4211  0.4130
  147MPD2     C 2239   0.396   2.715  12.212  0.8961 -0.0135  0.1445
  147MPD2    C1 2240   0.333   2.713  12.336  0.3124  0.2023  0.6531
  147MPD2    C2 2241   0.196   2.724  12.331 -0.2907 -0.2566  0.2800
  147MPD2    C3 2242   0.122   2.733  12.215  0.5634  0.1012 -0.1224
  147MPD2    C4 2243   0.185   2.731  12.093  1.0842  0.3157 -0.0358
  147MPD2    C5 2244   0.321   2.726  12.095 -0.1810  0.1154 -0.5881
  147MPD2     H 2245   0.139   2.746  12.421 -0.9187 -1.5734  0.1993
  147MPD2    H1 2246   0.143   2.732  11.994 -0.1887  0.0359  0.4981
  147MPD2    H2 2247   0.501   2.692  12.194  1.2350  1.3789  0.3559
  147MPD2    H3 2248   0.382   2.722  12.005 -0.3457 -2.7773 -0.5777
  147MPD2     N 2249   4.708   2.766  12.211 -0.0270 -0.2123 -0.2047
  147MPD2    H5 2250   4.661   2.777  12.300  0.7246  1.4260  0.0050
  147MPD2    N1 2251   0.410   2.688  12.448  0.1292  0.6658  0.2432
  147MPD2    H7 2252   0.509   2.665  12.437 -0.3201 -0.8435 -0.6247
  148MPD2     C 2253   4.389   2.259  10.330  0.1430 -0.2737  0.4873
  148MPD2    C1 2254   4.427   2.144  10.403 -0.6474  0.6585  0.2514
  148MPD2    C2 2255   4.401   2.019  10.359 -0.0329  0.3760 -0.5709
  148MPD2    C3 2256   4.329   2.004  10.239 -0.4020  0.3054  0.1703
  148MPD2    C4 2257   4.302   2.114  10.170 -0.2577  0.1242  0.4937
  148MPD2    C5 2258   4.330   2.242  10.210  0.7366  0.2350 -0.0410
  148MPD2     H 2259   4.419   1.938  10.428 -1.7088  0.8858  0.4533
  148MPD2    H1 2260   4.240   2.115  10.081  1.1045  1.5151 -0.4242
  148MPD2    H2 2261   4.397   2.361  10.366 -0.1134  0.0188 -0.2924
  148MPD2    H3 2262   4.296   2.320  10.142  2.4611 -0.3951 -1.6232
  148MPD2     N 2263   4.271   1.880  10.197  0.2607  0.0181 -0.0037
  148MPD2    H5 2264   4.195   1.893  10.131  0.0430  0.6365  0.3669
  148MPD2    N1 2265   4.487   2.150  10.526 -0.6458  0.2534 -0.4217
  148MPD2    H7 2266   4.509   2.059  10.566  0.8283  0.4269 -0.8428
  149TCq2    C1 2267   4.501   2.265  10.606 -0.1231 -0.3260  0.3851
  149TCq2    O2 2268   4.473   2.380  10.586  0.0094 -0.3989 -0.3526
  149TCq2    C2 2269   4.579   2.235  10.729 -0.3633 -0.2283  0.2375
  149TCq2    C3 2270   4.547   2.318  10.836  0.2403  0.6395  0.1150
  149TCq2    C4 2271   4.579   2.289  10.966  0.0209  0.8971 -0.6349
  149TCq2    C5 2272   4.626   2.167  11.003  1.0568 -0.5185  0.2509
  149TCq2    C6 2273   4.659   2.087  10.895 -0.1827  0.1447  0.0917
  149TCq2    C7 2274   4.642   2.118  10.760  0.2806  0.1369  0.5310
  149TCq2    C8 2275   4.660   1.937  10.922  0.1918  0.5565 -0.2451
  149TCq2    O4 2276   4.653   1.861  10.828  0.0304  0.0004 -0.3927
  149TCq2    C9 2277   4.527   2.368  11.067  0.3537 -0.0859 -0.6260
  149TCq2    O5 2278   4.602   2.379  11.170 -0.5251  0.1720 -0.0196
  149TCq2    O6 2279   4.429   2.439  11.047 -0.7394  0.1958 -0.6552
  149TCq2    H2 2280   4.482   2.403  10.815 -1.3923 -0.3867  1.0714
  149TCq2    H3 2281   4.643   2.147  11.108  0.9364 -0.3513  0.3025
  149TCq2    H4 2282   4.672   2.043  10.687 -0.4382 -0.5273  0.9143
  150MPD2     C 2283   1.138   0.325  12.167  0.1605 -0.4335  0.7403
  150MPD2    C1 2284   1.139   0.369  12.038 -1.0292 -0.3984  0.7730
  150MPD2    C2 2285   1.214   0.484  12.010  0.0977  0.0233 -0.0357
  150MPD2    C3 2286   1.285   0.545  12.111 -0.4768 -0.2714  0.4102
  150MPD2    C4 2287   1.275   0.500  12.244 -0.3206 -0.1100 -0.8678
  150MPD2    C5 2288   1.208   0.388  12.264 -0.4877 -0.0297 -0.2158
  150MPD2     H 2289   1.221   0.524  11.910  1.7689  2.4640  1.0357
  150MPD2    H1 2290   1.340   0.530  12.325 -1.3426  0.0121 -0.1089
  150MPD2    H2 2291   1.104   0.227  12.199  0.5039 -0.5299  0.8151
  150MPD2    H3 2292   1.196   0.349  12.364 -0.4836  1.6102  0.4188
  150MPD2     N 2293   1.365   0.658  12.071  0.4945  0.8044 -0.3987
  150MPD2    H5 2294   1.360   0.688  11.974  1.2888  0.9593 -0.3949
  150MPD2    N1 2295   1.066   0.305  11.934 -0.1550  0.6540 -0.6749
  150MPD2    H7 2296   0.989   0.245  11.963  1.0522 -0.1030  0.9735
  151TCq2    C1 2297   1.453   0.735  12.150  0.0709  0.1106  0.4382
  151TCq2    O2 2298   1.500   0.698  12.256  0.5071  0.0957 -0.5725
  151TCq2    C2 2299   1.516   0.855  12.091  0.0746  0.9982  0.7318
  151TCq2    C3 2300   1.481   0.895  11.965 -0.2461  0.1374 -0.0560
  151TCq2    C4 2301   1.532   1.012  11.921 -0.2593  0.3673  0.1058
  151TCq2    C5 2302   1.632   1.079  11.988 -0.3447  0.4787 -0.2899
  151TCq2    C6 2303   1.668   1.035  12.113  0.4148 -0.3092 -0.9642
  151TCq2    C7 2304   1.611   0.927  12.165 -0.3765 -0.2220 -0.1437
  151TCq2    C8 2305   1.779   1.105  12.180  0.1467  0.2703 -0.2279
  151TCq2    O4 2306   1.803   1.224  12.154 -0.1005  0.1615  0.4741
  151TCq2    C9 2307   1.491   1.068  11.799 -0.3105  0.3275  0.7315
  151TCq2    O5 2308   1.465   0.983  11.717  0.5933 -0.2567  0.1418
  151TCq2    O6 2309   1.539   1.183  11.774  0.1527  0.2972 -0.1828
  151TCq2    H2 2310   1.418   0.832  11.903  2.0181 -1.9627 -0.2660
  151TCq2    H3 2311   1.674   1.170  11.948  0.4215  0.4655  0.4873
  151TCq2    H4 2312   1.615   0.911  12.272 -0.1141  1.1961  0.0692
  152MPD2     C 2313   1.406   0.648  12.602 -0.1130 -0.1300  0.0837
  152MPD2    C1 2314   1.438   0.780  12.570  0.0111  0.4236 -0.5373
  152MPD2    C2 2315   1.331   0.872  12.553 -0.1887 -0.1643 -0.6293
  152MPD2    C3 2316   1.206   0.827  12.545  0.7259 -0.0356  0.4765
  152MPD2    C4 2317   1.171   0.694  12.567 -0.1477  0.7874 -0.0011
  152MPD2    C5 2318   1.275   0.608  12.606 -0.2407 -0.2103  0.7576
  152MPD2     H 2319   1.355   0.971  12.517 -0.9673  0.8275  1.5714
  152MPD2    H1 2320   1.068   0.667  12.547 -0.1880  0.4735  0.6443
  152MPD2    H2 2321   1.481   0.572  12.621  1.4658  1.7159  1.3414
  152MPD2    H3 2322   1.254   0.504  12.626  1.6626 -0.6361  0.5705
  152MPD2     N 2323   1.117   0.921  12.500 -0.2438 -0.5581 -0.7844
  152MPD2    H5 2324   1.146   1.015  12.475  1.5813 -0.7261  0.7732
  152MPD2    N1 2325   1.572   0.820  12.578 -0.3810 -0.3432 -0.3567
  152MPD2    H7 2326   1.634   0.754  12.624  0.1979  0.0108 -0.6276
  153TCq2    C1 2327   1.621   0.946  12.544  0.0420 -0.3085 -0.8064
  153TCq2    O2 2328   1.554   1.046  12.518 -0.3027 -0.0950 -0.0840
  153TCq2    C2 2329   1.757   0.970  12.588 -0.4183 -0.3734  0.2951
  153TCq2    C3 2330   1.833   0.866  12.639  0.2921 -0.0571  0.3314
  153TCq2    C4 2331   1.946   0.891  12.709 -0.0965 -0.3457  0.2847
  153TCq2    C5 2332   1.996   1.019  12.719 -0.0444 -0.1848  0.7675
  153TCq2    C6 2333   1.920   1.118  12.661  0.4785  0.3824 -0.3290
  153TCq2    C7 2334   1.801   1.098  12.587  0.1849  0.9146 -0.8878
  153TCq2    C8 2335   1.967   1.255  12.670  0.2237 -0.0367  0.0249
  153TCq2    O4 2336   1.899   1.344  12.621 -0.4380  0.2022  0.2881
  153TCq2    C9 2337   2.028   0.780  12.755  0.4173  0.0400  1.0184
  153TCq2    O5 2338   2.135   0.816  12.810  0.5689 -0.0379  1.0492
  153TCq2    O6 2339   1.985   0.658  12.732 -0.0335 -0.0381 -0.0078
  153TCq2    H2 2340   1.809   0.764  12.611 -1.2154  0.4695 -0.3498
  153TCq2    H3 2341   2.092   1.030  12.768  0.3268 -0.4664  0.0909
  153TCq2    H4 2342   1.742   1.175  12.539 -2.0715  0.8140  1.6670
  154MPD2     C 2343   2.638   0.390   0.345 -0.0057  0.2680  0.0301
  154MPD2    C1 2344   2.724   0.483   0.386 -0.2847  0.4674 -0.1299
  154MPD2    C2 2345   2.681   0.611   0.415 -0.0594  0.2553 -0.0697
  154MPD2    C3 2346   2.547   0.644   0.399  0.2894 -0.0155 -0.3953
  154MPD2    C4 2347   2.458   0.550   0.352  0.4653 -0.2759  0.7644
  154MPD2    C5 2348   2.508   0.421   0.333  0.1371 -0.7676  0.0000
  154MPD2     H 2349   2.741   0.684   0.469  0.5512  0.4202 -0.9703
  154MPD2    H1 2350   2.351   0.565   0.343  0.3217 -0.9585  1.3378
  154MPD2    H2 2351   2.670   0.287   0.334 -2.1084 -0.4600  0.8765
  154MPD2    H3 2352   2.441   0.339   0.306 -2.0189  1.5499 -1.6184
  154MPD2     N 2353   2.512   0.777   0.428 -0.1652  0.5522  0.3592
  154MPD2    H5 2354   2.590   0.833   0.461 -0.2971  1.2720 -0.5331
  154MPD2    N1 2355   2.851   0.441   0.404  0.6683  0.0953 -0.2505
  154MPD2    H7 2356   2.872   0.341   0.396 -2.9261 -0.6619 -0.0506
  155TCq2    C1 2357   2.953   0.528   0.441  0.0712  1.0810  0.0184
  155TCq2    O2 2358   2.967   0.650   0.434  0.2650  0.8048  0.4010
  155TCq2    C2 2359   3.070   0.446   0.452  0.1372  0.0735 -0.2557
  155TCq2    C3 2360   3.188   0.512   0.467 -0.5852 -0.5275 -0.2202
  155TCq2    C4 2361   3.289   0.456   0.547  0.0681 -0.3750 -0.5907
  155TCq2    C5 2362   3.272   0.329   0.603  0.1154 -0.3616 -0.3619
  155TCq2    C6 2363   3.151   0.263   0.581 -0.4756 -0.0231  0.3158
  155TCq2    C7 2364   3.054   0.324   0.513 -0.0183 -0.6033  0.3802
  155TCq2    C8 2365   3.134   0.122   0.602  0.2133 -0.7801 -0.1930
  155TCq2    O4 2366   3.053   0.061   0.531 -0.7840 -0.1476  0.5778
  155TCq2    C9 2367   3.408   0.525   0.561  0.5662  0.3045  0.5158
  155TCq2    O5 2368   3.502   0.473   0.626  0.0775 -0.2524 -0.2504
  155TCq2    O6 2369   3.422   0.631   0.491  0.6341  0.1401  0.0376
  155TCq2    H2 2370   3.191   0.609   0.419  1.1900 -0.8533 -0.7645
  155TCq2    H3 2371   3.356   0.297   0.662 -1.6334 -3.2199  0.5610
  155TCq2    H4 2372   2.964   0.265   0.517 -0.7871  0.6043  0.9299
  156MPD2     C 2373   1.807   2.789  11.415 -0.0641  0.9414 -0.0761
  156MPD2    C1 2374   1.715   2.893  11.440 -0.0016  0.3349  0.8454
  156MPD2    C2 2375   1.657   2.912  11.564 -0.6885 -0.0717 -0.6739
  156MPD2    C3 2376   1.685   2.822  11.663  0.2459 -0.2846 -0.3670
  156MPD2    C4 2377   1.771   2.718  11.639 -0.2681  0.8418  0.1557
  156MPD2    C5 2378   1.837   2.701  11.519 -0.1047 -0.2433  0.0823
  156MPD2     H 2379   1.603   3.003  11.589 -2.5054 -0.9026 -1.5425
  156MPD2    H1 2380   1.802   2.645  11.713  0.1243 -0.7637 -1.5909
  156MPD2    H2 2381   1.864   2.785  11.323 -0.8876  0.1812 -0.5446
  156MPD2    H3 2382   1.897   2.610  11.515  1.0209  0.4399  1.2855
  156MPD2     N 2383   1.637   2.844  11.796 -0.2482  0.3685 -0.0531
  156MPD2    H5 2384   1.574   2.922  11.809  1.2909  1.6460 -0.3636
  156MPD2    N1 2385   1.695   2.986  11.337 -0.4209  0.0770 -0.1507
  156MPD2    H7 2386   1.734   2.968  11.246  2.0106  2.6401  0.3893
  157TCq2    C1 2387   1.638   3.113  11.352 -0.3698  0.0445 -0.4020
  157TCq2    O2 2388   1.605   3.181  11.450  0.0375  0.3146 -0.1160
  157TCq2    C2 2389   1.606   3.170  11.225  0.7812  0.2130  0.3695
  157TCq2    C3 2390   1.628   3.106  11.103 -0.1974  0.0619 -0.2293
  157TCq2    C4 2391   1.573   3.162  10.993 -0.5136  0.3753  0.3051
  157TCq2    C5 2392   1.538   3.295  10.992  0.1261  0.1570 -0.8491
  157TCq2    C6 2393   1.527   3.355  11.110  0.3324  0.0958  0.1719
  157TCq2    C7 2394   1.543   3.293  11.230 -0.8064  0.3214  0.5150
  157TCq2    C8 2395   1.546   3.497  11.110 -0.0345 -0.2398 -0.8624
  157TCq2    O4 2396   1.652   3.541  11.071 -0.3006 -0.2897 -0.3471
  157TCq2    C9 2397   1.589   3.092  10.866  0.1796  0.2005  0.1177
  157TCq2    O5 2398   1.625   3.161  10.770  0.0695  0.8362 -0.1777
  157TCq2    O6 2399   1.584   2.967  10.867  0.0747 -0.2618 -0.2988
  157TCq2    H2 2400   1.669   3.007  11.087  2.8069  1.3335 -0.4211
  157TCq2    H3 2401   1.501   3.347  10.905  0.0329  1.6197  0.0780
  157TCq2    H4 2402   1.549   3.360  11.314  1.2064 -1.1634  1.5457
  158TMC2    C1 2403   2.008   1.941  13.435  0.3783  0.4915  0.5969
  158TMC2    C2 2404   2.013   2.062  13.392  0.3354  0.1236  0.4751
  158TMC2    C3 2405   1.900   2.138  13.360  0.6470  0.1991 -0.2744
  158TMC2    C4 2406   1.892   1.865  13.423 -0.2073 -0.4184 -0.6823
  158TMC2    C5 2407   1.776   1.930  13.388 -0.0925 -0.3094  0.5117
  158TMC2    C6 2408   1.780   2.066  13.367 -0.2240 -0.0841 -0.4672
  158TMC2     C 2409   2.130   1.872  13.431  0.6398 -0.4753  0.5770
  158TMC2     O 2410   2.219   1.925  13.365  0.0274  0.5776 -0.1699
  158TMC2     H 2411   2.099   2.127  13.390  0.6413 -0.2868  0.3252
  158TMC2    H1 2412   1.893   1.757  13.433  0.2648 -0.3674 -0.1978
  158TMC2    H2 2413   1.695   2.133  13.381 -0.4370 -0.3482 -0.5032
  158TMC2    C7 2414   1.642   1.870  13.374 -0.1563 -0.6575  0.1160
  158TMC2    C8 2415   1.913   2.246  13.270 -0.1136  0.1111  0.4225
  158TMC2    O1 2416   1.553   1.945  13.340 -0.0441 -0.6125  0.6509
  158TMC2    O2 2417   2.025   2.299  13.259 -0.2750 -0.3734 -0.3967
  158TMC2    O5 2418   1.825   2.231  13.165 -0.2368  0.4364  0.0369
  158TMC2    H5 2419   1.747   2.175  13.186  0.6174 -0.4076  0.9651
  159MPD2     C 2420   2.423   1.478  13.601 -0.6249 -0.2510  0.2579
  159MPD2    C1 2421   2.322   1.508  13.690  0.3653  0.4147  0.3967
  159MPD2    C2 2422   2.227   1.605  13.671  0.6935  0.0571  0.5184
  159MPD2    C3 2423   2.234   1.677  13.552  0.8111  0.3562 -0.0473
  159MPD2    C4 2424   2.342   1.661  13.463 -1.2284 -0.0889 -0.2516
  159MPD2    C5 2425   2.431   1.560  13.486 -0.1350 -0.0163 -0.0054
  159MPD2     H 2426   2.149   1.601  13.745 -1.0359 -2.9855 -1.4864
  159MPD2    H1 2427   2.350   1.724  13.376 -1.8322  0.3973  0.0412
  159MPD2    H2 2428   2.489   1.394  13.616  0.5204  0.2887 -1.8993
  159MPD2    H3 2429   2.499   1.539  13.405 -0.4913  1.8980 -0.8075
  159MPD2     N 2430   2.133   1.774  13.526  0.4601 -0.4134 -0.3869
  159MPD2    H5 2431   2.070   1.776  13.605 -0.0978  1.3134 -0.8783
  159MPD2    N1 2432   2.312   1.422  13.799  0.3497  0.9812 -0.1910
  159MPD2    H7 2433   2.351   1.328  13.799  0.9969  1.2615  2.0572
  160TMC2    C1 2434   1.702   0.137   1.395  0.0900  0.3760 -0.2072
  160TMC2    C2 2435   1.839   0.125   1.379  0.4510  0.7644  0.4385
  160TMC2    C3 2436   1.913   0.166   1.274  0.0950  0.2430 -0.3450
  160TMC2    C4 2437   1.635   0.198   1.293  0.0578  0.2680 -0.1922
  160TMC2    C5 2438   1.709   0.248   1.193 -0.9704  0.1982 -0.2906
  160TMC2    C6 2439   1.848   0.230   1.176 -0.1745  0.4354  0.0118
  160TMC2     C 2440   1.638   0.097   1.515 -0.4601 -0.2134 -0.3802
  160TMC2     O 2441   1.673   4.714   1.559  0.3012  0.3522 -0.6479
  160TMC2     H 2442   1.896   0.093   1.466  0.6062  0.8764  0.3778
  160TMC2    H1 2443   1.530   0.226   1.289 -0.1756 -0.8107 -1.3178
  160TMC2    H2 2444   1.887   0.245   1.076  1.1145  0.4525  0.5144
  160TMC2    C7 2445   1.632   0.317   1.088 -0.1109 -0.1922 -0.0979
  160TMC2    C8 2446   2.050   0.152   1.273 -0.4017  0.6538  1.0713
  160TMC2    O1 2447   1.521   0.273   1.061  0.2667  0.1841  0.4046
  160TMC2    O2 2448   2.111   0.070   1.342 -0.7235  0.1540  0.4324
  160TMC2    O5 2449   2.089   0.275   1.240  0.4793  0.3773  0.2334
  160TMC2    H5 2450   2.025   0.313   1.176 -0.5670 -1.0839  0.4027
  161MPD2     C 2451   1.421   0.037   1.693  0.8778  0.0553  0.8521
  161MPD2    C1 2452   1.456   0.166   1.656 -0.1962  0.5712 -0.3495
  161MPD2    C2 2453   1.394   0.275   1.708 -0.3707  0.0163  0.5390
  161MPD2    C3 2454   1.290   0.268   1.798  0.1214 -0.3127  0.2438
  161MPD2    C4 2455   1.258   0.143   1.839  0.0261  0.1055  0.3792
  161MPD2    C5 2456   1.326   0.028   1.796  0.3784 -0.5432  0.4589
  161MPD2     H 2457   1.425   0.370   1.666 -2.2278  1.1084  1.6121
  161MPD2    H1 2458   1.176   0.129   1.909 -0.0758  1.6384  0.5653
  161MPD2    H2 2459   1.470   4.675   1.655  0.9155  0.4829 -0.0803
  161MPD2    H3 2460   1.292   4.660   1.835  0.1487 -0.3030  0.8382
  161MPD2     N 2461   1.213   0.378   1.838  0.3374 -0.3951  0.3580
  161MPD2    H5 2462   1.137   0.362   1.904  0.4545  0.0028  0.5927
  161MPD2    N1 2463   1.547   0.194   1.557 -0.3450  0.4106 -0.2558
  161MPD2    H7 2464   1.547   0.286   1.514  0.1908 -0.3388 -1.8776
  162TMC2    C1 2465   4.173   2.120   1.149  0.4105  1.0054 -0.2371
  162TMC2    C2 2466   4.040   2.127   1.167  0.0464  0.2892 -0.1563
  162TMC2    C3 2467   4.001   2.163   1.294 -0.4265 -0.4662  0.2698
  162TMC2    C4 2468   4.263   2.142   1.251  0.7048  0.6997  0.2459
  162TMC2    C5 2469   4.219   2.161   1.380 -0.9112  0.8140 -0.6183
  162TMC2    C6 2470   4.085   2.169   1.403 -1.1182 -0.8077  0.1646
  162TMC2     C 2471   4.236   2.095   1.018  0.2256 -0.0206  0.0563
  162TMC2     O 2472   4.359   2.082   1.010  0.1211  0.2684  0.3321
  162TMC2     H 2473   3.968   2.099   1.090  2.1917  1.2540 -2.5252
  162TMC2    H1 2474   4.366   2.163   1.227  0.9671 -0.9517 -0.0602
  162TMC2    H2 2475   4.063   2.208   1.502  0.8026 -0.2333  0.3660
  162TMC2    C7 2476   4.305   2.219   1.479  0.3815  0.2524 -0.5491
  162TMC2    C8 2477   3.861   2.145   1.332 -0.0407 -0.4137 -0.9842
  162TMC2    O1 2478   4.261   2.312   1.545  0.0427 -0.1655 -0.4329
  162TMC2    O2 2479   3.775   2.217   1.292  0.1802 -0.0216  0.3267
  162TMC2    O5 2480   3.850   2.011   1.315 -0.3355 -0.2113  0.0622
  162TMC2    H5 2481   3.935   1.963   1.329  1.7493  3.4533 -0.0649
  163MPD2     C 2482   4.164   1.997   0.519 -0.8510  0.2939 -0.2911
  163MPD2    C1 2483   4.280   1.986   0.588 -0.1784 -0.1683  0.5513
  163MPD2    C2 2484   4.272   2.012   0.723  0.0779  0.5033  0.1891
  163MPD2    C3 2485   4.155   2.040   0.788 -0.2650  0.4869  0.8228
  163MPD2    C4 2486   4.039   2.053   0.716  0.7066  0.1388 -0.4242
  163MPD2    C5 2487   4.048   2.029   0.577  0.2261  0.1207 -0.3109
  163MPD2     H 2488   4.364   2.016   0.781  0.6342 -1.4288 -0.5502
  163MPD2    H1 2489   3.944   2.090   0.751  0.1904  1.2212 -2.9810
  163MPD2    H2 2490   4.151   1.976   0.414  1.9182  1.7881 -0.9271
  163MPD2    H3 2491   3.957   2.038   0.519 -1.4161 -0.0406  2.2362
  163MPD2     N 2492   4.144   2.080   0.924  0.0522 -0.7658  0.2082
  163MPD2    H5 2493   4.050   2.117   0.942 -0.1290 -1.1013 -0.0610
  163MPD2    N1 2494   4.410   1.955   0.538  0.0219 -0.1337 -0.5363
  163MPD2    H7 2495   4.486   1.958   0.606 -0.0194  0.2611 -0.5046
  164TCq2    C1 2496   0.613   1.611  11.277  0.2291  0.2180  0.7438
  164TCq2    O2 2497   0.591   1.528  11.366 -0.3545 -0.0560 -0.3051
  164TCq2    C2 2498   0.614   1.760  11.301  0.4377  0.3136 -0.4447
  164TCq2    C3 2499   0.653   1.837  11.198 -0.4994  0.0735  0.0870
  164TCq2    C4 2500   0.613   1.965  11.204 -0.0566 -0.0513  0.5644
  164TCq2    C5 2501   0.533   2.014  11.303 -0.1333  0.3927  0.3533
  164TCq2    C6 2502   0.486   1.931  11.407 -0.3513  0.5949 -0.6300
  164TCq2    C7 2503   0.531   1.799  11.399 -0.1010 -0.6455  0.0427
  164TCq2    C8 2504   0.343   1.954  11.442 -0.1201 -0.1174 -0.7250
  164TCq2    O4 2505   0.298   2.064  11.418 -0.0782  0.1599  0.1135
  164TCq2    C9 2506   0.659   2.060  11.103  0.3942 -0.6751 -0.6064
  164TCq2    O5 2507   0.673   2.180  11.133 -0.6746 -0.0095 -0.6537
  164TCq2    O6 2508   0.693   2.010  10.994 -0.3949  0.3031  0.3369
  164TCq2    H2 2509   0.724   1.812  11.120 -0.1342 -1.7658  0.9933
  164TCq2    H3 2510   0.503   2.118  11.291 -0.2960  0.2760 -0.2863
  164TCq2    H4 2511   0.479   1.723  11.456 -0.7658 -0.1033  0.1702
  165MPD2     C 2512   1.040   3.486   1.494 -0.4283 -0.2865 -0.3997
  165MPD2    C1 2513   0.924   3.530   1.555  0.3233 -0.0321  0.2140
  165MPD2    C2 2514   0.921   3.661   1.606  0.4404  0.1223  0.7417
  165MPD2    C3 2515   1.036   3.742   1.610 -0.2700  0.5800  0.2792
  165MPD2    C4 2516   1.148   3.700   1.545 -1.2508  0.2848 -0.1677
  165MPD2    C5 2517   1.158   3.571   1.498  0.3379 -0.2950  0.7676
  165MPD2     H 2518   0.824   3.699   1.635  0.4107  0.5501  0.0917
  165MPD2    H1 2519   1.233   3.765   1.529  1.2504 -3.1901 -1.0164
  165MPD2    H2 2520   1.058   3.387   1.455  1.3405  0.5142 -1.6006
  165MPD2    H3 2521   1.251   3.549   1.447  0.3391  0.8856  0.2823
  165MPD2     N 2522   1.029   3.873   1.661  0.2397  0.1571 -0.3778
  165MPD2    H5 2523   1.115   3.925   1.648 -0.3910  1.5657  1.0215
  165MPD2    N1 2524   0.813   3.444   1.556  0.3192  0.5235  0.0353
  165MPD2    H7 2525   0.827   3.361   1.498  2.5023  1.7516 -1.1763
  166TCq2    C1 2526   0.922   3.931   1.723  0.2211  0.2705 -0.0566
  166TCq2    O2 2527   0.823   3.885   1.777  0.6212 -0.1572  0.8529
  166TCq2    C2 2528   0.963   4.067   1.760 -0.2301 -0.5888  0.3743
  166TCq2    C3 2529   0.875   4.138   1.832 -0.3474  0.0383 -0.9481
  166TCq2    C4 2530   0.905   4.267   1.860  0.1444 -0.2787 -0.0619
  166TCq2    C5 2531   1.014   4.331   1.813  0.1155 -0.0656 -0.1493
  166TCq2    C6 2532   1.104   4.256   1.738 -0.4774  0.4239 -0.5083
  166TCq2    C7 2533   1.083   4.124   1.717  0.1401  0.1862 -0.6235
  166TCq2    C8 2534   1.208   4.319   1.667 -0.2323 -0.0613 -0.0108
  166TCq2    O4 2535   1.320   4.272   1.679 -0.4820 -0.0343 -0.1329
  166TCq2    C9 2536   0.833   4.334   1.961 -0.9846 -0.1414 -0.4320
  166TCq2    O5 2537   0.772   4.258   2.034 -0.7066 -0.3903  0.0680
  166TCq2    O6 2538   0.848   4.460   1.973 -0.6387  0.1951  0.2817
  166TCq2    H2 2539   0.781   4.105   1.874 -0.6935  0.8856 -1.0638
  166TCq2    H3 2540   1.033   4.434   1.839 -0.5121  0.1542 -0.5661
  166TCq2    H4 2541   1.145   4.081   1.640  0.8541 -0.6813  0.4359
  167TMC2    C1 2542   4.365   1.790  12.932 -1.4487  0.4028  0.3303
  167TMC2    C2 2543   4.311   1.757  13.056  0.3036 -0.6415 -0.0224
  167TMC2    C3 2544   4.335   1.631  13.099  0.1748 -0.3170  0.2784
  167TMC2    C4 2545   4.430   1.698  12.852  0.6888 -0.2103 -0.1406
  167TMC2    C5 2546   4.441   1.573  12.898  0.3381  0.1012 -0.1655
  167TMC2    C6 2547   4.406   1.537  13.028 -0.4900 -0.8154  0.0151
  167TMC2     C 2548   4.297   1.896  12.866  1.0056  0.0735  0.2412
  167TMC2     O 2549   4.200   1.950  12.917  0.1756 -0.4308 -0.2081
  167TMC2     H 2550   4.235   1.814  13.108  1.5927  0.1928  0.9689
  167TMC2    H1 2551   4.464   1.715  12.750 -0.9316 -1.9647 -0.9683
  167TMC2    H2 2552   4.430   1.438  13.063 -0.3322 -0.6424  0.3972
  167TMC2    C7 2553   4.518   1.490  12.816 -0.5271  0.6681 -0.1896
  167TMC2    C8 2554   4.279   1.582  13.224 -0.2386  0.3615  0.5068
  167TMC2    O1 2555   4.590   1.549  12.741 -0.5042  0.5869  0.8538
  167TMC2    O2 2556   4.229   1.475  13.248 -0.3273 -0.0573 -0.1749
  167TMC2    O5 2557   4.294   1.688  13.310  0.4944 -0.5938 -0.3190
  167TMC2    H5 2558   4.354   1.759  13.282  0.9512  0.0192  2.2286
  168MPD2     C 2559   4.192   2.082  12.650 -0.0014 -0.3115  0.3571
  168MPD2    C1 2560   4.310   2.006  12.643 -0.3454 -0.1950  0.2986
  168MPD2    C2 2561   4.389   2.023  12.531 -0.1597 -0.6517 -0.0315
  168MPD2    C3 2562   4.353   2.111  12.426  0.2447 -0.1570 -0.1482
  168MPD2    C4 2563   4.241   2.190  12.438  0.2794  0.3010 -0.2559
  168MPD2    C5 2564   4.170   2.185  12.553 -0.1383  0.2243 -0.2792
  168MPD2     H 2565   4.475   1.960  12.514  0.1261 -0.4995  0.8370
  168MPD2    H1 2566   4.221   2.260  12.358  0.1299 -0.4715 -0.8932
  168MPD2    H2 2567   4.123   2.068  12.732  1.0025 -1.3432  1.0327
  168MPD2    H3 2568   4.082   2.248  12.561 -0.0732 -0.0652  2.8198
  168MPD2     N 2569   4.421   2.116  12.300 -0.3453 -0.2905  0.2804
  168MPD2    H5 2570   4.364   2.143  12.221 -0.5966 -1.0126  0.2155
  168MPD2    N1 2571   4.353   1.920  12.746  0.1788  0.1532  0.0082
  168MPD2    H7 2572   4.438   1.872  12.717 -1.4369 -0.7683 -3.2015
  169MPD1     C 2573   1.358   0.898   9.027  0.3002 -0.1622  0.7901
  169MPD1    C1 2574   1.326   0.788   9.099 -0.0659  0.2389  0.2092
  169MPD1    C2 2575   1.418   0.750   9.187 -0.1958  0.5306  0.1154
  169MPD1    C3 2576   1.548   0.806   9.187 -0.6675 -0.4334 -0.0987
  169MPD1    C4 2577   1.579   0.913   9.102  0.3578 -0.2412 -0.0746
  169MPD1    C5 2578   1.478   0.960   9.029  0.1976  0.3119 -0.1399
  169MPD1     H 2579   1.408   0.672   9.262 -0.7923 -2.6598 -3.2713
  169MPD1    H1 2580   1.675   0.964   9.104  1.0234 -1.4787 -0.4637
  169MPD1    H2 2581   1.280   0.943   8.967  1.6366  1.6451  0.4178
  169MPD1    H3 2582   1.501   1.040   8.960  0.8046 -2.6076 -3.3508
  169MPD1     N 2583   1.644   0.757   9.279  0.2117  0.5267 -0.4878
  169MPD1    H5 2584   1.598   0.701   9.350 -2.0457  0.2434 -2.1488
  169MPD1    N1 2585   1.193   0.736   9.109 -0.2378  0.3909 -0.0331
  169MPD1    H6 2586   1.135   0.778   9.036 -1.1862  0.8585  0.9834
  169MPD1    H7 2587   1.187   0.635   9.097 -1.8041  0.3249  1.3259
  170MPD1     C 2588   4.595   3.516  13.692 -0.2282 -0.4312  0.3493
  170MPD1    C1 2589   4.576   3.525  13.828 -0.1559 -0.6173  0.0202
  170MPD1    C2 2590   4.674   3.604  13.893  0.2419  0.1735 -0.3614
  170MPD1    C3 2591   0.049   3.670  13.831  0.6161  0.0244 -0.1471
  170MPD1    C4 2592   0.063   3.667  13.697  0.2181  0.4464 -0.3194
  170MPD1    C5 2593   4.699   3.587  13.635  0.5141 -0.5883  0.5145
  170MPD1     H 2594   4.662   3.613  14.000 -0.1941 -0.8177 -0.3267
  170MPD1    H1 2595   0.131   3.722  13.633  2.7337 -1.8697  0.3803
  170MPD1    H2 2596   4.527   3.459  13.629 -0.4788 -0.7034  0.8717
  170MPD1    H3 2597   4.700   3.582  13.527  2.7174 -0.4183  0.5211
  170MPD1     N 2598   0.140   3.748  13.912  0.4676  0.2242 -0.5571
  170MPD1    H5 2599   0.125   3.764  14.011 -2.7775 -2.5177 -0.6205
  170MPD1    N1 2600   4.462   3.474  13.887  0.2484  0.2113  0.4635
  170MPD1    H6 2601   4.469   3.476  13.989  0.0719  1.7465  0.4424
  170MPD1    H7 2602   4.444   3.379  13.856  0.6492  1.1714 -2.7202
  171MPD1     C 2603   4.456   0.602  15.645  0.1469  0.5337 -0.1883
  171MPD1    C1 2604   4.431   0.473  15.599 -0.3179  0.5166  0.5239
  171MPD1    C2 2605   4.345   0.399  15.672  0.4495 -0.3232 -0.5953
  171MPD1    C3 2606   4.311   0.432  15.801 -0.1944  0.2235  0.2694
  171MPD1    C4 2607   4.342   0.556  15.848  0.8350 -0.2626  0.4392
  171MPD1    C5 2608   4.417   0.638  15.768  0.2743 -0.6124 -0.1120
  171MPD1     H 2609   4.305   0.309  15.626 -2.6401  1.3631 -1.1730
  171MPD1    H1 2610   4.304   0.597  15.941  0.3707 -2.0452  1.0417
  171MPD1    H2 2611   4.522   0.671  15.594  2.5819  1.5664  4.2813
  171MPD1    H3 2612   4.451   0.735  15.800  0.5088 -0.9071  0.5235
  171MPD1     N 2613   4.231   0.346  15.887  0.3016  0.5627 -0.7925
  171MPD1    H5 2614   4.219   0.366  15.986  2.6032  0.1816 -0.4548
  171MPD1    N1 2615   4.479   0.443  15.475  0.1638  0.0607 -0.1392
  171MPD1    H6 2616   4.495   0.343  15.466  1.6168  0.4954 -2.5570
  171MPD1    H7 2617   4.574   0.479  15.463  0.1181 -0.4572 -2.0547
  172MPD1     C 2618   3.069   4.094   0.409  0.7042  0.4685 -0.4073
  172MPD1    C1 2619   2.986   4.206   0.390 -0.7863  1.2556  0.4894
  172MPD1    C2 2620   3.031   4.338   0.362 -0.0505  0.6332 -0.6243
  172MPD1    C3 2621   3.174   4.357   0.378 -0.3041 -0.3684  0.1110
  172MPD1    C4 2622   3.249   4.246   0.405 -0.5243 -0.1939 -0.3153
  172MPD1    C5 2623   3.205   4.119   0.420  0.1282 -0.5491 -0.0579
  172MPD1     H 2624   2.961   4.419   0.346  1.0374  1.9006  1.0787
  172MPD1    H1 2625   3.357   4.246   0.407 -0.5509 -0.2279  1.8212
  172MPD1    H2 2626   3.034   3.992   0.416  0.8674  0.3282 -1.5616
  172MPD1    H3 2627   3.278   4.042   0.442  1.5042  1.1808  1.4350
  172MPD1     N 2628   3.232   4.481   0.362  0.7537  0.0930  0.1716
  172MPD1    H5 2629   3.326   4.503   0.394  0.4527  3.4619 -1.1840
  172MPD1    N1 2630   2.850   4.182   0.376 -0.1130  0.4056  0.1823
  172MPD1    H6 2631   2.826   4.101   0.433  2.8413 -0.7406 -0.1883
  172MPD1    H7 2632   2.793   4.263   0.399  0.1549  0.2335  1.4319
  173MPD1     C 2633   4.497   4.386  14.409  0.3500 -0.6371 -0.7640
  173MPD1    C1 2634   4.617   4.340  14.452 -1.2476  0.4521 -0.2278
  173MPD1    C2 2635   4.612   4.233  14.544 -0.0786  0.4567 -0.3049
  173MPD1    C3 2636   4.489   4.179  14.591  0.6575  0.5659 -0.4027
  173MPD1    C4 2637   4.376   4.228  14.535 -0.6040 -0.4351 -0.0647
  173MPD1    C5 2638   4.382   4.324  14.441 -0.5121  0.5015  0.0372
  173MPD1     H 2639   4.708   4.202  14.582  0.2592 -0.8863 -2.2756
  173MPD1    H1 2640   4.280   4.187  14.563 -0.5894  0.7300  1.6632
  173MPD1    H2 2641   4.495   4.467  14.337 -1.6344 -2.0833 -2.3261
  173MPD1    H3 2642   4.289   4.351  14.392 -0.5141 -0.1923 -0.3403
  173MPD1     N 2643   4.492   4.080  14.685 -0.0703  0.4019  0.7138
  173MPD1    H5 2644   4.583   4.049  14.721  0.5209  2.6119  1.0967
  173MPD1    N1 2645   0.011   4.411  14.424 -0.0875  0.4057 -0.3316
  173MPD1    H6 2646   0.002   4.480  14.350  2.9496 -0.8174 -1.8337
  173MPD1    H7 2647   0.031   4.466  14.507  0.3754  0.3756 -0.4232
  174MPD1     C 2648   0.448   3.697  14.876  0.0266  0.0179  0.3841
  174MPD1    C1 2649   0.377   3.644  14.987 -0.6867  0.0486  0.1597
  174MPD1    C2 2650   0.239   3.677  14.996  0.6724 -0.7530  0.5045
  174MPD1    C3 2651   0.178   3.736  14.891 -0.3896  0.0551 -0.4046
  174MPD1    C4 2652   0.252   3.780  14.786  0.4860  0.3733  0.4523
  174MPD1    C5 2653   0.383   3.765  14.781  0.4983 -0.4050  0.0138
  174MPD1     H 2654   0.181   3.643  15.080  0.1326  2.3561  1.3956
  174MPD1    H1 2655   0.202   3.817  14.697  0.7452  0.4593  0.3407
  174MPD1    H2 2656   0.555   3.690  14.860  0.2262  0.2352  1.5665
  174MPD1    H3 2657   0.437   3.807  14.697  0.2489  0.1749  0.1450
  174MPD1     N 2658   0.043   3.781  14.893 -0.6051  0.1710 -0.3748
  174MPD1    H5 2659   0.019   3.841  14.814  0.1676  1.1013  0.0987
  174MPD1    N1 2660   0.450   3.577  15.088  0.5422 -0.3226 -0.3585
  174MPD1    H6 2661   0.397   3.511  15.145  0.7434 -0.1327  0.0549
  174MPD1    H7 2662   0.524   3.521  15.046  1.0410  0.8805 -1.0920
  175MPD1     C 2663   3.410   4.606  16.057 -0.2754  0.0612 -0.4794
  175MPD1    C1 2664   3.484   4.700  16.126 -0.4625 -0.3269 -0.3585
  175MPD1    C2 2665   3.414   0.065  16.200  0.6745  0.2694  0.2538
  175MPD1    C3 2666   3.274   0.078  16.199 -0.4414  0.5202  0.5331
  175MPD1    C4 2667   3.206   4.720  16.112  0.9534 -0.0411  0.1096
  175MPD1    C5 2668   3.270   4.611  16.053  0.3753  0.8185  0.8356
  175MPD1     H 2669   3.476   0.144  16.241 -0.4096  0.8073  0.8569
  175MPD1    H1 2670   3.097   4.724  16.105  0.7709 -1.1855  2.1196
  175MPD1    H2 2671   3.457   4.528  15.998 -1.1410 -0.0639 -1.0119
  175MPD1    H3 2672   3.210   4.543  15.993  0.3119  1.2325  0.4262
  175MPD1     N 2673   3.208   0.190  16.260 -0.5909 -0.1484  0.0323
  175MPD1    H5 2674   3.110   0.207  16.241 -0.1977  2.1417  0.0133
  175MPD1    N1 2675   3.624   4.690  16.153  0.3266  0.0951 -0.1488
  175MPD1    H6 2676   3.664   0.055  16.169  2.8605 -0.6469 -2.2894
  175MPD1    H7 2677   3.669   4.629  16.086  0.1016  1.4229 -1.5203
  176MPD1     C 2678   4.209   2.243  17.310  0.2710  0.3524 -0.2766
  176MPD1    C1 2679   4.106   2.315  17.352 -0.3465  0.7212  0.7444
  176MPD1    C2 2680   4.123   2.392  17.464  0.1391 -0.3780 -0.3107
  176MPD1    C3 2681   4.243   2.400  17.529  0.5740 -0.1238  0.1582
  176MPD1    C4 2682   4.354   2.345  17.473 -0.2617  0.1104  0.5602
  176MPD1    C5 2683   4.332   2.262  17.360  0.6584 -0.2241 -0.5307
  176MPD1     H 2684   4.033   2.444  17.494 -0.5098 -0.3690 -2.2455
  176MPD1    H1 2685   4.457   2.356  17.503  0.0831 -1.0072 -0.2434
  176MPD1    H2 2686   4.201   2.191  17.215 -0.4678 -0.4319  0.2071
  176MPD1    H3 2687   4.416   2.208  17.319  0.1997 -0.5452 -1.0523
  176MPD1     N 2688   4.245   2.465  17.654  0.3889  0.5159  0.0245
  176MPD1    H5 2689   4.156   2.499  17.690  0.1715  1.2246 -1.1892
  176MPD1    N1 2690   3.979   2.294  17.300 -0.3624  0.2235  0.5027
  176MPD1    H6 2691   3.962   2.258  17.207  2.0091  2.9548 -0.9871
  176MPD1    H7 2692   3.922   2.375  17.323  0.1443  1.1528 -1.5799
  177MPD1     C 2693   3.337   2.091  10.230  0.1795  0.4735  0.3477
  177MPD1    C1 2694   3.282   1.987  10.156  0.5957  0.4511 -0.0496
  177MPD1    C2 2695   3.143   1.977  10.161 -0.2104  0.3442 -0.2896
  177MPD1    C3 2696   3.061   2.070  10.216  0.0452  0.6839 -0.0811
  177MPD1    C4 2697   3.115   2.181  10.275  0.5834 -0.3790  1.0344
  177MPD1    C5 2698   3.251   2.183  10.282  0.1860  0.6071  0.0788
  177MPD1     H 2699   3.097   1.894  10.109 -2.0612 -0.8130  3.1799
  177MPD1    H1 2700   3.066   2.270  10.314  0.3387  0.2121 -0.6251
  177MPD1    H2 2701   3.443   2.112  10.237 -0.0542  1.5196  0.7364
  177MPD1    H3 2702   3.281   2.273  10.334  2.0677 -0.6726  1.2176
  177MPD1     N 2703   2.923   2.043  10.208 -0.3890 -0.1615 -0.3001
  177MPD1    H5 2704   2.894   1.946  10.204 -1.0806  0.1588 -3.4136
  177MPD1    N1 2705   3.362   1.874  10.119 -0.7853  0.2978  0.1478
  177MPD1    H6 2706   3.315   1.809  10.056  2.3268  1.3718 -3.2825
  177MPD1    H7 2707   3.458   1.891  10.091 -0.3564 -0.6842  1.0087
  178MPD1     C 2708   0.312   3.479   0.056 -0.1689 -0.9498  0.5733
  178MPD1    C1 2709   0.357   3.397   0.154  0.0215  0.1615 -0.1705
  178MPD1    C2 2710   0.446   3.293   0.121  0.0398 -0.0811 -0.5719
  178MPD1    C3 2711   0.498   3.272  17.703 -0.2815  0.1394  0.2350
  178MPD1    C4 2712   0.436   3.347  17.606 -0.3082  0.8409 -0.0254
  178MPD1    C5 2713   0.348   3.444  17.637 -0.4845  0.3224  0.1519
  178MPD1     H 2714   0.479   3.212   0.186  1.4147  0.9825  0.0395
  178MPD1    H1 2715   0.448   3.327  17.500 -0.2376 -0.6354  0.2583
  178MPD1    H2 2716   0.255   3.568   0.082 -1.5946 -1.4254 -0.9545
  178MPD1    H3 2717   0.298   3.501  17.560 -0.3270 -2.0535 -1.6822
  178MPD1     N 2718   0.594   3.173  17.666 -0.1917  0.1051 -0.0410
  178MPD1    H5 2719   0.609   3.163  17.566 -0.3319  1.0003 -0.1486
  178MPD1    N1 2720   0.295   3.404   0.287  0.2652 -0.3184  0.6993
  178MPD1    H6 2721   0.349   3.373   0.367  0.7721 -0.2379  0.3946
  178MPD1    H7 2722   0.270   3.501   0.303  0.2351 -0.2528  0.2582
  179MPD1     C 2723   1.015   0.612  15.610 -0.8431  0.1518  0.3498
  179MPD1    C1 2724   0.890   0.578  15.562  0.1485 -0.0878  0.2858
  179MPD1    C2 2725   0.776   0.618  15.628  0.9826  0.1154  0.7447
  179MPD1    C3 2726   0.790   0.677  15.755 -0.3041 -0.2665  0.1000
  179MPD1    C4 2727   0.915   0.691  15.810 -0.6323  0.2198  1.2370
  179MPD1    C5 2728   1.026   0.662  15.735  0.2222 -0.4444 -0.4464
  179MPD1     H 2729   0.682   0.585  15.588  0.3834  0.1561  2.1187
  179MPD1    H1 2730   0.922   0.732  15.910  2.8445 -0.3888  1.2748
  179MPD1    H2 2731   1.105   0.597  15.552 -1.1470 -1.9854  0.4154
  179MPD1    H3 2732   1.121   0.677  15.785 -1.1478  0.6623  1.8019
  179MPD1     N 2733   0.673   0.708  15.829 -0.5180  1.0858 -0.8100
  179MPD1    H5 2734   0.684   0.757  15.917  1.3747  1.7343 -1.4163
  179MPD1    N1 2735   0.879   0.543  15.429 -0.1322  0.1960 -0.2072
  179MPD1    H6 2736   0.795   0.488  15.415  0.4361 -0.9425  0.8827
  179MPD1    H7 2737   0.957   0.489  15.393  0.6502  0.9440  0.3476
  180MPD1     C 2738   0.001   2.237  15.478  0.6354  0.6342 -0.3841
  180MPD1    C1 2739   0.131   2.276  15.435 -0.0627  0.2901 -0.1162
  180MPD1    C2 2740   0.136   2.356  15.321 -0.2696 -0.1386  0.5604
  180MPD1    C3 2741   0.027   2.368  15.238  0.0600  0.0768 -0.3306
  180MPD1    C4 2742   4.632   2.318  15.275  0.1181  0.3147 -0.2633
  180MPD1    C5 2743   4.616   2.263  15.401 -0.4196  0.6129  0.1857
  180MPD1     H 2744   0.233   2.398  15.298 -0.4605 -0.3510 -0.6479
  180MPD1    H1 2745   4.551   2.303  15.205  0.4542  0.8655 -0.7747
  180MPD1    H2 2746   4.700   2.180  15.566 -1.2384  0.1725 -1.2855
  180MPD1    H3 2747   4.519   2.228  15.436 -0.6181  1.1405  0.1709
  180MPD1     N 2748   0.053   2.424  15.113 -0.7595  0.2315 -0.2725
  180MPD1    H5 2749   0.141   2.472  15.098 -0.5687 -0.8321 -2.5471
  180MPD1    N1 2750   0.239   2.259  15.519 -0.0437 -0.3428  0.0954
  180MPD1    H6 2751   0.223   2.176  15.575  0.0869 -0.4984 -0.0930
  180MPD1    H7 2752   0.321   2.247  15.459  0.2482  2.7697 -0.1381
  181MPD1     C 2753   1.951   4.278  10.247 -0.1782 -0.3500  0.4869
  181MPD1    C1 2754   1.995   4.391  10.191 -0.8232 -0.4028 -0.0420
  181MPD1    C2 2755   2.133   4.402  10.168 -0.2015 -0.3247  0.4896
  181MPD1    C3 2756   2.216   4.297  10.191  1.1515 -0.1179  0.3961
  181MPD1    C4 2757   2.162   4.180  10.232 -0.5125 -0.0328  0.1199
  181MPD1    C5 2758   2.033   4.171  10.262 -0.2590  0.7044  1.1033
  181MPD1     H 2759   2.179   4.495  10.136 -0.6354 -0.5455 -0.7530
  181MPD1    H1 2760   2.226   4.094  10.250 -1.4698 -0.7777 -0.0310
  181MPD1    H2 2761   1.846   4.254  10.265 -0.3456 -1.0305 -1.4394
  181MPD1    H3 2762   1.992   4.078  10.299 -0.2864 -0.2710 -1.3598
  181MPD1     N 2763   2.356   4.303  10.177  0.0269  0.3640  0.6939
  181MPD1    H5 2764   2.406   4.215  10.178  0.4842  0.6230  0.8175
  181MPD1    N1 2765   1.904   4.492  10.148  0.0914 -1.5175 -0.0267
  181MPD1    H6 2766   1.944   4.585  10.143  0.2866 -1.5485  1.0052
  181MPD1    H7 2767   1.818   4.494  10.202  0.2772 -1.3604  0.2579
  182MPD1     C 2768   2.085   3.934   2.114  0.1952 -0.3517 -0.3117
  182MPD1    C1 2769   2.170   3.869   2.024 -0.1974 -0.2467 -0.3410
  182MPD1    C2 2770   2.127   3.839   1.895 -0.0015 -1.1353 -0.6494
  182MPD1    C3 2771   2.013   3.890   1.851 -0.1247 -0.0009  0.1091
  182MPD1    C4 2772   1.941   3.972   1.939  0.2975  0.0022 -0.4166
  182MPD1    C5 2773   1.976   4.003   2.066  0.0268 -0.0088 -0.0444
  182MPD1     H 2774   2.185   3.770   1.835  1.3535 -1.9033  1.5122
  182MPD1    H1 2775   1.849   4.020   1.910  0.7258  0.9328 -0.2441
  182MPD1    H2 2776   2.106   3.952   2.219 -2.1728 -1.7740  0.4210
  182MPD1    H3 2777   1.919   4.073   2.127  0.2978 -0.4980  0.7742
  182MPD1     N 2778   1.956   3.870   1.721 -1.0786 -0.6151  0.0179
  182MPD1    H5 2779   1.877   3.929   1.695 -0.0492 -0.1608 -2.1091
  182MPD1    N1 2780   2.269   3.789   2.081  0.2668  0.3028 -0.4278
  182MPD1    H6 2781   2.339   3.771   2.009 -0.8020  1.9679 -1.9074
  182MPD1    H7 2782   2.317   3.827   2.162 -1.8433  1.0983  0.4585
  183MPD1     C 2783   2.145   3.156   9.055 -0.3088  0.1759  0.0326
  183MPD1    C1 2784   2.084   3.255   9.127  0.2962 -0.2149  0.0495
  183MPD1    C2 2785   2.164   3.330   9.210 -0.9626  0.5370  0.2809
  183MPD1    C3 2786   2.302   3.316   9.209 -0.0600 -0.6285  0.3811
  183MPD1    C4 2787   2.358   3.224   9.124  0.4702  0.1946  0.7583
  183MPD1    C5 2788   2.276   3.142   9.047 -0.2663 -0.0266 -0.3276
  183MPD1     H 2789   2.104   3.406   9.258 -1.0487  2.2866 -2.5979
  183MPD1    H1 2790   2.466   3.211   9.127  0.6283  0.9085 -2.1736
  183MPD1    H2 2791   2.087   3.079   9.004 -0.6641  0.0037  0.6848
  183MPD1    H3 2792   2.334   3.072   8.987  0.2542  1.8575 -2.0192
  183MPD1     N 2793   2.374   3.393   9.301 -0.0234  0.3176  0.0163
  183MPD1    H5 2794   2.314   3.455   9.354 -1.2620  0.7280 -1.9040
  183MPD1    N1 2795   1.945   3.257   9.145  0.3509 -0.4281  0.3220
  183MPD1    H6 2796   1.914   3.342   9.192 -1.4777 -0.1263 -1.4231
  183MPD1    H7 2797   1.886   3.242   9.063  1.3069  0.6208 -0.5514
  184MPD1     C 2798   3.275   1.613  10.565  0.0318  0.4030 -0.4372
  184MPD1    C1 2799   3.270   1.684  10.444  0.1065 -0.6168  0.0918
  184MPD1    C2 2800   3.176   1.646  10.350 -0.8013 -0.1809  0.7987
  184MPD1    C3 2801   3.102   1.524  10.359 -0.0471 -0.0110  0.3079
  184MPD1    C4 2802   3.114   1.450  10.473 -0.0241  0.9621  0.1113
  184MPD1    C5 2803   3.195   1.498  10.571 -0.0944 -0.4199  0.2876
  184MPD1     H 2804   3.161   1.713  10.265  1.2303 -0.5082  0.1880
  184MPD1    H1 2805   3.073   1.351  10.493 -1.6243  1.2727 -1.5950
  184MPD1    H2 2806   3.340   1.635  10.649  1.2067 -3.2188 -0.3990
  184MPD1    H3 2807   3.200   1.434  10.658  3.4822 -2.5427 -1.4459
  184MPD1     N 2808   3.010   1.480  10.258  0.0363 -0.3291 -0.1581
  184MPD1    H5 2809   2.943   1.414  10.293  0.9010 -1.6071 -0.9122
  184MPD1    N1 2810   3.328   1.811  10.436  0.2566  0.4889  0.1496
  184MPD1    H6 2811   3.410   1.811  10.497  0.9370 -2.1030 -0.7363
  184MPD1    H7 2812   3.346   1.849  10.344  0.3342 -3.8068 -1.6293
  185MPD1     C 2813   2.577   1.224   9.302 -0.1019 -0.1865  1.1611
  185MPD1    C1 2814   2.695   1.276   9.335 -0.4906  0.1172  0.0886
  185MPD1    C2 2815   2.717   1.324   9.468 -0.1537 -0.1291 -0.4292
  185MPD1    C3 2816   2.622   1.301   9.569 -0.1087 -0.4806 -0.3428
  185MPD1    C4 2817   2.505   1.238   9.531  0.1831 -0.0535  0.0058
  185MPD1    C5 2818   2.485   1.203   9.403 -0.6718  0.3466 -0.0263
  185MPD1     H 2819   2.807   1.384   9.481 -0.0462 -0.4210  0.1907
  185MPD1    H1 2820   2.429   1.216   9.605 -2.0133 -0.0432 -2.2498
  185MPD1    H2 2821   2.563   1.177   9.205 -0.0030 -0.7209  1.4060
  185MPD1    H3 2822   2.390   1.157   9.378 -0.8462 -0.0615  1.4015
  185MPD1     N 2823   2.641   1.344   9.708  0.0541  0.3557 -0.2522
  185MPD1    H5 2824   2.562   1.334   9.771 -0.7055  0.0228 -1.2628
  185MPD1    N1 2825   2.790   1.297   9.233 -0.3042  0.2795  0.5631
  185MPD1    H6 2826   2.746   1.294   9.141  0.9342 -0.1108 -0.0110
  185MPD1    H7 2827   2.846   1.382   9.238  1.0198 -0.7087  2.2819
  186MPD1     C 2828   0.799   1.031  15.727  0.4264  0.1155  0.3926
  186MPD1    C1 2829   0.663   1.038  15.755  0.0277  0.1393  0.0418
  186MPD1    C2 2830   0.624   1.072  15.877  0.1599 -0.0495 -0.6221
  186MPD1    C3 2831   0.711   1.089  15.983 -0.0161  0.4758  0.8455
  186MPD1    C4 2832   0.846   1.072  15.958 -0.1797  0.2931 -0.0943
  186MPD1    C5 2833   0.890   1.045  15.833  0.0693 -0.2902  1.3723
  186MPD1     H 2834   0.520   1.093  15.899  0.2182 -0.2148 -0.1852
  186MPD1    H1 2835   0.925   1.077  16.033 -0.8780 -0.5614  0.7029
  186MPD1    H2 2836   0.827   1.008  15.625 -3.0584 -1.9560 -0.0801
  186MPD1    H3 2837   0.997   1.030  15.822  0.1751  1.2954  0.1598
  186MPD1     N 2838   0.676   1.114  16.115  0.3105 -0.7049  0.2242
  186MPD1    H5 2839   0.748   1.112  16.187 -0.8294 -0.0783  1.3699
  186MPD1    N1 2840   0.577   1.046  15.646  0.0444 -0.4666  0.6120
  186MPD1    H6 2841   0.629   1.001  15.571 -1.5313 -1.7389  0.2762
  186MPD1    H7 2842   0.497   0.984  15.659 -2.3036  2.4376  0.0381
  187MPD1     C 2843   4.406   3.445   0.746 -0.4475  0.2928 -0.7289
  187MPD1    C1 2844   4.401   3.321   0.680 -0.3684  0.6746 -0.6719
  187MPD1    C2 2845   4.410   3.318   0.542  0.1515 -0.1691 -0.6386
  187MPD1    C3 2846   4.436   3.434   0.468  0.5381 -0.0338  0.0342
  187MPD1    C4 2847   4.421   3.551   0.534  0.2841  0.4377  0.3711
  187MPD1    C5 2848   4.411   3.558   0.669  0.2712  0.0211 -0.8212
  187MPD1     H 2849   4.386   3.223   0.496 -0.4377  0.1093 -0.8986
  187MPD1    H1 2850   4.422   3.640   0.472 -1.4196  0.8379  0.9277
  187MPD1    H2 2851   4.396   3.461   0.853 -2.4461 -1.2317 -0.6767
  187MPD1    H3 2852   4.396   3.652   0.723 -0.7655  0.5831 -2.0994
  187MPD1     N 2853   4.444   3.439   0.328 -0.3939  0.2751 -0.3265
  187MPD1    H5 2854   4.453   3.532   0.288  0.1712  0.4744  0.2543
  187MPD1    N1 2855   4.355   3.213   0.759  0.6518  0.2945  0.0201
  187MPD1    H6 2856   4.397   3.218   0.852 -0.3006  0.3191  0.4439
  187MPD1    H7 2857   4.377   3.120   0.723 -1.9199 -1.0329  1.9310
  188MPD1     C 2858   4.701   3.396  10.657 -0.5138 -0.1101 -0.7752
  188MPD1    C1 2859   4.605   3.383  10.566 -0.6330 -0.2617 -0.0910
  188MPD1    C2 2860   4.613   3.269  10.482  0.0948  0.1361 -0.8152
  188MPD1    C3 2861   4.704   3.168  10.509 -0.4543 -0.0825 -0.6666
  188MPD1    C4 2862   0.075   3.188  10.606 -0.5110 -0.1735 -0.1660
  188MPD1    C5 2863   0.079   3.310  10.673  0.8371 -0.4321  0.5019
  188MPD1     H 2864   4.548   3.268  10.395  0.0440  0.2973 -0.7798
  188MPD1    H1 2865   0.158   3.122  10.629  1.0703  2.5342  1.8704
  188MPD1    H2 2866   4.712   3.489  10.712  0.6087 -0.5546 -0.2384
  188MPD1    H3 2867   0.167   3.324  10.735  2.4808 -0.2179 -1.8871
  188MPD1     N 2868   4.714   3.049  10.433 -0.4542 -0.6390  0.0747
  188MPD1    H5 2869   0.064   2.988  10.460 -0.0213 -0.4675 -0.7752
  188MPD1    N1 2870   4.516   3.489  10.542 -0.4650  0.4742 -0.0633
  188MPD1    H6 2871   4.500   3.544  10.626  0.8370  3.1431 -1.5460
  188MPD1    H7 2872   4.434   3.467  10.486 -0.6312  0.2082  0.2856
  189MPD1     C 2873   1.586   3.816   0.879  0.0697  0.0063 -0.7939
  189MPD1    C1 2874   1.462   3.785   0.925 -0.2441 -0.5679 -0.0821
  189MPD1    C2 2875   1.360   3.858   0.878 -0.6222 -0.0570 -1.0616
  189MPD1    C3 2876   1.364   3.970   0.797 -0.0452  0.2254 -0.0762
  189MPD1    C4 2877   1.497   4.005   0.765 -0.4509 -0.1667  0.1373
  189MPD1    C5 2878   1.603   3.922   0.796 -0.4154 -0.1848 -0.1264
  189MPD1     H 2879   1.260   3.826   0.907 -1.1700  0.1911 -2.6996
  189MPD1    H1 2880   1.517   4.086   0.696  0.0094 -0.0753  0.3795
  189MPD1    H2 2881   1.674   3.757   0.901 -0.5066 -0.7667 -0.5653
  189MPD1    H3 2882   1.699   3.938   0.747 -1.0725  1.1521 -0.9682
  189MPD1     N 2883   1.245   4.028   0.754 -0.3044 -0.1001 -0.3139
  189MPD1    H5 2884   1.157   4.000   0.796  0.2668 -0.2156  0.7979
  189MPD1    N1 2885   1.426   3.654   0.972  0.3457 -0.4451 -0.7471
  189MPD1    H6 2886   1.345   3.668   1.033  0.9467  1.9650 -0.4776
  189MPD1    H7 2887   1.493   3.619   1.040 -0.2468  0.2253  0.1889
  190MPD1     C 2888   4.564   2.613  15.604 -0.0543 -0.1141  0.0694
  190MPD1    C1 2889   4.685   2.615  15.545 -0.5159 -0.5368  0.3757
  190MPD1    C2 2890   0.060   2.545  15.606 -0.0346  0.0461  0.3167
  190MPD1    C3 2891   0.050   2.479  15.727 -0.6678 -0.3186 -0.2023
  190MPD1    C4 2892   4.654   2.474  15.780  0.2181 -0.3169  0.2773
  190MPD1    C5 2893   4.550   2.538  15.717  0.3162 -0.2699 -0.3857
  190MPD1     H 2894   0.161   2.554  15.567 -0.3195 -0.6778 -0.5911
  190MPD1    H1 2895   4.636   2.432  15.878 -1.4705 -3.6419 -1.4779
  190MPD1    H2 2896   4.492   2.681  15.559 -0.5831  1.0757  2.7337
  190MPD1    H3 2897   4.453   2.537  15.766  0.1666 -0.0468 -0.6796
  190MPD1     N 2898   0.174   2.434  15.774  0.1007  1.0106 -0.1876
  190MPD1    H5 2899   0.261   2.468  15.734  0.4848  0.0380 -0.1924
  190MPD1    N1 2900   4.716   2.703  15.443 -0.0209 -0.1650  0.4308
  190MPD1    H6 2901   0.079   2.689  15.397  0.5472 -1.1390  1.8521
  190MPD1    H7 2902   4.642   2.738  15.382  1.0630  2.8923  0.8632
  191MPD1     C 2903   4.157   4.037  13.454 -0.7140 -0.9166  0.2911
  191MPD1    C1 2904   4.064   4.141  13.435 -0.2569 -0.3209 -0.3888
  191MPD1    C2 2905   4.077   4.208  13.317 -0.5683  0.2717 -0.1407
  191MPD1    C3 2906   4.185   4.192  13.237  0.4047 -0.1962 -1.0364
  191MPD1    C4 2907   4.279   4.100  13.266  0.2638 -0.5772  0.3557
  191MPD1    C5 2908   4.264   4.027  13.374  0.4407  0.7173  0.1316
  191MPD1     H 2909   4.004   4.285  13.295 -0.5811  0.7753  1.6748
  191MPD1    H1 2910   4.377   4.095  13.219 -0.4652  0.5389 -1.2901
  191MPD1    H2 2911   4.163   3.976  13.544 -3.5985  1.0611  1.8301
  191MPD1    H3 2912   4.350   3.971  13.411  0.7889 -0.1324 -1.9937
  191MPD1     N 2913   4.195   4.286  13.127  0.2892 -0.3172 -1.2139
  191MPD1    H5 2914   4.120   4.353  13.112  0.1694 -0.4423 -1.1714
  191MPD1    N1 2915   3.953   4.159  13.516 -0.0814  0.2237  0.3000
  191MPD1    H6 2916   3.917   4.254  13.518 -0.3130  0.1469 -0.1490
  191MPD1    H7 2917   3.977   4.143  13.614 -1.4701 -2.4667  0.2083
  192MPD1     C 2918   3.685   0.205  12.878 -0.2741  0.1714 -0.6927
  192MPD1    C1 2919   3.784   0.227  12.781 -0.6032  0.7072  0.0400
  192MPD1    C2 2920   3.895   0.140  12.787 -0.6384 -0.0166  0.0329
  192MPD1    C3 2921   3.900   0.035  12.879  0.3205  0.8055 -0.0410
  192MPD1    C4 2922   3.799   0.010  12.968 -0.7363 -0.0331 -0.3339
  192MPD1    C5 2923   3.692   0.096  12.960 -0.2686 -0.2295  0.1265
  192MPD1     H 2924   3.983   0.164  12.727 -1.0823  2.2260  0.2928
  192MPD1    H1 2925   3.798   4.649  13.032 -0.6133 -0.8601 -1.4846
  192MPD1    H2 2926   3.597   0.268  12.885 -0.6156 -0.7946  4.0703
  192MPD1    H3 2927   3.612   0.084  13.032 -1.4981 -0.8419 -1.3497
  192MPD1     N 2928   4.002   4.668  12.874  0.2209  0.0997 -0.2112
  192MPD1    H5 2929   4.004   4.602  12.951 -2.6971 -0.0324 -0.2311
  192MPD1    N1 2930   3.774   0.344  12.710 -0.1215  0.4166  0.0077
  192MPD1    H6 2931   3.819   0.329  12.620 -0.0077  1.6331 -0.1380
  192MPD1    H7 2932   3.679   0.377  12.698 -0.5322 -0.3121  1.2203
  193MPD1     C 2933   4.082   4.292  17.621 -1.0388  0.6207  0.0561
  193MPD1    C1 2934   3.979   4.381  17.588  0.5852  0.1450  0.9877
  193MPD1    C2 2935   4.010   4.500  17.512  0.6085 -0.0057 -0.3045
  193MPD1    C3 2936   4.145   4.520  17.469 -0.2185 -0.2390  1.0358
  193MPD1    C4 2937   4.234   4.426  17.491 -0.2886 -0.7374  0.6285
  193MPD1    C5 2938   4.202   4.317  17.565 -0.4325 -0.3148  0.8846
  193MPD1     H 2939   3.928   4.566  17.485  1.6651  1.1892 -0.5764
  193MPD1    H1 2940   4.336   4.442  17.459 -0.2944 -0.0590  0.9562
  193MPD1    H2 2941   4.072   4.202  17.680  2.4817  0.5754  0.5803
  193MPD1    H3 2942   4.281   4.246  17.584  1.8475  1.4634 -1.9909
  193MPD1     N 2943   4.186   4.638  17.399 -0.3061  0.0977 -0.5542
  193MPD1    H5 2944   4.284   4.650  17.375 -0.1957  0.9186  0.3014
  193MPD1    N1 2945   3.847   4.350  17.626  0.0711  0.2755 -0.4220
  193MPD1    H6 2946   3.795   4.437  17.620 -0.0947  0.2489  0.6223
  193MPD1    H7 2947   3.833   4.308   0.008  0.5126  0.8201 -0.1048
  194MPD1     C 2948   1.797   1.835  15.644 -0.0384  1.1404  0.1692
  194MPD1    C1 2949   1.729   1.921  15.724 -0.5576 -0.1436  0.0405
  194MPD1    C2 2950   1.712   1.896  15.856  0.6506 -0.3012 -0.0489
  194MPD1    C3 2951   1.775   1.788  15.923  0.2663  0.0819 -0.7028
  194MPD1    C4 2952   1.845   1.708  15.845 -0.4870 -0.3219 -0.1284
  194MPD1    C5 2953   1.862   1.732  15.711  0.3970  0.6541 -0.4508
  194MPD1     H 2954   1.642   1.959  15.911 -1.0393 -2.2425  0.0574
  194MPD1    H1 2955   1.883   1.618  15.892  1.3643  1.3763  1.6052
  194MPD1    H2 2956   1.817   1.855  15.539 -1.5597 -1.6996 -0.6573
  194MPD1    H3 2957   1.932   1.673  15.652  0.9785  1.2940 -0.3959
  194MPD1     N 2958   1.758   1.750  16.058 -0.7950 -0.0143  0.1522
  194MPD1    H5 2959   1.812   1.670  16.088  0.7025  0.6589 -0.7210
  194MPD1    N1 2960   1.645   2.017  15.657  0.9632  0.0517 -0.0367
  194MPD1    H6 2961   1.681   2.051  15.569  0.4323  0.1636 -0.2122
  194MPD1    H7 2962   1.621   2.101  15.708 -0.9933  0.1210 -1.0622
  195MPD1     C 2963   3.696   4.417   0.709  0.9944  0.6618 -0.6567
  195MPD1    C1 2964   3.718   4.376   0.576  0.5128  0.5676  0.2164
  195MPD1    C2 2965   3.723   4.238   0.559  0.5766  0.0034 -0.2327
  195MPD1    C3 2966   3.717   4.145   0.662  0.9211  0.5900  0.1191
  195MPD1    C4 2967   3.678   4.195   0.788 -0.1796 -0.3018  0.2953
  195MPD1    C5 2968   3.670   4.331   0.808  0.7408  0.5307 -0.1319
  195MPD1     H 2969   3.754   4.205   0.460  1.0692 -0.5554  0.1035
  195MPD1    H1 2970   3.653   4.133   0.874  0.2969  0.3432  0.9047
  195MPD1    H2 2971   3.685   4.519   0.743  2.2220  0.4947  0.2531
  195MPD1    H3 2972   3.650   4.362   0.910 -0.0329  1.5398 -0.5877
  195MPD1     N 2973   3.749   4.005   0.652 -1.0047 -0.0431  0.7694
  195MPD1    H5 2974   3.717   3.945   0.728 -0.6978  0.1956  1.0883
  195MPD1    N1 2975   3.767   4.465   0.478  0.5341  0.6268 -0.3794
  195MPD1    H6 2976   3.763   4.424   0.385 -1.1394 -0.0979  0.0113
  195MPD1    H7 2977   3.715   4.552   0.479  2.2623  1.6590  0.3412
  196MPD1     C 2978   2.661   2.600   0.306  0.8812  0.0314  0.8582
  196MPD1    C1 2979   2.751   2.693   0.257 -0.1089 -0.6982  0.6004
  196MPD1    C2 2980   2.781   2.808   0.329 -0.3524  0.0052  0.3846
  196MPD1    C3 2981   2.741   2.823   0.457 -0.3868 -0.1668 -0.8095
  196MPD1    C4 2982   2.661   2.726   0.516  0.5116  0.3827 -0.3953
  196MPD1    C5 2983   2.622   2.616   0.436 -1.0591 -0.3179 -0.1126
  196MPD1     H 2984   2.841   2.879   0.273  0.5038 -0.8772  0.1619
  196MPD1    H1 2985   2.624   2.735   0.617  0.4620  1.2467 -0.4913
  196MPD1    H2 2986   2.615   2.528   0.239  0.2700 -1.2659  2.6869
  196MPD1    H3 2987   2.549   2.546   0.476  0.8254 -2.8209 -1.0673
  196MPD1     N 2988   2.780   2.930   0.542 -0.3096  0.4230  0.2781
  196MPD1    H5 2989   2.770   2.918   0.642  0.4807 -1.2857  0.1424
  196MPD1    N1 2990   2.790   2.683   0.119 -0.7685 -0.3063 -0.0955
  196MPD1    H6 2991   2.817   2.585   0.110 -1.5299 -0.5278  0.0480
  196MPD1    H7 2992   2.861   2.747   0.085  0.6466 -1.5486  0.4840
  197MPD1     C 2993   2.306   0.023  16.852  0.1522  0.3373  0.1461
  197MPD1    C1 2994   2.438   0.037  16.821 -0.4376  0.2680 -0.1057
  197MPD1    C2 2995   2.496   0.164  16.820  0.1906 -0.4242 -0.0053
  197MPD1    C3 2996   2.421   0.279  16.863 -0.4907  0.2144 -0.1713
  197MPD1    C4 2997   2.289   0.256  16.904  0.6683  0.2337 -0.8602
  197MPD1    C5 2998   2.239   0.130  16.911 -0.1121  0.4190  0.1076
  197MPD1     H 2999   2.595   0.183  16.781 -1.1006  1.5537 -2.3042
  197MPD1    H1 3000   2.226   0.341  16.929  1.3618  0.3212  0.5911
  197MPD1    H2 3001   2.259   4.653  16.863  1.0436 -0.1212 -0.1245
  197MPD1    H3 3002   2.141   0.113  16.953  0.7229 -1.3034  1.3936
  197MPD1     N 3003   2.464   0.412  16.864 -0.1420  0.0423 -0.6534
  197MPD1    H5 3004   2.397   0.487  16.880  1.3484  1.0015  1.0665
  197MPD1    N1 3005   2.495   4.657  16.755  0.0194  0.2764  0.3288
  197MPD1    H6 3006   2.593   4.638  16.775  0.7502  0.7198 -2.8225
  197MPD1    H7 3007   2.456   4.565  16.774  1.3982 -0.7953 -2.0430
  198MPD1     C 3008   0.289   3.075  16.841  0.2808 -0.4950 -0.1947
  198MPD1    C1 3009   0.269   3.087  16.709  0.1076  0.3240  0.4903
  198MPD1    C2 3010   0.308   3.208  16.650  0.1067 -0.6652  0.4228
  198MPD1    C3 3011   0.336   3.316  16.730  0.1044 -0.3784 -0.3403
  198MPD1    C4 3012   0.347   3.296  16.865  0.6495 -0.1827 -0.7626
  198MPD1    C5 3013   0.318   3.177  16.923  0.0481 -0.8490  0.6482
  198MPD1     H 3014   0.306   3.219  16.543  1.5329  0.2205  0.4766
  198MPD1    H1 3015   0.371   3.369  16.942  0.4294 -1.4132  0.4799
  198MPD1    H2 3016   0.287   2.985  16.901  0.1379 -0.0355  0.4919
  198MPD1    H3 3017   0.324   3.168  17.031  0.1302 -0.7116  0.6555
  198MPD1     N 3018   0.370   3.443  16.678  0.0742 -0.3376  0.4860
  198MPD1    H5 3019   0.371   3.448  16.576 -0.3004 -2.8433  0.3507
  198MPD1    N1 3020   0.240   2.957  16.646 -0.0715  0.0329 -0.3719
  198MPD1    H6 3021   0.205   2.891  16.714 -1.9633 -0.1102 -1.4886
  198MPD1    H7 3022   0.175   2.956  16.568 -1.3936 -0.0436  0.7518
  199MPD1     C 3023   2.892   4.053   9.773 -0.0902  0.7366 -0.1514
  199MPD1    C1 3024   2.863   4.191   9.768  0.1022 -0.2178 -0.8450
  199MPD1    C2 3025   2.727   4.230   9.784  0.6243 -1.1246  0.3935
  199MPD1    C3 3026   2.624   4.143   9.812 -1.1530  0.5938  0.1242
  199MPD1    C4 3027   2.657   4.010   9.826  0.0732 -0.2931  0.2239
  199MPD1    C5 3028   2.790   3.968   9.806 -0.6713 -0.3262 -1.2906
  199MPD1     H 3029   2.699   4.335   9.784  0.6411 -1.1183  0.0141
  199MPD1    H1 3030   2.588   3.930   9.849 -0.4567  0.3901  1.0471
  199MPD1    H2 3031   2.989   4.007   9.761 -1.8744 -2.2785 -3.0539
  199MPD1    H3 3032   2.814   3.862   9.808  2.2668  0.4219  2.6368
  199MPD1     N 3033   2.483   4.172   9.822 -0.0788 -0.2978  0.0422
  199MPD1    H5 3034   2.415   4.097   9.833 -2.0705  1.2903 -1.3504
  199MPD1    N1 3035   2.960   4.280   9.719  0.2129 -0.0285 -0.5416
  199MPD1    H6 3036   3.055   4.247   9.734  0.1907  0.4719  0.6877
  199MPD1    H7 3037   2.939   4.379   9.732  0.4769  0.0585 -0.7499
  200MPD1     C 3038   1.124   4.615  15.494 -0.2230  0.1338 -1.5261
  200MPD1    C1 3039   1.041   4.648  15.385  0.1234 -0.2734  0.0695
  200MPD1    C2 3040   1.089   4.671  15.259 -0.0514 -0.1496 -0.2810
  200MPD1    C3 3041   1.230   4.679  15.240  0.8881 -0.7066  0.4055
  200MPD1    C4 3042   1.309   4.672  15.351  0.1038  0.4253  0.3071
  200MPD1    C5 3043   1.257   4.622  15.468  0.3567 -0.8393 -0.2090
  200MPD1     H 3044   1.044   4.671  15.161  0.7042  0.8785 -0.6334
  200MPD1    H1 3045   1.416   4.685  15.340  0.0724 -0.3370 -0.9080
  200MPD1    H2 3046   1.081   4.577  15.586  0.4223  1.6142 -0.6021
  200MPD1    H3 3047   1.331   4.586  15.539  1.3813 -0.9239 -1.3087
  200MPD1     N 3048   1.284   4.697  15.113 -0.2329  0.1836 -0.0424
  200MPD1    H5 3049   1.227   4.664  15.035  1.3896 -0.0369 -1.1212
  200MPD1    N1 3050   0.907   4.613  15.399  0.9709 -0.0035 -0.1591
  200MPD1    H6 3051   0.851   4.660  15.328 -0.2946  0.7689  1.3581
  200MPD1    H7 3052   0.868   4.631  15.491 -0.0515 -0.9960 -0.3939
  201MPD1     C 3053   3.008   3.726  13.680  0.0189 -0.2549 -0.5548
  201MPD1    C1 3054   3.081   3.712  13.791 -0.1916 -0.3463 -0.5594
  201MPD1    C2 3055   3.211   3.663  13.790  0.4007 -0.2534  0.6788
  201MPD1    C3 3056   3.268   3.632  13.668 -0.0300  0.3637  0.2871
  201MPD1    C4 3057   3.195   3.662  13.556  0.3657 -0.0321  0.2808
  201MPD1    C5 3058   3.068   3.704  13.560 -0.2259 -0.2887  0.3245
  201MPD1     H 3059   3.265   3.638  13.881  0.7241 -1.3087  0.1904
  201MPD1    H1 3060   3.215   3.626  13.455 -1.4701  1.3429 -0.5788
  201MPD1    H2 3061   2.904   3.758  13.676  0.2153  0.1837 -2.1016
  201MPD1    H3 3062   3.024   3.720  13.462 -1.1391 -1.7537  0.4894
  201MPD1     N 3063   3.392   3.567  13.666 -0.1144 -0.3721 -0.1519
  201MPD1    H5 3064   3.429   3.546  13.758  0.4744  2.5424  0.2776
  201MPD1    N1 3065   3.010   3.727  13.912  0.8229 -0.4439  0.6124
  201MPD1    H6 3066   2.944   3.805  13.916  2.6141  1.0105  1.8400
  201MPD1    H7 3067   3.064   3.747  13.996  1.2370  4.2056 -0.7306
  202MPD1     C 3068   3.070   2.267   9.458  0.1530 -0.4139 -0.2179
  202MPD1    C1 3069   2.992   2.353   9.531 -1.0150  0.3658  0.5670
  202MPD1    C2 3070   3.064   2.463   9.575  0.6939  0.1799 -0.8962
  202MPD1    C3 3071   3.201   2.470   9.580  0.7985  0.1810 -0.0092
  202MPD1    C4 3072   3.272   2.370   9.523 -0.1245 -0.0952  0.2477
  202MPD1    C5 3073   3.206   2.266   9.465  0.2715 -0.3294 -0.0279
  202MPD1     H 3074   3.015   2.558   9.593  0.3559  0.3005 -2.4896
  202MPD1    H1 3075   3.380   2.360   9.518 -0.2139 -0.8837 -0.2238
  202MPD1    H2 3076   3.029   2.193   9.391 -1.6340  1.2127 -0.9302
  202MPD1    H3 3077   3.256   2.190   9.406 -1.2818 -0.4947 -1.1201
  202MPD1     N 3078   3.267   2.572   9.648 -0.4460 -0.0643 -0.0211
  202MPD1    H5 3079   3.366   2.554   9.652 -0.3992  0.2348  0.1566
  202MPD1    N1 3080   2.861   2.372   9.492 -0.4581 -0.0256  0.1139
  202MPD1    H6 3081   2.819   2.425   9.568  2.6551  2.4718  0.0733
  202MPD1    H7 3082   2.809   2.286   9.473 -3.0564  0.6956  3.9884
  203MPD1     C 3083   2.477   4.550  12.527 -0.3070 -0.2974  0.3698
  203MPD1    C1 3084   2.544   4.473  12.437 -0.0081 -0.3296 -0.4011
  203MPD1    C2 3085   2.585   4.353  12.488  0.4047  0.0940  0.0507
  203MPD1    C3 3086   2.569   4.308  12.616 -0.3384 -0.8968 -0.1393
  203MPD1    C4 3087   2.494   4.387  12.698  0.5533 -0.2349  0.1915
  203MPD1    C5 3088   2.451   4.507  12.653 -0.2041 -0.1573 -0.4425
  203MPD1     H 3089   2.632   4.285  12.419  0.6032 -0.4734  0.7435
  203MPD1    H1 3090   2.470   4.362  12.800  1.4788 -1.4692  0.1010
  203MPD1    H2 3091   2.430   4.647  12.513  0.0276 -0.5111 -2.1292
  203MPD1    H3 3092   2.395   4.576  12.715  1.7643  0.9844  0.0890
  203MPD1     N 3093   2.625   4.182  12.660  0.2011 -0.0153  0.8124
  203MPD1    H5 3094   2.676   4.129  12.590  1.9298 -0.2411  2.2406
  203MPD1    N1 3095   2.592   4.513  12.305  0.1558  0.3459 -0.0041
  203MPD1    H6 3096   2.621   4.439  12.240 -0.9694  0.5147 -0.6939
  203MPD1    H7 3097   2.523   4.575  12.263  0.3832 -0.2667 -1.2836
  204MPD1     C 3098   1.250   0.630   0.151  0.2598 -0.0162  0.8654
  204MPD1    C1 3099   1.356   0.658   0.065 -0.3080  0.2127 -0.3051
  204MPD1    C2 3100   1.357   0.598  17.653 -0.2505  0.9983 -0.1154
  204MPD1    C3 3101   1.277   0.493  17.618 -0.1639 -0.0641 -0.4807
  204MPD1    C4 3102   1.174   0.466  17.707  0.3886  0.0065 -0.4455
  204MPD1    C5 3103   1.166   0.529   0.117  0.2589 -0.0154  0.2040
  204MPD1     H 3104   1.436   0.612  17.580  1.2134  1.5389  1.5850
  204MPD1    H1 3105   1.095   0.398  17.677  0.0068 -0.3349  1.3648
  204MPD1    H2 3106   1.246   0.695   0.237  1.5491  1.1984  0.0118
  204MPD1    H3 3107   1.077   0.519   0.178  0.7199  2.2804  1.2489
  204MPD1     N 3108   1.300   0.415  17.501  0.1900  0.2310 -0.0215
  204MPD1    H5 3109   1.370   0.450  17.435 -1.1700  0.8225 -1.1465
  204MPD1    N1 3110   1.439   0.769   0.092 -0.2744  0.2751 -0.1633
  204MPD1    H6 3111   1.438   0.783   0.193  1.0118 -0.0827 -0.1098
  204MPD1    H7 3112   1.529   0.739   0.055 -1.2210 -2.6719 -0.0298
  205MPD1     C 3113   2.260   3.868  16.892  0.2860 -0.1947 -0.3228
  205MPD1    C1 3114   2.252   3.759  16.979 -0.1179 -0.1079  0.5857
  205MPD1    C2 3115   2.159   3.763  17.084 -0.3705  0.4918 -0.5405
  205MPD1    C3 3116   2.091   3.883  17.119  0.3399 -0.1976 -0.3440
  205MPD1    C4 3117   2.116   3.993  17.039  0.0261 -0.0633 -0.2240
  205MPD1    C5 3118   2.201   3.990  16.923  0.4760  0.2912  0.3823
  205MPD1     H 3119   2.161   3.684  17.159 -0.9461  0.7312 -0.2772
  205MPD1    H1 3120   2.074   4.089  17.067 -0.2828 -0.4599  0.6679
  205MPD1    H2 3121   2.321   3.861  16.803  0.1413 -0.1253 -0.4264
  205MPD1    H3 3122   2.220   4.084  16.873 -2.2127  1.1971  1.0596
  205MPD1     N 3123   1.989   3.895  17.222 -0.7076 -0.7117  0.3962
  205MPD1    H5 3124   1.936   3.982  17.224 -0.3422 -0.4982  1.1344
  205MPD1    N1 3125   2.309   3.643  16.927  0.4093  0.6077  0.7570
  205MPD1    H6 3126   2.333   3.576  17.000 -2.8486 -0.7352  0.6130
  205MPD1    H7 3127   2.396   3.652  16.874  0.9723 -0.7268  1.4479
  206MPD1     C 3128   1.853   2.004  16.777 -0.1054  0.5413 -0.0693
  206MPD1    C1 3129   1.960   1.950  16.717  0.3101 -0.6689 -0.3456
  206MPD1    C2 3130   1.965   1.947  16.579 -0.0784 -0.3966 -0.1164
  206MPD1    C3 3131   1.881   2.025  16.504  0.1762  0.2586 -0.3643
  206MPD1    C4 3132   1.773   2.087  16.566  0.1808  0.3732 -0.1113
  206MPD1    C5 3133   1.763   2.070  16.697  0.0638  0.2406 -0.2264
  206MPD1     H 3134   2.049   1.896  16.533 -1.4122 -2.3860 -0.3414
  206MPD1    H1 3135   1.696   2.148  16.519 -0.2534  0.0427  0.1654
  206MPD1    H2 3136   1.824   1.997  16.881 -1.4072  1.5553 -0.3643
  206MPD1    H3 3137   1.677   2.112  16.748  0.2410  0.7221 -0.3267
  206MPD1     N 3138   1.911   2.059  16.373  0.4626  0.5485 -0.0408
  206MPD1    H5 3139   1.843   2.116  16.323 -1.4594 -1.5150  0.2412
  206MPD1    N1 3140   2.039   1.863  16.797  0.5866 -0.8404  0.4758
  206MPD1    H6 3141   2.053   1.898  16.892  1.7847  0.7223 -0.2558
  206MPD1    H7 3142   2.128   1.840  16.752  2.4117  0.7543  3.2377
  207MPD1     C 3143   0.213   4.304  10.097 -0.0552  0.0492  0.1349
  207MPD1    C1 3144   0.106   4.302  10.184  0.0530  0.8196  0.4778
  207MPD1    C2 3145   0.119   4.362  10.307 -0.0488 -0.3128 -0.1605
  207MPD1    C3 3146   0.237   4.433  10.345 -0.0288  0.3637 -0.0585
  207MPD1    C4 3147   0.336   4.447  10.252 -0.3587  0.3431 -0.7485
  207MPD1    C5 3148   0.327   4.371  10.139 -0.2937 -0.5816 -0.1423
  207MPD1     H 3149   0.032   4.355  10.372  0.8733  1.6516  1.3259
  207MPD1    H1 3150   0.430   4.497  10.272  1.9089 -2.8045 -3.3644
  207MPD1    H2 3151   0.214   4.263   9.997 -0.0864  1.9969 -0.6508
  207MPD1    H3 3152   0.403   4.376  10.063  0.2563  0.1147  0.4449
  207MPD1     N 3153   0.242   4.513  10.465 -0.5942  0.3868 -0.1543
  207MPD1    H5 3154   0.323   4.573  10.475  0.2888 -0.5192 -1.8987
  207MPD1    N1 3155   4.705   4.252  10.147  0.0869 -0.0483  0.5078
  207MPD1    H6 3156   4.707   4.209  10.055  0.1882 -0.8954  0.9025
  207MPD1    H7 3157   4.662   4.192  10.217  0.9181 -1.6835 -0.3806
  208MPD1     C 3158   2.317   3.090  17.585  0.4765  0.0640 -0.2451
  208MPD1    C1 3159   2.235   2.983  17.610 -1.0223 -0.7413  0.3320
  208MPD1    C2 3160   2.159   2.978   0.010 -0.0210  0.5133 -0.0875
  208MPD1    C3 3161   2.158   3.075   0.114 -0.1749  0.9443  0.1588
  208MPD1    C4 3162   2.244   3.187   0.086  0.5455  0.1453 -0.1290
  208MPD1    C5 3163   2.318   3.190  17.676 -0.3257  0.1495 -0.0003
  208MPD1     H 3164   2.114   2.883   0.034  1.5285  0.2981  1.9487
  208MPD1    H1 3165   2.270   3.256   0.165 -1.4808  0.7084  0.0404
  208MPD1    H2 3166   2.375   3.104  17.494  1.7414 -1.8642  0.2808
  208MPD1    H3 3167   2.390   3.269  17.660  1.7139 -2.0708 -1.6617
  208MPD1     N 3168   2.086   3.058   0.236 -0.6634 -0.3247 -0.3221
  208MPD1    H5 3169   2.025   2.978   0.250 -1.3800 -0.1491 -2.5855
  208MPD1    N1 3170   2.237   2.876  17.516 -0.5187 -0.0165  0.4351
  208MPD1    H6 3171   2.331   2.837  17.513 -1.3296 -1.8837 -0.7954
  208MPD1    H7 3172   2.179   2.797  17.546  2.0010 -2.0254 -0.0284
  209MPD1     C 3173   0.576   4.680  12.424  0.2728 -0.1760  0.4919
  209MPD1    C1 3174   0.563   0.088  12.408 -0.2067  0.2637  0.5245
  209MPD1    C2 3175   0.507   0.124  12.286  0.7016  0.3158 -0.3289
  209MPD1    C3 3176   0.436   0.032  12.211 -0.3933 -0.0613  0.0075
  209MPD1    C4 3177   0.443   4.626  12.237 -0.1457 -0.3746  0.3313
  209MPD1    C5 3178   0.522   4.585  12.339 -0.3006 -0.2882 -0.2870
  209MPD1     H 3179   0.516   0.222  12.240  0.6426  0.6677  0.4128
  209MPD1    H1 3180   0.411   4.547  12.170 -0.1979  1.2323 -1.5294
  209MPD1    H2 3181   0.633   4.633  12.503 -0.0401 -0.0976  0.7635
  209MPD1    H3 3182   0.533   4.478  12.353 -1.1458 -0.1427  1.5645
  209MPD1     N 3183   0.360   0.089  12.103  0.2503 -0.3265 -0.7579
  209MPD1    H5 3184   0.365   0.188  12.084 -1.3728 -0.1740 -0.4313
  209MPD1    N1 3185   0.651   0.173  12.480  0.3839  0.1365  0.2396
  209MPD1    H6 3186   0.666   0.146  12.577 -0.6667 -0.3143  0.2799
  209MPD1    H7 3187   0.613   0.268  12.480  1.7344  0.6582  2.1449
  210MPD1     C 3188   0.178   0.937  11.710  0.1979  0.7504  0.3076
  210MPD1    C1 3189   0.113   0.862  11.806 -0.6295 -0.1213 -0.0664
  210MPD1    C2 3190   0.128   0.725  11.801  0.2558 -0.5768 -0.9487
  210MPD1    C3 3191   0.184   0.653  11.699  0.2262  0.1823 -0.0585
  210MPD1    C4 3192   0.231   0.729  11.600 -0.0780  0.0378 -0.0684
  210MPD1    C5 3193   0.237   0.867  11.608 -0.6725  0.2349  0.0447
  210MPD1     H 3194   0.090   0.672  11.888 -0.1863 -0.7210 -1.2303
  210MPD1    H1 3195   0.269   0.673  11.515  1.0877  0.9907 -0.1794
  210MPD1    H2 3196   0.178   1.045  11.717 -1.2164  0.7313  0.4771
  210MPD1    H3 3197   0.284   0.933  11.536 -1.2383 -0.6034 -1.0946
  210MPD1     N 3198   0.178   0.514  11.709 -0.1933 -0.2929  0.3580
  210MPD1    H5 3199   0.220   0.463  11.632 -0.6567  1.0645 -0.7928
  210MPD1    N1 3200   0.048   0.934  11.908 -0.8989 -0.8582 -0.3301
  210MPD1    H6 3201   4.723   0.877  11.974  1.0058  0.1149  1.9937
  210MPD1    H7 3202   4.710   0.989  11.852  0.6185  0.5455 -0.7191
  211MPD1     C 3203   2.717   4.255  16.101 -0.1439  0.1325  0.0565
  211MPD1    C1 3204   2.636   4.360  16.151 -0.5958  0.4886 -0.1672
  211MPD1    C2 3205   2.501   4.338  16.175 -0.4670  0.7217  0.0501
  211MPD1    C3 3206   2.456   4.210  16.152 -0.2071  1.0594 -0.3923
  211MPD1    C4 3207   2.535   4.109  16.098  0.2195  0.1612 -0.5293
  211MPD1    C5 3208   2.667   4.134  16.078 -0.4323 -0.2348  0.2503
  211MPD1     H 3209   2.440   4.412  16.225  0.6029  1.2068  0.6427
  211MPD1    H1 3210   2.495   4.014  16.064 -0.5696  0.5234 -0.6119
  211MPD1    H2 3211   2.818   4.267  16.064 -0.6539 -0.3080 -1.4932
  211MPD1    H3 3212   2.731   4.061  16.029  0.8239  1.2333 -0.2705
  211MPD1     N 3213   2.322   4.188  16.179 -0.1089  0.5008 -0.2690
  211MPD1    H5 3214   2.271   4.270  16.208 -1.6216 -0.9821  1.2257
  211MPD1    N1 3215   2.686   4.490  16.156 -0.3347 -0.3139 -0.2151
  211MPD1    H6 3216   2.640   4.552  16.222  0.6335  0.0858  0.0828
  211MPD1    H7 3217   2.787   4.492  16.165 -0.3848  1.8874 -0.0632
  212MPD1     C 3218   1.358   2.338  16.286  0.1489  0.3963 -0.4839
  212MPD1    C1 3219   1.253   2.377  16.366 -0.0952  0.2600 -0.1131
  212MPD1    C2 3220   1.216   2.292  16.468 -0.2293  0.4666 -0.3400
  212MPD1    C3 3221   1.288   2.178  16.493  0.2417  0.2901  0.4701
  212MPD1    C4 3222   1.406   2.152  16.422 -0.4500 -1.1943 -0.7151
  212MPD1    C5 3223   1.443   2.232  16.316  0.1859 -0.0095  0.1683
  212MPD1     H 3224   1.128   2.315  16.526 -0.2367 -0.8854  0.1858
  212MPD1    H1 3225   1.471   2.066  16.431  0.5200 -0.6222 -2.0501
  212MPD1    H2 3226   1.390   2.400  16.203 -0.3622  0.1625 -0.8549
  212MPD1    H3 3227   1.524   2.206  16.249  2.3331  3.4230  1.4382
  212MPD1     N 3228   1.259   2.091  16.603  0.1942  0.5097 -0.5714
  212MPD1    H5 3229   1.309   2.003  16.602 -0.4033  0.1726 -0.7822
  212MPD1    N1 3230   1.174   2.492  16.343 -0.2505 -0.4193 -0.3582
  212MPD1    H6 3231   1.220   2.565  16.289 -0.0714  0.1347  0.5438
  212MPD1    H7 3232   1.126   2.530  16.425  2.6032  1.2881  0.5443
  213MPD1     C 3233   0.145   2.700  16.097 -0.0700  0.3237 -0.3316
  213MPD1    C1 3234   0.163   2.712  15.962 -0.0672 -0.4582  0.1514
  213MPD1    C2 3235   0.066   2.783  15.890  0.0843 -0.3651  0.3002
  213MPD1    C3 3236   4.664   2.789  15.939 -0.7735 -0.8243  0.5902
  213MPD1    C4 3237   4.640   2.745  16.070 -0.4667  0.2049 -0.1915
  213MPD1    C5 3238   0.019   2.695  16.142 -0.3254 -0.1978 -0.1332
  213MPD1     H 3239   0.089   2.805  15.786 -0.5244 -3.0073 -0.4002
  213MPD1    H1 3240   4.544   2.757  16.119 -0.5155  1.1382 -0.5168
  213MPD1    H2 3241   0.225   2.660  16.158 -0.9277 -4.0561 -2.1285
  213MPD1    H3 3242   0.004   2.655  16.242  0.1023  0.2799  0.1174
  213MPD1     N 3243   4.570   2.846  15.852 -0.3131  0.2188 -0.7110
  213MPD1    H5 3244   4.604   2.896  15.771  0.6856 -0.7968 -0.9010
  213MPD1    N1 3245   0.298   2.725  15.911 -0.0678  0.4891 -0.1366
  213MPD1    H6 3246   0.287   2.700  15.813  1.5342 -1.2248  0.1175
  213MPD1    H7 3247   0.358   2.652  15.950  0.5955  0.2518 -1.6155
  214MPD1     C 3248   3.704   2.504  15.483  0.0626  0.2010 -0.0002
  214MPD1    C1 3249   3.676   2.610  15.557  0.2021 -0.4346 -0.2166
  214MPD1    C2 3250   3.777   2.702  15.581  0.4702  0.0082 -0.3229
  214MPD1    C3 3251   3.898   2.688  15.522 -0.4196 -0.2139 -0.0314
  214MPD1    C4 3252   3.916   2.581  15.438  0.1858 -0.1078  0.5091
  214MPD1    C5 3253   3.818   2.499  15.412 -0.6551  0.0620 -0.0176
  214MPD1     H 3254   3.753   2.788  15.643  0.1819 -1.2708  1.3484
  214MPD1    H1 3255   4.017   2.555  15.410  0.2228 -0.3680  0.8838
  214MPD1    H2 3256   3.633   2.423  15.465 -0.4503  0.3658  1.2723
  214MPD1    H3 3257   3.849   2.414  15.352 -0.7477 -0.9156  1.3331
  214MPD1     N 3258   4.012   2.766  15.551  0.3243  0.5009  0.3858
  214MPD1    H5 3259   4.105   2.736  15.523  0.8695  0.8523  1.8415
  214MPD1    N1 3260   3.560   2.609  15.638 -0.9261  0.0470 -0.6470
  214MPD1    H6 3261   3.540   2.532  15.701 -2.8160  0.8172 -0.2934
  214MPD1    H7 3262   3.554   2.692  15.696  1.0395 -0.1627 -0.1443
  215MPD1     C 3263   0.032   3.217  11.147  0.0228  0.0057  0.2331
  215MPD1    C1 3264   0.008   3.261  11.278 -0.0072  0.2606 -0.2072
  215MPD1    C2 3265   4.666   3.379  11.298 -0.3053 -0.4237  0.4697
  215MPD1    C3 3266   4.647   3.466  11.194 -0.3643 -0.5037  0.6250
  215MPD1    C4 3267   4.671   3.425  11.063 -0.2199  0.1295  0.0046
  215MPD1    C5 3268   0.002   3.306  11.044 -0.2992 -0.1583  0.1813
  215MPD1     H 3269   4.628   3.404  11.396 -1.6780  0.8851 -0.3816
  215MPD1    H1 3270   4.646   3.476  10.971  2.2019  0.0424 -0.6894
  215MPD1    H2 3271   0.070   3.119  11.122  1.3342  0.3238  1.0297
  215MPD1    H3 3272   0.004   3.273  10.940  0.6294  1.5078 -0.3184
  215MPD1     N 3273   4.581   3.586  11.228  0.7844  0.3725 -0.5795
  215MPD1    H5 3274   4.543   3.593  11.322 -0.7499 -0.6714 -1.1214
  215MPD1    N1 3275   0.027   3.171  11.387  0.2626 -0.6560  0.1735
  215MPD1    H6 3276   0.120   3.130  11.378  1.1171  1.5343 -0.9076
  215MPD1    H7 3277   0.022   3.216  11.478 -2.1936  1.5190 -1.0555
  216MPD1     C 3278   1.306   0.744  15.966 -0.0867 -0.6914 -0.2819
  216MPD1    C1 3279   1.292   0.615  16.009 -0.4352 -0.7617 -0.3773
  216MPD1    C2 3280   1.240   0.587  16.138 -0.9055  0.1866  0.2063
  216MPD1    C3 3281   1.198   0.695  16.221 -0.7864 -0.0121 -0.0256
  216MPD1    C4 3282   1.209   0.824  16.173 -0.6874 -0.0828  0.0586
  216MPD1    C5 3283   1.264   0.845  16.049 -0.1910  0.1116  0.1788
  216MPD1     H 3284   1.236   0.485  16.174  1.8369  0.1121  0.2943
  216MPD1    H1 3285   1.182   0.906  16.238 -0.0598 -1.6232  2.2305
  216MPD1    H2 3286   1.354   0.761  15.870 -0.5096 -0.2214 -0.4095
  216MPD1    H3 3287   1.266   0.949  16.019  0.6264  0.5679  1.7796
  216MPD1     N 3288   1.159   0.666  16.350  0.4583 -0.1002 -0.3390
  216MPD1    H5 3289   1.132   0.572  16.376  0.3322 -0.6752 -2.5586
  216MPD1    N1 3290   1.351   0.509  15.935 -0.1465  0.6543  0.7788
  216MPD1    H6 3291   1.298   0.423  15.951 -0.2096  0.1560 -2.2208
  216MPD1    H7 3292   1.357   0.527  15.835  0.9668  0.4849  0.8146
  217MPD1     C 3293   1.527   2.283   9.456  0.2069  0.7955  0.0982
  217MPD1    C1 3294   1.505   2.388   9.543  0.4001  0.5267  0.1468
  217MPD1    C2 3295   1.609   2.439   9.615  0.1579  0.1300  0.1925
  217MPD1    C3 3296   1.735   2.382   9.628  0.0266 -0.3049 -0.0100
  217MPD1    C4 3297   1.752   2.276   9.540 -0.0304  0.1848  0.3125
  217MPD1    C5 3298   1.655   2.224   9.459  0.0411  0.9059  0.0374
  217MPD1     H 3299   1.596   2.535   9.663 -1.1587 -1.0064  2.0798
  217MPD1    H1 3300   1.849   2.228   9.537 -0.4406 -0.4742 -3.3373
  217MPD1    H2 3301   1.453   2.255   9.382 -0.1330  1.3550  0.2310
  217MPD1    H3 3302   1.664   2.152   9.378  1.0801  1.3410 -0.2302
  217MPD1     N 3303   1.847   2.424   9.697  0.4063  0.5577  0.1513
  217MPD1    H5 3304   1.940   2.384   9.695 -0.5782 -1.6551 -0.6895
  217MPD1    N1 3305   1.390   2.459   9.524  0.7556  0.4709 -0.1795
  217MPD1    H6 3306   1.358   2.504   9.610 -1.1531  1.7824 -1.5763
  217MPD1    H7 3307   1.318   2.398   9.487 -0.3210  2.1842 -0.9312
  218MPD1     C 3308   3.462   4.256  13.137 -0.6585 -0.0475  0.1903
  218MPD1    C1 3309   3.571   4.237  13.219 -0.3308  0.7010  0.7039
  218MPD1    C2 3310   3.601   4.109  13.253  0.3453  0.0161  0.0131
  218MPD1    C3 3311   3.518   4.004  13.218 -0.7898 -0.6400  0.4137
  218MPD1    C4 3312   3.407   4.032  13.145 -0.0735  0.0106 -0.2736
  218MPD1    C5 3313   3.374   4.159  13.108  0.3294  0.7951 -0.2668
  218MPD1     H 3314   3.691   4.079  13.306 -0.1334 -1.0253  0.2317
  218MPD1    H1 3315   3.344   3.955  13.102  1.9874 -0.7222 -2.0327
  218MPD1    H2 3316   3.439   4.352  13.093 -1.7625 -1.2823 -1.9099
  218MPD1    H3 3317   3.291   4.169  13.039 -0.4029 -1.7926  0.2618
  218MPD1     N 3318   3.561   3.875  13.247  0.2031 -0.1111  0.1002
  218MPD1    H5 3319   3.654   3.867  13.286 -0.2832 -1.0572  1.0838
  218MPD1    N1 3320   3.675   4.335  13.234  0.8631  0.1041 -0.0068
  218MPD1    H6 3321   3.734   4.313  13.314  2.2025 -0.3990 -1.1366
  218MPD1    H7 3322   3.661   4.435  13.219  3.0282  0.4285  0.0416
  219MPD1     C 3323   3.460   3.028  12.700  0.8931  0.0665  0.4176
  219MPD1    C1 3324   3.570   3.106  12.665  0.7029  0.5711  0.1406
  219MPD1    C2 3325   3.609   3.209  12.745 -0.5658  0.8825 -0.4151
  219MPD1    C3 3326   3.528   3.245  12.854  0.4572  0.3428  0.2012
  219MPD1    C4 3327   3.405   3.175  12.874 -0.1286 -0.3607 -0.0025
  219MPD1    C5 3328   3.380   3.066  12.800  0.1876 -0.7531  0.0865
  219MPD1     H 3329   3.697   3.265  12.716  2.2322 -1.2632  3.8068
  219MPD1    H1 3330   3.344   3.206  12.959  1.5132 -0.4486  1.2140
  219MPD1    H2 3331   3.419   2.947  12.639 -0.7896  2.0662 -1.1055
  219MPD1    H3 3332   3.283   3.021  12.816  0.2942 -0.6321  1.0564
  219MPD1     N 3333   3.566   3.344  12.946  0.4672 -0.3295  0.1985
  219MPD1    H5 3334   3.490   3.387  12.997 -0.0520 -1.9745  0.7991
  219MPD1    N1 3335   3.655   3.060  12.560  0.0423  0.4591  0.5277
  219MPD1    H6 3336   3.717   3.128  12.516  1.2280 -0.4706  0.7626
  219MPD1    H7 3337   3.601   3.015  12.486  1.9556 -1.8794  0.5897
  220MPD1     C 3338   4.389   0.101   9.658 -0.1932 -0.2994 -0.0021
  220MPD1    C1 3339   4.492   0.102   9.748 -0.8296 -0.3787  0.3888
  220MPD1    C2 3340   4.484   0.006   9.850 -0.2443 -0.2645 -0.5313
  220MPD1    C3 3341   4.367   4.659   9.872 -0.2732 -0.2977  0.6713
  220MPD1    C4 3342   4.268   4.661   9.778  0.2814  0.1772  0.1599
  220MPD1    C5 3343   4.279   0.026   9.675 -0.0899  0.4864 -0.3853
  220MPD1     H 3344   4.564   4.720   9.921 -0.1490  2.1523 -0.1895
  220MPD1    H1 3345   4.185   4.591   9.772  0.6851 -0.4684  1.9191
  220MPD1    H2 3346   4.387   0.148   9.561  0.8574  1.3232  0.7640
  220MPD1    H3 3347   4.201   0.024   9.600  1.2530  1.4437 -1.8016
  220MPD1     N 3348   4.370   4.572   9.982  0.0662  0.9847 -0.5054
  220MPD1    H5 3349   4.459   4.565  10.030 -0.5364 -3.3438  0.0195
  220MPD1    N1 3350   4.610   0.171   9.713 -0.2383  0.4880  0.3105
  220MPD1    H6 3351   4.672   0.194   9.791 -1.0741  0.5836  0.9438
  220MPD1    H7 3352   4.587   0.256   9.662  0.2233 -0.1928 -1.0366
  221MPD1     C 3353   2.445   2.435  16.858  0.6101 -0.7085  1.6304
  221MPD1    C1 3354   2.485   2.456  16.727 -0.6462 -0.0212  0.1242
  221MPD1    C2 3355   2.420   2.536  16.641  0.7638 -0.0843  0.4271
  221MPD1    C3 3356   2.309   2.610  16.688  0.1530  0.4304  0.6072
  221MPD1    C4 3357   2.275   2.597  16.817 -0.2764 -0.3714  0.3821
  221MPD1    C5 3358   2.343   2.513  16.899  0.1097 -0.6425 -0.4554
  221MPD1     H 3359   2.455   2.561  16.542  1.6111  0.7994  0.9511
  221MPD1    H1 3360   2.194   2.650  16.866 -0.5793 -1.2827  0.8687
  221MPD1    H2 3361   2.499   2.362  16.917  0.7454 -0.4255  1.8568
  221MPD1    H3 3362   2.313   2.522  17.002 -1.2247 -0.3978 -0.8585
  221MPD1     N 3363   2.227   2.696  16.608  0.6026  0.6985  0.0276
  221MPD1    H5 3364   2.150   2.747  16.649  0.4566 -0.0030  0.6264
  221MPD1    N1 3365   2.592   2.395  16.668  0.1768  0.4368 -1.1548
  221MPD1    H6 3366   2.632   2.450  16.592  1.7382  1.0283  0.1140
  221MPD1    H7 3367   2.672   2.380  16.728  0.0090 -0.2924 -1.1153
  222MPD1     C 3368   1.220   2.578  16.882  0.2103  0.3196 -0.1747
  222MPD1    C1 3369   1.249   2.447  16.867  0.1215  0.0981 -0.3962
  222MPD1    C2 3370   1.217   2.359  16.968  1.0443  0.0980  0.1360
  222MPD1    C3 3371   1.157   2.413  17.082 -0.6011  0.2837 -0.1937
  222MPD1    C4 3372   1.127   2.545  17.089  0.2034 -0.7856  0.3100
  222MPD1    C5 3373   1.151   2.632  16.989  0.3304  0.1132 -0.0129
  222MPD1     H 3374   1.235   2.253  16.951 -2.5183 -0.3878 -0.7569
  222MPD1    H1 3375   1.066   2.590  17.166 -1.0866 -0.5563 -0.8552
  222MPD1    H2 3376   1.236   2.649  16.801  0.1007 -1.0071 -1.3673
  222MPD1    H3 3377   1.121   2.736  16.991  0.3979  0.1236  0.3999
  222MPD1     N 3378   1.118   2.332  17.190  0.5226  0.3045  0.0065
  222MPD1    H5 3379   1.056   2.376  17.257  3.0081  0.9526  1.8831
  222MPD1    N1 3380   1.320   2.403  16.750  0.5540 -0.5402 -1.0188
  222MPD1    H6 3381   1.314   2.477  16.679 -0.5739  1.1286  0.8082
  222MPD1    H7 3382   1.273   2.320  16.716 -0.3852 -0.3277 -0.2527
  223MPD1     C 3383   1.015   1.358  17.314 -0.4541  0.1530  0.2290
  223MPD1    C1 3384   1.041   1.441  17.206 -0.1462 -0.5088  0.0655
  223MPD1    C2 3385   1.069   1.575  17.238 -0.3840 -0.2904 -0.0104
  223MPD1    C3 3386   1.072   1.615  17.373 -0.1182 -0.5014  0.1723
  223MPD1    C4 3387   1.064   1.527  17.482  0.2664  0.1977  0.4729
  223MPD1    C5 3388   1.021   1.402  17.441  0.6159  0.3715  0.3850
  223MPD1     H 3389   1.075   1.644  17.154  1.8331 -0.6883 -0.1583
  223MPD1    H1 3390   1.066   1.562  17.584 -0.5934  0.0326  0.5450
  223MPD1    H2 3391   0.985   1.254  17.303 -1.6894  0.6726 -1.3781
  223MPD1    H3 3392   0.989   1.341  17.525  0.3610  0.9743  0.7304
  223MPD1     N 3393   1.073   1.753  17.388 -0.1579  0.5424 -0.1215
  223MPD1    H5 3394   1.059   1.803  17.300  2.0922  0.3727 -0.5858
  223MPD1    N1 3395   1.007   1.401  17.074  0.4708  0.0545 -0.0425
  223MPD1    H6 3396   1.034   1.306  17.050 -2.6006 -0.7072 -0.4094
  223MPD1    H7 3397   1.044   1.463  17.001 -1.8068  1.3240 -0.1057
  224MPD1     C 3398   2.097   3.050   9.534 -0.6297  0.1849 -0.6476
  224MPD1    C1 3399   2.123   3.181   9.566 -0.5687 -0.5506  0.1277
  224MPD1    C2 3400   2.243   3.218   9.625  0.0701  0.2424 -0.7281
  224MPD1    C3 3401   2.339   3.124   9.652 -0.5850 -0.0394 -0.3954
  224MPD1    C4 3402   2.314   2.987   9.617  0.0061 -0.4197 -0.0703
  224MPD1    C5 3403   2.193   2.952   9.568  0.0320 -0.1244  0.0335
  224MPD1     H 3404   2.264   3.324   9.633  0.7359 -0.0925  2.2185
  224MPD1    H1 3405   2.380   2.903   9.636  2.5601  1.0724 -2.2600
  224MPD1    H2 3406   2.007   3.019   9.483 -1.3925  1.8945 -0.3550
  224MPD1    H3 3407   2.170   2.847   9.554  3.3649 -0.7659 -0.6535
  224MPD1     N 3408   2.473   3.160   9.705  0.1047 -0.1429 -0.5360
  224MPD1    H5 3409   2.527   3.080   9.736 -0.8400  0.3053  2.2404
  224MPD1    N1 3410   2.027   3.272   9.526 -0.8602  0.5966 -0.2947
  224MPD1    H6 3411   2.057   3.369   9.532  1.3093 -0.2022  1.5408
  224MPD1    H7 3412   1.990   3.260   9.431  0.0619  4.3198 -1.1261
  225MPD1     C 3413   4.038   0.879  11.624  1.0188  0.5828 -0.2863
  225MPD1    C1 3414   4.054   0.759  11.691  0.4074  0.4174 -0.8958
  225MPD1    C2 3415   3.956   0.706  11.773  0.3085  0.1194 -0.3399
  225MPD1    C3 3416   3.831   0.771  11.773 -0.3849 -0.4743 -0.9974
  225MPD1    C4 3417   3.817   0.891  11.703  0.8784 -0.9940  0.4923
  225MPD1    C5 3418   3.919   0.947  11.635 -0.2142  0.2324  0.5810
  225MPD1     H 3419   3.968   0.616  11.832 -0.5870 -1.7868 -3.0638
  225MPD1    H1 3420   3.737   0.963  11.715  0.7781 -0.7657 -1.6118
  225MPD1    H2 3421   4.111   0.921  11.556  0.5450  0.5277 -0.8191
  225MPD1    H3 3422   3.907   1.040  11.581 -0.5309 -0.3970 -0.4248
  225MPD1     N 3423   3.721   0.735  11.849  0.0140  0.8007  0.5774
  225MPD1    H5 3424   3.644   0.799  11.828 -0.8680 -1.4491 -2.8500
  225MPD1    N1 3425   4.183   0.696  11.680 -0.2776  0.5083  0.1274
  225MPD1    H6 3426   4.179   0.597  11.699  1.5591  0.4624  0.2282
  225MPD1    H7 3427   4.226   0.707  11.588 -1.0378  2.5142 -0.0122
  226MPD1     C 3428   2.009   0.560   9.092 -0.2201 -0.4714 -0.0421
  226MPD1    C1 3429   2.126   0.509   9.134  0.2218  0.3596 -0.1521
  226MPD1    C2 3430   2.136   0.392   9.209  0.2240  0.1315  0.6924
  226MPD1    C3 3431   2.025   0.314   9.226 -0.2139 -0.7797 -0.0114
  226MPD1    C4 3432   1.905   0.370   9.172 -0.2477  0.1744  0.8717
  226MPD1    C5 3433   1.893   0.496   9.122  0.2647 -0.2709  0.1075
  226MPD1     H 3434   2.234   0.367   9.249 -0.1894 -0.9300  1.0543
  226MPD1    H1 3435   1.809   0.326   9.196 -0.0058 -1.3777 -1.0771
  226MPD1    H2 3436   2.002   0.657   9.045  2.0761 -0.2051  0.1654
  226MPD1    H3 3437   1.801   0.540   9.087 -0.9432 -1.5900  1.6109
  226MPD1     N 3438   2.035   0.182   9.284 -0.9663 -0.2738 -0.5497
  226MPD1    H5 3439   2.130   0.146   9.290 -1.4820 -1.2027  2.1174
  226MPD1    N1 3440   2.242   0.589   9.130 -0.1666  0.2029  0.0016
  226MPD1    H6 3441   2.329   0.536   9.122  0.9504  1.9352  0.5718
  226MPD1    H7 3442   2.235   0.659   9.056  1.3629 -0.5889 -0.8955
  227MPD1     C 3443   1.406   4.326   9.862 -0.7183  0.1819  0.1853
  227MPD1    C1 3444   1.400   4.453   9.815  0.4784  0.1038  0.2543
  227MPD1    C2 3445   1.496   4.498   9.728 -1.6612 -0.2712  0.4915
  227MPD1    C3 3446   1.606   4.421   9.694 -0.0640 -0.2785  0.0824
  227MPD1    C4 3447   1.610   4.292   9.745  0.4756  0.5151  0.0912
  227MPD1    C5 3448   1.508   4.247   9.827 -0.2333  0.4799 -1.2475
  227MPD1     H 3449   1.484   4.603   9.705  1.9678  0.2782  1.0582
  227MPD1    H1 3450   1.687   4.218   9.725 -0.7598 -0.7828  0.1385
  227MPD1    H2 3451   1.326   4.285   9.922  2.4611 -0.5443  3.9272
  227MPD1    H3 3452   1.515   4.144   9.861  0.9414  0.2558 -2.1746
  227MPD1     N 3453   1.700   4.471   9.611  0.5919  0.5842 -0.4936
  227MPD1    H5 3454   1.688   4.568   9.584 -1.2957 -0.1003 -2.0270
  227MPD1    N1 3455   1.281   4.527   9.826 -0.0367  0.2577  0.5504
  227MPD1    H6 3456   1.287   4.628   9.817  0.9786  0.1284 -0.1686
  227MPD1    H7 3457   1.229   4.501   9.910  1.0033 -2.4149  0.3687
  228MPD1     C 3458   1.186   2.921  12.571 -0.2499 -0.5007 -0.9248
  228MPD1    C1 3459   1.069   2.997  12.581 -0.2854 -0.1750  0.2950
  228MPD1    C2 3460   0.955   2.924  12.613  0.5695 -0.9190 -0.2367
  228MPD1    C3 3461   0.955   2.784  12.635  0.1070  0.3543 -0.1943
  228MPD1    C4 3462   1.074   2.714  12.636  0.9979 -0.2887  0.6702
  228MPD1    C5 3463   1.189   2.787  12.608  0.5556 -0.7084  0.8376
  228MPD1     H 3464   0.861   2.978  12.620  0.8882 -0.3501 -0.4625
  228MPD1    H1 3465   1.087   2.608  12.656  2.1010 -0.0886  1.0323
  228MPD1    H2 3466   1.278   2.958  12.527 -0.8060  1.2167 -0.6594
  228MPD1    H3 3467   1.284   2.739  12.588  0.6919  0.3416 -1.0542
  228MPD1     N 3468   0.830   2.726  12.658  0.7796  0.2168  0.2474
  228MPD1    H5 3469   0.750   2.787  12.649 -0.6368 -2.2923 -3.9745
  228MPD1    N1 3470   1.062   3.122  12.514 -0.2122 -0.4283 -0.5318
  228MPD1    H6 3471   0.999   3.188  12.558 -0.2822 -2.5790  2.6063
  228MPD1    H7 3472   1.154   3.162  12.531 -0.9990  1.1374  0.0941
  229MPD1     C 3473   0.275   1.797  14.558 -0.6857 -0.4585  0.8015
  229MPD1    C1 3474   0.296   1.678  14.492 -0.3278 -0.0587  0.7051
  229MPD1    C2 3475   0.327   1.569  14.567 -0.4973 -0.6139  0.2026
  229MPD1    C3 3476   0.363   1.584  14.701 -0.6159 -0.1385 -0.4921
  229MPD1    C4 3477   0.343   1.707  14.759  0.1451 -0.7416 -0.5217
  229MPD1    C5 3478   0.302   1.818  14.691  0.1748  0.0517 -0.2773
  229MPD1     H 3479   0.316   1.470  14.525  0.4670  0.3475 -2.3568
  229MPD1    H1 3480   0.370   1.722  14.863 -0.5226 -1.3605 -0.2570
  229MPD1    H2 3481   0.241   1.883  14.500  1.5854  0.3960  0.7341
  229MPD1    H3 3482   0.301   1.916  14.737  0.1987  0.8888 -2.0537
  229MPD1     N 3483   0.404   1.479  14.785 -0.0932 -0.0818 -0.1049
  229MPD1    H5 3484   0.414   1.508  14.881 -1.3085 -3.3260  1.0180
  229MPD1    N1 3485   0.236   1.660  14.363  0.8000  0.3269 -0.1785
  229MPD1    H6 3486   0.274   1.580  14.313 -0.5780 -0.7254  0.4259
  229MPD1    H7 3487   0.250   1.742  14.306  0.5329 -1.3742 -2.6756
  230MPD1     C 3488   0.726   1.529  15.605 -0.0242 -0.4928 -0.1199
  230MPD1    C1 3489   0.669   1.608  15.507  0.8521  0.4602 -0.2795
  230MPD1    C2 3490   0.627   1.553  15.383 -0.2192 -0.5189  0.0756
  230MPD1    C3 3491   0.657   1.423  15.358 -0.0576 -0.0154  0.0242
  230MPD1    C4 3492   0.712   1.342  15.462 -0.1869 -1.1092 -0.0105
  230MPD1    C5 3493   0.748   1.398  15.584  0.2114 -0.5002 -1.2948
  230MPD1     H 3494   0.583   1.613  15.304 -0.5627  0.8434  1.2923
  230MPD1    H1 3495   0.737   1.238  15.443 -0.5055 -1.3267  0.7615
  230MPD1    H2 3496   0.747   1.562  15.706 -0.2192 -0.5405 -0.0620
  230MPD1    H3 3497   0.784   1.335  15.665 -0.2878  2.7219  1.4476
  230MPD1     N 3498   0.628   1.376  15.229 -0.1419 -0.1009 -0.0815
  230MPD1    H5 3499   0.573   1.432  15.165  0.8847 -0.2038 -1.0531
  230MPD1    N1 3500   0.643   1.743  15.531 -0.5275  1.4148 -0.2973
  230MPD1    H6 3501   0.670   1.797  15.449  2.7706 -0.8472 -0.6870
  230MPD1    H7 3502   0.688   1.774  15.616 -0.6535  1.8959 -0.4080
  231MPD1     C 3503   3.264   2.751  15.785 -0.4733  0.0283  0.5497
  231MPD1    C1 3504   3.241   2.810  15.661  0.0749  0.2436 -0.0608
  231MPD1    C2 3505   3.331   2.912  15.621 -0.7281 -0.3847  0.7000
  231MPD1    C3 3506   3.432   2.958  15.703 -0.3279 -0.1501  0.5335
  231MPD1    C4 3507   3.458   2.888  15.810  0.2375 -0.3122  0.0598
  231MPD1    C5 3508   3.380   2.781  15.849  0.0328  0.4134  0.4627
  231MPD1     H 3509   3.318   2.964  15.527 -0.2633 -2.1347 -0.3324
  231MPD1    H1 3510   3.546   2.911  15.869 -0.2165  1.3006  0.1226
  231MPD1    H2 3511   3.194   2.675  15.817 -2.1428  1.9164  1.3988
  231MPD1    H3 3512   3.401   2.722  15.937  1.3137 -1.2127 -0.9422
  231MPD1     N 3513   3.532   3.042  15.651  0.6950  0.2931 -0.1209
  231MPD1    H5 3514   3.539   3.058  15.551 -0.3830 -1.3393 -0.4654
  231MPD1    N1 3515   3.140   2.763  15.579 -0.1545  0.0854 -0.2304
  231MPD1    H6 3516   3.090   2.843  15.542  0.3066  0.4468 -0.0766
  231MPD1    H7 3517   3.067   2.718  15.634  0.8469 -0.3568  0.7480
  232MPD1     C 3518   1.188   0.113   1.043  0.0569 -0.6391  1.2869
  232MPD1    C1 3519   1.240   0.087   0.916 -0.0146  0.7645 -0.3262
  232MPD1    C2 3520   1.155   0.087   0.810  0.5916 -0.3549 -0.5479
  232MPD1    C3 3521   1.021   0.119   0.833  0.6904  0.2699 -0.4641
  232MPD1    C4 3522   0.973   0.153   0.958  0.0744 -0.3119  0.6932
  232MPD1    C5 3523   1.059   0.148   1.064 -0.9575  0.5315 -0.0497
  232MPD1     H 3524   1.183   0.043   0.715 -3.9397 -1.1331 -1.5549
  232MPD1    H1 3525   0.869   0.173   0.979 -0.0225  1.2325 -1.2660
  232MPD1    H2 3526   1.243   0.100   1.136  2.9578  0.6070 -0.2569
  232MPD1    H3 3527   1.009   0.179   1.155 -1.0310  1.8405 -0.5407
  232MPD1     N 3528   0.945   0.120   0.717 -0.2885 -0.0087  0.0839
  232MPD1    H5 3529   1.007   0.116   0.637 -2.2202 -1.8389 -1.3401
  232MPD1    N1 3530   1.367   0.023   0.900  0.1031 -0.0062  0.6031
  232MPD1    H6 3531   1.405   0.041   0.807 -1.2497  1.7525  0.3951
  232MPD1    H7 3532   1.443   0.052   0.961  0.5223  1.2991 -0.5429
  233MPD1     C 3533   0.411   3.933   1.678 -0.8227 -0.2563  0.3741
  233MPD1    C1 3534   0.389   3.808   1.644 -0.6541 -0.4588 -0.3385
  233MPD1    C2 3535   0.468   3.755   1.549  0.1670  0.4906  0.3692
  233MPD1    C3 3536   0.557   3.832   1.477 -0.4132 -0.1666  0.3752
  233MPD1    C4 3537   0.567   3.963   1.505 -0.1670 -0.0134  0.8552
  233MPD1    C5 3538   0.490   4.013   1.606 -0.4309  0.0298  0.1799
  233MPD1     H 3539   0.465   3.649   1.531 -2.0294  0.4314  1.1531
  233MPD1    H1 3540   0.636   4.030   1.455  0.3954  0.8478  2.8027
  233MPD1    H2 3541   0.353   3.979   1.758 -0.7375  0.1264  0.2140
  233MPD1    H3 3542   0.495   4.119   1.631 -0.6419  0.2959 -0.9046
  233MPD1     N 3543   0.654   3.781   1.387  0.4468  0.3690 -0.4660
  233MPD1    H5 3544   0.726   3.847   1.356  2.0604 -1.3251 -0.3473
  233MPD1    N1 3545   0.322   3.736   1.741  0.3327  0.1379 -0.1620
  233MPD1    H6 3546   0.280   3.650   1.708 -1.2168  0.6580  0.4433
  233MPD1    H7 3547   0.256   3.803   1.781 -0.8776 -0.8359 -0.5370
  234MPD1     C 3548   3.462   1.678   9.758 -0.5883  0.1133  0.1237
  234MPD1    C1 3549   3.340   1.675   9.822 -0.5981  0.0272  0.3031
  234MPD1    C2 3550   3.268   1.788   9.831 -0.5164  0.5470 -0.0216
  234MPD1    C3 3551   3.320   1.911   9.784 -0.6179 -0.5922 -0.4661
  234MPD1    C4 3552   3.443   1.909   9.718 -0.3819  0.5906  0.0886
  234MPD1    C5 3553   3.510   1.795   9.705 -0.3515  0.3318 -1.1012
  234MPD1     H 3554   3.171   1.782   9.879 -0.6276 -1.9302 -0.5872
  234MPD1    H1 3555   3.483   1.995   9.666  2.4235 -0.3702  0.6376
  234MPD1    H2 3556   3.523   1.589   9.744  1.5500  1.4957  0.6888
  234MPD1    H3 3557   3.603   1.793   9.650  0.8434 -2.1397  1.0241
  234MPD1     N 3558   3.246   2.028   9.805  0.5005 -0.0078  0.2116
  234MPD1    H5 3559   3.146   2.025   9.824  0.2681 -0.8023 -1.1748
  234MPD1    N1 3560   3.274   1.559   9.871 -0.3516 -0.1330 -0.3811
  234MPD1    H6 3561   3.331   1.485   9.912 -0.7052 -0.0582  0.2359
  234MPD1    H7 3562   3.199   1.572   9.938  0.0075 -2.6750  0.5435
  235MPD1     C 3563   0.034   0.288  10.843  0.7642  0.1486  0.0732
  235MPD1    C1 3564   0.101   0.389  10.909 -0.5880  0.1971 -0.2890
  235MPD1    C2 3565   0.099   0.516  10.851  0.3945  0.4374 -0.3912
  235MPD1    C3 3566   0.025   0.546  10.738 -0.4686  0.5870 -0.1646
  235MPD1    C4 3567   4.692   0.442  10.676 -0.2821  0.0090  0.3397
  235MPD1    C5 3568   4.689   0.316  10.732 -0.4946 -0.0357 -0.1511
  235MPD1     H 3569   0.152   0.594  10.904  3.1823 -0.4726 -1.8488
  235MPD1    H1 3570   4.649   0.464  10.579 -0.7136 -0.4747  0.4152
  235MPD1    H2 3571   0.033   0.186  10.879  0.6654 -0.9612 -3.0630
  235MPD1    H3 3572   4.650   0.233  10.674 -2.5446 -0.3134  1.6288
  235MPD1     N 3573   0.032   0.681  10.696  0.0338  0.2707 -0.1355
  235MPD1    H5 3574   0.092   0.744  10.748 -1.3918  1.8898 -0.4523
  235MPD1    N1 3575   0.197   0.352  11.008  0.2361  0.0326 -0.3310
  235MPD1    H6 3576   0.168   0.265  11.053 -0.4829  1.9229  2.8329
  235MPD1    H7 3577   0.229   0.422  11.074 -0.1561  1.2125 -1.3928
  236MPD1     C 3578   4.052   1.656   9.401  0.7655  0.4237  0.2691
  236MPD1    C1 3579   3.949   1.714   9.475  0.5266 -0.3397  1.0223
  236MPD1    C2 3580   3.952   1.693   9.608 -0.5532 -0.3087 -0.3232
  236MPD1    C3 3581   4.064   1.640   9.674 -0.2356 -0.3351  0.3736
  236MPD1    C4 3582   4.173   1.602   9.598  1.2531 -0.0551 -0.1377
  236MPD1    C5 3583   4.166   1.600   9.462  0.2829  0.2466  0.2016
  236MPD1     H 3584   3.875   1.746   9.663 -0.1988  0.1976 -0.3121
  236MPD1    H1 3585   4.266   1.581   9.649  1.4131 -0.8805 -0.7690
  236MPD1    H2 3586   4.043   1.632   9.296  1.6685  0.7856  0.1121
  236MPD1    H3 3587   4.252   1.564   9.406 -0.9805 -2.6206  0.0692
  236MPD1     N 3588   4.081   1.639   9.816 -0.1913 -0.0803 -0.5807
  236MPD1    H5 3589   4.168   1.609   9.859  1.8910  4.5275 -1.5737
  236MPD1    N1 3590   3.829   1.768   9.416  0.1748  0.3983  0.4997
  236MPD1    H6 3591   3.841   1.804   9.322  0.4329 -0.3328  0.2587
  236MPD1    H7 3592   3.802   1.841   9.482  0.2234  1.7050 -0.9263
  237MPD1     C 3593   4.039   0.115  15.466  0.2773 -0.2649  0.0983
  237MPD1    C1 3594   3.926   0.108  15.540 -0.4435  0.6954  0.1070
  237MPD1    C2 3595   3.823   0.019  15.504 -0.4673 -0.0735  0.3262
  237MPD1    C3 3596   3.846   4.649  15.405  0.1622  0.2648  0.2676
  237MPD1    C4 3597   3.967   4.661  15.334 -0.1961 -0.0780 -0.0469
  237MPD1    C5 3598   4.058   0.036  15.355 -0.2268 -0.3874 -0.6880
  237MPD1     H 3599   3.727   0.024  15.554 -0.1199  4.0795  0.5578
  237MPD1    H1 3600   3.992   4.587  15.258  2.2844  2.0000 -1.2701
  237MPD1    H2 3601   4.118   0.184  15.495 -1.1556  1.3240  0.2728
  237MPD1    H3 3602   4.149   0.053  15.298  0.1682 -0.8147 -0.1875
  237MPD1     N 3603   3.765   4.539  15.378  0.0086  0.2791  0.0042
  237MPD1    H5 3604   3.786   4.487  15.293  2.8522  2.2165 -0.4936
  237MPD1    N1 3605   3.903   0.202  15.638  0.4623 -0.1444 -0.4849
  237MPD1    H6 3606   3.997   0.236  15.659  1.0962 -1.6467 -0.9035
  237MPD1    H7 3607   3.854   0.157  15.716  0.9065  0.4539  0.1376
  238MPD1     C 3608   0.240   3.547  15.692  0.2508 -0.5143 -0.2040
  238MPD1    C1 3609   0.262   3.573  15.557  0.4104  0.4376 -0.1791
  238MPD1    C2 3610   0.321   3.472  15.481  0.6008  0.0777 -0.3097
  238MPD1    C3 3611   0.295   3.343  15.520  0.5334 -0.6671 -0.4795
  238MPD1    C4 3612   0.243   3.316  15.647 -0.0264 -0.4095 -0.2306
  238MPD1    C5 3613   0.217   3.418  15.737  0.6499  0.2638 -0.0851
  238MPD1     H 3614   0.355   3.486  15.379  0.8350  0.4828 -0.1741
  238MPD1    H1 3615   0.231   3.210  15.665 -1.0223 -0.2421  0.1106
  238MPD1    H2 3616   0.210   3.626  15.759 -1.9104  0.1373 -1.9314
  238MPD1    H3 3617   0.203   3.397  15.843 -0.4059  1.6393  0.0471
  238MPD1     N 3618   0.332   3.237  15.436  0.4849  0.0469 -0.3683
  238MPD1    H5 3619   0.308   3.143  15.467 -0.3410  0.3780 -0.0111
  238MPD1    N1 3620   0.271   3.703  15.511 -0.1738 -0.3894  0.4103
  238MPD1    H6 3621   0.205   3.770  15.551 -1.2048 -1.5868  0.7125
  238MPD1    H7 3622   0.264   3.711  15.410 -3.5608  0.4582  0.7090
  239MPD1     C 3623   0.959   4.103  15.541 -0.5114  0.2671  0.0158
  239MPD1    C1 3624   0.944   4.221  15.477 -0.4770  0.6188 -0.6241
  239MPD1    C2 3625   0.894   4.214  15.351 -0.2869 -0.4618 -0.2403
  239MPD1    C3 3626   0.873   4.087  15.280 -0.2944  0.5190  0.4486
  239MPD1    C4 3627   0.903   3.974  15.351 -0.3149 -0.5792  0.3638
  239MPD1    C5 3628   0.941   3.982  15.480 -0.2630  0.5664 -0.5084
  239MPD1     H 3629   0.867   4.303  15.295 -2.3510 -0.3875  0.8744
  239MPD1    H1 3630   0.884   3.875  15.309  0.3423 -1.4491  2.1314
  239MPD1    H2 3631   0.994   4.098  15.644  0.9936 -2.7030 -0.6278
  239MPD1    H3 3632   0.954   3.892  15.539  1.7686  0.2333 -1.4318
  239MPD1     N 3633   0.827   4.068  15.151  0.5002 -0.2061  1.2422
  239MPD1    H5 3634   0.846   3.982  15.101 -1.1980 -0.6084  1.3011
  239MPD1    N1 3635   0.945   4.341  15.548 -0.0059  0.0744 -0.3733
  239MPD1    H6 3636   0.958   4.419  15.485  0.5999 -0.0504 -0.4032
  239MPD1    H7 3637   1.029   4.344  15.607 -1.4833 -2.1696  1.8900
  240MPD1     C 3638   4.615   3.831  14.495 -0.1027  1.0832  0.4005
  240MPD1    C1 3639   0.018   3.789  14.493  0.4870  0.3195 -0.4945
  240MPD1    C2 3640   0.045   3.660  14.544 -0.7360  0.4493  0.7957
  240MPD1    C3 3641   4.670   3.575  14.580 -0.6912  0.0720  0.1292
  240MPD1    C4 3642   4.539   3.623  14.572  0.3477  0.0645  0.3879
  240MPD1    C5 3643   4.516   3.751  14.523 -0.6066 -0.0382  0.0025
  240MPD1     H 3644   0.146   3.621  14.557 -0.1998  1.7831  0.5943
  240MPD1    H1 3645   4.452   3.570  14.607  1.6468  0.4611  4.2146
  240MPD1    H2 3646   4.584   3.930  14.464  0.6867  0.9107 -0.9561
  240MPD1    H3 3647   4.416   3.791  14.513 -1.1478 -1.2333  0.6500
  240MPD1     N 3648   4.697   3.443  14.617  0.0178 -0.5021  0.3304
  240MPD1    H5 3649   0.067   3.415  14.621  0.2302  0.1423 -0.2744
  240MPD1    N1 3650   0.128   3.878  14.463 -0.4733  0.1795 -0.4063
  240MPD1    H6 3651   0.206   3.826  14.424 -0.2252 -0.2826  0.6994
  240MPD1    H7 3652   0.093   3.945  14.395 -2.3705 -0.6548 -0.2753
  241MPD1     C 3653   0.653   2.758  14.404 -0.1304  0.1451  0.6615
  241MPD1    C1 3654   0.554   2.824  14.328  0.0502  0.2385  0.3450
  241MPD1    C2 3655   0.442   2.876  14.388  0.9397 -0.1144 -0.5867
  241MPD1    C3 3656   0.431   2.883  14.525  0.4414 -0.6097  0.1341
  241MPD1    C4 3657   0.531   2.825  14.600  0.6501  0.5315  0.4039
  241MPD1    C5 3658   0.628   2.759  14.536 -0.3990 -0.6678  0.7573
  241MPD1     H 3659   0.361   2.918  14.330 -0.7680  0.9055  2.5304
  241MPD1    H1 3660   0.521   2.824  14.708  2.4824 -1.0437  0.5519
  241MPD1    H2 3661   0.741   2.710  14.362 -0.3415 -0.2129  0.6321
  241MPD1    H3 3662   0.692   2.703  14.603  0.9348 -0.8684 -0.6655
  241MPD1     N 3663   0.328   2.950  14.598 -0.0834 -0.5342  0.5091
  241MPD1    H5 3664   0.336   2.979  14.695 -0.8198 -0.5006  0.5616
  241MPD1    N1 3665   0.542   2.812  14.186  0.6107 -0.5820  0.1812
  241MPD1    H6 3666   0.489   2.889  14.146  1.2634 -1.1316 -1.7518
  241MPD1    H7 3667   0.632   2.802  14.141  0.0844 -0.6755 -0.8479
  242MPD1     C 3668   4.607   1.842  15.947 -0.6506  0.1466  0.3550
  242MPD1    C1 3669   4.670   1.961  15.921 -0.0327  0.4047 -0.3175
  242MPD1    C2 3670   4.716   1.973  15.792 -0.2627  0.7342  0.4441
  242MPD1    C3 3671   4.698   1.875  15.692  0.2806  0.0772 -0.6959
  242MPD1    C4 3672   4.635   1.757  15.729 -0.4927 -0.0421 -0.5285
  242MPD1    C5 3673   4.584   1.746  15.852 -0.2553 -0.4491 -0.7100
  242MPD1     H 3674   0.030   2.070  15.766 -1.0343  0.9950  0.1824
  242MPD1    H1 3675   4.631   1.674  15.659 -0.6486  0.0673 -0.6490
  242MPD1    H2 3676   4.574   1.805  16.043  2.2292 -2.4399  0.3519
  242MPD1    H3 3677   4.546   1.653  15.892 -0.5211  0.4590  1.1739
  242MPD1     N 3678   0.023   1.882  15.565  0.8541 -0.1514 -0.0096
  242MPD1    H5 3679   4.725   1.820  15.489  1.1675  1.8598 -1.7656
  242MPD1    N1 3680   4.713   2.050  16.020 -0.0959 -0.0098 -0.0751
  242MPD1    H6 3681   4.723   2.148  15.992 -0.0105  0.1000  0.3405
  242MPD1    H7 3682   4.655   2.049  16.103  0.1702 -1.5956  0.0857
  243MPD1     C 3683   1.750   1.308  17.154  0.2568  0.0679 -0.2198
  243MPD1    C1 3684   1.697   1.218  17.243 -0.3469  0.1570  0.5146
  243MPD1    C2 3685   1.665   1.095  17.182  0.0146 -0.7962 -0.6173
  243MPD1    C3 3686   1.666   1.074  17.046  0.0119 -0.4650 -0.1063
  243MPD1    C4 3687   1.721   1.167  16.960 -0.3058  0.0654 -0.1494
  243MPD1    C5 3688   1.764   1.288  17.015 -0.0062  0.3608 -0.1837
  243MPD1     H 3689   1.640   1.018  17.254  0.6814  0.2976  0.7960
  243MPD1    H1 3690   1.730   1.156  16.852  2.1809  1.8235 -0.1239
  243MPD1    H2 3691   1.775   1.409  17.185  1.0681  0.0780 -0.9345
  243MPD1    H3 3692   1.792   1.361  16.940 -2.9087  0.2043 -1.4109
  243MPD1     N 3693   1.623   0.949  16.998 -0.0502 -0.7538 -0.4066
  243MPD1    H5 3694   1.559   0.901  17.061 -1.1106  2.0116  0.6333
  243MPD1    N1 3695   1.714   1.226  17.380  0.2115 -0.2084 -0.2989
  243MPD1    H6 3696   1.639   1.171  17.421  0.5974  0.8782  1.8592
  243MPD1    H7 3697   1.706   1.319  17.422  4.1074 -0.1887  0.3976
  244MPD1     C 3698   0.997   0.457  17.341  0.4411  0.8426 -0.6668
  244MPD1    C1 3699   1.068   0.572  17.364  0.1447 -0.3931 -0.6591
  244MPD1    C2 3700   1.154   0.620  17.273  0.8979 -0.5478  0.7947
  244MPD1    C3 3701   1.183   0.548  17.163  0.3104 -0.4397 -0.4172
  244MPD1    C4 3702   1.135   0.416  17.148  0.0083 -0.3256  0.0939
  244MPD1    C5 3703   1.034   0.372  17.237 -0.7711 -0.8077  0.2682
  244MPD1     H 3704   1.203   0.715  17.292  2.4302 -0.4865 -3.5308
  244MPD1    H1 3705   1.160   0.355  17.062 -0.9369 -0.6904  0.0753
  244MPD1    H2 3706   0.926   0.420  17.414  1.1071  2.2923  0.7209
  244MPD1    H3 3707   0.991   0.272  17.236 -0.8209 -0.7830 -0.1412
  244MPD1     N 3708   1.280   0.603  17.071  0.3690  0.3675  0.2261
  244MPD1    H5 3709   1.331   0.678  17.116 -2.1286  1.1142  1.8200
  244MPD1    N1 3710   1.027   0.650  17.470 -0.4678  0.3343  0.2547
  244MPD1    H6 3711   0.992   0.586  17.541  0.6883 -0.8386 -0.2235
  244MPD1    H7 3712   1.099   0.717  17.496 -1.1713  0.9501  0.6085
  245MPD1     C 3713   2.959   0.674  13.445  0.4085  0.0628 -0.2880
  245MPD1    C1 3714   2.927   0.808  13.470  0.3910 -0.5628  1.0226
  245MPD1    C2 3715   3.029   0.890  13.512 -0.9008  0.2423  0.2112
  245MPD1    C3 3716   3.162   0.845  13.510  0.2975  0.3525 -1.0109
  245MPD1    C4 3717   3.184   0.712  13.478 -0.7392 -0.4182 -0.2854
  245MPD1    C5 3718   3.082   0.625  13.446  0.2006  0.5581 -0.0269
  245MPD1     H 3719   3.013   0.992  13.546  1.5129  0.9907 -0.8879
  245MPD1    H1 3720   3.286   0.678  13.463 -0.2457  3.0385 -4.5951
  245MPD1    H2 3721   2.882   0.609  13.405  1.1785 -2.0442  1.6585
  245MPD1    H3 3722   3.099   0.521  13.419 -0.2523  0.7827 -1.1690
  245MPD1     N 3723   3.263   0.938  13.538 -0.2625  0.2965 -0.0845
  245MPD1    H5 3724   3.236   1.036  13.537 -3.0099 -0.4659  1.8282
  245MPD1    N1 3725   2.793   0.847  13.479  0.6987 -0.0593 -0.1481
  245MPD1    H6 3726   2.782   0.947  13.461  1.5073 -0.0874 -0.7812
  245MPD1    H7 3727   2.731   0.793  13.419  2.0438 -0.2570 -1.3383
  246MPD1     C 3728   0.879   2.867  10.014  0.7217 -0.4926 -0.5064
  246MPD1    C1 3729   0.953   2.892   9.895  0.4550  0.4588 -0.4016
  246MPD1    C2 3730   0.905   2.833   9.776  0.2914 -0.4421  0.2317
  246MPD1    C3 3731   0.788   2.766   9.767 -0.5242 -0.2376 -0.2004
  246MPD1    C4 3732   0.708   2.748   9.880  0.1664  0.4572 -0.1021
  246MPD1    C5 3733   0.760   2.799   9.998  0.0044  0.4053  0.2471
  246MPD1     H 3734   0.969   2.852   9.690  0.9924 -1.7730  0.4700
  246MPD1    H1 3735   0.625   2.679   9.884 -0.7597  1.6685  1.7355
  246MPD1    H2 3736   0.905   2.908  10.111  1.0281 -0.8697 -0.4325
  246MPD1    H3 3737   0.694   2.796  10.084 -0.1253 -1.5255  0.0906
  246MPD1     N 3738   0.745   2.723   9.639  0.0789 -0.4689  0.7064
  246MPD1    H5 3739   0.810   2.747   9.565 -3.5451  1.9769 -1.7366
  246MPD1    N1 3740   1.078   2.946   9.895  0.7630  0.9794 -0.4804
  246MPD1    H6 3741   1.107   2.992   9.809 -0.2825  0.9349 -0.8558
  246MPD1    H7 3742   1.085   3.014   9.970 -0.1921  2.1857 -1.4934
  247MPD1     C 3743   3.003   4.656  15.796 -0.6266 -0.4506 -0.1010
  247MPD1    C1 3744   2.873   4.668  15.831 -0.1331 -0.3119 -0.5190
  247MPD1    C2 3745   2.813   0.061  15.833 -0.3676  0.2958  0.2360
  247MPD1    C3 3746   2.885   0.180  15.812  0.1876 -0.7080  0.1361
  247MPD1    C4 3747   3.018   0.167  15.785  0.4196 -0.0475 -0.2730
  247MPD1    C5 3748   3.075   0.039  15.776 -0.4531 -0.0710  0.4963
  247MPD1     H 3749   2.706   0.067  15.851 -0.1602  3.6735  0.3222
  247MPD1    H1 3750   3.082   0.253  15.769 -1.2107  1.2510  0.1097
  247MPD1    H2 3751   3.050   4.559  15.785 -1.6744 -0.9203 -0.4533
  247MPD1    H3 3752   3.180   0.027  15.751 -0.4018  3.1095 -0.7907
  247MPD1     N 3753   2.825   0.301  15.795  0.4575  0.0782 -0.5191
  247MPD1    H5 3754   2.881   0.383  15.776  0.7404 -0.2662 -1.1728
  247MPD1    N1 3755   2.803   4.555  15.860  0.6771  1.3132  0.3505
  247MPD1    H6 3756   2.711   4.582  15.894 -0.0615 -0.2370 -0.4105
  247MPD1    H7 3757   2.836   4.501  15.939  2.2154  0.1250 -1.1196
  248MPD1     C 3758   3.256   4.396   0.829  0.0700  0.1072  0.0932
  248MPD1    C1 3759   3.310   4.499   0.905 -0.3054 -0.0720 -0.4108
  248MPD1    C2 3760   3.287   4.623   0.860 -0.0077  0.2112 -0.2081
  248MPD1    C3 3761   3.220   4.662   0.746  0.2471 -0.6891  0.1257
  248MPD1    C4 3762   3.162   4.557   0.678  0.2322 -0.1461  0.3255
  248MPD1    C5 3763   3.181   4.433   0.719 -0.8615  0.6850  0.5335
  248MPD1     H 3764   3.334   4.699   0.923 -2.8889  1.1063  0.8882
  248MPD1    H1 3765   3.096   4.562   0.592  0.2833  0.1537  0.3053
  248MPD1    H2 3766   3.260   4.291   0.856  0.3775  0.2169  0.4677
  248MPD1    H3 3767   3.116   4.359   0.673  3.8506 -2.5413 -0.9619
  248MPD1     N 3768   3.201   0.071   0.713  0.3517 -0.8913  0.2791
  248MPD1    H5 3769   3.258   0.129   0.773 -0.8829  0.2541  0.3502
  248MPD1    N1 3770   3.362   4.478   1.033  0.1245  0.2125  0.3436
  248MPD1    H6 3771   3.416   4.552   1.079 -0.7520  0.8862  0.2809
  248MPD1    H7 3772   3.401   4.385   1.047 -2.2475 -1.2577 -2.8948
  249MPD1     C 3773   0.943   3.199   9.702 -0.9514  0.3953  0.2803
  249MPD1    C1 3774   0.851   3.226   9.797  0.0102  0.7824 -0.4698
  249MPD1    C2 3775   0.855   3.346   9.859  0.0593  0.2273 -0.1240
  249MPD1    C3 3776   0.958   3.434   9.840 -0.0227  0.6488 -0.3115
  249MPD1    C4 3777   1.053   3.412   9.747 -0.0839 -0.0970 -0.6073
  249MPD1    C5 3778   1.042   3.294   9.674 -0.0495 -0.3172  0.3580
  249MPD1     H 3779   0.773   3.368   9.926  1.1110  1.5992  0.7091
  249MPD1    H1 3780   1.132   3.484   9.730 -0.9296  0.8853 -0.3483
  249MPD1    H2 3781   0.940   3.105   9.649 -0.5516  0.1573  0.6836
  249MPD1    H3 3782   1.119   3.259   9.607  1.2087 -0.0082  1.6434
  249MPD1     N 3783   0.957   3.545   9.929 -0.1817  0.2502 -0.2003
  249MPD1    H5 3784   0.887   3.547  10.003 -2.0022 -0.1106 -1.9015
  249MPD1    N1 3785   0.741   3.145   9.815 -0.1427 -0.0161 -0.0057
  249MPD1    H6 3786   0.764   3.047   9.830  0.6985  0.4903  1.9559
  249MPD1    H7 3787   0.690   3.171   9.899  0.5443  0.9677  0.1126
  250MPD2     C 3788   1.550   3.739  13.638  0.0952 -0.4484 -0.1488
  250MPD2    C1 3789   1.587   3.763  13.507  0.3189 -0.9823  0.2113
  250MPD2    C2 3790   1.529   3.679  13.409 -0.4957  1.4347  0.1776
  250MPD2    C3 3791   1.442   3.578  13.448 -0.3469  0.2997 -0.0344
  250MPD2    C4 3792   1.408   3.560  13.577  0.2030 -0.4463 -0.0565
  250MPD2    C5 3793   1.463   3.637  13.675 -0.0129 -0.0606 -0.4012
  250MPD2     H 3794   1.549   3.696  13.304 -1.0266  2.3923  0.2331
  250MPD2    H1 3795   1.333   3.491  13.613  0.2766 -0.6568 -0.3088
  250MPD2    H2 3796   1.594   3.802  13.713  1.1949 -1.4373  0.0231
  250MPD2    H3 3797   1.442   3.623  13.780 -0.6809 -2.4723 -0.8591
  250MPD2     N 3798   1.395   3.482  13.350 -0.0061 -0.2972 -0.4621
  250MPD2    H5 3799   1.356   3.397  13.389  0.4258 -0.0570  0.5203
  250MPD2    N1 3800   1.679   3.860  13.457  0.6281 -0.4263  0.0200
  250MPD2    H7 3801   1.705   3.857  13.359  0.3807 -0.9706 -0.0288
  251TMC3    C1 3802   1.813   4.047  13.453  0.8075  0.1193 -0.1660
  251TMC3    C2 3803   1.812   4.179  13.486  0.1898 -0.6639  0.3506
  251TMC3    C3 3804   1.895   4.264  13.417  0.3987 -0.2340  0.9888
  251TMC3    C4 3805   1.888   4.009  13.345 -0.9188  0.0117  0.4888
  251TMC3    C5 3806   1.955   4.100  13.267  0.4722  0.2903 -0.0551
  251TMC3    C6 3807   1.966   4.223  13.308 -0.0301 -0.0890 -0.1773
  251TMC3     C 3808   1.730   3.962  13.535  0.1974  0.0503 -0.5041
  251TMC3     O 3809   1.701   3.996  13.649 -0.2267 -1.0903  0.3171
  251TMC3     H 3810   1.750   4.228  13.560 -0.2221 -1.2549  0.3931
  251TMC3    H1 3811   1.881   3.904  13.318  1.5876 -0.1060  0.3122
  251TMC3    H2 3812   2.028   4.294  13.255  0.4882  0.7714  1.6008
  251TMC3    C7 3813   2.019   4.058  13.146 -0.7050  0.9847  0.1578
  251TMC3    C8 3814   1.838   4.397  13.418  1.0905 -1.0372  0.0178
  251TMC3    O1 3815   2.047   3.942  13.141 -0.4694 -0.2323  0.3865
  251TMC3    O2 3816   1.908   4.492  13.444 -0.4083  0.2074  0.4980
  252TMC3    C1 3817   1.855   0.695   9.372 -0.3181  0.1778  0.2252
  252TMC3    C2 3818   1.990   0.718   9.377  0.5154  0.7030  0.0695
  252TMC3    C3 3819   2.059   0.644   9.468  0.6913  0.3996  0.3733
  252TMC3    C4 3820   1.794   0.613   9.461 -0.4445  0.6409  0.0683
  252TMC3    C5 3821   1.871   0.535   9.549  0.2330 -0.8207  0.1260
  252TMC3    C6 3822   2.010   0.549   9.555  0.1728  0.1057  0.0880
  252TMC3     C 3823   1.779   0.776   9.273  0.3876  0.5205 -0.6935
  252TMC3     O 3824   1.845   0.862   9.213  1.1535 -0.4466  0.1296
  252TMC3     H 3825   2.033   0.811   9.340 -1.3810  1.3861 -0.4091
  252TMC3    H1 3826   1.686   0.606   9.466 -0.3648 -1.1413 -0.6500
  252TMC3    H2 3827   2.067   0.491   9.627  2.4657 -0.8288 -2.4746
  252TMC3    C7 3828   1.796   0.427   9.614  0.5536  0.7390  0.1447
  252TMC3    C8 3829   2.193   0.691   9.501  0.0985 -0.0725 -0.0688
  252TMC3    O1 3830   1.677   0.447   9.607  0.3700 -0.1150 -0.4360
  252TMC3    O2 3831   2.223   0.681   9.618 -0.7246  0.5599  0.2476
  253MPD2     C 3832   3.315   4.219  15.917  0.0947  1.0070  0.5939
  253MPD2    C1 3833   3.178   4.238  15.933  0.2538  0.0334  0.0419
  253MPD2    C2 3834   3.125   4.266  16.057 -0.2907 -0.0360 -0.0697
  253MPD2    C3 3835   3.206   4.275  16.172  0.1902 -0.3027  0.5754
  253MPD2    C4 3836   3.336   4.238  16.158 -0.2824 -0.1669  0.2250
  253MPD2    C5 3837   3.389   4.210  16.031  0.7205 -0.0160 -1.0187
  253MPD2     H 3838   3.024   4.303  16.070 -0.1403  0.1270  0.6485
  253MPD2    H1 3839   3.407   4.256  16.238 -0.5553  3.2736 -0.2748
  253MPD2    H2 3840   3.368   4.210  15.823  0.7040  1.6317  0.8761
  253MPD2    H3 3841   3.497   4.200  16.020  0.6947 -0.9585 -0.4550
  253MPD2     N 3842   3.149   4.308  16.297  0.4363 -0.4109 -0.2539
  253MPD2    H5 3843   3.199   4.272  16.378  1.2614 -1.8238 -1.4036
  253MPD2    N1 3844   3.087   4.255  15.827 -0.0397  0.6254  0.4272
  253MPD2    H7 3845   2.989   4.256  15.854 -0.4443 -0.8172 -0.9995
  254TMC3    C1 3846   2.981   4.349  16.453  0.2410 -0.1859 -0.4904
  254TMC3    C2 3847   2.847   4.319  16.461  0.3805 -0.3482  1.0135
  254TMC3    C3 3848   2.805   4.287  16.590 -0.0660 -0.2269 -0.2815
  254TMC3    C4 3849   3.069   4.338  16.562  0.7527 -0.2957 -0.4073
  254TMC3    C5 3850   3.015   4.291  16.685 -0.0449  0.1231 -0.5024
  254TMC3    C6 3851   2.885   4.268  16.700 -0.3447 -0.1238 -0.5062
  254TMC3     C 3852   3.026   4.368  16.319 -0.0321 -0.4331 -0.5115
  254TMC3     O 3853   2.947   4.423  16.251 -0.0814 -0.5185 -0.3082
  254TMC3     H 3854   2.783   4.313  16.374  0.9918 -0.4046  0.5767
  254TMC3    H1 3855   3.172   4.364  16.542  0.5857  0.6154 -0.0712
  254TMC3    H2 3856   2.841   4.250  16.797 -0.9581 -0.4079 -0.8327
  254TMC3    C7 3857   3.100   4.291  16.799 -0.7546 -0.3553  0.5175
  254TMC3    C8 3858   2.661   4.315  16.612  0.4188  0.0177  0.7937
  254TMC3    O1 3859   3.062   4.227  16.900 -0.0836  0.1880  0.2145
  254TMC3    O2 3860   2.600   4.343  16.513 -0.2106 -0.5808  0.0963
  255MPD2     C 3861   1.192   3.077  11.258  0.6337  0.5331  0.0982
  255MPD2    C1 3862   1.222   3.065  11.123  0.6066  0.1704 -0.2761
  255MPD2    C2 3863   1.315   2.972  11.079 -0.2218  0.2277  0.0466
  255MPD2    C3 3864   1.389   2.902  11.173  1.0206  0.3905 -0.4209
  255MPD2    C4 3865   1.359   2.911  11.307 -0.1118 -0.3586  0.3197
  255MPD2    C5 3866   1.260   2.997  11.352 -0.5488 -0.0581  0.1244
  255MPD2     H 3867   1.334   2.953  10.974  0.5101  1.5134 -0.0504
  255MPD2    H1 3868   1.421   2.845  11.368  1.9772  0.8045 -0.5228
  255MPD2    H2 3869   1.116   3.147  11.290 -0.5232 -0.8192  0.3448
  255MPD2    H3 3870   1.228   2.998  11.455 -0.9049  1.9750 -0.0176
  255MPD2     N 3871   1.478   2.804  11.118  0.5583 -0.6395 -0.9800
  255MPD2    H5 3872   1.500   2.825  11.021  1.6444  0.5969 -0.4636
  255MPD2    N1 3873   1.157   3.144  11.026 -0.7549  0.2506  0.2236
  255MPD2    H7 3874   1.160   3.102  10.934  0.9722 -0.7998  0.7483
  256TMC3    C1 3875   1.102   3.338  10.912 -0.5695  0.3726 -0.9959
  256TMC3    C2 3876   1.166   3.453  10.897  0.2553 -0.5000 -0.0411
  256TMC3    C3 3877   1.214   3.484  10.775 -0.5219  0.4095 -0.3386
  256TMC3    C4 3878   1.083   3.250  10.809 -0.0489 -0.1287  0.4319
  256TMC3    C5 3879   1.138   3.280  10.685  0.7023 -0.8418  0.7218
  256TMC3    C6 3880   1.212   3.393  10.679 -0.1886  0.0537 -0.0682
  256TMC3     C 3881   1.124   3.277  11.039 -0.2422  0.4939  0.0170
  256TMC3     O 3882   1.160   3.359  11.127  0.0160 -0.0006  0.1524
  256TMC3     H 3883   1.161   3.529  10.975  2.1033 -0.9439  0.5138
  256TMC3    H1 3884   1.006   3.174  10.811 -0.4761  0.2813 -0.8878
  256TMC3    H2 3885   1.245   3.423  10.580  2.2209 -1.2504  0.3322
  256TMC3    C7 3886   1.125   3.183  10.576  0.4571  0.0909 -0.3956
  256TMC3    C8 3887   1.296   3.606  10.751 -0.2474 -0.3332 -0.2421
  256TMC3    O1 3888   1.049   3.093  10.599 -0.2829  0.3291 -0.0673
  256TMC3    O2 3889   1.285   3.706  10.821 -0.2382  0.7080  0.3396
  257MPD2     C 3890   0.811   4.390  13.587 -0.3434 -0.5067  0.2707
  257MPD2    C1 3891   0.706   4.319  13.541  0.4250  1.1441  0.6558
  257MPD2    C2 3892   0.632   4.246  13.629  0.1950  0.0534 -0.0214
  257MPD2    C3 3893   0.655   4.251  13.766 -0.6556 -0.0049  0.2759
  257MPD2    C4 3894   0.759   4.332  13.814 -0.1026  0.0027  0.3865
  257MPD2    C5 3895   0.830   4.411  13.724  0.0185  0.5852  0.5889
  257MPD2     H 3896   0.549   4.189  13.588  0.5306 -0.7575  0.4555
  257MPD2    H1 3897   0.776   4.334  13.921  0.4339 -0.9886  0.3192
  257MPD2    H2 3898   0.874   4.444  13.518  0.5644 -0.1103  1.3999
  257MPD2    H3 3899   0.897   4.487  13.760 -1.2147  0.7562  2.5485
  257MPD2     N 3900   0.578   4.163  13.843 -0.5625 -0.7237  0.7744
  257MPD2    H5 3901   0.494   4.136  13.793 -0.8103  1.8480 -0.2274
  257MPD2    N1 3902   0.686   4.317  13.403 -0.4445 -0.3510  0.5266
  257MPD2    H7 3903   0.761   4.358  13.348 -0.4417 -2.8441 -1.3643
  258TMC3    C1 3904   0.515   4.003  14.007 -1.0008  0.2179 -0.0575
  258TMC3    C2 3905   0.418   3.957  13.918 -0.3860  0.3604 -0.5530
  258TMC3    C3 3906   0.327   3.871  13.961  0.2503  0.2547 -0.6907
  258TMC3    C4 3907   0.521   3.957  14.134  0.5219 -0.1871  0.5666
  258TMC3    C5 3908   0.427   3.859  14.175  0.5589 -0.5397 -0.2020
  258TMC3    C6 3909   0.329   3.815  14.090  0.2951  0.5601 -0.2588
  258TMC3     C 3910   0.607   4.110  13.967  0.0884 -0.4406  0.2768
  258TMC3     O 3911   0.704   4.135  14.037 -0.3671 -0.0511  0.1634
  258TMC3     H 3912   0.423   3.977  13.812 -0.1354  2.7221 -0.0780
  258TMC3    H1 3913   0.589   4.004  14.205 -1.8202  2.2149  1.2615
  258TMC3    H2 3914   0.259   3.737  14.118  1.2851 -0.1855  0.0988
  258TMC3    C7 3915   0.438   3.790  14.309 -0.3624 -0.0295  0.9995
  258TMC3    C8 3916   0.235   3.831  13.862  0.2816  0.0308  0.1655
  258TMC3    O1 3917   0.342   3.726  14.346  0.2582 -0.3397 -0.0050
  258TMC3    O2 3918   0.242   3.884  13.750  0.1405  0.5462  0.2692
  259MPD2     C 3919   4.600   1.003   0.604 -0.5233 -0.3178  0.0394
  259MPD2    C1 3920   4.673   1.066   0.702 -0.5015  0.2494 -0.2459
  259MPD2    C2 3921   0.084   1.072   0.688  0.5098  0.1349 -0.1538
  259MPD2    C3 3922   0.154   1.021   0.574  0.0501  0.6235  0.9439
  259MPD2    C4 3923   0.076   0.961   0.476 -0.0057 -0.2557  0.2030
  259MPD2    C5 3924   4.662   0.950   0.492 -0.0984  0.6422  0.2071
  259MPD2     H 3925   0.137   1.127   0.765 -2.1373  1.9847  0.3362
  259MPD2    H1 3926   0.115   0.917   0.384 -1.5530 -0.5961 -0.3004
  259MPD2    H2 3927   4.491   1.005   0.609 -0.4010  2.0592  1.8723
  259MPD2    H3 3928   4.611   0.908   0.406  0.5616  0.2690 -0.0042
  259MPD2     N 3929   0.294   1.036   0.561 -0.0777 -0.0437  0.2480
  259MPD2    H5 3930   0.347   1.072   0.640  1.0684  1.1444 -1.0730
  259MPD2    N1 3931   4.598   1.115   0.810 -0.0001 -0.2781 -0.0121
  259MPD2    H7 3932   4.498   1.096   0.802 -0.1117  0.7657 -1.1863
  260TMC3    C1 3933   0.513   1.041   0.460 -0.4909 -0.1604 -0.4235
  260TMC3    C2 3934   0.575   1.034   0.336 -0.0118 -0.1865 -0.7508
  260TMC3    C3 3935   0.694   0.974   0.331 -0.1785  0.4101 -0.2392
  260TMC3    C4 3936   0.565   0.991   0.578  0.3875 -0.1695 -0.6401
  260TMC3    C5 3937   0.685   0.923   0.565  0.5064  0.2677 -0.2056
  260TMC3    C6 3938   0.745   0.911   0.443 -0.2341 -0.1379 -0.1859
  260TMC3     C 3939   0.369   1.004   0.451  0.2674 -0.0444 -0.0880
  260TMC3     O 3940   0.331   0.952   0.347 -0.4318  0.5058 -0.2213
  260TMC3     H 3941   0.522   1.060   0.245 -0.8864  1.5262  0.2621
  260TMC3    H1 3942   0.522   1.012   0.675  0.4970 -0.3949 -0.5448
  260TMC3    H2 3943   0.842   0.863   0.440 -0.0549  0.1505  0.8243
  260TMC3    C7 3944   0.668   0.791   0.621  0.3317  0.7895 -0.1594
  260TMC3    C8 3945   0.733   0.914   0.207  0.2255  0.3598 -0.0396
  260TMC3    O1 3946   0.668   0.703   0.534  0.0975  0.5366  0.1178
  260TMC3    O2 3947   0.696   0.972   0.108  0.3326 -0.2795  0.5104
  261MPD2     C 3948   0.894   3.388  12.679 -0.5889  0.0340 -0.4402
  261MPD2    C1 3949   1.015   3.449  12.709  0.1204  0.1960 -0.6275
  261MPD2    C2 3950   1.068   3.533  12.618 -0.1618 -0.2257  0.0890
  261MPD2    C3 3951   1.017   3.561  12.492  0.4020 -0.5470  0.3057
  261MPD2    C4 3952   0.900   3.501  12.462 -0.3667  0.8267  0.3189
  261MPD2    C5 3953   0.837   3.421  12.553 -0.1139 -0.4163 -0.0541
  261MPD2     H 3954   1.158   3.589  12.641  0.2093 -0.1907 -1.4407
  261MPD2    H1 3955   0.852   3.520  12.367  0.6149  2.3824  0.1212
  261MPD2    H2 3956   0.833   3.331  12.748 -0.8557  0.2867 -0.4677
  261MPD2    H3 3957   0.740   3.382  12.523 -2.4840  3.6419  2.2503
  261MPD2     N 3958   1.091   3.651  12.410  0.1613 -0.8311  0.4589
  261MPD2    H5 3959   1.182   3.686  12.437 -0.5726  1.0906  0.4503
  261MPD2    N1 3960   1.078   3.422  12.826  0.7881  0.5248  0.4734
  261MPD2    H7 3961   1.165   3.471  12.848  1.3451  0.9679 -2.7541
  262TMC3    C1 3962   1.114   3.833  12.262  0.0313  0.6423 -0.0140
  262TMC3    C2 3963   1.048   3.934  12.202 -0.2873 -0.4857 -0.0534
  262TMC3    C3 3964   1.116   4.055  12.188  0.3799 -0.6984 -0.0047
  262TMC3    C4 3965   1.240   3.848  12.318  0.1645 -0.2767 -0.2715
  262TMC3    C5 3966   1.293   3.974  12.322 -0.6145 -0.0884 -0.3690
  262TMC3    C6 3967   1.233   4.074  12.248 -0.2152  0.3494 -0.3045
  262TMC3     C 3968   1.042   3.708  12.289  0.1079  0.1207 -0.1154
  262TMC3     O 3969   0.941   3.681  12.227  0.4856 -0.2347  0.3702
  262TMC3     H 3970   0.955   3.913  12.151  1.1456 -0.4348 -2.7029
  262TMC3    H1 3971   1.288   3.783  12.390 -0.0247  0.1398  0.2271
  262TMC3    H2 3972   1.287   4.166  12.229  0.6317 -0.1133 -0.1120
  262TMC3    C7 3973   1.441   3.982  12.332  0.2235  0.4700  0.5412
  262TMC3    C8 3974   1.059   4.165  12.110  1.0316 -0.1053  0.4876
  262TMC3    O1 3975   1.494   3.877  12.323  0.3863 -0.0800  0.1107
  262TMC3    O2 3976   1.118   4.272  12.116  0.4566 -0.2339  0.0893
  263MPD2     C 3977   2.406   3.583  11.530  0.6172 -0.0035 -0.3171
  263MPD2    C1 3978   2.531   3.625  11.510  0.3510 -0.5055 -0.4415
  263MPD2    C2 3979   2.562   3.699  11.395  0.2316  0.1777  0.4988
  263MPD2    C3 3980   2.460   3.724  11.303  0.4826  0.6912 -0.4590
  263MPD2    C4 3981   2.331   3.679  11.329  0.1760 -0.0563 -0.2413
  263MPD2    C5 3982   2.301   3.613  11.447  0.3032  0.3875 -0.0834
  263MPD2     H 3983   2.658   3.746  11.374  0.3995 -0.6015 -0.5033
  263MPD2    H1 3984   2.254   3.704  11.258 -0.9350 -1.5330  0.4603
  263MPD2    H2 3985   2.389   3.532  11.624  1.6504  0.6667  0.2280
  263MPD2    H3 3986   2.196   3.591  11.460 -0.3179  1.4640 -3.2796
  263MPD2     N 3987   2.505   3.810  11.196  0.2358  0.3372  0.7922
  263MPD2    H5 3988   2.599   3.849  11.197 -0.7692  2.7538  0.1538
  263MPD2    N1 3989   2.622   3.600  11.618  0.5550 -0.2134  0.1427
  263MPD2    H7 3990   2.578   3.559  11.699 -2.0645 -1.2750 -1.8077
  264TMC3    C1 3991   2.508   3.926  10.988  0.0153 -1.0934 -0.0569
  264TMC3    C2 3992   2.450   4.033  10.924  0.9615  0.2237  0.3713
  264TMC3    C3 3993   2.526   4.092  10.825 -0.2336  0.1853 -0.1274
  264TMC3    C4 3994   2.622   3.864  10.952  0.5492 -0.2620  0.1713
  264TMC3    C5 3995   2.673   3.904  10.836 -0.2854 -0.0025 -0.2077
  264TMC3    C6 3996   2.624   4.012  10.763  0.4739  0.1713  0.7070
  264TMC3     C 3997   2.432   3.865  11.097 -0.0383 -0.3400 -0.0282
  264TMC3     O 3998   2.310   3.852  11.073  0.5269 -0.3160 -0.5767
  264TMC3     H 3999   2.355   4.082  10.945  0.8608 -0.2240  0.9872
  264TMC3    H1 4000   2.666   3.780  11.005 -0.5948 -1.5271 -0.8689
  264TMC3    H2 4001   2.668   4.049  10.671  0.1214 -1.6179 -0.1863
  264TMC3    C7 4002   2.814   3.902  10.838 -0.8210 -0.5010 -0.0858
  264TMC3    C8 4003   2.576   4.223  10.856  0.1406  0.5986  0.8169
  264TMC3    O1 4004   2.869   3.797  10.826 -0.0291  0.1894  0.0227
  264TMC3    O2 4005   2.663   4.281  10.789  0.3522 -0.8696 -0.1210
  265MPD2     C 4006   4.042   4.247  16.023  0.2518  0.1024  0.7002
  265MPD2    C1 4007   4.112   4.336  15.944 -0.5203 -0.1129  0.3408
  265MPD2    C2 4008   4.180   4.290  15.832  0.2243  1.0475 -0.1352
  265MPD2    C3 4009   4.190   4.152  15.807 -0.3233 -0.4046 -0.4007
  265MPD2    C4 4010   4.118   4.070  15.892  0.5318  0.7466  0.6061
  265MPD2    C5 4011   4.036   4.115  15.990 -0.3370 -0.7910  0.1955
  265MPD2     H 4012   4.234   4.359  15.769 -1.8603  2.1103 -0.7718
  265MPD2    H1 4013   4.119   3.963  15.878  0.6591  0.9724 -1.0856
  265MPD2    H2 4014   3.984   4.271  16.112  2.2555  1.0973  1.7369
  265MPD2    H3 4015   3.983   4.047  16.056  0.0173  1.8767  3.2585
  265MPD2     N 4016   4.267   4.092  15.707  0.6665  0.2034  0.0811
  265MPD2    H5 4017   4.273   3.991  15.715 -1.1782  0.0376 -0.5243
  265MPD2    N1 4018   4.106   4.477  15.965 -0.6432  0.4070  0.0826
  265MPD2    H7 4019   4.174   4.528  15.909 -0.5608 -0.6301 -0.7556
  266TMC3    C1 4020   4.044   4.684  16.054  0.0125  0.1629 -0.2744
  266TMC3    C2 4021   3.958   0.022  16.142 -0.3427 -0.0652 -0.8878
  266TMC3    C3 4022   3.945   0.155  16.132 -0.1311  0.6124  0.2615
  266TMC3    C4 4023   4.123   0.021  15.964  0.0209  0.1755  0.3012
  266TMC3    C5 4024   4.108   0.155  15.953 -0.5853  0.0057 -0.3347
  266TMC3    C6 4025   4.016   0.224  16.032 -0.0722  0.3272 -0.0013
  266TMC3     C 4026   4.020   4.538  16.047 -0.2975  0.3345 -0.2512
  266TMC3     O 4027   3.919   4.490  16.098 -0.2018 -0.3975  0.2034
  266TMC3     H 4028   3.895   4.698  16.214  2.2881 -2.2023 -0.0533
  266TMC3    H1 4029   4.176   4.700  15.882  1.4222 -0.7236  1.7386
  266TMC3    H2 4030   4.001   0.329  16.013 -0.7907  0.8842  3.5689
  266TMC3    C7 4031   4.184   0.218  15.846  0.4947  0.7041  0.0308
  266TMC3    C8 4032   3.865   0.241  16.219 -0.7125  0.3952 -0.0637
  266TMC3    O1 4033   4.205   0.153  15.745 -0.4003  0.4435 -0.2933
  266TMC3    O2 4034   3.755   0.207  16.254 -0.3869  0.4800  0.3713
  267MPD2     C 4035   0.956   1.012  17.385 -0.1357 -0.1172  1.1410
  267MPD2    C1 4036   1.076   1.011  17.317 -0.8479  0.3709  0.0296
  267MPD2    C2 4037   1.084   0.950  17.190 -0.0647 -0.0702 -0.0157
  267MPD2    C3 4038   0.972   0.893  17.136 -0.1030  0.2313  0.3978
  267MPD2    C4 4039   0.856   0.880  17.218 -0.9914 -0.1694 -0.2860
  267MPD2    C5 4040   0.852   0.937  17.342  0.1089  1.3106  0.7833
  267MPD2     H 4041   1.176   0.947  17.133  1.5062 -0.2123  2.5061
  267MPD2    H1 4042   0.763   0.835  17.185 -2.5243  0.8736  2.5840
  267MPD2    H2 4043   0.937   1.070  17.474 -0.9159 -0.3515  1.1235
  267MPD2    H3 4044   0.763   0.939  17.404 -1.0088  1.6871 -0.8139
  267MPD2     N 4045   0.971   0.815  17.019  0.0649 -0.1626  0.3268
  267MPD2    H5 4046   0.887   0.762  17.003  1.1057 -1.3903 -1.0617
  267MPD2    N1 4047   1.181   1.092  17.382 -0.1543 -0.0053 -0.3280
  267MPD2    H7 4048   1.165   1.127  17.476 -1.3061 -1.0104 -0.1477
  268TMC3    C1 4049   1.356   1.240  17.387  0.1382 -0.0412  0.1107
  268TMC3    C2 4050   1.380   1.352  17.312  0.9179  0.0292 -0.1795
  268TMC3    C3 4051   1.398   1.475  17.373  0.1106 -0.5200 -0.1301
  268TMC3    C4 4052   1.341   1.254  17.525  0.4183 -0.3013  0.7925
  268TMC3    C5 4053   1.365   1.373  17.589 -0.2473  1.1055 -0.2927
  268TMC3    C6 4054   1.382   1.486  17.512  0.2171 -0.1390  0.6502
  268TMC3     C 4055   1.293   1.128  17.317 -0.0060  0.0898 -0.5197
  268TMC3     O 4056   1.335   1.101  17.201 -0.4639 -0.5959  0.0577
  268TMC3     H 4057   1.388   1.341  17.204  1.9778  1.4532 -0.2446
  268TMC3    H1 4058   1.322   1.174  17.595  0.9187 -0.0721  1.1930
  268TMC3    H2 4059   1.403   1.580  17.562  0.5591 -0.1601  0.5455
  268TMC3    C7 4060   1.463   1.362  17.695 -0.1107  0.7986  0.0119
  268TMC3    C8 4061   1.398   1.604  17.298  0.0912  0.4228 -0.1374
  268TMC3    O1 4062   1.519   1.254   0.002  0.2322 -0.3473 -0.4898
  268TMC3    O2 4063   1.386   1.705  17.373  0.5282  1.0770  0.2371
  269MPD2     C 4064   2.055   4.668  16.042 -0.0043 -0.3344  0.5765
  269MPD2    C1 4065   1.955   4.673  15.941 -0.1842 -0.0304  0.6649
  269MPD2    C2 4066   1.973   0.048  15.845  0.5407 -0.3347  0.2897
  269MPD2    C3 4067   2.077   0.136  15.846  0.2635 -1.0938  1.0630
  269MPD2    C4 4068   2.167   0.129  15.947 -0.8801  0.4276  0.0271
  269MPD2    C5 4069   2.162   0.026  16.038  0.6824 -0.4469  0.1277
  269MPD2     H 4070   1.906   0.067  15.763  0.2725  0.5842  0.7164
  269MPD2    H1 4071   2.257   0.189  15.952 -0.7812  0.3205 -0.4074
  269MPD2    H2 4072   2.057   4.600  16.126  0.3626  0.4252  1.1810
  269MPD2    H3 4073   2.243   0.032  16.109  1.0746  0.6667 -0.4202
  269MPD2     N 4074   2.078   0.236  15.744 -0.0682  0.6950  0.3481
  269MPD2    H5 4075   2.014   0.228  15.666 -1.1197  1.3704  1.1378
  269MPD2    N1 4076   1.853   4.577  15.934 -0.4205 -0.0319  0.0704
  269MPD2    H7 4077   1.844   4.507  16.007 -1.7490 -1.5022 -1.5092
  270TMC3    C1 4078   1.688   4.444  15.848 -0.2804  0.8148 -0.0369
  270TMC3    C2 4079   1.589   4.435  15.755  0.9003 -0.1535 -0.4369
  270TMC3    C3 4080   1.537   4.304  15.742  0.4152  0.1494 -0.8435
  270TMC3    C4 4081   1.722   4.347  15.933  0.2774  0.1560  0.1044
  270TMC3    C5 4082   1.665   4.222  15.912  0.4793  0.3927 -0.4030
  270TMC3    C6 4083   1.573   4.195  15.820 -0.1517  0.2402 -0.8221
  270TMC3     C 4084   1.761   4.567  15.837 -0.1666  0.0268  0.7574
  270TMC3     O 4085   1.738   4.640  15.742  0.0784  0.1274 -0.0974
  270TMC3     H 4086   1.542   4.516  15.702 -2.5232 -2.3390 -0.7489
  270TMC3    H1 4087   1.804   4.355  16.004  0.3361  0.6648 -0.0252
  270TMC3    H2 4088   1.533   4.095  15.814 -2.2824  0.9556  1.5072
  270TMC3    C7 4089   1.731   4.112  15.982 -0.3379  0.4120  0.0161
  270TMC3    C8 4090   1.489   4.280  15.606  0.8386  0.0780 -0.3502
  270TMC3    O1 4091   1.745   4.119  16.102  0.3324 -0.2546 -0.2354
  270TMC3    O2 4092   1.530   4.349  15.514  0.1834 -0.5305 -0.2040
  271MPD2     C 4093   1.019   4.464  14.135 -1.1575  0.1196 -0.3403
  271MPD2    C1 4094   0.961   4.395  14.240 -0.3617 -0.9326  0.0213
  271MPD2    C2 4095   0.821   4.399  14.258  0.4499  0.0251 -0.3503
  271MPD2    C3 4096   0.748   4.489  14.186 -0.0230  0.8157  0.5090
  271MPD2    C4 4097   0.805   4.553  14.082 -0.4987 -0.2017 -0.0434
  271MPD2    C5 4098   0.939   4.537  14.054  0.0071 -0.4645  0.3108
  271MPD2     H 4099   0.777   4.340  14.338  1.0112 -0.6307 -0.5128
  271MPD2    H1 4100   0.744   4.610  14.014 -0.1154 -0.6230 -0.7351
  271MPD2    H2 4101   1.122   4.448  14.107 -1.0536  0.3251 -0.0626
  271MPD2    H3 4102   0.977   4.577  13.961 -0.4007 -1.8486 -0.4513
  271MPD2     N 4103   0.607   4.503  14.188 -0.1322  0.2776 -0.7413
  271MPD2    H5 4104   0.560   4.559  14.118  0.1384  1.0356 -0.3080
  271MPD2    N1 4105   1.028   4.302  14.322  0.4511 -0.0218 -0.6644
  271MPD2    H7 4106   0.975   4.263  14.398  0.0574  0.9150 -0.4548
  272TMC3    C1 4107   1.217   4.186  14.415 -0.1852 -0.3935  0.4708
  272TMC3    C2 4108   1.324   4.107  14.390  0.0177  0.2480  0.5548
  272TMC3    C3 4109   1.398   4.068  14.496  0.0002 -0.7377 -0.7170
  272TMC3    C4 4110   1.174   4.216  14.538  0.1397  0.4663  0.1988
  272TMC3    C5 4111   1.253   4.176  14.645 -0.4542  0.5409  0.4753
  272TMC3    C6 4112   1.371   4.107  14.624 -0.4738 -0.0452  0.2622
  272TMC3     C 4113   1.162   4.263  14.302  0.3524 -0.1843  0.0273
  272TMC3     O 4114   1.216   4.269  14.193  0.0350  0.5719  0.2664
  272TMC3     H 4115   1.350   4.060  14.295 -1.7456 -1.3665  0.8568
  272TMC3    H1 4116   1.085   4.273  14.565 -1.8204 -2.3296 -0.3736
  272TMC3    H2 4117   1.419   4.073  14.714 -0.0287  0.9702  0.4082
  272TMC3    C7 4118   1.218   4.214  14.784  0.5303 -0.0671 -0.6841
  272TMC3    C8 4119   1.542   4.042  14.467 -0.1094  0.4116 -0.6264
  272TMC3    O1 4120   1.097   4.216  14.813  0.5514 -0.1461 -0.4792
  272TMC3    O2 4121   1.587   4.098  14.367 -0.5304 -0.0388  0.4420
  273MPD2     C 4122   2.516   2.325  12.127 -0.1492  0.2746  0.2429
  273MPD2    C1 4123   2.627   2.410  12.128 -0.5170 -0.3212  0.5586
  273MPD2    C2 4124   2.670   2.454  12.006 -0.2965  0.0682 -0.2501
  273MPD2    C3 4125   2.604   2.422  11.888 -0.1385  0.3937  0.0684
  273MPD2    C4 4126   2.491   2.345  11.888 -0.5797  0.4175  0.0873
  273MPD2    C5 4127   2.459   2.291  12.008 -0.1986 -0.5372 -0.1509
  273MPD2     H 4128   2.751   2.527  12.007 -1.4971  1.4038  0.9213
  273MPD2    H1 4129   2.430   2.333  11.800 -1.3083  0.1576  0.6294
  273MPD2    H2 4130   2.503   2.276  12.223 -1.1502  2.7392  1.3904
  273MPD2    H3 4131   2.387   2.211  12.005 -1.1313  0.3855 -2.4341
  273MPD2     N 4132   2.644   2.466  11.757  0.0667 -0.1840  0.4384
  273MPD2    H5 4133   2.610   2.410  11.679  1.6671  2.4390 -2.1456
  273MPD2    N1 4134   2.691   2.441  12.251  0.3856  0.9537 -0.2339
  273MPD2    H7 4135   2.629   2.438  12.332 -0.3730 -2.1963 -0.9387
  274TMC3    C1 4136   2.775   2.587  11.595 -0.8684 -0.0357 -0.0110
  274TMC3    C2 4137   2.693   2.565  11.484  0.6472 -1.3000  0.4687
  274TMC3    C3 4138   2.747   2.593  11.357  0.0474 -0.5972 -0.2201
  274TMC3    C4 4139   2.899   2.647  11.581  0.6269  0.3520  0.3971
  274TMC3    C5 4140   2.954   2.653  11.452 -0.8300  0.9599 -0.9523
  274TMC3    C6 4141   2.887   2.615  11.338 -0.0162  0.2354 -0.4641
  274TMC3     C 4142   2.730   2.568  11.737  0.5483 -0.3788 -0.6166
  274TMC3     O 4143   2.769   2.642  11.825 -0.8160 -0.3582  0.0028
  274TMC3     H 4144   2.590   2.541  11.507  0.2658  0.2962  0.4219
  274TMC3    H1 4145   2.950   2.657  11.676 -1.4030  1.6991  1.3517
  274TMC3    H2 4146   2.927   2.636  11.240 -0.4189  2.2247 -0.2007
  274TMC3    C7 4147   3.068   2.742  11.438 -0.4451  0.8066  0.1035
  274TMC3    C8 4148   2.651   2.628  11.245 -1.1836 -0.2492 -0.4322
  274TMC3    O1 4149   3.148   2.724  11.346 -0.2205 -0.0976  0.3250
  274TMC3    O2 4150   2.535   2.601  11.265  0.0478 -0.3712 -0.3925
  275MPD2     C 4151   2.788   0.296  14.378  1.0060  0.4228  0.4444
  275MPD2    C1 4152   2.730   0.341  14.500  0.1110 -0.2010 -0.7576
  275MPD2    C2 4153   2.593   0.353  14.507  0.3833 -0.2637 -0.3049
  275MPD2    C3 4154   2.511   0.328  14.396 -0.5580 -0.1650 -0.2724
  275MPD2    C4 4155   2.570   0.271  14.285 -0.2739  0.6447  0.1562
  275MPD2    C5 4156   2.705   0.255  14.281 -0.2030  0.0731  0.3235
  275MPD2     H 4157   2.544   0.390  14.597  2.6980  0.5514  0.6166
  275MPD2    H1 4158   2.511   0.251  14.196  0.1829 -1.3172  0.2940
  275MPD2    H2 4159   2.891   0.268  14.360  0.5279 -1.5601  0.8174
  275MPD2    H3 4160   2.746   0.201  14.196  2.1331  2.0954  0.1715
  275MPD2     N 4161   2.367   0.341  14.403  0.0114  0.3273 -0.3032
  275MPD2    H5 4162   2.323   0.300  14.321  0.4827  0.7307 -0.7606
  275MPD2    N1 4163   2.809   0.365  14.611  0.1504  0.1229 -0.4325
  275MPD2    H7 4164   2.758   0.388  14.695 -0.4396 -0.2773 -0.6826
  276TMC3    C1 4165   2.969   0.411  14.759 -0.7182  0.4317  1.0470
  276TMC3    C2 4166   2.873   0.395  14.863  0.0088  0.6910  0.2789
  276TMC3    C3 4167   2.912   0.426  14.985 -0.5070  0.0669  0.0376
  276TMC3    C4 4168   3.099   0.444  14.786 -0.5690 -0.0970 -0.9322
  276TMC3    C5 4169   3.133   0.481  14.913 -0.2492  0.5059  0.1550
  276TMC3    C6 4170   3.041   0.468  15.014 -0.2627 -0.8628  0.3826
  276TMC3     C 4171   2.944   0.370  14.624 -0.1024 -0.9320  0.5125
  276TMC3     O 4172   3.034   0.337  14.551 -0.0251 -0.1298 -0.0849
  276TMC3     H 4173   2.765   0.386  14.855 -0.0379  0.6652  0.9535
  276TMC3    H1 4174   3.165   0.453  14.700  1.9132 -1.1004  0.8914
  276TMC3    H2 4175   3.070   0.505  15.111 -1.6939 -0.5168  0.6788
  276TMC3    C7 4176   3.225   0.586  14.945 -0.2776  0.0428  0.0897
  276TMC3    C8 4177   2.821   0.402  15.090  0.4576 -0.9181  0.0462
  276TMC3    O1 4178   3.184   0.666  15.030 -0.3630  0.2294 -0.0742
  276TMC3    O2 4179   2.722   0.471  15.096  0.4539  0.3371 -0.1246
  277MPD2     C 4180   0.070   4.248  13.827 -0.0928  0.6615 -0.0540
  277MPD2    C1 4181   4.671   4.265  13.773  0.2237 -0.5022  0.7352
  277MPD2    C2 4182   4.570   4.227  13.862  0.0031  0.3161  0.0034
  277MPD2    C3 4183   4.591   4.173  13.988 -1.1424  0.5473  0.2439
  277MPD2    C4 4184   4.718   4.147  14.030  0.4576 -0.0729 -1.1448
  277MPD2    C5 4185   0.085   4.186  13.948  0.0179 -0.5310  0.0704
  277MPD2     H 4186   4.466   4.242  13.834  0.0561 -1.8945 -1.3906
  277MPD2    H1 4187   0.012   4.097  14.124  0.0007 -0.0501 -1.0287
  277MPD2    H2 4188   0.154   4.278  13.766  0.8864 -2.2939 -0.1600
  277MPD2    H3 4189   0.188   4.172  13.978 -0.3765 -0.9725  1.2301
  277MPD2     N 4190   4.476   4.148  14.066  0.2472  0.5539  0.2202
  277MPD2    H5 4191   4.387   4.174  14.023  0.5659 -0.7455 -1.2127
  277MPD2    N1 4192   4.652   4.317  13.642  0.7587 -0.2018 -0.0978
  277MPD2    H7 4193   0.009   4.343  13.591  0.1797  2.7181  0.4373
  278TMC3    C1 4194   4.325   4.077  14.223  0.1930  0.2166 -0.2777
  278TMC3    C2 4195   4.281   3.968  14.293  0.0735  0.1368 -0.7168
  278TMC3    C3 4196   4.148   3.951  14.300 -0.2328  0.1061 -0.0459
  278TMC3    C4 4197   4.242   4.181  14.178 -0.1045  0.6788 -0.0798
  278TMC3    C5 4198   4.111   4.156  14.194  0.2885  0.0939 -0.0804
  278TMC3    C6 4199   4.061   4.045  14.254 -0.5336 -0.4440  0.9845
  278TMC3     C 4200   4.464   4.085  14.185 -0.2922  1.0615 -0.3150
  278TMC3     O 4201   4.551   4.024  14.246  0.1587 -0.3629 -0.1868
  278TMC3     H 4202   4.345   3.881  14.307  0.5168  0.6595  0.5201
  278TMC3    H1 4203   4.277   4.266  14.121 -0.9106 -0.2933 -2.0190
  278TMC3    H2 4204   3.955   4.029  14.267 -0.7298  0.9801  1.1513
  278TMC3    C7 4205   4.025   4.233  14.104  0.2002 -0.4579  0.7256
  278TMC3    C8 4206   4.098   3.821  14.316  0.9226 -0.6040 -0.1099
  278TMC3    O1 4207   4.067   4.291  14.004 -0.7344 -0.6622  0.2668
  278TMC3    O2 4208   4.146   3.746  14.399 -0.2553  0.2700 -0.2741
  279MPD2     C 4209   3.836   0.341   0.527 -0.2913 -0.6215  0.0491
  279MPD2    C1 4210   3.781   0.216   0.498  0.2609  0.8232  0.0698
  279MPD2    C2 4211   3.864   0.102   0.489 -0.0341 -0.1534 -0.5349
  279MPD2    C3 4212   3.999   0.114   0.511  0.1294  0.7016 -0.2990
  279MPD2    C4 4213   4.050   0.241   0.520  0.2771 -0.0369  0.5834
  279MPD2    C5 4214   3.968   0.350   0.530  0.0297 -0.5801 -0.5276
  279MPD2     H 4215   3.829   0.006   0.452  2.0767 -0.4107 -1.8953
  279MPD2    H1 4216   4.158   0.247   0.523  0.2063  0.9081  1.2866
  279MPD2    H2 4217   3.781   0.434   0.537 -0.3532 -0.5893 -0.6556
  279MPD2    H3 4218   4.017   0.442   0.561  0.5764 -0.5942 -1.3586
  279MPD2     N 4219   4.075   0.001   0.487  0.3641 -0.2634 -0.6258
  279MPD2    H5 4220   4.027   4.651   0.443  0.4855 -0.7861  0.1649
  279MPD2    N1 4221   3.639   0.200   0.479 -0.2946 -0.1419 -0.6368
  279MPD2    H7 4222   3.583   0.280   0.452  1.6065  1.0086 -1.0769
  280TMC3    C1 4223   3.440   0.103   0.406  0.0956  0.1490  0.0186
  280TMC3    C2 4224   3.354   4.722   0.407 -0.1066  0.5479  0.0328
  280TMC3    C3 4225   3.251   4.714   0.319  0.5332 -0.1735 -1.1513
  280TMC3    C4 4226   3.419   0.204   0.318 -0.3485 -0.5535 -0.6297
  280TMC3    C5 4227   3.302   0.202   0.248 -0.0241 -0.0221  0.3668
  280TMC3    C6 4228   3.216   0.096   0.245 -0.5912  0.2993 -0.4353
  280TMC3     C 4229   3.579   0.083   0.455 -0.3914  0.0125  0.6749
  280TMC3     O 4230   3.600   4.698   0.497 -0.2934 -0.6304  0.4295
  280TMC3     H 4231   3.377   4.648   0.483 -0.1405  1.3689  0.8553
  280TMC3    H1 4232   3.478   0.294   0.308 -2.2106  0.7032 -0.4479
  280TMC3    H2 4233   3.141   0.075   0.170 -0.3112  1.5643 -1.0693
  280TMC3    C7 4234   3.274   0.324   0.169  0.2752  0.1915 -0.5458
  280TMC3    C8 4235   3.167   4.595   0.322 -0.5236  0.7314 -0.4802
  280TMC3    O1 4236   3.373   0.397   0.142 -0.1656  0.1267 -0.3570
  280TMC3    O2 4237   3.061   4.609   0.262 -0.0644  0.0792  0.4025
  281TMC3    C1 4238   2.403   3.977  13.185 -0.1732  0.7058  0.0649
  281TMC3    C2 4239   2.399   3.964  13.049 -0.1368 -0.4639 -0.2341
  281TMC3    C3 4240   2.360   3.846  12.996  0.0229 -0.6918  0.2769
  281TMC3    C4 4241   2.372   3.876  13.268  0.3866 -0.4286  0.6107
  281TMC3    C5 4242   2.341   3.755  13.209  0.1506 -0.0344 -0.2153
  281TMC3    C6 4243   2.340   3.735  13.078  0.2689 -0.8793 -0.1590
  281TMC3     C 4244   2.425   4.107  13.245  0.2147  0.1625 -1.0688
  281TMC3     O 4245   2.453   4.114  13.363  0.3543 -0.0288 -1.0019
  281TMC3     H 4246   2.424   4.039  12.975  2.9979 -1.2699  0.0048
  281TMC3    H1 4247   2.378   3.893  13.374 -1.8540  0.4959  0.5836
  281TMC3    H2 4248   2.285   3.650  13.039  0.7901 -0.1495 -2.5152
  281TMC3    C7 4249   2.247   3.674  13.285 -0.0288  0.0636 -0.2713
  281TMC3    C8 4250   2.364   3.816  12.852 -0.3250  0.7803 -0.2952
  281TMC3    O1 4251   2.245   3.560  13.255  0.2181 -0.0499 -0.3583
  281TMC3    O2 4252   2.415   3.708  12.831  0.0701  0.5774  0.3636
  282MPD2     C 4253   4.431   1.188  15.094 -1.1819 -0.2141  0.2629
  282MPD2    C1 4254   4.300   1.213  15.103 -0.3784  0.2559 -1.0071
  282MPD2    C2 4255   4.227   1.216  14.987  0.2800  0.3678 -0.0228
  282MPD2    C3 4256   4.283   1.207  14.863 -0.5744 -1.3268  0.7232
  282MPD2    C4 4257   4.421   1.181  14.859 -0.1769  0.2627  0.5007
  282MPD2    C5 4258   4.499   1.162  14.977 -0.0910  0.0134 -0.3606
  282MPD2     H 4259   4.122   1.242  14.997 -0.3103 -1.4989 -1.3013
  282MPD2    H1 4260   4.475   1.158  14.768 -1.6399  0.4954 -0.4090
  282MPD2    H2 4261   4.490   1.166  15.182 -2.8092  2.1336  1.9389
  282MPD2    H3 4262   4.604   1.135  14.966  0.2145  0.8102  0.6214
  282MPD2     N 4263   4.205   1.221  14.744 -0.9911  0.1081 -0.8972
  282MPD2    H5 4264   4.105   1.238  14.753 -1.1565 -2.3124  2.1969
  282MPD2    N1 4265   4.235   1.222  15.227  0.0075 -0.0191 -0.0902
  282MPD2    H7 4266   4.134   1.229  15.226  0.1006  1.3239 -0.4516
  283TMC3    C1 4267   4.212   1.255  15.454 -0.2619  0.3014  0.1367
  283TMC3    C2 4268   4.239   1.363  15.535  0.2824  0.3586 -0.3399
  283TMC3    C3 4269   4.190   1.351  15.663 -0.1629  0.2477  0.2642
  283TMC3    C4 4270   4.140   1.147  15.487 -0.5253  0.2477  0.1830
  283TMC3    C5 4271   4.081   1.150  15.610  0.3592 -0.1189  1.0328
  283TMC3    C6 4272   4.112   1.249  15.702  0.4297 -0.1361 -0.3362
  283TMC3     C 4273   4.300   1.242  15.345  0.7993  0.2848 -0.5072
  283TMC3     O 4274   4.412   1.287  15.358 -0.0225  0.4598 -0.4229
  283TMC3     H 4275   4.299   1.447  15.502 -0.8644  1.3539  0.1231
  283TMC3    H1 4276   4.126   1.062  15.423  2.6334  0.2574 -0.5063
  283TMC3    H2 4277   4.055   1.262  15.794 -1.5848 -0.0357 -1.5790
  283TMC3    C7 4278   3.993   1.051  15.661  0.5948  0.1981  0.4471
  283TMC3    C8 4279   4.183   1.473  15.745 -0.3134  0.1635 -0.2405
  283TMC3    O1 4280   3.967   1.051  15.781 -0.1113  0.3522 -0.1444
  283TMC3    O2 4281   4.167   1.456  15.865  0.3226  0.6498  0.5889
  284MPD2     C 4282   2.347   0.629  11.572 -0.5166 -0.4742  0.1500
  284MPD2    C1 4283   2.471   0.631  11.521 -0.4948 -0.0678 -0.2464
  284MPD2    C2 4284   2.567   0.553  11.578 -0.6333 -0.6089 -0.4158
  284MPD2    C3 4285   2.541   0.462  11.678  0.1421  0.6944 -0.2169
  284MPD2    C4 4286   2.414   0.466  11.733 -0.0195  0.6010 -0.5396
  284MPD2    C5 4287   2.315   0.551  11.683  0.0751  0.0042 -0.5553
  284MPD2     H 4288   2.664   0.548  11.530  1.4784  1.1777  3.6200
  284MPD2    H1 4289   2.400   0.414  11.827  1.8015 -0.1755 -0.7064
  284MPD2    H2 4290   2.262   0.681  11.529  0.5127 -0.8185 -2.2994
  284MPD2    H3 4291   2.216   0.547  11.727 -0.0016 -0.4741 -0.7661
  284MPD2     N 4292   2.654   0.386  11.720 -0.3376 -0.0274 -0.0006
  284MPD2    H5 4293   2.744   0.398  11.673 -0.9693  0.7841 -0.9998
  284MPD2    N1 4294   2.496   0.709  11.412  0.2022 -0.1521  0.0079
  284MPD2    H7 4295   2.583   0.707  11.361  1.3701  1.4992  1.9153
  285TMC3    C1 4296   2.522   0.910  11.306  0.0494  1.0901 -0.1447
  285TMC3    C2 4297   2.619   0.843  11.236  0.1891 -0.9982 -0.1430
  285TMC3    C3 4298   2.748   0.898  11.225  0.1478  0.0591  0.2042
  285TMC3    C4 4299   2.555   1.034  11.366 -0.0339 -0.0572  0.0938
  285TMC3    C5 4300   2.681   1.084  11.351 -1.2245 -0.2790 -0.1908
  285TMC3    C6 4301   2.781   1.015  11.281 -0.3540  0.7044 -0.1163
  285TMC3     C 4302   2.427   0.824  11.379  0.3677  0.7905  0.2904
  285TMC3     O 4303   2.321   0.878  11.424 -0.0941 -0.1757  0.3550
  285TMC3     H 4304   2.598   0.744  11.196 -0.2276 -1.4453  1.1708
  285TMC3    H1 4305   2.483   1.091  11.424 -1.3127 -0.2496 -1.3011
  285TMC3    H2 4306   2.878   1.057  11.260  0.0317  0.8037  1.9432
  285TMC3    C7 4307   2.724   1.194  11.425  0.8908 -1.0101 -0.4177
  285TMC3    C8 4308   2.855   0.805  11.196  0.3599  0.7785  1.0037
  285TMC3    O1 4309   2.804   1.264  11.372  1.0915  0.2429 -0.2124
  285TMC3    O2 4310   2.818   0.724  11.111  0.1342 -0.1757  0.2215
  286MPD2     C 4311   2.171   4.131   1.541 -0.5634 -0.1838 -0.4102
  286MPD2    C1 4312   2.167   4.124   1.404 -0.3736  0.3647 -0.1866
  286MPD2    C2 4313   2.237   4.032   1.331  0.9068  0.5392 -0.0716
  286MPD2    C3 4314   2.312   3.941   1.405  0.6243  0.4159 -0.2852
  286MPD2    C4 4315   2.322   3.947   1.542  0.2769  0.0022  0.4222
  286MPD2    C5 4316   2.244   4.042   1.611 -0.4892  0.3001 -0.5197
  286MPD2     H 4317   2.232   4.027   1.222  1.8674 -0.9286 -0.0567
  286MPD2    H1 4318   2.384   3.879   1.598  3.0173  2.0877 -0.0590
  286MPD2    H2 4319   2.106   4.191   1.604 -2.2853 -2.8835  0.3889
  286MPD2    H3 4320   2.244   4.049   1.719  0.9694  1.6626 -0.6074
  286MPD2     N 4321   2.381   3.835   1.345  0.4655  0.1602  0.0436
  286MPD2    H5 4322   2.447   3.780   1.400  0.2008 -0.4358 -0.2335
  286MPD2    N1 4323   2.091   4.225   1.337  0.4606 -0.3745 -0.3334
  286MPD2    H7 4324   2.133   4.245   1.247 -2.1251  0.8101 -1.2721
  287TMC3    C1 4325   2.461   3.681   1.178 -0.1148 -0.3172  0.2590
  287TMC3    C2 4326   2.448   3.625   1.051 -0.0353 -0.0864  0.5345
  287TMC3    C3 4327   2.520   3.513   1.028 -0.3084  0.0348  0.3900
  287TMC3    C4 4328   2.538   3.620   1.274 -0.3255  0.0127  0.3569
  287TMC3    C5 4329   2.612   3.515   1.238 -0.0800  0.4463  0.4228
  287TMC3    C6 4330   2.589   3.443   1.123  0.8768  0.2954  0.4899
  287TMC3     C 4331   2.372   3.789   1.213  0.1902 -0.3835 -0.0995
  287TMC3     O 4332   2.288   3.821   1.126 -0.0710  0.1439  0.2139
  287TMC3     H 4333   2.377   3.666   0.980 -0.8968 -2.6459 -0.0650
  287TMC3    H1 4334   2.550   3.664   1.372  1.0670  1.1602 -0.3196
  287TMC3    H2 4335   2.660   3.365   1.096  0.5570 -0.2784  1.3130
  287TMC3    C7 4336   2.714   3.475   1.329 -0.5450  0.0375 -0.6148
  287TMC3    C8 4337   2.502   3.449   0.901 -0.6577  0.7473  0.1530
  287TMC3    O1 4338   2.696   3.510   1.446 -0.6033 -0.1716  0.5418
  287TMC3    O2 4339   2.525   3.329   0.890  0.3184 -0.1525 -0.1716
  288TMC3    C1 4340   4.554   3.821  14.980 -0.3496 -0.3591 -0.0021
  288TMC3    C2 4341   4.479   3.827  15.097  0.7236 -0.0245 -0.7524
  288TMC3    C3 4342   4.366   3.900  15.091 -0.3981  0.4052  0.2459
  288TMC3    C4 4343   4.523   3.876  14.860  0.4212 -0.6050  0.0585
  288TMC3    C5 4344   4.406   3.947  14.863  0.4158  0.1502  0.1149
  288TMC3    C6 4345   4.327   3.960  14.979  0.0448 -0.3931 -0.1178
  288TMC3     C 4346   4.689   3.773  15.003  0.2121  0.4107 -0.0282
  288TMC3     O 4347   4.714   3.738  15.116 -0.6076 -0.3058  0.0731
  288TMC3     H 4348   4.497   3.763  15.183 -0.3507  1.7103  0.7753
  288TMC3    H1 4349   4.585   3.854  14.774  1.9650  1.3228  0.6682
  288TMC3    H2 4350   4.238   4.022  14.976 -0.0919 -0.5821  0.0924
  288TMC3    C7 4351   4.382   4.036  14.755  1.0735 -0.0279 -0.8882
  288TMC3    C8 4352   4.276   3.905  15.198  0.0828 -0.1994  0.6700
  288TMC3    O1 4353   4.264   4.061  14.744 -0.1521  0.1224  0.8452
  288TMC3    O2 4354   4.237   4.021  15.222 -0.0071  0.5761 -0.0911
  289MPD2     C 4355   4.417   2.702  14.900 -0.0667  0.0002 -0.6870
  289MPD2    C1 4356   4.390   2.836  14.870 -0.1109 -0.2393  0.1227
  289MPD2    C2 4357   4.260   2.861  14.829 -0.7057 -0.5004 -1.2919
  289MPD2    C3 4358   4.161   2.757  14.830 -0.0192 -0.0828 -0.2107
  289MPD2    C4 4359   4.196   2.629  14.861  0.1366 -0.5001  0.4926
  289MPD2    C5 4360   4.320   2.602  14.901 -0.3007 -0.8485  0.5552
  289MPD2     H 4361   4.230   2.962  14.804  0.4425  0.2317  0.3245
  289MPD2    H1 4362   4.114   2.558  14.854  0.8138 -1.2778  0.3583
  289MPD2    H2 4363   4.517   2.672  14.930  0.3988  2.0733 -0.1904
  289MPD2    H3 4364   4.341   2.498  14.924 -0.5832 -1.1895 -0.7088
  289MPD2     N 4365   4.023   2.791  14.802 -0.2785  0.5389  0.3176
  289MPD2    H5 4366   3.958   2.716  14.782 -0.6742  1.2322 -1.0044
  289MPD2    N1 4367   4.489   2.924  14.846 -0.2208  0.2090  0.5270
  289MPD2    H7 4368   4.459   3.008  14.799 -1.4597  0.1085  1.1492
  290TMC3    C1 4369   3.848   2.913  14.721  0.3433  0.0429  0.3925
  290TMC3    C2 4370   3.811   3.032  14.669 -0.1351 -0.1552 -0.3312
  290TMC3    C3 4371   3.684   3.047  14.627  0.4903  0.5510  0.1044
  290TMC3    C4 4372   3.759   2.808  14.746  0.2947  0.6363 -0.3695
  290TMC3    C5 4373   3.632   2.820  14.688 -0.4297  0.4959  0.1248
  290TMC3    C6 4374   3.592   2.942  14.624  0.2518 -0.6394 -0.0412
  290TMC3     C 4375   3.973   2.917  14.785 -0.3225  0.6715 -0.4154
  290TMC3     O 4376   4.019   3.026  14.817  0.0155  0.1880  0.2127
  290TMC3     H 4377   3.883   3.112  14.656  2.6190 -2.8819 -1.8077
  290TMC3    H1 4378   3.774   2.721  14.810 -0.3018 -0.0417 -1.1541
  290TMC3    H2 4379   3.489   2.960  14.597  0.7268  1.6930 -0.2429
  290TMC3    C7 4380   3.547   2.706  14.673  0.2067 -0.5658 -0.0023
  290TMC3    C8 4381   3.639   3.170  14.552  0.4939  0.9381  0.7123
  290TMC3    O1 4382   3.427   2.727  14.658 -0.0200 -0.2921  0.0462
  290TMC3    O2 4383   3.555   3.158  14.466 -0.2554  0.0119 -0.4205
  291MPD2     C 4384   3.183   3.381   0.349  0.3183 -0.8270  0.0434
  291MPD2    C1 4385   3.290   3.307   0.400 -0.9206 -0.3056  0.8332
  291MPD2    C2 4386   3.398   3.364   0.471  1.4121 -0.2640 -0.2877
  291MPD2    C3 4387   3.407   3.495   0.485  0.3201  0.2496 -0.4999
  291MPD2    C4 4388   3.306   3.574   0.437 -0.0448  0.0673  0.5159
  291MPD2    C5 4389   3.199   3.515   0.376 -0.2170  0.1910  0.5576
  291MPD2     H 4390   3.483   3.304   0.502  0.2338 -2.3825 -1.1972
  291MPD2    H1 4391   3.321   3.679   0.462 -0.4028  0.0695  0.7313
  291MPD2    H2 4392   3.097   3.335   0.301 -0.0291  1.7124 -1.7522
  291MPD2    H3 4393   3.120   3.583   0.346 -1.5631 -1.6973 -0.1612
  291MPD2     N 4394   3.521   3.566   0.537  0.0644 -0.8021 -0.1426
  291MPD2    H5 4395   3.527   3.666   0.517  2.4243 -0.3185  3.1391
  291MPD2    N1 4396   3.293   3.166   0.388  0.1190  0.5188 -0.2662
  291MPD2    H7 4397   3.361   3.117   0.445 -2.3526 -0.1350  2.1357
  292TMC3    C1 4398   3.197   2.954   0.346  0.3115 -0.1567 -0.2894
  292TMC3    C2 4399   3.197   2.921   0.475  0.2973 -0.9200 -0.1076
  292TMC3    C3 4400   3.205   2.790   0.509  0.4371 -0.6708  0.3471
  292TMC3    C4 4401   3.177   2.865   0.250  1.3346 -0.2769  1.5344
  292TMC3    C5 4402   3.167   2.732   0.282 -0.0279 -0.2526  0.3776
  292TMC3    C6 4403   3.183   2.697   0.413  0.2004  0.1269  0.3904
  292TMC3     C 4404   3.212   3.088   0.307 -0.4939 -1.1355 -0.3438
  292TMC3     O 4405   3.173   3.120   0.195 -0.8320  0.0039 -0.6648
  292TMC3     H 4406   3.209   2.998   0.551 -1.2948 -1.4786  0.7098
  292TMC3    H1 4407   3.185   2.894   0.145  0.8745 -1.1705  1.2487
  292TMC3    H2 4408   3.190   2.591   0.435  1.0823  0.2278  0.6066
  292TMC3    C7 4409   3.126   2.629   0.180 -0.1590 -0.6808  0.2333
  292TMC3    C8 4410   3.134   2.774   0.637  0.5851  0.2642  0.0500
  292TMC3    O1 4411   3.118   2.513   0.213  0.0972  0.2593 -0.4449
  292TMC3    O2 4412   3.186   2.825   0.734  0.2791  0.4200 -0.5572
  293MPD2     C 4413   0.645   3.873  13.109 -0.1430  0.3096 -0.4415
  293MPD2    C1 4414   0.568   3.907  13.220 -0.3731 -0.5805  0.0787
  293MPD2    C2 4415   0.642   3.933  13.335 -0.0149 -0.5207 -0.2830
  293MPD2    C3 4416   0.781   3.945  13.335 -0.2204 -1.2915 -0.1329
  293MPD2    C4 4417   0.849   3.914  13.223  0.1541 -1.1678  0.1751
  293MPD2    C5 4418   0.782   3.885  13.113  0.2381  0.4614  0.0892
  293MPD2     H 4419   0.596   3.985  13.418  2.1755  1.1673 -0.1126
  293MPD2    H1 4420   0.956   3.927  13.208  0.5617  0.3074  4.3093
  293MPD2    H2 4421   0.600   3.856  13.012 -1.7745  0.6485  0.2401
  293MPD2    H3 4422   0.837   3.864  13.022  1.9835  1.2010  0.9794
  293MPD2     N 4423   0.840   3.993  13.450  0.3682  0.4190  0.2740
  293MPD2    H5 4424   0.786   4.016  13.533 -1.3324 -1.2194 -0.3874
  293MPD2    N1 4425   0.432   3.921  13.205 -0.8108 -0.1256 -0.5502
  293MPD2    H7 4426   0.391   3.933  13.113 -1.5255 -0.9624 -0.3458
  294TMC3    C1 4427   0.204   3.984  13.271 -0.3332 -0.0585  0.4998
  294TMC3    C2 4428   0.108   3.982  13.365  0.0757 -0.0858 -0.5943
  294TMC3    C3 4429   4.704   3.990  13.321 -0.9391 -0.2686  0.4133
  294TMC3    C4 4430   0.170   4.003  13.136  0.6782 -0.5360 -0.4319
  294TMC3    C5 4431   0.043   4.032  13.098  0.9178  0.0157  0.0961
  294TMC3    C6 4432   4.669   4.005  13.188  0.6327 -0.2690 -0.0859
  294TMC3     C 4433   0.343   3.938  13.307  0.3017  0.2335  0.0337
  294TMC3     O 4434   0.373   3.928  13.422 -0.2103  0.5412 -1.5967
  294TMC3     H 4435   0.127   3.952  13.467  1.7579 -1.8994 -1.4333
  294TMC3    H1 4436   0.246   4.008  13.059  0.4009  0.0731 -0.6689
  294TMC3    H2 4437   4.566   4.021  13.158  0.5504 -0.6698 -0.0164
  294TMC3    C7 4438   0.001   4.001  12.959  0.0649 -0.0031 -0.6228
  294TMC3    C8 4439   4.614   3.898  13.394  0.1512  0.0314  0.0597
  294TMC3    O1 4440   4.624   3.935  12.947 -0.0614  0.1791 -0.5857
  294TMC3    O2 4441   4.603   3.918  13.514  0.3835 -0.5637  0.0818
  295MPD2     C 4442   1.577   2.563   0.895 -0.1373 -0.3350  0.3426
  295MPD2    C1 4443   1.449   2.577   0.941 -0.0309 -0.0163 -0.7330
  295MPD2    C2 4444   1.436   2.576   1.075 -0.3717  0.5110 -0.6063
  295MPD2    C3 4445   1.541   2.564   1.164 -0.1296  0.5756 -0.6167
  295MPD2    C4 4446   1.669   2.578   1.118 -0.0573 -0.0974 -0.1479
  295MPD2    C5 4447   1.684   2.561   0.981  0.2615 -0.3901 -0.4481
  295MPD2     H 4448   1.336   2.567   1.115 -0.5234  1.1424 -0.8460
  295MPD2    H1 4449   1.754   2.584   1.184  0.1169 -0.9957 -0.2822
  295MPD2    H2 4450   1.595   2.558   0.789  0.7985 -3.2082  0.6260
  295MPD2    H3 4451   1.778   2.550   0.929 -0.2151  0.1948 -1.4222
  295MPD2     N 4452   1.513   2.538   1.304 -0.1424  0.4175 -0.7485
  295MPD2    H5 4453   1.593   2.540   1.367  0.6371  0.2757 -1.7407
  295MPD2    N1 4454   1.340   2.601   0.855 -0.3775  1.1948 -0.4011
  295MPD2    H7 4455   1.254   2.635   0.897  0.0777  0.5433  1.0741
  296TMC3    C1 4456   1.415   2.497   1.510 -0.2607 -0.6992 -0.0708
  296TMC3    C2 4457   1.304   2.507   1.585 -0.6672 -0.1117  0.3215
  296TMC3    C3 4458   1.312   2.465   1.714  0.1989 -0.2040  0.2238
  296TMC3    C4 4459   1.528   2.435   1.554  0.3710  0.4356 -0.0114
  296TMC3    C5 4460   1.531   2.386   1.680  0.5955 -1.0264  0.3112
  296TMC3    C6 4461   1.422   2.398   1.762  0.2680 -0.0674 -0.0734
  296TMC3     C 4462   1.392   2.526   1.369 -0.0194 -0.5387  0.0452
  296TMC3     O 4463   1.280   2.559   1.331  0.4046 -0.1790 -0.1797
  296TMC3     H 4464   1.206   2.539   1.551 -0.1285 -0.5849 -1.6961
  296TMC3    H1 4465   1.608   2.409   1.485  0.5161 -0.1975  0.3939
  296TMC3    H2 4466   1.422   2.365   1.865 -0.2490  0.3722  0.0616
  296TMC3    C7 4467   1.630   2.282   1.709  0.4935  0.1135 -0.5772
  296TMC3    C8 4468   1.202   2.478   1.809  0.4435  0.0660  0.5964
  296TMC3    O1 4469   1.731   2.281   1.637 -0.0411 -0.2477  0.3006
  296TMC3    O2 4470   1.198   2.400   1.903 -0.3993 -0.2154 -0.2190
  297MPD2     C 4471   3.346   0.985  16.401  0.2705 -0.1297  1.0568
  297MPD2    C1 4472   3.376   0.862  16.333 -0.0802 -0.2339  0.6050
  297MPD2    C2 4473   3.493   0.862  16.258 -0.2276  0.0524 -0.8979
  297MPD2    C3 4474   3.583   0.967  16.268 -0.2122 -0.3711  0.3101
  297MPD2    C4 4475   3.559   1.069  16.351  0.3107  0.4070 -1.2039
  297MPD2    C5 4476   3.442   1.081  16.419  1.0785  0.2979  0.2017
  297MPD2     H 4477   3.510   0.775  16.196  1.9393 -2.1407  2.7636
  297MPD2    H1 4478   3.640   1.139  16.368 -0.0963  0.6240 -0.1641
  297MPD2    H2 4479   3.263   0.990  16.471 -0.9560 -1.9419 -0.2772
  297MPD2    H3 4480   3.426   1.163  16.488  0.2849 -0.3975  0.8385
  297MPD2     N 4481   3.708   0.973  16.201 -0.0144 -0.4284 -0.7836
  297MPD2    H5 4482   3.762   1.058  16.209  0.7139 -0.7226 -2.6272
  297MPD2    N1 4483   3.296   0.745  16.344 -0.4519 -0.4685 -0.1705
  297MPD2    H7 4484   3.330   0.657  16.306  3.3419  1.3680 -1.0063
  298TMC3    C1 4485   3.128   0.602  16.412  0.1421 -0.1887  0.0897
  298TMC3    C2 4486   3.211   0.496  16.404  0.0505  0.3844 -0.1335
  298TMC3    C3 4487   3.165   0.370  16.400  0.4620  0.3435 -0.4777
  298TMC3    C4 4488   3.000   0.578  16.447 -0.5110  0.0299 -0.5627
  298TMC3    C5 4489   2.952   0.451  16.437 -0.7603 -0.7302 -0.5295
  298TMC3    C6 4490   3.029   0.349  16.402  0.2560 -0.6181  0.2644
  298TMC3     C 4491   3.179   0.738  16.410  0.1001 -0.0124  0.3624
  298TMC3     O 4492   3.118   0.839  16.447  0.0004 -0.0194 -0.2232
  298TMC3     H 4493   3.318   0.503  16.419  0.0199  1.3237 -0.3250
  298TMC3    H1 4494   2.933   0.661  16.468  1.5757  0.6555  3.5087
  298TMC3    H2 4495   2.987   0.251  16.386 -0.0727 -0.6038  1.0564
  298TMC3    C7 4496   2.805   0.434  16.452 -0.8282  0.1055 -0.0967
  298TMC3    C8 4497   3.265   0.270  16.358 -0.0727  0.2799  0.3310
  298TMC3    O1 4498   2.758   0.493  16.548 -0.9307 -0.1015  0.1554
  298TMC3    O2 4499   3.381   0.290  16.387 -1.1949 -0.4696  0.1962
  299MPD2     C 4500   4.221   4.509  11.201  0.0683 -0.3592 -0.0407
  299MPD2    C1 4501   4.294   4.586  11.116 -0.5435  0.1958 -0.2088
  299MPD2    C2 4502   4.260   4.585  10.979 -0.2991  0.5703 -0.3957
  299MPD2    C3 4503   4.156   4.514  10.926 -0.2354  0.1660  0.4408
  299MPD2    C4 4504   4.075   4.454  11.009  0.3189  0.8064  1.0407
  299MPD2    C5 4505   4.110   4.443  11.145  0.8131  0.7176  0.3506
  299MPD2     H 4506   4.321   4.643  10.910  2.3586 -0.6722  0.9166
  299MPD2    H1 4507   3.988   4.398  10.977  0.0800  0.2950  2.5533
  299MPD2    H2 4508   4.251   4.497  11.304 -1.1358 -1.6495  0.1510
  299MPD2    H3 4509   4.052   4.373  11.204  0.6129 -0.2445 -1.0128
  299MPD2     N 4510   4.124   4.513  10.791  0.0409  0.9746  0.5522
  299MPD2    H5 4511   4.044   4.458  10.762  1.0316 -0.3785  0.3810
  299MPD2    N1 4512   4.410   4.645  11.172 -0.7465  0.2883 -0.3870
  299MPD2    H7 4513   4.431   4.612  11.266  1.5028 -1.7718 -1.6065
  300TMC3    C1 4514   4.126   4.570  10.558 -0.2494 -0.3196 -0.6443
  300TMC3    C2 4515   4.202   4.612  10.453  0.0725  0.4683 -0.0647
  300TMC3    C3 4516   4.139   4.619  10.328 -0.6586 -0.7884  0.3784
  300TMC3    C4 4517   3.994   4.537  10.552 -0.2793 -0.5547  0.1186
  300TMC3    C5 4518   3.937   4.533  10.425  1.3607  0.0723  0.0813
  300TMC3    C6 4519   4.011   4.577  10.316 -0.0765 -0.1102  0.7338
  300TMC3     C 4520   4.179   4.594  10.692 -0.1323  0.0596  0.3629
  300TMC3     O 4521   4.275   4.673  10.697  0.5469 -0.6179  0.5597
  300TMC3     H 4522   4.301   4.650  10.477  0.4126  0.5002 -1.4776
  300TMC3    H1 4523   3.942   4.500  10.640 -1.3596  0.0115 -0.2877
  300TMC3    H2 4524   3.961   4.581  10.220  1.9073 -0.8178 -0.3178
  300TMC3    C7 4525   3.799   4.512  10.400  0.2444 -0.1771 -0.4036
  300TMC3    C8 4526   4.175   0.015  10.258  0.0462 -0.3040  0.0866
  300TMC3    O1 4527   3.769   4.485  10.284 -0.1713 -0.7942  0.2796
  300TMC3    O2 4528   4.274   0.076  10.295 -0.2745 -0.4104 -0.4300
  301MPD2     C 4529   1.421   1.368   1.854  0.7515  0.6586  0.2003
  301MPD2    C1 4530   1.289   1.356   1.820 -0.3359  0.2525 -0.4437
  301MPD2    C2 4531   1.225   1.232   1.842 -0.2576 -0.0136 -0.3125
  301MPD2    C3 4532   1.281   1.125   1.905 -0.4959 -0.2997 -0.3689
  301MPD2    C4 4533   1.411   1.154   1.950  0.2523  0.0654  0.4236
  301MPD2    C5 4534   1.478   1.269   1.929  0.0364 -0.1990  0.0157
  301MPD2     H 4535   1.118   1.221   1.831 -0.3999 -0.5253  1.6296
  301MPD2    H1 4536   1.461   1.072   2.000 -0.7049 -0.4938  0.4619
  301MPD2    H2 4537   1.478   1.460   1.842 -0.2384  1.2197 -0.2103
  301MPD2    H3 4538   1.582   1.277   1.959  0.4548 -1.4271 -1.0984
  301MPD2     N 4539   1.220   0.998   1.923 -0.2986  0.8726 -0.5902
  301MPD2    H5 4540   1.273   0.923   1.966 -0.6685  0.3585 -1.0289
  301MPD2    N1 4541   1.212   1.460   1.754  0.6520 -0.3209  0.3921
  301MPD2    H7 4542   1.125   1.433   1.709  0.8882  0.3118 -0.4524
  302TMC3    C1 4543   1.063   0.822   1.882  0.4536  0.3677  0.3781
  302TMC3    C2 4544   1.164   0.731   1.870 -0.3074 -0.8307  0.9965
  302TMC3    C3 4545   1.128   0.599   1.853 -0.4544 -0.7049 -0.3509
  302TMC3    C4 4546   0.935   0.788   1.884 -0.2014 -0.1204  0.3115
  302TMC3    C5 4547   0.901   0.656   1.866  0.4321  0.6253  0.8418
  302TMC3    C6 4548   0.996   0.557   1.845  0.3759 -0.0330  0.4294
  302TMC3     C 4549   1.090   0.970   1.886  0.0307 -0.2949  0.1902
  302TMC3     O 4550   0.998   1.047   1.863 -0.4710  0.6405  0.0540
  302TMC3     H 4551   1.268   0.761   1.866 -0.9785  0.9790 -3.0697
  302TMC3    H1 4552   0.860   0.857   1.920 -2.0593 -0.9359 -1.9834
  302TMC3    H2 4553   0.963   0.454   1.858 -2.6817  0.8121 -0.6024
  302TMC3    C7 4554   0.771   0.632   1.809  0.0309 -0.5488 -0.0598
  302TMC3    C8 4555   1.234   0.513   1.805  0.1009  0.5219  0.0793
  302TMC3    O1 4556   0.741   0.515   1.801  0.2269 -0.3813  0.2889
  302TMC3    O2 4557   1.327   0.564   1.744 -0.1349 -0.5519  0.1764
  303MPD2     C 4558   1.477   4.444  10.872  0.0931  0.9544 -0.1885
  303MPD2    C1 4559   1.366   4.374  10.909  0.0801 -0.2582  0.0653
  303MPD2    C2 4560   1.315   4.273  10.828 -0.5298  0.2518 -0.1551
  303MPD2    C3 4561   1.392   4.233  10.718  0.5045  0.0638  0.4031
  303MPD2    C4 4562   1.515   4.292  10.693  0.2909 -0.2962 -0.4765
  303MPD2    C5 4563   1.546   4.412  10.758 -0.0242  0.2161  0.4858
  303MPD2     H 4564   1.216   4.234  10.847 -0.0566 -1.0873 -0.4637
  303MPD2    H1 4565   1.580   4.260  10.613  2.7365  1.2478  0.9139
  303MPD2    H2 4566   1.512   4.533  10.924  0.2498  2.0014 -2.0676
  303MPD2    H3 4567   1.636   4.465  10.727  0.8649  0.1764  2.9241
  303MPD2     N 4568   1.351   4.140  10.620 -0.0339 -0.2863 -0.3845
  303MPD2    H5 4569   1.417   4.116  10.547  0.3339  0.9180 -0.4457
  303MPD2    N1 4570   1.303   4.401  11.034 -0.4338  0.1010 -0.6541
  303MPD2    H7 4571   1.356   4.459  11.098  0.8275 -1.4802 -0.2615
  304TMC3    C1 4572   1.143   4.395  11.209  0.4791 -0.0863 -0.0872
  304TMC3    C2 4573   1.003   4.405  11.228 -0.8159 -0.8402 -0.2861
  304TMC3    C3 4574   0.959   4.382  11.354  0.5303 -0.0360 -0.2724
  304TMC3    C4 4575   1.230   4.366  11.319  0.2714  0.0153  0.3594
  304TMC3    C5 4576   1.180   4.334  11.439 -0.6552  0.4105  0.8814
  304TMC3    C6 4577   1.046   4.347  11.455  0.1879 -0.9639 -0.0215
  304TMC3     C 4578   1.181   4.361  11.073 -0.0151 -0.6097 -0.1736
  304TMC3     O 4579   1.096   4.310  11.002  0.2190 -0.5548 -0.1080
  304TMC3     H 4580   0.933   4.383  11.148 -0.3139 -1.4187 -0.5587
  304TMC3    H1 4581   1.338   4.354  11.309  0.2846  0.3590  0.0749
  304TMC3    H2 4582   0.997   4.322  11.549 -0.6482 -0.0237 -0.2095
  304TMC3    C7 4583   1.236   4.223  11.506  0.0449 -0.0209  0.4400
  304TMC3    C8 4584   0.856   4.285  11.353 -0.0767  0.8840 -0.3853
  304TMC3    O1 4585   1.357   4.221  11.538 -0.6509 -0.2383 -0.2415
  304TMC3    O2 4586   0.899   4.172  11.360  0.3755  0.6713  0.3334
  305MPD2     C 4587   4.186   1.686  14.008 -0.1217 -0.3311 -0.5495
  305MPD2    C1 4588   4.278   1.585  14.033  0.1603 -0.0970 -0.2218
  305MPD2    C2 4589   4.297   1.492  13.938  0.4294 -0.0388 -0.1061
  305MPD2    C3 4590   4.219   1.483  13.824 -0.2131  0.2436 -1.1845
  305MPD2    C4 4591   4.124   1.582  13.810  0.8230 -0.8322  0.1083
  305MPD2    C5 4592   4.106   1.686  13.896  0.2192  0.0434 -0.1523
  305MPD2     H 4593   4.360   1.405  13.952 -1.9421 -1.4077  2.1790
  305MPD2    H1 4594   4.058   1.584  13.724 -1.8558  2.5408  2.2452
  305MPD2    H2 4595   4.160   1.761  14.081  1.0117 -0.0286 -0.4608
  305MPD2    H3 4596   4.034   1.765  13.879 -0.4156 -0.3636  0.5890
  305MPD2     N 4597   4.227   1.384  13.722 -0.2983  0.3416 -0.2703
  305MPD2    H5 4598   4.166   1.410  13.646 -0.7935 -1.1337 -0.3737
  305MPD2    N1 4599   4.344   1.585  14.161 -0.4806 -0.2884  0.1575
  305MPD2    H7 4600   4.317   1.657  14.228 -2.4808 -1.7648  0.9401
  306TMC3    C1 4601   4.515   1.533  14.311  0.3552 -0.1469 -0.3057
  306TMC3    C2 4602   4.582   1.434  14.375 -0.4377  0.5677  0.2086
  306TMC3    C3 4603   4.669   1.469  14.474  0.0405 -0.4460 -0.0972
  306TMC3    C4 4604   4.525   1.660  14.344 -0.2780 -0.3431 -0.0270
  306TMC3    C5 4605   4.619   1.687  14.439 -0.0742 -0.5318  0.3037
  306TMC3    C6 4606   4.685   1.599  14.511  0.2261  0.0912 -0.4003
  306TMC3     C 4607   4.430   1.489  14.205  0.7073  0.0491 -0.2777
  306TMC3     O 4608   4.441   1.377  14.159 -0.6530  0.6782  0.2094
  306TMC3     H 4609   4.564   1.329  14.359 -1.3379  0.9394 -1.2716
  306TMC3    H1 4610   4.459   1.739  14.312 -0.1505 -0.0171  0.5211
  306TMC3    H2 4611   0.041   1.635  14.571  0.1723 -0.2473 -0.1190
  306TMC3    C7 4612   4.642   1.829  14.461  0.1048  0.0496  0.2616
  306TMC3    C8 4613   4.712   1.351  14.552 -0.1884 -0.2010 -0.3375
  306TMC3    O1 4614   4.607   1.907  14.371 -0.4428 -0.2531 -0.0874
  306TMC3    O2 4615   4.716   1.242  14.494 -0.6019 -0.2737 -0.5781
  307MPD2     C 4616   2.083   4.127  17.512  0.3954 -0.1642  0.1754
  307MPD2    C1 4617   2.003   4.232  17.545  0.0685 -0.6873  0.2505
  307MPD2    C2 4618   1.980   4.267  17.677 -0.7017  0.4052  1.0450
  307MPD2    C3 4619   2.048   4.199   0.067  0.2630  0.9045  1.0007
  307MPD2    C4 4620   2.126   4.085   0.033 -0.4154  0.0016  0.1572
  307MPD2    C5 4621   2.140   4.052  17.609 -0.3901  0.1596  0.0216
  307MPD2     H 4622   1.916   4.353  17.695 -1.8994 -0.0281 -1.0157
  307MPD2    H1 4623   2.179   4.023   0.104  0.4646  1.8196  1.1051
  307MPD2    H2 4624   2.112   4.113  17.408 -1.1567 -1.2177 -0.1220
  307MPD2    H3 4625   2.198   3.963  17.587 -0.5020 -0.1674  1.0203
  307MPD2     N 4626   2.052   4.252   0.197  0.5581 -0.0725  0.5299
  307MPD2    H5 4627   2.003   4.340   0.209  0.1126 -0.0057 -1.6932
  307MPD2    N1 4628   1.974   4.330  17.447 -0.0826  0.0030 -0.2658
  307MPD2    H7 4629   1.930   4.417  17.476  0.1591  0.4801 -1.3424
  308TMC3    C1 4630   1.996   4.347   0.617  0.0948  0.2380 -0.1359
  308TMC3    C2 4631   2.026   4.480   0.595  0.3810  0.5184 -0.2964
  308TMC3    C3 4632   2.097   4.512   0.486 -0.0846  0.1188  0.0308
  308TMC3    C4 4633   2.042   4.247   0.537  0.1133  0.1388 -0.8011
  308TMC3    C5 4634   2.109   4.282   0.424 -0.0475 -0.8836 -0.1373
  308TMC3    C6 4635   2.136   4.415   0.394 -0.5331 -0.3707 -0.2688
  308TMC3     C 4636   1.923   4.296   0.736  0.2453 -0.3869 -0.5765
  308TMC3     O 4637   1.976   4.204   0.793 -0.5857  0.4279 -0.0774
  308TMC3     H 4638   2.009   4.547   0.678 -0.4364 -0.5209  0.3629
  308TMC3    H1 4639   2.015   4.143   0.551  0.0894  0.3538  0.7326
  308TMC3    H2 4640   2.196   4.439   0.306 -0.6897 -2.3528 -0.9202
  308TMC3    C7 4641   2.100   4.187   0.308 -0.7130 -0.2510  0.3988
  308TMC3    C8 4642   2.114   4.652   0.448  0.1915  0.4447  0.3441
  308TMC3    O1 4643   2.140   4.072   0.319 -0.5742 -0.1945  0.3412
  308TMC3    O2 4644   2.193   4.672   0.358 -0.5466  0.2493 -0.3036
  309MPD2     C 4645   1.213   4.475  17.299 -0.0609  0.4048  0.8131
  309MPD2    C1 4646   1.112   4.551  17.237 -0.0880 -0.3134  0.0554
  309MPD2    C2 4647   0.988   4.548  17.289 -0.4046  0.0526  0.8179
  309MPD2    C3 4648   0.962   4.479  17.409 -0.0234 -0.6262  0.2544
  309MPD2    C4 4649   1.067   4.411  17.473 -0.5332  0.1410 -0.3093
  309MPD2    C5 4650   1.196   4.409  17.418  0.8699  0.1917 -1.1323
  309MPD2     H 4651   0.920   4.614  17.236  0.0242 -1.2595 -1.3726
  309MPD2    H1 4652   1.045   4.361  17.567  0.7118 -1.3327 -0.8076
  309MPD2    H2 4653   1.310   4.462  17.252 -0.5894 -0.5615  0.0094
  309MPD2    H3 4654   1.273   4.356  17.471 -1.2201 -0.6621  1.0186
  309MPD2     N 4655   0.837   4.467  17.467  0.1942  0.3250  0.2032
  309MPD2    H5 4656   0.829   4.393  17.536  0.6404 -1.3996 -1.5992
  309MPD2    N1 4657   1.131   4.621  17.125 -0.2413  0.6318 -0.0216
  309MPD2    H7 4658   1.045   4.658  17.086 -1.6150 -1.7159  0.8164
  310TMC3    C1 4659   1.247   4.715  16.937  0.3460  0.1556  0.1976
  310TMC3    C2 4660   1.171   4.660  16.843 -0.1121 -0.5745 -0.9038
  310TMC3    C3 4661   1.200   4.671  16.711  0.2713  0.1415 -0.2310
  310TMC3    C4 4662   1.357   0.059  16.899  0.0140  0.4693  0.5962
  310TMC3    C5 4663   1.392   0.058  16.770 -0.3412 -0.7647  0.7218
  310TMC3    C6 4664   1.317   0.006  16.673  1.0091  0.4051 -0.3977
  310TMC3     C 4665   1.252   4.644  17.061 -0.7653  0.1845  0.0938
  310TMC3     O 4666   1.360   4.626  17.116  0.2407  1.0600 -0.0289
  310TMC3     H 4667   1.096   4.588  16.874  0.0735  0.9710  3.0870
  310TMC3    H1 4668   1.433   0.087  16.971  1.0660 -0.5011 -0.1405
  310TMC3    H2 4669   1.348   0.008  16.569  0.9273 -1.5936 -0.4546
  310TMC3    C7 4670   1.531   0.068  16.746  0.3327  0.3622  0.7396
  310TMC3    C8 4671   1.107   4.626  16.606 -0.1379 -0.0622 -0.5424
  310TMC3    O1 4672   1.583   0.176  16.758  0.0778  0.4025 -0.0444
  310TMC3    O2 4673   0.986   4.642  16.617 -0.3535  0.2016  0.4889
  311MPD2     C 4674   3.526   1.082  12.828  0.2970  0.0826  0.1477
  311MPD2    C1 4675   3.526   1.189  12.914  0.5234  0.0762  0.5683
  311MPD2    C2 4676   3.401   1.250  12.941  0.3067  0.0981  0.7640
  311MPD2    C3 4677   3.276   1.201  12.889  0.1411  0.1854  0.5815
  311MPD2    C4 4678   3.289   1.112  12.785  0.0804 -1.2065  0.2711
  311MPD2    C5 4679   3.409   1.050  12.761 -0.1562  0.4114  0.0536
  311MPD2     H 4680   3.396   1.340  13.001 -2.3367  0.3132  0.2472
  311MPD2    H1 4681   3.208   1.079  12.722 -2.2564  3.5367  0.8338
  311MPD2    H2 4682   3.621   1.049  12.788 -0.2116 -1.1330 -0.0350
  311MPD2    H3 4683   3.429   0.990  12.673 -0.0055 -0.0429  0.4029
  311MPD2     N 4684   3.157   1.268  12.918  0.6628 -0.8625 -0.0281
  311MPD2    H5 4685   3.157   1.342  12.988  0.6957 -0.7813 -0.1133
  311MPD2    N1 4686   3.650   1.257  12.938 -0.3784  0.4188 -0.5499
  311MPD2    H7 4687   3.641   1.347  12.985  0.7126  1.1048 -1.6418
  312TMC3    C1 4688   2.926   1.339  12.911  0.0350  1.1889  0.2735
  312TMC3    C2 4689   2.810   1.340  12.844  0.1942  0.3898  0.8370
  312TMC3    C3 4690   2.719   1.443  12.866 -0.2303 -0.1251 -0.2221
  312TMC3    C4 4691   2.943   1.410  13.024 -0.2189  0.0460 -0.2216
  312TMC3    C5 4692   2.840   1.499  13.056 -0.6091  0.4597  0.2677
  312TMC3    C6 4693   2.738   1.530  12.971  0.2416 -0.7128 -0.0605
  312TMC3     C 4694   3.035   1.254  12.848 -0.4993 -0.2291 -0.0987
  312TMC3     O 4695   3.003   1.173  12.763 -0.3977 -0.6836 -0.2567
  312TMC3     H 4696   2.802   1.261  12.770  1.1550  0.2284  0.9094
  312TMC3    H1 4697   3.036   1.411  13.080  0.1398  0.9711 -0.8381
  312TMC3    H2 4698   2.670   1.609  12.999  0.4239  0.6193 -3.4524
  312TMC3    C7 4699   2.822   1.544  13.196  0.2237  0.1127 -0.6160
  312TMC3    C8 4700   2.584   1.418  12.820  0.1612  0.7172  0.4887
  312TMC3    O1 4701   2.740   1.627  13.217  0.4801  0.5829 -0.5726
  312TMC3    O2 4702   2.566   1.312  12.766 -0.4141 -0.0022  1.1853
  313MPD2     C 4703   3.470   0.863  10.266 -0.1734 -0.2954  0.3984
  313MPD2    C1 4704   3.474   0.799  10.386  0.3941  0.3618 -0.1399
  313MPD2    C2 4705   3.537   0.676  10.390  0.4423  0.0540 -0.1323
  313MPD2    C3 4706   3.591   0.625  10.266 -0.5362  0.0948  0.1048
  313MPD2    C4 4707   3.604   0.697  10.149  0.3014  0.1125  0.1490
  313MPD2    C5 4708   3.540   0.818  10.156  0.0065  0.4271  0.1245
  313MPD2     H 4709   3.544   0.621  10.483 -1.3036  2.0687  1.1914
  313MPD2    H1 4710   3.658   0.671  10.058  1.4822 -2.0699  1.4575
  313MPD2    H2 4711   3.430   0.964  10.264 -1.0887 -0.6603  0.1480
  313MPD2    H3 4712   3.560   0.881  10.070  0.2061  1.2241  0.7475
  313MPD2     N 4713   3.653   0.494  10.281  0.5285 -0.4344 -0.4835
  313MPD2    H5 4714   3.675   0.466  10.376  2.5829  1.2394 -0.4529
  313MPD2    N1 4715   3.419   0.858  10.499  0.0260  0.0828 -0.5828
  313MPD2    H7 4716   3.377   0.948  10.477 -2.4407 -1.2689 -1.4060
  314TMC3    C1 4717   3.323   0.872  10.718 -0.1103 -0.1895  0.4722
  314TMC3    C2 4718   3.346   0.876  10.852  1.0442  0.2555  0.1920
  314TMC3    C3 4719   3.243   0.878  10.944 -0.8155  0.1911 -0.0302
  314TMC3    C4 4720   3.198   0.852  10.668  0.3688 -0.1129 -0.2195
  314TMC3    C5 4721   3.094   0.849  10.761 -0.5688 -0.2035  0.0303
  314TMC3    C6 4722   3.109   0.861  10.899 -0.5964 -0.2241 -0.1013
  314TMC3     C 4723   3.425   0.811  10.626  1.0276  0.4042  0.9142
  314TMC3     O 4724   3.498   0.725  10.680 -0.0620  0.6909 -0.8807
  314TMC3     H 4725   3.450   0.892  10.879  1.2383 -2.0325  0.7938
  314TMC3    H1 4726   3.179   0.826  10.565 -1.0977 -0.1340  0.0642
  314TMC3    H2 4727   3.025   0.855  10.967 -1.0612 -0.2923 -0.6784
  314TMC3    C7 4728   2.963   0.808  10.721 -0.2254 -0.2272  0.4935
  314TMC3    C8 4729   3.263   0.964  11.062  0.5614  0.5431  1.0404
  314TMC3    O1 4730   2.884   0.773  10.807  0.5122 -0.3782  0.1486
  314TMC3    O2 4731   3.163   1.017  11.103 -0.4451 -0.3178 -0.2014
  315MPD2     C 4732   2.387   4.510  17.299 -0.4599  0.0859  0.0295
  315MPD2    C1 4733   2.379   4.533  17.434 -0.0735  0.2427 -0.4768
  315MPD2    C2 4734   2.373   4.668  17.476 -0.6039 -0.1638 -0.2034
  315MPD2    C3 4735   2.371   0.045  17.385  0.4925  0.0634  0.1974
  315MPD2    C4 4736   2.370   0.015  17.251 -0.2757 -1.2984  1.0653
  315MPD2    C5 4737   2.369   4.607  17.202  0.1721 -0.6305 -0.3893
  315MPD2     H 4738   2.361   4.689  17.581  1.1403 -0.7736  0.1203
  315MPD2    H1 4739   2.369   0.098  17.182 -0.7552 -1.8268  0.4387
  315MPD2    H2 4740   2.399   4.407  17.266  0.0678 -0.0052  0.5086
  315MPD2    H3 4741   2.378   4.591  17.095  2.2839  0.2240 -0.3429
  315MPD2     N 4742   2.386   0.171  17.434  0.6953 -0.2933  0.2129
  315MPD2    H5 4743   2.402   0.174  17.534 -0.0067 -1.5976  0.3693
  315MPD2    N1 4744   2.386   4.437  17.535  0.0560  0.9598 -0.3269
  315MPD2    H7 4745   2.390   4.462  17.633 -0.8367  0.4150 -0.1503
  316TMC3    C1 4746   2.383   0.405  17.473  1.1956 -0.7339  0.2618
  316TMC3    C2 4747   2.504   0.420  17.541 -0.1701 -0.1323  0.0316
  316TMC3    C3 4748   2.515   0.545  17.602  0.3092 -0.0498  1.3024
  316TMC3    C4 4749   2.290   0.502  17.450 -0.0250  0.3449  0.1654
  316TMC3    C5 4750   2.319   0.632  17.509 -0.5635  0.4536 -0.2633
  316TMC3    C6 4751   2.423   0.652  17.589 -0.3893 -0.3636 -0.0780
  316TMC3     C 4752   2.375   0.293  17.373  0.4815  0.4159 -0.0725
  316TMC3     O 4753   2.332   0.319  17.261  0.3019 -0.2309  0.6006
  316TMC3     H 4754   2.579   0.343  17.532 -0.0534  0.3452 -3.2819
  316TMC3    H1 4755   2.212   0.480  17.378 -0.3686  1.2530  0.2624
  316TMC3    H2 4756   2.439   0.753  17.625 -0.9674 -0.1517 -0.4205
  316TMC3    C7 4757   2.255   0.755  17.448 -0.1086  0.3636 -0.9133
  316TMC3    C8 4758   2.654   0.601  17.624 -0.1321 -0.0595 -0.6945
  316TMC3    O1 4759   2.224   0.852  17.519  1.0088 -0.0487 -0.0843
  316TMC3    O2 4760   2.665   0.724  17.613 -0.3854 -0.3855  0.1000
  317MPD2     C 4761   4.186   2.886  12.676 -0.5607 -0.0792 -0.2827
  317MPD2    C1 4762   4.306   2.850  12.616  0.5974  0.0081  0.2954
  317MPD2    C2 4763   4.399   2.770  12.685  0.2232  0.7979 -0.0512
  317MPD2    C3 4764   4.378   2.742  12.822 -0.2588 -0.3573  0.4864
  317MPD2    C4 4765   4.270   2.791  12.882 -0.4591  0.4794  0.0188
  317MPD2    C5 4766   4.175   2.861  12.809 -0.6027  0.2200  0.8683
  317MPD2     H 4767   4.492   2.738  12.638  0.3614 -0.0571  0.7895
  317MPD2    H1 4768   4.248   2.769  12.987  1.6369  0.1020  0.3687
  317MPD2    H2 4769   4.109   2.944  12.628 -0.8929 -0.5853 -0.3575
  317MPD2    H3 4770   4.087   2.904  12.855 -1.8867 -1.9005  0.3952
  317MPD2     N 4771   4.484   2.681  12.894 -0.2589 -0.3338 -0.8071
  317MPD2    H5 4772   4.573   2.663  12.848  0.6409  0.9543  0.4505
  317MPD2    N1 4773   4.340   2.877  12.484  0.4543  0.2551  0.0171
  317MPD2    H7 4774   4.431   2.839  12.458 -0.6013 -1.8399 -0.6292
  318TMC3    C1 4775   4.600   2.601  13.087 -0.4018 -0.1233 -0.9599
  318TMC3    C2 4776   4.586   2.535  13.206 -0.2770 -0.1305 -0.3409
  318TMC3    C3 4777   4.703   2.521  13.279  0.2216 -0.4209  0.1595
  318TMC3    C4 4778   4.708   2.679  13.057 -0.4190  0.3389  0.6042
  318TMC3    C5 4779   0.084   2.669  13.142 -0.3176 -0.1234  0.4574
  318TMC3    C6 4780   0.088   2.593  13.248  0.3647 -0.1008  0.6103
  318TMC3     C 4781   4.477   2.634  13.021 -0.7335  0.2147  0.2328
  318TMC3     O 4782   4.374   2.616  13.086  0.3083  0.7192 -0.3170
  318TMC3     H 4783   4.492   2.489  13.234 -0.7846 -0.2376 -2.1744
  318TMC3    H1 4784   4.707   2.740  12.968  1.2059  2.5320  2.0909
  318TMC3    H2 4785   0.162   2.609  13.326 -0.2794 -0.2665  1.2640
  318TMC3    C7 4786   0.200   2.753  13.120 -0.1037 -0.0444 -0.1392
  318TMC3    C8 4787   4.700   2.452  13.409 -0.2504 -0.6441  0.0904
  318TMC3    O1 4788   0.182   2.846  13.040 -0.4645 -0.7505  0.0484
  318TMC3    O2 4789   0.075   2.414  13.462  0.3713  0.3500  0.1431
  319MPD2     C 4790   0.544   4.275  17.185  0.3216  0.6142 -0.1028
  319MPD2    C1 4791   0.446   4.190  17.223  0.3536  0.4602  0.4334
  319MPD2    C2 4792   0.363   4.135  17.127  0.2021  0.2611  0.3586
  319MPD2    C3 4793   0.379   4.172  16.996 -0.0964 -0.3375 -0.3118
  319MPD2    C4 4794   0.469   4.268  16.962  0.6368  0.0446  0.3528
  319MPD2    C5 4795   0.559   4.310  17.051 -0.1975  0.2907 -0.7608
  319MPD2     H 4796   0.295   4.055  17.153  2.8724 -1.2262  2.7684
  319MPD2    H1 4797   0.474   4.318  16.866  0.2752 -0.4342  0.0826
  319MPD2    H2 4798   0.619   4.317  17.251 -0.2797 -0.8082  1.4789
  319MPD2    H3 4799   0.645   4.370  17.022  0.5108 -0.4320 -0.1665
  319MPD2     N 4800   0.288   4.128  16.894  0.2275 -0.2528  0.1498
  319MPD2    H5 4801   0.294   4.188  16.813  1.2706  2.2319  2.0747
  319MPD2    N1 4802   0.433   4.148  17.360  0.6707 -0.5219  0.0084
  319MPD2    H7 4803   0.353   4.090  17.383 -0.1637  1.6863  2.6607
  320TMC3    C1 4804   0.146   3.975  16.776 -0.0593 -0.2307  0.0381
  320TMC3    C2 4805   0.138   4.058  16.667 -0.0842 -0.2301 -0.0719
  320TMC3    C3 4806   0.079   4.013  16.556  0.0434  0.3217  0.1630
  320TMC3    C4 4807   0.113   3.842  16.761  0.4614  0.0209 -0.2831
  320TMC3    C5 4808   0.062   3.803  16.639 -0.3677  0.3527 -0.0997
  320TMC3    C6 4809   0.039   3.885  16.535 -0.2432  0.5362 -0.3851
  320TMC3     C 4810   0.223   4.009  16.895 -0.3180  0.2768  0.4184
  320TMC3     O 4811   0.233   3.924  16.982  0.5297  0.3623 -0.1219
  320TMC3     H 4812   0.159   4.164  16.671  1.1745 -0.5600  1.9828
  320TMC3    H1 4813   0.132   3.772  16.841 -0.4736 -1.1403 -1.0732
  320TMC3    H2 4814   0.013   3.849  16.436 -1.5341  0.7750 -0.1378
  320TMC3    C7 4815   0.062   3.666  16.609  0.1342 -0.8507  0.4855
  320TMC3    C8 4816   0.029   4.108  16.465  0.0598  0.1507  0.1468
  320TMC3    O1 4817   0.078   3.639  16.491  0.2679  0.4476  0.4466
  320TMC3    O2 4818   0.098   4.213  16.452  0.3357 -0.6406 -0.1054
  321TMC3    C1 4819   0.491   4.117  17.577  0.7359 -0.7787  0.0148
  321TMC3    C2 4820   0.359   4.088  17.606 -0.5234 -0.3912 -0.4761
  321TMC3    C3 4821   0.327   4.101   0.030 -0.1986  0.8910  0.3035
  321TMC3    C4 4822   0.583   4.153  17.676  0.0542 -0.9591 -0.8969
  321TMC3    C5 4823   0.545   4.167   0.100  0.9347 -0.2473 -0.2268
  321TMC3    C6 4824   0.414   4.139   0.128  0.0476 -0.0317 -0.3055
  321TMC3     C 4825   0.528   4.164  17.451 -0.2103  0.3235 -0.4916
  321TMC3     O 4826   0.640   4.217  17.438  0.3097 -0.5015 -0.8010
  321TMC3     H 4827   0.289   4.057  17.529  0.5478 -2.4262 -0.6408
  321TMC3    H1 4828   0.689   4.171  17.663  0.6440 -1.8493  2.5260
  321TMC3    H2 4829   0.374   4.142   0.228  2.9668  0.1503  0.8518
  321TMC3    C7 4830   0.630   4.116   0.208 -0.3188  0.2959  0.1329
  321TMC3    C8 4831   0.222   4.014   0.081 -0.0520  0.2167  0.1490
  321TMC3    O1 4832   0.584   4.123   0.321  0.3384 -0.0619 -0.1807
  321TMC3    O2 4833   0.109   4.055   0.071 -0.1557  0.1526 -0.1375
  322MPD2     C 4834   4.412   0.929  13.597 -0.1352 -0.0037 -0.3506
  322MPD2    C1 4835   4.341   0.872  13.695 -0.3566 -0.5329 -0.1065
  322MPD2    C2 4836   4.270   0.753  13.664 -0.3183 -0.0717  0.0278
  322MPD2    C3 4837   4.280   0.697  13.541  0.4465  0.1245  0.1186
  322MPD2    C4 4838   4.347   0.764  13.442 -0.4121 -0.7983  0.7136
  322MPD2    C5 4839   4.415   0.877  13.468 -0.0801  0.2495  0.2484
  322MPD2     H 4840   4.218   0.707  13.747  1.0954 -1.0056  0.3912
  322MPD2    H1 4841   4.352   0.725  13.341 -0.3251 -0.9999  0.7975
  322MPD2    H2 4842   4.452   1.027  13.620  1.0565 -0.5607 -0.0687
  322MPD2    H3 4843   4.460   0.928  13.383  3.2763 -1.3286  1.0628
  322MPD2     N 4844   4.224   0.572  13.513  0.2571 -0.0219 -0.2900
  322MPD2    H5 4845   4.182   0.533  13.598  0.0742 -0.1876 -0.4557
  322MPD2    N1 4846   4.355   0.929  13.824 -0.2794  0.6191 -0.1130
  322MPD2    H7 4847   4.424   1.003  13.836  0.5199 -0.2117  0.3835
  323TMC3    C1 4848   4.358   0.956  14.058  0.0363  0.4228  1.1927
  323TMC3    C2 4849   4.456   1.049  14.040 -0.3067  0.5265 -0.8236
  323TMC3    C3 4850   4.529   1.095  14.144 -0.1272  0.0283 -0.0064
  323TMC3    C4 4851   4.323   0.906  14.181  0.0883 -0.8954 -0.2653
  323TMC3    C5 4852   4.408   0.948  14.288 -0.1878  0.1050 -0.3357
  323TMC3    C6 4853   4.509   1.040  14.270 -0.5436  0.3388  0.7117
  323TMC3     C 4854   4.300   0.882  13.941 -1.0186  0.4097 -0.7350
  323TMC3     O 4855   4.202   0.809  13.949  0.4328  0.0874 -0.2365
  323TMC3     H 4856   4.495   1.077  13.943  1.0719  0.0555 -0.3959
  323TMC3    H1 4857   4.261   0.821  14.207  1.0742 -1.6352 -0.3569
  323TMC3    H2 4858   4.578   1.071  14.348 -0.6343 -0.6927  1.2099
  323TMC3    C7 4859   4.424   0.851  14.389 -0.3448 -0.2522 -1.1740
  323TMC3    C8 4860   4.658   1.151  14.112 -0.4513 -0.3779 -0.3434
  323TMC3    O1 4861   4.401   0.737  14.355 -0.3249 -0.8064 -0.2773
  323TMC3    O2 4862   0.027   1.094  14.166 -0.3897  0.4873 -0.0872
  324MPD2     C 4863   1.668   1.866  14.263  0.3121  0.4005 -0.1304
  324MPD2    C1 4864   1.648   1.921  14.393 -0.1223 -0.2561  0.0029
  324MPD2    C2 4865   1.524   1.956  14.439 -0.6513  0.0574  0.0054
  324MPD2    C3 4866   1.408   1.922  14.364 -0.2362  0.0804 -0.5558
  324MPD2    C4 4867   1.428   1.872  14.232  0.1991  0.6373 -0.3310
  324MPD2    C5 4868   1.553   1.843  14.187 -1.1057 -0.1633 -0.4242
  324MPD2     H 4869   1.516   2.005  14.535 -3.5427  0.5474 -0.4946
  324MPD2    H1 4870   1.336   1.858  14.176 -1.9981 -2.2150  3.9746
  324MPD2    H2 4871   1.768   1.861  14.221 -0.0390  1.7365 -1.1350
  324MPD2    H3 4872   1.575   1.803  14.089  1.6820 -0.1549  0.1818
  324MPD2     N 4873   1.276   1.943  14.407 -0.9062 -0.2180 -0.4062
  324MPD2    H5 4874   1.208   1.934  14.331 -1.6762  1.1198  0.1262
  324MPD2    N1 4875   1.751   1.977  14.476 -0.1897  0.3231 -0.6052
  324MPD2    H7 4876   1.728   2.022  14.564 -1.2966 -0.0571 -0.6967
  325TMC3    C1 4877   1.103   2.055  14.512 -0.1222 -0.5078  0.0945
  325TMC3    C2 4878   0.998   1.988  14.454 -0.8324 -0.5776 -1.1015
  325TMC3    C3 4879   0.876   2.046  14.463  0.2161 -0.5122  0.0982
  325TMC3    C4 4880   1.087   2.167  14.589  0.5772 -0.0099 -0.4258
  325TMC3    C5 4881   0.959   2.213  14.603  0.1370 -0.4099 -0.3081
  325TMC3    C6 4882   0.857   2.161  14.539 -0.0091 -0.1945 -0.6704
  325TMC3     C 4883   1.238   2.004  14.525  0.5754 -0.2627  0.4332
  325TMC3     O 4884   1.299   2.031  14.626  0.2747  0.1201  0.2792
  325TMC3     H 4885   1.007   1.892  14.404 -3.0698 -2.2224  1.6072
  325TMC3    H1 4886   1.173   2.204  14.645  1.7496 -2.6390 -0.4790
  325TMC3    H2 4887   0.755   2.193  14.558 -0.6410 -3.5220  1.4304
  325TMC3    C7 4888   0.934   2.317  14.702 -0.4477  0.1618 -0.8148
  325TMC3    C8 4889   0.763   1.974  14.402 -0.0370 -0.0179  0.2478
  325TMC3    O1 4890   1.022   2.336  14.783 -0.4719 -0.2083 -0.0923
  325TMC3    O2 4891   0.769   1.860  14.347  0.0930  0.5381  0.3813
  326MPD2     C 4892   2.142   3.163  11.240 -0.2751  0.0793  0.3750
  326MPD2    C1 4893   2.197   3.092  11.136  0.8646  0.0748 -0.1542
  326MPD2    C2 4894   2.329   3.117  11.104 -0.4309 -0.8623 -0.1845
  326MPD2    C3 4895   2.397   3.220  11.168  0.7698 -0.2352 -0.1105
  326MPD2    C4 4896   2.338   3.291  11.269 -0.1147  0.6217  0.3961
  326MPD2    C5 4897   2.219   3.254  11.318 -0.1611  0.6180 -0.2423
  326MPD2     H 4898   2.384   3.054  11.034  0.6864  0.5757 -0.6203
  326MPD2    H1 4899   2.401   3.368  11.311  3.1083 -1.4774 -0.5764
  326MPD2    H2 4900   2.037   3.149  11.261 -0.8084 -0.1700 -2.5618
  326MPD2    H3 4901   2.183   3.297  11.411 -1.2760 -1.4625  0.2928
  326MPD2     N 4902   2.535   3.255  11.142 -0.3253  0.4187  0.1469
  326MPD2    H5 4903   2.586   3.319  11.203  0.2545 -0.6424  0.7795
  326MPD2    N1 4904   2.132   3.001  11.059  0.3728  0.2572 -0.0433
  326MPD2    H7 4905   2.191   2.956  10.989  1.5171  0.5288  0.7428
  327TMC3    C1 4906   1.980   2.901  10.934 -0.1361  0.4901  0.1416
  327TMC3    C2 4907   1.926   2.995  10.847 -0.5248  0.4451 -0.0154
  327TMC3    C3 4908   1.974   3.001  10.714 -0.8471 -0.2953  0.3631
  327TMC3    C4 4909   2.080   2.820  10.887  0.0926  0.2641 -0.0664
  327TMC3    C5 4910   2.119   2.819  10.755 -0.6159  0.1953  0.1183
  327TMC3    C6 4911   2.059   2.900  10.665 -0.0077 -0.2420 -0.6494
  327TMC3     C 4912   2.001   2.966  11.054 -0.0921 -0.0842  0.3038
  327TMC3     O 4913   1.912   3.005  11.128 -0.7158 -0.6927 -0.1498
  327TMC3     H 4914   1.879   3.081  10.894  1.6822  1.6374  0.0193
  327TMC3    H1 4915   2.122   2.754  10.963 -1.2825  1.1153  1.4444
  327TMC3    H2 4916   2.080   2.910  10.559  2.4347  0.4191 -0.1053
  327TMC3    C7 4917   2.262   2.807  10.727 -0.1220  0.6580 -0.1439
  327TMC3    C8 4918   1.989   3.133  10.656  1.1348  0.1957  1.0433
  327TMC3    O1 4919   2.305   2.842  10.618 -0.4707 -0.1104 -0.0266
  327TMC3    O2 4920   2.088   3.138  10.580  0.4143  1.0398  0.0966
  328MPD2     C 4921   0.004   3.162   0.014  0.0021 -0.5337 -0.4388
  328MPD2    C1 4922   4.672   3.054  17.669 -0.4308  0.0977 -0.0801
  328MPD2    C2 4923   4.645   3.056  17.535 -0.2486 -0.4917  1.0525
  328MPD2    C3 4924   4.687   3.162  17.456 -0.0700  0.3124 -0.8538
  328MPD2    C4 4925   0.041   3.260  17.510 -1.0049 -0.5552  0.1735
  328MPD2    C5 4926   0.059   3.259  17.650  0.7345  0.2488 -0.2074
  328MPD2     H 4927   4.582   2.980  17.490 -0.0480  0.8494 -1.5189
  328MPD2    H1 4928   0.075   3.347  17.453  1.0041 -0.3790  1.6313
  328MPD2    H2 4929   0.026   3.165   0.120  1.9714  1.9043 -0.9109
  328MPD2    H3 4930   0.108   3.345  17.692  1.0509 -0.9619  1.8648
  328MPD2     N 4931   4.642   3.188  17.325  0.7754  0.1122  0.5215
  328MPD2    H5 4932   4.663   3.281  17.291 -1.4186  0.5934  0.5030
  328MPD2    N1 4933   4.631   2.959   0.052 -0.0366  0.1905  0.1765
  328MPD2    H7 4934   4.649   2.974   0.150 -0.3301  1.1619  0.0789
  329TMC3    C1 4935   4.492   2.785   0.119 -0.3238  0.5179  0.3381
  329TMC3    C2 4936   4.395   2.876   0.140  0.4646 -0.0883 -0.4588
  329TMC3    C3 4937   4.267   2.820   0.130  0.3708 -0.6733  0.3627
  329TMC3    C4 4938   4.477   2.653   0.124  0.6432 -0.4630 -0.6325
  329TMC3    C5 4939   4.356   2.598   0.106 -0.2020 -0.2384  0.0689
  329TMC3    C6 4940   4.248   2.687   0.094  0.6509  0.1296 -0.3469
  329TMC3     C 4941   4.592   2.833   0.021 -0.3230 -0.0488 -0.8810
  329TMC3     O 4942   4.591   2.777  17.620  0.2359  0.1036  0.4641
  329TMC3     H 4943   4.414   2.982   0.155  2.2501 -0.5103  0.2898
  329TMC3    H1 4944   4.568   2.596   0.108  1.6424  0.8612  0.3212
  329TMC3    H2 4945   4.146   2.661   0.067  0.8524  0.6896 -1.6684
  329TMC3    C7 4946   4.363   2.478   0.023 -1.1751 -0.1401 -0.6455
  329TMC3    C8 4947   4.157   2.916   0.103  0.4595  0.1563  0.0136
  329TMC3    O1 4948   4.464   2.407   0.014  0.2386 -0.0153  0.5422
  329TMC3    O2 4949   4.055   2.880   0.044  0.2475  0.0169 -0.1888
  330TMC3    C1 4950   2.479   2.138  10.116 -0.3171  0.0109 -0.2380
  330TMC3    C2 4951   2.479   2.027  10.034  0.2748  0.9259 -0.0186
  330TMC3    C3 4952   2.590   1.942  10.039  0.2108  0.0141  0.0237
  330TMC3    C4 4953   2.580   2.168  10.198  0.6611  0.2104  0.5164
  330TMC3    C5 4954   2.689   2.081  10.208 -0.4869  0.1421 -0.0447
  330TMC3    C6 4955   2.681   1.965  10.135  0.1842  0.1469  0.3968
  330TMC3     C 4956   2.353   2.204  10.141 -0.6683 -0.1654  0.0976
  330TMC3     O 4957   2.347   2.285  10.227  0.1503 -0.2069  0.1960
  330TMC3     H 4958   2.411   2.004   9.953 -0.7278  0.1525  1.0376
  330TMC3    H1 4959   2.564   2.259  10.255 -1.2173  1.3798 -1.8925
  330TMC3    H2 4960   2.759   1.891  10.142  1.9993  1.9437 -0.5787
  330TMC3    C7 4961   2.823   2.138  10.230  0.9451  0.8101  0.6382
  330TMC3    C8 4962   2.633   1.859   9.932 -0.1217 -0.7743 -0.2584
  330TMC3    O1 4963   2.828   2.254  10.265  0.3677  0.2455  0.9030
  330TMC3    O2 4964   2.751   1.844   9.910  0.2462  0.1792  0.2083
  331MPD2     C 4965   0.236   1.572  12.631 -0.4155  0.8488  0.0341
  331MPD2    C1 4966   0.328   1.629  12.548  0.4441 -0.1720  0.2772
  331MPD2    C2 4967   0.447   1.564  12.528  0.0778  0.3389  0.6101
  331MPD2    C3 4968   0.482   1.446  12.585 -0.0865 -0.2272  0.4931
  331MPD2    C4 4969   0.394   1.384  12.663  0.1409 -0.8153 -0.2669
  331MPD2    C5 4970   0.270   1.448  12.685  0.9274 -0.2930 -0.1683
  331MPD2     H 4971   0.518   1.603  12.457 -0.2811 -0.5978 -0.2760
  331MPD2    H1 4972   0.418   1.296  12.721  0.8879 -0.6001 -0.2591
  331MPD2    H2 4973   0.146   1.625  12.657 -1.2332 -0.7837  0.5074
  331MPD2    H3 4974   0.203   1.403  12.757  1.0687  1.0300  0.7874
  331MPD2     N 4975   0.603   1.388  12.544 -0.4839  0.0871  0.1609
  331MPD2    H5 4976   0.662   1.442  12.481 -1.1371  0.3920 -0.1954
  331MPD2    N1 4977   0.280   1.749  12.492  0.0481 -0.1898  0.2541
  331MPD2    H7 4978   0.184   1.780  12.501 -0.0962 -0.8019  0.8480
  332TMC3    C1 4979   0.766   1.218  12.511 -0.0895 -0.4683  0.3266
  332TMC3    C2 4980   0.808   1.271  12.392  0.2830  0.1670 -0.2720
  332TMC3    C3 4981   0.902   1.206  12.320  0.0336 -0.1081 -0.3604
  332TMC3    C4 4982   0.824   1.095  12.546  0.2311 -0.0818 -0.1567
  332TMC3    C5 4983   0.924   1.036  12.475 -0.6692 -0.1418  0.2186
  332TMC3    C6 4984   0.955   1.087  12.357 -0.4496 -0.1687 -0.3695
  332TMC3     C 4985   0.643   1.261  12.579  0.0313  0.2341  0.0558
  332TMC3     O 4986   0.586   1.174  12.646  0.4222  0.2757  0.6336
  332TMC3     H 4987   0.754   1.358  12.358 -2.2772  0.0980  3.5904
  332TMC3    H1 4988   0.802   1.046  12.640  2.4609  2.3005  1.6239
  332TMC3    H2 4989   1.039   1.042  12.304  1.6925  0.4136  2.5243
  332TMC3    C7 4990   0.980   0.911  12.516  0.1779  0.1820  0.1664
  332TMC3    C8 4991   0.933   1.253  12.187 -0.4889  0.1818 -0.1638
  332TMC3    O1 4992   0.916   0.831  12.579 -0.4833  0.2767 -0.7169
  332TMC3    O2 4993   0.891   1.364  12.154 -0.7998  0.3036 -0.7075
  333MPD2     C 4994   1.724   0.762  11.000  0.3680 -0.5666 -0.6021
  333MPD2    C1 4995   1.601   0.757  10.945  0.2596  0.1944  0.3123
  333MPD2    C2 4996   1.486   0.758  11.027 -0.9519  0.9068  0.7103
  333MPD2    C3 4997   1.504   0.751  11.165 -0.2313 -0.2138  0.2347
  333MPD2    C4 4998   1.634   0.741  11.213  0.8374 -0.4396 -0.3828
  333MPD2    C5 4999   1.742   0.756  11.136 -0.7180 -0.6630  0.7342
  333MPD2     H 5000   1.387   0.764  10.982  0.5478  2.0498 -2.4466
  333MPD2    H1 5001   1.652   0.715  11.317 -0.3580 -0.2098 -0.1054
  333MPD2    H2 5002   1.816   0.752  10.943  1.7451 -0.3674  1.5873
  333MPD2    H3 5003   1.844   0.763  11.172 -0.5854 -0.8098  0.3871
  333MPD2     N 5004   1.385   0.757  11.244 -0.2232 -0.1447 -0.2371
  333MPD2    H5 5005   1.304   0.739  11.186 -0.1948 -3.4812  0.7656
  333MPD2    N1 5006   1.603   0.787  10.807 -0.0285 -0.2455  0.6629
  333MPD2    H7 5007   1.695   0.799  10.767  0.2422 -0.2639  1.2761
  334TMC3    C1 5008   1.531   0.807  10.585 -0.4548  1.6733  0.4014
  334TMC3    C2 5009   1.648   0.752  10.536 -0.2711  0.0843 -0.4157
  334TMC3    C3 5010   1.668   0.733  10.405 -0.0771 -0.9784 -0.3074
  334TMC3    C4 5011   1.433   0.851  10.496  0.0866  0.6946 -0.4362
  334TMC3    C5 5012   1.459   0.831  10.366  0.3335  0.4698  0.3717
  334TMC3    C6 5013   1.581   0.788  10.316 -0.2810  0.1563  0.0931
  334TMC3     C 5014   1.489   0.800  10.723  0.9100  0.1328 -0.8070
  334TMC3     O 5015   1.375   0.788  10.756  0.6208 -0.0769 -0.5655
  334TMC3     H 5016   1.726   0.707  10.596 -1.0848  0.1919  0.7050
  334TMC3    H1 5017   1.335   0.886  10.527  0.0601  0.3957 -0.1733
  334TMC3    H2 5018   1.602   0.793  10.210  1.8736 -0.6339  0.4982
  334TMC3    C7 5019   1.386   0.919  10.273  0.9662  0.1780  0.1591
  334TMC3    C8 5020   1.807   0.709  10.362  0.6079 -0.9088 -0.6533
  334TMC3    O1 5021   1.420   0.913  10.159 -0.0762  0.1355  0.1269
  334TMC3    O2 5022   1.835   0.626  10.274  0.2175 -0.5199 -0.4865
  335TMC3    C1 5023   0.749   3.001  17.686  0.8273  0.4661  0.7107
  335TMC3    C2 5024   0.692   2.933  17.585  0.6567 -0.3548 -0.1794
  335TMC3    C3 5025   0.768   2.827  17.536  0.0944 -0.3093  0.1928
  335TMC3    C4 5026   0.867   2.964   0.037  0.2344  0.2955 -0.8370
  335TMC3    C5 5027   0.931   2.852  17.697  0.0707  0.3024  0.2678
  335TMC3    C6 5028   0.883   2.779  17.589 -1.0289  0.5257 -0.1999
  335TMC3     C 5029   0.667   3.094   0.041 -0.7307  0.0674 -0.9837
  335TMC3     O 5030   0.673   3.098   0.168 -0.0345  0.6122 -0.0301
  335TMC3     H 5031   0.590   2.958  17.559  0.5609  1.5384  2.0816
  335TMC3    H1 5032   0.911   3.022   0.118  2.4248  1.3075 -2.7408
  335TMC3    H2 5033   0.932   2.690  17.551  0.1633  0.8911  0.4691
  335TMC3    C7 5034   1.072   2.821   0.026  0.6003  0.3322 -0.5152
  335TMC3    C8 5035   0.756   2.794  17.396  0.1027  0.2915  0.2188
  335TMC3    O1 5036   1.128   2.749  17.657 -0.2009  0.0789  0.1475
  335TMC3    O2 5037   0.863   2.786  17.336  0.3365  0.2160 -0.7649
  336MPD2     C 5038   0.326   0.631  16.495  1.0733 -0.1322  0.0301
  336MPD2    C1 5039   0.352   0.571  16.370  0.5715 -0.1479 -0.4066
  336MPD2    C2 5040   0.346   0.432  16.371  0.0712  0.6543  0.5210
  336MPD2    C3 5041   0.324   0.352  16.489 -0.5356  0.0975 -0.2518
  336MPD2    C4 5042   0.312   0.420  16.611  0.0511 -0.3038 -0.1300
  336MPD2    C5 5043   0.301   0.560  16.610  0.7130  0.0367  0.3638
  336MPD2     H 5044   0.345   0.386  16.273  2.4465 -0.3741  0.9807
  336MPD2    H1 5045   0.308   0.364  16.704 -0.3462 -1.2718 -0.7358
  336MPD2    H2 5046   0.329   0.740  16.502 -2.0331 -0.0580 -0.1757
  336MPD2    H3 5047   0.290   0.604  16.708  0.1955  0.7390 -0.0121
  336MPD2     N 5048   0.317   0.212  16.487 -0.6663 -0.0893  0.0999
  336MPD2    H5 5049   0.318   0.172  16.580  4.1224  0.6128  0.3223
  336MPD2    N1 5050   0.382   0.641  16.254  0.2004 -0.7023 -0.3790
  336MPD2    H7 5051   0.399   0.584  16.171 -0.1217  2.2643 -2.4754
  337TMC3    C1 5052   0.390   0.822  16.108 -0.0506  0.5389 -0.5986
  337TMC3    C2 5053   0.273   0.883  16.060 -0.1751 -0.3561  0.2065
  337TMC3    C3 5054   0.244   0.869  15.928 -0.0223  0.1389 -0.1352
  337TMC3    C4 5055   0.480   0.763  16.030 -0.3771  0.0737  0.1570
  337TMC3    C5 5056   0.450   0.762  15.890 -0.2610 -0.7986 -0.2554
  337TMC3    C6 5057   0.336   0.820  15.838 -0.0918 -0.7599 -0.1404
  337TMC3     C 5058   0.379   0.779  16.244  0.0054  0.1641  0.2048
  337TMC3     O 5059   0.342   0.864  16.320  0.1588 -0.0618 -0.0890
  337TMC3     H 5060   0.208   0.935  16.130  0.5693  0.8662 -0.0169
  337TMC3    H1 5061   0.558   0.705  16.077 -1.1714 -2.0647 -1.1518
  337TMC3    H2 5062   0.319   0.811  15.732  1.3890  0.7208 -0.5011
  337TMC3    C7 5063   0.543   0.691  15.798  0.7343  0.5852 -0.7966
  337TMC3    C8 5064   0.109   0.902  15.886  0.6952 -0.0374 -0.2488
  337TMC3    O1 5065   0.484   0.634  15.708  0.1796  0.2229  0.6078
  337TMC3    O2 5066   0.041   0.966  15.963  0.3227 -0.5172 -0.1490
  338MPD2     C 5067   0.588   4.584   1.368 -1.4609 -0.3862  0.3711
  338MPD2    C1 5068   0.572   4.566   1.234  0.2892 -0.4422  0.1597
  338MPD2    C2 5069   0.443   4.559   1.188 -0.3671 -0.7287 -0.2252
  338MPD2    C3 5070   0.337   4.586   1.267 -0.8926 -0.3080 -0.5994
  338MPD2    C4 5071   0.353   4.607   1.401 -0.0602 -0.2412  0.2130
  338MPD2    C5 5072   0.486   4.596   1.454  0.1987 -0.1807  0.1483
  338MPD2     H 5073   0.440   4.534   1.082  1.3909 -3.2567  0.3126
  338MPD2    H1 5074   0.262   4.617   1.460 -1.7261 -1.3831 -2.1481
  338MPD2    H2 5075   0.686   4.587   1.414 -1.0608 -0.3558 -0.4678
  338MPD2    H3 5076   0.501   4.619   1.559 -1.7198  0.5900  0.2581
  338MPD2     N 5077   0.209   4.580   1.204 -0.1623 -0.5958  0.1322
  338MPD2    H5 5078   0.207   4.598   1.104  2.4601  2.5151  0.6271
  338MPD2    N1 5079   0.680   4.531   1.148  0.5672 -0.4034  0.0474
  338MPD2    H7 5080   0.655   4.521   1.050  2.0065  1.5509 -0.5239
  339TMC3    C1 5081   4.703   4.577   1.186  0.2879 -0.0690  0.6953
  339TMC3    C2 5082   4.614   4.472   1.159  0.0099  0.8667 -0.0444
  339TMC3    C3 5083   4.540   4.477   1.042 -0.2649 -0.2918  0.1833
  339TMC3    C4 5084   4.720   4.683   1.100  0.1570 -0.2933  0.0891
  339TMC3    C5 5085   4.651   4.681   0.976  0.2199 -0.0414  0.1340
  339TMC3    C6 5086   4.559   4.580   0.952  1.2971 -0.2451  0.3039
  339TMC3     C 5087   0.089   4.556   1.273 -0.2437  0.3205  0.3749
  339TMC3     O 5088   0.059   4.512   1.385 -0.2610  0.5594 -0.4487
  339TMC3     H 5089   4.630   4.387   1.224 -0.0897  0.6555 -0.2936
  339TMC3    H1 5090   0.061   0.036   1.127  0.8150 -0.9996  0.5732
  339TMC3    H2 5091   4.497   4.589   0.864 -0.0831 -1.6068  1.1389
  339TMC3    C7 5092   0.017   4.719   0.871 -0.0872  0.8048 -0.5100
  339TMC3    C8 5093   4.483   4.351   0.994  0.5580  0.1722 -0.6959
  339TMC3    O1 5094   0.137   0.019   0.899  0.5339  0.3394  0.5048
  339TMC3    O2 5095   4.477   4.339   0.872 -0.2410 -1.4007  0.2015
  340MPD2     C 5096   1.319   2.941  10.169 -0.1705  0.0821  0.8415
  340MPD2    C1 5097   1.207   2.908  10.248  0.9926  0.2073 -0.1377
  340MPD2    C2 5098   1.173   2.991  10.352  0.0366  0.5066  0.1911
  340MPD2    C3 5099   1.249   3.105  10.370  0.1183 -0.0922 -0.3788
  340MPD2    C4 5100   1.354   3.137  10.293 -0.2989  0.2005  1.0401
  340MPD2    C5 5101   1.389   3.052  10.194 -0.7445 -0.2335  0.4129
  340MPD2     H 5102   1.086   2.964  10.409  0.3318 -2.3616 -0.7398
  340MPD2    H1 5103   1.415   3.225  10.314  3.0475 -2.5420  2.7901
  340MPD2    H2 5104   1.349   2.881  10.084  0.0186  1.0420  0.2418
  340MPD2    H3 5105   1.475   3.077  10.134 -1.9358  0.9145 -0.7981
  340MPD2     N 5106   1.226   3.193  10.484  0.2178  0.2489  0.1818
  340MPD2    H5 5107   1.302   3.260  10.493  0.5469 -0.0378 -0.5246
  340MPD2    N1 5108   1.142   2.784  10.219 -0.0009  0.0352  0.1700
  340MPD2    H7 5109   1.191   2.723  10.156 -0.1819  1.2451 -1.1435
  341TMC3    C1 5110   0.976   2.609  10.240  0.9766  0.4634 -0.3673
  341TMC3    C2 5111   0.877   2.557  10.317  0.1976 -0.9800  0.3029
  341TMC3    C3 5112   0.835   2.434  10.289 -0.6536 -0.1513 -0.6619
  341TMC3    C4 5113   1.022   2.542  10.128  0.3692 -0.0238  0.6570
  341TMC3    C5 5114   0.965   2.423  10.093 -0.2913  0.4709  0.0921
  341TMC3    C6 5115   0.878   2.361  10.182 -0.7575  0.0964  0.0614
  341TMC3     C 5116   1.024   2.740  10.275  0.5818 -0.3366  0.0546
  341TMC3     O 5117   0.952   2.809  10.347  0.1231  0.4774  0.7545
  341TMC3     H 5118   0.844   2.608  10.407  1.1989  1.2789 -0.6233
  341TMC3    H1 5119   1.102   2.590  10.073 -1.5515 -0.5480 -2.6198
  341TMC3    H2 5120   0.840   2.262  10.160 -2.5631  0.6217  0.8016
  341TMC3    C7 5121   1.052   2.328  10.024 -0.8910 -0.4043  0.6445
  341TMC3    C8 5122   0.788   2.362  10.402  0.3696  0.0692 -0.2843
  341TMC3    O1 5123   1.171   2.358  10.033  0.4940 -0.2625  0.3170
  341TMC3    O2 5124   0.735   2.426  10.490 -0.5659  0.0324 -0.2335
  342MPD2     C 5125   3.115   1.385  17.000 -0.5171 -0.5551  0.2587
  342MPD2    C1 5126   3.210   1.369  17.103 -0.6747  0.3916 -0.1976
  342MPD2    C2 5127   3.238   1.474  17.189  0.6281  0.0697 -0.3066
  342MPD2    C3 5128   3.166   1.593  17.168 -0.1467  0.1560  0.4996
  342MPD2    C4 5129   3.078   1.615  17.059 -0.0046 -0.7441 -0.6014
  342MPD2    C5 5130   3.061   1.509  16.977 -0.6671  0.0520 -0.0340
  342MPD2     H 5131   3.313   1.458  17.265  0.3941  2.6990  0.4803
  342MPD2    H1 5132   3.018   1.705  17.054  1.3590  0.2822  1.4016
  342MPD2    H2 5133   3.081   1.302  16.939  0.7003 -0.0145 -1.1534
  342MPD2    H3 5134   2.984   1.522  16.902  1.1952 -0.5677 -2.0781
  342MPD2     N 5135   3.186   1.711  17.246  0.5487  0.6368  0.1643
  342MPD2    H5 5136   3.161   1.804  17.213 -1.2397  0.7444  1.7839
  342MPD2    N1 5137   3.258   1.250  17.136  0.3240  0.3956  0.0718
  342MPD2    H7 5138   3.333   1.239  17.203  0.5222  0.3459 -0.1570
  343TMC3    C1 5139   3.284   1.018  17.111 -0.7743  0.1466 -0.0463
  343TMC3    C2 5140   3.423   1.026  17.104  0.7897  0.9347 -0.6576
  343TMC3    C3 5141   3.504   0.918  17.121  0.0132  0.5161  0.2078
  343TMC3    C4 5142   3.222   0.893  17.130  0.6991  0.2832 -0.1213
  343TMC3    C5 5143   3.305   0.786  17.143 -0.9630  0.3369  0.0659
  343TMC3    C6 5144   3.445   0.799  17.142 -0.2536  0.3067 -0.4197
  343TMC3     C 5145   3.192   1.132  17.107 -0.2640  0.3731  0.0104
  343TMC3     O 5146   3.074   1.117  17.063  0.4882 -0.2048 -0.0807
  343TMC3     H 5147   3.470   1.123  17.089  1.6221  0.3220 -1.9931
  343TMC3    H1 5148   3.115   0.888  17.112  0.6833  1.0338 -0.2169
  343TMC3    H2 5149   3.499   0.714  17.183 -1.0081 -0.7837 -1.6966
  343TMC3    C7 5150   3.252   0.655  17.159  0.5786  0.2625 -0.1540
  343TMC3    C8 5151   3.647   0.935  17.105 -0.2003 -0.1411  0.2890
  343TMC3    O1 5152   3.320   0.566  17.110 -0.5398  0.4552  0.6569
  343TMC3    O2 5153   3.692   1.049  17.106 -0.4230 -0.2324  0.2181
  344MPD2     C 5154   0.073   0.663  11.283  0.2849 -0.1634  0.6550
  344MPD2    C1 5155   4.703   0.621  11.206 -0.7121  0.7460 -0.1177
  344MPD2    C2 5156   4.636   0.712  11.116 -0.0527 -0.7658  0.6480
  344MPD2    C3 5157   4.673   0.844  11.117 -0.6158 -0.3658 -0.3179
  344MPD2    C4 5158   0.055   0.884  11.194 -0.2651  0.0108 -0.3505
  344MPD2    C5 5159   0.116   0.790  11.271  0.3108 -0.2606 -0.2930
  344MPD2     H 5160   4.560   0.667  11.053 -0.9178 -1.1944  2.0004
  344MPD2    H1 5161   0.086   0.987  11.204 -0.6499  0.0847  0.0758
  344MPD2    H2 5162   0.141   0.594  11.332  1.3840  1.3255  1.2119
  344MPD2    H3 5163   0.203   0.831  11.320  0.4667 -0.4209 -0.4346
  344MPD2     N 5164   4.601   0.949  11.066  0.9412 -0.1855 -0.3681
  344MPD2    H5 5165   4.641   1.039  11.089  0.2693  0.3500 -1.2933
  344MPD2    N1 5166   4.652   0.487  11.208 -0.0998 -0.0550 -0.2853
  344MPD2    H7 5167   4.586   0.460  11.137 -0.0377  0.3883 -0.5079
  345TMC3    C1 5168   4.463   1.065  10.914  0.0867  1.1137 -0.7912
  345TMC3    C2 5169   4.479   1.191  10.968 -0.0106  0.4369  0.0110
  345TMC3    C3 5170   4.421   1.296  10.897 -0.0432  0.9166  0.3614
  345TMC3    C4 5171   4.374   1.050  10.807 -1.0793  0.1667  0.1799
  345TMC3    C5 5172   4.332   1.161  10.741 -0.2525  0.3283  0.1823
  345TMC3    C6 5173   4.356   1.287  10.783 -0.1668  0.3476 -0.3529
  345TMC3     C 5174   4.487   0.942  10.995 -0.2499  0.1694 -0.3830
  345TMC3     O 5175   4.429   0.849  10.949  0.2510 -0.6901  0.1010
  345TMC3     H 5176   4.546   1.203  11.053 -0.1499 -0.5953  0.2672
  345TMC3    H1 5177   4.354   0.957  10.756 -0.1120  0.5806 -0.9559
  345TMC3    H2 5178   4.320   1.375  10.731  0.3734 -0.4821 -2.1634
  345TMC3    C7 5179   4.283   1.137  10.610 -0.6575  0.5119  0.4424
  345TMC3    C8 5180   4.473   1.433  10.924 -0.4750 -0.1265  0.2681
  345TMC3    O1 5181   4.221   1.038  10.582  0.2223  0.0422  0.4370
  345TMC3    O2 5182   4.483   1.509  10.827 -0.3270  0.0916  0.0098
  346MPD2     C 5183   4.677   2.235  14.124 -1.0079  0.5160  0.3908
  346MPD2    C1 5184   0.069   2.312  14.145  1.3794  0.3544 -0.3881
  346MPD2    C2 5185   0.073   2.395  14.253  0.3451  0.0310 -0.0770
  346MPD2    C3 5186   4.689   2.401  14.345 -0.1784  0.6010 -0.1848
  346MPD2    C4 5187   4.582   2.317  14.333  0.7287 -0.4433 -0.0604
  346MPD2    C5 5188   4.580   2.237  14.223  0.3826 -0.3014  0.8249
  346MPD2     H 5189   0.163   2.452  14.274  0.8459 -0.7237 -0.1897
  346MPD2    H1 5190   4.499   2.325  14.402  1.9459  1.5705  1.1649
  346MPD2    H2 5191   4.652   2.167  14.043  2.5912 -0.4733  0.0776
  346MPD2    H3 5192   4.487   2.182  14.209  0.6154 -0.9258  1.7491
  346MPD2     N 5193   4.713   2.488  14.458  0.5399  0.4684  0.0281
  346MPD2    H5 5194   0.070   2.545  14.461 -0.4208  1.9548 -1.2230
  346MPD2    N1 5195   0.175   2.305  14.052 -0.2099  0.1460  0.3974
  346MPD2    H7 5196   0.265   2.350  14.067  0.4632 -0.7567 -0.9203
  347TMC3    C1 5197   4.699   2.557  14.665 -0.2941 -0.2098 -0.6342
  347TMC3    C2 5198   0.107   2.595  14.649  0.1742  0.2675  0.2993
  347TMC3    C3 5199   0.182   2.610  14.763 -0.9055  0.0172  0.2030
  347TMC3    C4 5200   4.659   2.500  14.785 -0.1264  0.1595  0.2715
  347TMC3    C5 5201   0.022   2.495  14.893 -0.2940  0.1259  0.5018
  347TMC3    C6 5202   0.144   2.560  14.887 -0.2528  0.0137  0.4822
  347TMC3     C 5203   4.622   2.502  14.554 -0.2774  0.0305  0.1808
  347TMC3     O 5204   4.502   2.482  14.554 -0.6510 -0.2039  0.1317
  347TMC3     H 5205   0.150   2.626  14.554 -0.6410  0.8422  0.1158
  347TMC3    H1 5206   4.559   2.463  14.801  0.4073 -0.7280  1.6112
  347TMC3    H2 5207   0.211   2.569  14.972 -2.4584  0.5339  2.1689
  347TMC3    C7 5208   4.685   2.442  15.015  0.5583 -0.2211  0.5144
  347TMC3    C8 5209   0.327   2.602  14.728  0.1009 -0.3000  0.2486
  347TMC3    O1 5210   4.567   2.432  15.014 -0.0459 -0.7234 -0.5920
  347TMC3    O2 5211   0.357   2.573  14.613 -0.5685  0.1830  0.1905
  348MPD2     C 5212   3.047   1.995  12.642  0.1335 -0.5213  0.0252
  348MPD2    C1 5213   3.140   2.029  12.544  0.1999  0.2862  0.4735
  348MPD2    C2 5214   3.090   2.055  12.419  0.4734  0.1554 -0.0029
  348MPD2    C3 5215   2.959   2.060  12.392 -0.2355  0.3308  0.4851
  348MPD2    C4 5216   2.864   2.031  12.488 -0.7456 -0.0310  1.1919
  348MPD2    C5 5217   2.911   1.994  12.618 -0.6375 -0.9929  0.1080
  348MPD2     H 5218   3.156   2.077  12.336 -0.4303  2.5267 -0.0967
  348MPD2    H1 5219   2.757   2.038  12.477 -0.6269  0.6709  0.4176
  348MPD2    H2 5220   3.071   1.966  12.744  0.6418 -0.4394 -0.0676
  348MPD2    H3 5221   2.852   1.964  12.703 -1.4933  0.2517 -0.0457
  348MPD2     N 5222   2.927   2.089  12.263 -0.2736  0.3883 -0.3452
  348MPD2    H5 5223   2.999   2.113  12.196  1.2353  1.4578  1.6548
  348MPD2    N1 5224   3.279   2.012  12.549  0.0909 -0.6237 -0.3824
  348MPD2    H7 5225   3.327   2.033  12.462 -0.5687 -2.3068 -1.1498
  349TMC3    C1 5226   3.472   1.918  12.599 -0.4783  0.1973 -0.2853
  349TMC3    C2 5227   3.510   1.788  12.622 -0.1770 -0.5024 -0.2211
  349TMC3    C3 5228   3.606   1.735  12.539 -0.5359 -0.0017 -0.0534
  349TMC3    C4 5229   3.519   1.991  12.500 -0.5223 -0.1325  0.6440
  349TMC3    C5 5230   3.607   1.934  12.418 -0.3487  0.0068 -0.3975
  349TMC3    C6 5231   3.645   1.809  12.428 -0.1062  0.1478 -0.2183
  349TMC3     C 5232   3.341   1.948  12.645  0.1229 -0.2818  0.7765
  349TMC3     O 5233   3.309   1.913  12.757 -0.7203 -0.0798 -0.1850
  349TMC3     H 5234   3.453   1.731  12.694 -2.9880  0.7989 -1.4370
  349TMC3    H1 5235   3.492   2.094  12.484 -1.9923 -0.5234  0.5906
  349TMC3    H2 5236   3.714   1.770  12.353  2.4705  1.8027  1.2899
  349TMC3    C7 5237   3.566   1.963  12.279  0.1093 -0.0364 -0.1667
  349TMC3    C8 5238   3.655   1.604  12.558 -0.1824  0.5247 -0.3499
  349TMC3    O1 5239   3.563   1.865  12.206  0.2706 -0.0303 -0.1736
  349TMC3    O2 5240   3.575   1.518  12.593  0.4185 -0.4051 -0.4484
  350MPD2     C 5241   3.093   4.626   9.811  0.0150 -0.9284 -0.3390
  350MPD2    C1 5242   3.092   4.584   9.938 -0.9658 -0.0374  0.0691
  350MPD2    C2 5243   3.198   4.613  10.019 -0.2654  0.3351  0.2386
  350MPD2    C3 5244   3.307   4.687   9.975 -0.1491 -1.3078 -0.7888
  350MPD2    C4 5245   3.316   4.717   9.845  0.1936 -0.0992  0.2996
  350MPD2    C5 5246   3.207   4.683   9.759  0.8361  1.0053  0.3160
  350MPD2     H 5247   3.201   4.590  10.125  2.6710 -0.8476 -0.1069
  350MPD2    H1 5248   3.393   0.051   9.799 -0.2816  1.0726  1.0642
  350MPD2    H2 5249   3.009   4.606   9.745 -1.6988  1.0938  1.2248
  350MPD2    H3 5250   3.206   4.713   9.655  1.1607 -1.6925 -0.4643
  350MPD2     N 5251   3.406   0.002  10.069  0.2603 -0.2245  0.2305
  350MPD2    H5 5252   3.379   0.000  10.167 -0.0040 -2.8570  0.1043
  350MPD2    N1 5253   2.986   4.522  10.001  0.1665  0.3259  0.0604
  350MPD2    H7 5254   2.983   4.485  10.096  1.0814  0.3665  0.1038
  351TMC3    C1 5255   2.783   4.438  10.039  0.0390 -0.0254  0.4278
  351TMC3    C2 5256   2.826   4.318  10.083 -0.1172  0.3245  0.2267
  351TMC3    C3 5257   2.740   4.219  10.134  0.3389  0.2538 -0.3226
  351TMC3    C4 5258   2.654   4.467  10.069 -0.1829 -0.7017 -0.4235
  351TMC3    C5 5259   2.567   4.375  10.118  0.0025 -0.4425 -0.1175
  351TMC3    C6 5260   2.610   4.245  10.155 -0.1184 -0.2211 -0.7682
  351TMC3     C 5261   2.856   4.523   9.956  0.1138 -0.0045  0.3828
  351TMC3     O 5262   2.812   4.576   9.854 -0.2521 -0.7247  0.2440
  351TMC3     H 5263   2.922   4.284  10.046 -0.7949  0.7400 -1.8657
  351TMC3    H1 5264   2.617   4.559  10.027 -1.7083 -0.3684  1.6169
  351TMC3    H2 5265   2.548   4.168  10.198  0.9333 -0.7240 -0.1466
  351TMC3    C7 5266   2.435   4.418  10.159  1.0346  0.3792  1.4186
  351TMC3    C8 5267   2.777   4.083  10.168 -0.1048 -0.3650  0.0392
  351TMC3    O1 5268   2.402   4.538  10.155 -0.2677 -0.6314 -0.1191
  351TMC3    O2 5269   2.688   3.998  10.176 -0.0418 -0.2005 -0.2203
  352MPD2     C 5270   1.553   2.165   1.222  0.5003  0.0805  0.4433
  352MPD2    C1 5271   1.416   2.157   1.200 -0.3876  0.5390 -0.2121
  352MPD2    C2 5272   1.335   2.112   1.299  0.2391 -0.1141 -0.0441
  352MPD2    C3 5273   1.382   2.070   1.423  0.0452  0.3772  0.0059
  352MPD2    C4 5274   1.517   2.071   1.441 -0.2612 -0.5440 -0.2113
  352MPD2    C5 5275   1.598   2.122   1.343 -0.1180 -0.0757  0.4768
  352MPD2     H 5276   1.230   2.107   1.275  0.1518 -0.8615  0.5122
  352MPD2    H1 5277   1.560   2.029   1.531  0.9287  0.2282 -0.4170
  352MPD2    H2 5278   1.628   2.188   1.147 -0.7201  0.4100 -0.6671
  352MPD2    H3 5279   1.699   2.124   1.383 -0.0377  2.3522  0.1821
  352MPD2     N 5280   1.303   2.009   1.523  0.5173 -1.3314 -0.0381
  352MPD2    H5 5281   1.358   1.987   1.605  3.5875  0.2323 -1.6470
  352MPD2    N1 5282   1.369   2.193   1.067 -0.4055 -0.4305 -0.0400
  352MPD2    H7 5283   1.438   2.218   0.997 -0.4694  1.0045  0.4076
  353TMC3    C1 5284   1.110   1.888   1.604 -0.2968 -0.6993 -0.0812
  353TMC3    C2 5285   1.205   1.811   1.667 -0.0644 -0.0180  0.7909
  353TMC3    C3 5286   1.152   1.687   1.705  0.8954  0.4712 -0.0043
  353TMC3    C4 5287   0.978   1.849   1.592 -0.7463  0.0126 -0.2139
  353TMC3    C5 5288   0.932   1.728   1.633 -0.4341 -0.1189 -0.3335
  353TMC3    C6 5289   1.023   1.645   1.693  0.5690 -0.1422 -0.2447
  353TMC3     C 5290   1.166   1.993   1.516 -1.1746  0.5258 -0.2002
  353TMC3     O 5291   1.089   2.045   1.435 -0.2288  0.0164  0.3533
  353TMC3     H 5292   1.310   1.834   1.680 -0.7341  3.3449  0.2885
  353TMC3    H1 5293   0.909   1.911   1.537  0.5629  0.4529 -1.3472
  353TMC3    H2 5294   0.990   1.555   1.744 -1.2831  0.4536 -0.3953
  353TMC3    C7 5295   0.805   1.670   1.594  0.1661 -0.2106 -0.2835
  353TMC3    C8 5296   1.250   1.592   1.745 -0.0308 -0.7044 -0.7500
  353TMC3    O1 5297   0.799   1.548   1.595  0.3089  0.1016  0.5475
  353TMC3    O2 5298   1.357   1.639   1.782  0.3392 -0.1923  0.7414
  354TMC3    C1 5299   2.310   3.167  13.420  0.4742 -0.6118  0.3569
  354TMC3    C2 5300   2.409   3.252  13.456 -0.0256 -1.0214 -0.1883
  354TMC3    C3 5301   2.527   3.237  13.380 -0.1207  0.0002 -0.3626
  354TMC3    C4 5302   2.307   3.103  13.296 -0.5302 -0.1384 -0.3862
  354TMC3    C5 5303   2.420   3.100  13.222  0.3572 -0.9352  0.0009
  354TMC3    C6 5304   2.528   3.162  13.266 -0.7376  0.6402 -0.5836
  354TMC3     C 5305   2.218   3.128  13.524 -0.6161 -0.2811  0.2060
  354TMC3     O 5306   2.112   3.079  13.499  0.4326  0.8293  0.0902
  354TMC3     H 5307   2.404   3.309  13.548 -1.3706 -1.4164 -0.0169
  354TMC3    H1 5308   2.237   3.025  13.272  2.3395 -2.5574 -0.9076
  354TMC3    H2 5309   2.623   3.157  13.215  0.8067 -0.8505  2.4035
  354TMC3    C7 5310   2.427   3.010  13.107 -0.0261 -0.2247  0.5808
  354TMC3    C8 5311   2.611   3.353  13.369 -0.4054 -0.0115  0.6513
  354TMC3    O1 5312   2.323   2.949  13.082  0.4332  0.3911  0.0734
  354TMC3    O2 5313   2.676   3.359  13.271  0.0670 -0.7011  0.2879
  355MPD2     C 5314   2.569   4.016  11.762 -0.6246  0.0217 -0.9341
  355MPD2    C1 5315   2.647   4.113  11.717 -0.2753 -0.0531 -0.1749
  355MPD2    C2 5316   2.766   4.146  11.777 -0.8305  0.4295 -0.5240
  355MPD2    C3 5317   2.812   4.069  11.882 -0.2767  0.1752 -0.1265
  355MPD2    C4 5318   2.734   3.962  11.927 -0.1565 -0.2118  0.2032
  355MPD2    C5 5319   2.610   3.944  11.870 -0.2484  0.2476 -0.1026
  355MPD2     H 5320   2.822   4.231  11.741 -1.4506  1.3525  0.6711
  355MPD2    H1 5321   2.762   3.904  12.014 -2.6496 -2.4301 -0.4753
  355MPD2    H2 5322   2.467   4.008  11.727 -0.5454 -0.5815 -1.0321
  355MPD2    H3 5323   2.543   3.874  11.918  1.9534 -1.0081  1.1360
  355MPD2     N 5324   2.939   4.084  11.946 -0.1009  0.5670  0.2583
  355MPD2    H5 5325   2.975   4.019  12.015 -0.8282 -0.1726 -0.0621
  355MPD2    N1 5326   2.605   4.176  11.596  0.2568 -0.0847  0.1118
  355MPD2    H7 5327   2.530   4.138  11.539  0.7283  1.7285 -1.7035
  356TMC3    C1 5328   3.175   4.160  11.960 -0.0364 -0.0705 -0.6626
  356TMC3    C2 5329   3.273   4.164  11.867 -0.0695  0.6625 -0.0689
  356TMC3    C3 5330   3.381   4.241  11.894 -0.1267  0.8413 -0.2813
  356TMC3    C4 5331   3.187   4.210  12.087  0.0727 -0.2520  1.2344
  356TMC3    C5 5332   3.284   4.302  12.100 -0.2777 -0.8223  0.2026
  356TMC3    C6 5333   3.381   4.325  12.005 -0.7400 -0.1294 -0.0434
  356TMC3     C 5334   3.041   4.172  11.902  0.1231  0.2738  0.1987
  356TMC3     O 5335   3.040   4.245  11.804 -0.7279  0.2037 -0.3770
  356TMC3     H 5336   3.255   4.116  11.772  1.1138 -0.3181  0.2126
  356TMC3    H1 5337   3.099   4.201  12.150 -0.6206  2.8526  0.6882
  356TMC3    H2 5338   3.459   4.400  12.017 -1.3489  0.4742  0.1222
  356TMC3    C7 5339   3.268   4.395  12.209 -0.1431  0.1233 -0.3818
  356TMC3    C8 5340   3.474   4.273  11.783 -0.0026  0.8370  0.4131
  356TMC3    O1 5341   3.206   4.349  12.299  0.0739  0.2621 -0.3121
  356TMC3    O2 5342   3.420   4.257  11.674  0.4238  0.0730 -0.5438
  357MPD2     C 5343   1.405   4.072   1.355  0.9996  0.0288 -0.7382
  357MPD2    C1 5344   1.441   3.946   1.307  0.9211 -0.5381 -0.0733
  357MPD2    C2 5345   1.344   3.863   1.260  0.1959  0.4863 -0.2433
  357MPD2    C3 5346   1.209   3.899   1.274  0.0758 -0.8545  0.0172
  357MPD2    C4 5347   1.180   4.019   1.331  0.6180  0.8527 -0.4028
  357MPD2    C5 5348   1.276   4.110   1.362  0.1665  0.0711 -0.2590
  357MPD2     H 5349   1.373   3.765   1.222  1.7606  0.4936  0.9127
  357MPD2    H1 5350   1.078   4.047   1.351  0.6484  0.7438 -0.1038
  357MPD2    H2 5351   1.482   4.144   1.379  0.6463 -0.5919  2.3125
  357MPD2    H3 5352   1.254   4.210   1.399 -1.1901 -0.9858  1.7974
  357MPD2     N 5353   1.103   3.812   1.251  0.6020 -0.9143  0.1747
  357MPD2    H5 5354   1.014   3.859   1.267  0.2980 -1.6885  0.7881
  357MPD2    N1 5355   1.574   3.899   1.299 -0.0503 -0.4878 -0.2676
  357MPD2    H7 5356   1.582   3.800   1.278 -3.2930 -1.6041  3.8563
  358TMC3    C1 5357   1.797   3.879   1.355 -1.0070 -0.2147 -0.1484
  358TMC3    C2 5358   1.828   3.796   1.254 -0.2866 -0.3109  0.0465
  358TMC3    C3 5359   1.936   3.708   1.286  0.2081 -0.9661  0.1220
  358TMC3    C4 5360   1.851   3.875   1.479 -0.0547 -0.0595  0.7238
  358TMC3    C5 5361   1.951   3.786   1.498  0.1903  0.3894 -0.1039
  358TMC3    C6 5362   2.006   3.709   1.402  0.5647  0.1709  0.0177
  358TMC3     C 5363   1.687   3.965   1.347 -0.0986 -0.7117  0.4107
  358TMC3     O 5364   1.698   4.078   1.391 -0.3163 -0.3849  0.1344
  358TMC3     H 5365   1.811   3.823   1.151 -0.0019 -2.8952 -0.6909
  358TMC3    H1 5366   1.815   3.953   1.545  1.7477  1.1815  0.2258
  358TMC3    H2 5367   2.069   3.625   1.431 -2.7379 -1.8288  1.3700
  358TMC3    C7 5368   2.011   3.780   1.630  0.5664 -0.4066  0.4653
  358TMC3    C8 5369   1.965   3.607   1.189 -0.2551  0.7031  0.0418
  358TMC3    O1 5370   2.092   3.692   1.651 -0.4212 -0.0439 -0.1172
  358TMC3    O2 5371   1.872   3.588   1.111 -0.2916  0.3934 -0.1507
  359MPD2     C 5372   2.776   2.199  12.924  0.1389 -0.3432 -0.4330
  359MPD2    C1 5373   2.719   2.231  12.803  0.1911 -0.0773 -0.2207
  359MPD2    C2 5374   2.587   2.186  12.782 -0.4576  0.0341  0.7500
  359MPD2    C3 5375   2.515   2.118  12.874  0.8483  0.0060  0.3817
  359MPD2    C4 5376   2.577   2.086  12.989 -0.8028  0.2746  0.5950
  359MPD2    C5 5377   2.708   2.118  13.014  0.2431 -0.6036  0.6835
  359MPD2     H 5378   2.540   2.214  12.689 -3.1326 -0.0058  2.0831
  359MPD2    H1 5379   2.513   2.040  13.063 -0.1582  0.3608  1.2090
  359MPD2    H2 5380   2.879   2.214  12.954 -0.0891  2.9058 -1.2905
  359MPD2    H3 5381   2.751   2.111  13.114  0.2142  1.1637  0.8309
  359MPD2     N 5382   2.383   2.061  12.855  0.3831  0.1811 -0.3063
  359MPD2    H5 5383   2.350   2.002  12.930  3.0676 -1.7483 -0.6294
  359MPD2    N1 5384   2.775   2.315  12.708  0.1356  0.5372  1.0245
  359MPD2    H7 5385   2.719   2.341  12.628  0.0245  0.4064  1.0599
  360TMC3    C1 5386   2.895   2.481  12.612 -0.1017 -0.0192 -0.0180
  360TMC3    C2 5387   2.967   2.597  12.629  0.0898 -0.2084 -0.3633
  360TMC3    C3 5388   2.995   2.671  12.515  0.6039  0.0794  0.9121
  360TMC3    C4 5389   2.836   2.451  12.495 -0.8642  0.5818 -0.4998
  360TMC3    C5 5390   2.861   2.532  12.384  0.2987  0.4539 -0.0545
  360TMC3    C6 5391   2.943   2.642  12.391  0.2555  0.4900 -0.2817
  360TMC3     C 5392   2.884   2.398  12.728  0.1400 -0.0092  0.1086
  360TMC3     O 5393   2.972   2.401  12.818  0.0691  0.5005 -0.1742
  360TMC3     H 5394   3.038   2.609  12.709 -0.5385 -1.5914  0.3895
  360TMC3    H1 5395   2.789   2.355  12.478  0.1128  0.0465 -0.1579
  360TMC3    H2 5396   2.958   2.709  12.308  0.8214  2.6677  1.5750
  360TMC3    C7 5397   2.820   2.499  12.254 -0.3431 -0.3726  0.2732
  360TMC3    C8 5398   3.102   2.767  12.517  0.8132  0.0220 -1.0008
  360TMC3    O1 5399   2.908   2.508  12.173 -0.1151  0.4852  0.3582
  360TMC3    O2 5400   3.094   2.855  12.604  0.3296 -0.3292  0.1141
  361MPD2     C 5401   4.624   1.085  16.665  0.1912  0.0506 -0.3760
  361MPD2    C1 5402   4.612   1.167  16.776  0.1052 -0.0992  0.0579
  361MPD2    C2 5403   4.657   1.113  16.897 -0.4188  0.1359 -0.2941
  361MPD2    C3 5404   4.724   0.997  16.899 -0.1502 -0.4427 -0.1214
  361MPD2    C4 5405   0.006   0.919  16.784 -0.0860 -0.7768  0.1497
  361MPD2    C5 5406   4.683   0.964  16.663  0.1673  0.5832  0.5338
  361MPD2     H 5407   4.648   1.173  16.987  0.1242 -1.7275  1.0117
  361MPD2    H1 5408   0.047   0.819  16.798  0.8673 -0.5832 -1.2008
  361MPD2    H2 5409   4.588   1.128  16.572 -0.0016 -1.2849 -0.9168
  361MPD2    H3 5410   4.675   0.906  16.572  0.7589 -1.3297  1.7172
  361MPD2     N 5411   0.053   0.941  17.018 -0.3682  0.1792 -0.1786
  361MPD2    H5 5412   0.110   0.857  17.020  0.6186  0.8345 -1.1323
  361MPD2    N1 5413   4.562   1.293  16.784 -0.1784 -0.0870 -0.2295
  361MPD2    H7 5414   4.545   1.332  16.876  0.5182  0.6144 -0.3987
  362TMC3    C1 5415   4.512   1.517  16.719 -0.1324 -0.0313  0.5342
  362TMC3    C2 5416   4.573   1.569  16.829  0.3095  0.9262  0.1527
  362TMC3    C3 5417   4.539   1.693  16.880  0.7214 -0.0238 -0.6161
  362TMC3    C4 5418   4.428   1.596  16.647  0.5455 -0.6329  0.2983
  362TMC3    C5 5419   4.414   1.731  16.693 -0.0123 -0.1256  0.7343
  362TMC3    C6 5420   4.455   1.777  16.814  0.0980  0.4342  0.1912
  362TMC3     C 5421   4.528   1.376  16.678  0.1803  0.4510  0.0059
  362TMC3     O 5422   4.534   1.353  16.555  0.5353  0.1396 -0.5293
  362TMC3     H 5423   4.636   1.510  16.895  1.1275  1.8947  0.2217
  362TMC3    H1 5424   4.389   1.566  16.550 -1.0131 -1.1521  1.0957
  362TMC3    H2 5425   4.420   1.876  16.840  1.5025  1.7308 -2.8057
  362TMC3    C7 5426   4.347   1.835  16.609  0.0689 -0.4359  0.5482
  362TMC3    C8 5427   4.565   1.718  17.021 -0.3863 -0.1336  0.4573
  362TMC3    O1 5428   4.337   1.951  16.647  0.0984 -0.0908 -0.0648
  362TMC3    O2 5429   4.664   1.661  17.068  0.4071  0.6100  0.4820
  363TMC3    C1 5430   2.528   3.494   9.427 -1.0437  0.2696  0.1921
  363TMC3    C2 5431   2.654   3.486   9.484 -0.4124 -0.5475  0.5482
  363TMC3    C3 5432   2.701   3.589   9.553 -0.0718 -0.7639 -0.0572
  363TMC3    C4 5433   2.459   3.612   9.413 -0.3272  0.2101  0.0609
  363TMC3    C5 5434   2.525   3.717   9.463  0.0064  0.3834 -0.8360
  363TMC3    C6 5435   2.634   3.707   9.543 -0.0531  0.0319  0.2969
  363TMC3     C 5436   2.510   3.399   9.320  0.5726  0.6840  0.0156
  363TMC3     O 5437   2.608   3.345   9.269  0.0826  0.3549  0.0728
  363TMC3     H 5438   2.722   3.402   9.486  0.8836  0.4845 -0.9986
  363TMC3    H1 5439   2.377   3.634   9.345 -0.0411  1.8683  0.2594
  363TMC3    H2 5440   2.672   3.797   9.589  0.5647  0.2190 -0.5614
  363TMC3    C7 5441   2.468   3.849   9.438  0.4255 -0.6825 -0.2546
  363TMC3    C8 5442   2.827   3.596   9.612  0.5764 -0.0684  0.0814
  363TMC3    O1 5443   2.358   3.855   9.394  0.2925  0.0993 -0.3408
  363TMC3    O2 5444   2.875   3.709   9.612  0.5341  0.3473 -0.0244
  364MPD2     C 5445   1.932   3.637  10.671  0.1772  0.2807  0.5142
  364MPD2    C1 5446   2.030   3.564  10.613  0.1945  0.0617  0.2036
  364MPD2    C2 5447   2.027   3.421  10.624  0.1233  0.2797 -0.3884
  364MPD2    C3 5448   1.921   3.370  10.692 -0.2776  0.3776  0.4049
  364MPD2    C4 5449   1.815   3.446  10.736  0.4875 -0.6369  0.1106
  364MPD2    C5 5450   1.824   3.580  10.730  0.7890 -0.3254 -0.1241
  364MPD2     H 5451   2.100   3.355  10.578 -0.9091 -0.9137 -0.3283
  364MPD2    H1 5452   1.732   3.407  10.794  0.8531 -0.0914  1.0157
  364MPD2    H2 5453   1.944   3.745  10.670  1.1269  0.1813  1.2850
  364MPD2    H3 5454   1.743   3.638  10.772  0.0232 -0.1586 -1.8073
  364MPD2     N 5455   1.904   3.231  10.710 -0.1991 -0.1419  0.3966
  364MPD2    H5 5456   1.811   3.204  10.742 -0.6668  2.0346  0.9267
  364MPD2    N1 5457   2.131   3.626  10.549  0.5623  0.0639  0.5198
  364MPD2    H7 5458   2.168   3.715  10.581  0.6101  0.4454 -0.6144
  365TMC3    C1 5459   2.294   3.655  10.384 -0.2891  0.1861  0.9611
  365TMC3    C2 5460   2.404   3.591  10.346  0.4993 -0.6214  0.0035
  365TMC3    C3 5461   2.517   3.669  10.351 -0.4549 -0.1995  0.4127
  365TMC3    C4 5462   2.292   3.793  10.403 -0.0376 -0.4260  0.4066
  365TMC3    C5 5463   2.408   3.867  10.406 -0.0729 -0.1078 -0.2567
  365TMC3    C6 5464   2.528   3.805  10.385 -0.1671 -0.5992  0.2442
  365TMC3     C 5465   2.190   3.570  10.435 -0.3019 -0.0835 -0.4742
  365TMC3     O 5466   2.174   3.461  10.383  0.3968 -0.4525 -0.0506
  365TMC3     H 5467   2.405   3.483  10.335  0.4454 -0.6382  0.1593
  365TMC3    H1 5468   2.196   3.843  10.413  0.1492 -0.2768  1.4721
  365TMC3    H2 5469   2.619   3.864  10.384 -0.4360 -0.1765  2.1061
  365TMC3    C7 5470   2.401   4.007  10.448 -0.3154 -0.2827  0.6457
  365TMC3    C8 5471   2.645   3.599  10.366  0.1485 -0.3976  0.3956
  365TMC3    O1 5472   2.496   4.071  10.410  0.6161  0.4869  0.5082
  365TMC3    O2 5473   2.748   3.662  10.368  0.4349 -0.5216 -0.3205
  366MPD2     C 5474   0.064   4.089  15.754 -0.0388 -0.4625 -0.2773
  366MPD2    C1 5475   0.052   4.188  15.659 -0.3881  0.0158  0.6559
  366MPD2    C2 5476   0.144   4.200  15.560  0.7783 -0.6398  0.2683
  366MPD2    C3 5477   0.248   4.115  15.562  0.3940 -0.3969 -0.1893
  366MPD2    C4 5478   0.259   4.008  15.653 -0.0330  1.2581 -0.2340
  366MPD2    C5 5479   0.169   3.999  15.750 -0.2989 -0.7693  0.5707
  366MPD2     H 5480   0.143   4.270  15.477  2.1697  1.8879  2.3438
  366MPD2    H1 5481   0.342   3.939  15.641 -0.9537 -0.2641  2.1875
  366MPD2    H2 5482   4.712   4.070  15.825  0.6974  0.2558  0.7435
  366MPD2    H3 5483   0.177   3.922  15.825  2.7930 -0.5375  0.4886
  366MPD2     N 5484   0.334   4.130  15.455 -0.0221  0.1768  0.3659
  366MPD2    H5 5485   0.318   4.209  15.393 -0.2152 -0.3928 -0.3069
  366MPD2    N1 5486   4.681   4.286  15.688 -0.5782 -0.7938 -1.1362
  366MPD2    H7 5487   4.637   4.282  15.779  1.0626  0.6959 -0.2889
  367TMC3    C1 5488   4.571   4.485  15.654 -0.8980  0.0550  0.0049
  367TMC3    C2 5489   4.614   4.540  15.766 -0.1154  0.0147 -0.3051
  367TMC3    C3 5490   4.585   4.676  15.778  0.1681  0.0926 -0.0635
  367TMC3    C4 5491   4.504   4.555  15.554 -0.1789 -0.2948 -0.5608
  367TMC3    C5 5492   4.461   4.678  15.576 -0.1842 -0.1783  0.0679
  367TMC3    C6 5493   4.504   0.020  15.687 -0.5193 -0.5273 -0.3143
  367TMC3     C 5494   4.649   4.382  15.592 -0.3745  0.3718 -0.0994
  367TMC3     O 5495   4.686   4.390  15.476 -0.0592 -0.1716 -0.9762
  367TMC3     H 5496   4.679   4.491  15.838 -1.4208 -4.5299 -2.2114
  367TMC3    H1 5497   4.486   4.501  15.462 -1.3607  0.9193 -1.0334
  367TMC3    H2 5498   4.483   0.126  15.688  1.4155 -0.1474  0.9333
  367TMC3    C7 5499   4.457   0.042  15.464  0.3614 -0.0014  0.3401
  367TMC3    C8 5500   4.689   0.029  15.838 -1.0761  0.0692 -0.3095
  367TMC3    O1 5501   4.500   0.155  15.477  0.5707  0.2866 -0.0368
  367TMC3    O2 5502   0.030   4.709  15.927 -0.7898 -0.5310 -0.1085
  368MPD2     C 5503   0.789   1.377  13.105  0.5185 -0.5452 -0.3132
  368MPD2    C1 5504   0.825   1.456  13.001 -0.6504 -0.1449 -0.1790
  368MPD2    C2 5505   0.957   1.460  12.959  0.2333  0.5069  0.1885
  368MPD2    C3 5506   1.045   1.380  13.021  0.2013  1.3603  0.6383
  368MPD2    C4 5507   1.016   1.322  13.140 -0.5625  0.0152 -0.1849
  368MPD2    C5 5508   0.887   1.323  13.185  0.0549 -0.6526 -0.3465
  368MPD2     H 5509   0.979   1.512  12.867  0.9864  1.0339  0.6794
  368MPD2    H1 5510   1.088   1.265  13.197 -0.3413 -1.0657 -1.5497
  368MPD2    H2 5511   0.687   1.378  13.142  0.1136  0.9667 -1.4625
  368MPD2    H3 5512   0.858   1.273  13.276  1.4043  0.7260  0.8483
  368MPD2     N 5513   1.165   1.340  12.955  0.4882 -0.0437  0.5966
  368MPD2    H5 5514   1.218   1.277  13.015 -0.7136 -1.2106  0.4365
  368MPD2    N1 5515   0.724   1.523  12.928 -0.5726 -0.0270  0.0332
  368MPD2    H7 5516   0.635   1.473  12.930 -0.5425 -0.0631  0.4435
  369TMC3    C1 5517   0.630   1.674  12.772 -0.2521  0.0916 -0.4477
  369TMC3    C2 5518   0.650   1.772  12.682  0.0640 -0.7566 -1.1010
  369TMC3    C3 5519   0.579   1.890  12.703  0.4474  0.1223 -0.5707
  369TMC3    C4 5520   0.524   1.683  12.858  1.0547  0.2468  0.7134
  369TMC3    C5 5521   0.446   1.795  12.864  0.8422 -0.2376 -0.4119
  369TMC3    C6 5522   0.482   1.907  12.797 -0.0048 -0.4590  0.0580
  369TMC3     C 5523   0.748   1.622  12.829 -0.7462 -0.0852 -0.1303
  369TMC3     O 5524   0.843   1.693  12.813 -0.0695  0.0814  0.0857
  369TMC3     H 5525   0.726   1.763  12.605  1.2590 -1.1797  0.1467
  369TMC3    H1 5526   0.493   1.601  12.922  0.9727  0.4655  0.9520
  369TMC3    H2 5527   0.441   2.006  12.817  0.7761 -0.0063 -0.6115
  369TMC3    C7 5528   0.378   1.802  12.993 -0.7043  0.2327 -0.0862
  369TMC3    C8 5529   0.665   2.009  12.693 -0.5319  0.5346 -0.1719
  369TMC3    O1 5530   0.413   1.725  13.081 -0.0831 -0.1455 -0.2775
  369TMC3    O2 5531   0.614   2.123  12.696 -0.0346 -0.5898  0.0574
  370TMC3    C1 5532   0.699   2.175  16.436  0.0219  0.5272 -0.6356
  370TMC3    C2 5533   0.613   2.113  16.514 -0.6617  0.1517  0.0635
  370TMC3    C3 5534   0.529   2.016  16.455 -0.7059  0.0897 -0.0364
  370TMC3    C4 5535   0.709   2.157  16.303  0.5573  0.0861  0.4774
  370TMC3    C5 5536   0.641   2.050  16.254  0.2024  0.5539 -0.2618
  370TMC3    C6 5537   0.551   1.973  16.324 -0.3219  0.1652 -0.0307
  370TMC3     C 5538   0.795   2.262  16.503  0.5299  0.1678 -0.1271
  370TMC3     O 5539   0.810   2.236  16.623  0.4904 -0.4967 -0.6059
  370TMC3     H 5540   0.622   2.122  16.622  1.6498 -1.2779  0.0061
  370TMC3    H1 5541   0.775   2.212  16.237  1.6979 -0.1488  1.4183
  370TMC3    H2 5542   0.507   1.882  16.284 -0.3139 -0.0386  0.4197
  370TMC3    C7 5543   0.652   2.036  16.114  0.4883 -0.0291 -0.4636
  370TMC3    C8 5544   0.473   1.907  16.543  0.4908  0.9220  1.0932
  370TMC3    O1 5545   0.663   2.134  16.042 -0.5717  0.2692 -0.4003
  370TMC3    O2 5546   0.480   1.785  16.510  0.3140  0.3316  0.1886
  371TMC3    C1 5547   2.118   0.449  15.654  0.7191 -0.0263 -0.0457
  371TMC3    C2 5548   1.984   0.468  15.622 -0.1312  0.1010  0.5652
  371TMC3    C3 5549   1.941   0.589  15.583  0.5335 -0.2771  0.1185
  371TMC3    C4 5550   2.210   0.550  15.636 -0.3909 -0.0419 -0.1708
  371TMC3    C5 5551   2.157   0.670  15.601 -0.0679  0.1539 -0.6344
  371TMC3    C6 5552   2.027   0.702  15.579  0.1487  0.8576 -1.1252
  371TMC3     C 5553   2.164   0.346  15.743 -0.2689 -0.1823 -0.6158
  371TMC3     O 5554   2.266   0.363  15.808 -0.4552  0.6699  0.1344
  371TMC3     H 5555   1.906   0.400  15.652  1.1010 -1.4999  0.1142
  371TMC3    H1 5556   2.316   0.530  15.650 -0.3354 -0.8134 -1.6716
  371TMC3    H2 5557   1.995   0.795  15.533  1.6159  1.3732 -1.0715
  371TMC3    C7 5558   2.257   0.775  15.567 -0.8063  0.7751 -0.4843
  371TMC3    C8 5559   1.798   0.602  15.569 -1.1234  0.0100 -0.2573
  371TMC3    O1 5560   2.210   0.884  15.573 -0.3327  0.1516  0.3073
  371TMC3    O2 5561   1.738   0.506  15.528 -0.2125 -0.5079 -0.4138
  372MPD2     C 5562   1.426   1.701  13.270  0.1567  0.5745 -0.0887
  372MPD2    C1 5563   1.537   1.656  13.339  0.1208  1.6515 -0.3894
  372MPD2    C2 5564   1.549   1.518  13.349  0.4838  0.0580  0.3411
  372MPD2    C3 5565   1.461   1.427  13.298  0.1300 -0.7197 -0.0869
  372MPD2    C4 5566   1.349   1.477  13.244 -0.9230  0.1413  0.2547
  372MPD2    C5 5567   1.333   1.615  13.231 -0.4798 -1.0710 -0.2203
  372MPD2     H 5568   1.632   1.481  13.408  0.7232  0.7435  0.4298
  372MPD2    H1 5569   1.272   1.409  13.210  1.7091 -1.3095 -2.8122
  372MPD2    H2 5570   1.429   1.804  13.235  0.5938  0.5063 -0.2578
  372MPD2    H3 5571   1.237   1.640  13.188  0.9566  2.2343 -1.5081
  372MPD2     N 5572   1.491   1.296  13.328  0.5418  0.3210  0.0748
  372MPD2    H5 5573   1.578   1.281  13.378 -0.2775 -0.0524  1.3827
  372MPD2    N1 5574   1.644   1.739  13.388  0.5486  0.0244 -0.0284
  372MPD2    H7 5575   1.718   1.698  13.444  0.4642  1.3939  1.0821
  373TMC3    C1 5576   1.439   1.087  13.388 -0.1960  0.1113 -0.6015
  373TMC3    C2 5577   1.454   1.119  13.521 -0.2100  0.2100  0.0734
  373TMC3    C3 5578   1.482   1.016  13.608 -0.2638 -0.6878 -0.1352
  373TMC3    C4 5579   1.457   0.960  13.335 -0.3779  0.2596 -0.2560
  373TMC3    C5 5580   1.496   0.864  13.424 -0.4962 -0.0451 -0.1536
  373TMC3    C6 5581   1.517   0.898  13.554  0.4579  0.5859 -0.1192
  373TMC3     C 5582   1.415   1.189  13.297 -0.7409 -0.4253  0.4549
  373TMC3     O 5583   1.307   1.188  13.242  0.6019  0.6484 -0.1874
  373TMC3     H 5584   1.429   1.220  13.552  0.8596  1.1662 -2.1431
  373TMC3    H1 5585   1.443   0.943  13.229 -1.5042 -1.6970  0.2084
  373TMC3    H2 5586   1.541   0.817  13.621  0.5586  1.2207  0.6105
  373TMC3    C7 5587   1.557   0.747  13.359  0.2378  0.1147 -0.1109
  373TMC3    C8 5588   1.543   1.051  13.741 -0.5907 -0.6473  0.0437
  373TMC3    O1 5589   1.499   0.692  13.268  0.5065  0.1551  0.3711
  373TMC3    O2 5590   1.613   1.151  13.736  0.3586  0.1946  0.3389
  374TMC3    C1 5591   2.871   1.498  10.076 -0.5293  0.1873 -0.3678
  374TMC3    C2 5592   2.758   1.497  10.151  0.0292  0.4026  0.2445
  374TMC3    C3 5593   2.638   1.466  10.097  0.0446  0.0535 -0.0639
  374TMC3    C4 5594   2.862   1.485   9.941 -0.0801  0.6809 -0.4585
  374TMC3    C5 5595   2.744   1.453   9.892 -0.5811  0.0775 -0.3885
  374TMC3    C6 5596   2.628   1.442   9.962  0.0244 -0.6791  0.2906
  374TMC3     C 5597   2.999   1.520  10.131 -0.0260  0.2202  0.3738
  374TMC3     O 5598   3.068   1.601  10.072 -0.1517  1.0701 -0.4361
  374TMC3     H 5599   2.775   1.506  10.257 -0.4534 -0.9998  0.4418
  374TMC3    H1 5600   2.953   1.506   9.886  1.5015 -0.2767  1.7887
  374TMC3    H2 5601   2.535   1.415   9.915 -1.6433  3.0658  1.3962
  374TMC3    C7 5602   2.758   1.399   9.757  0.1758  0.3813  0.0088
  374TMC3    C8 5603   2.530   1.547  10.152 -0.0952  0.0083 -0.3876
  374TMC3    O1 5604   2.866   1.406   9.701 -0.5675  0.0816  0.5027
  374TMC3    O2 5605   2.414   1.539  10.115  0.3864 -0.1034 -0.0679
  375MPD2     C 5606   2.163   2.393  17.424 -0.4867  0.5369 -0.6440
  375MPD2    C1 5607   2.077   2.454  17.326 -0.2499 -0.0007 -0.0304
  375MPD2    C2 5608   2.078   2.394  17.199 -0.3746  0.0271 -0.1364
  375MPD2    C3 5609   2.169   2.299  17.160  0.3974  0.4459  0.2091
  375MPD2    C4 5610   2.244   2.243  17.259 -0.4960 -0.6351 -0.2602
  375MPD2    C5 5611   2.230   2.278  17.387 -0.0190  0.1563  0.0069
  375MPD2     H 5612   2.015   2.440  17.123  0.9110 -0.4095 -1.4682
  375MPD2    H1 5613   2.306   2.156  17.238 -0.8540 -0.4030 -2.2200
  375MPD2    H2 5614   2.167   2.424  17.527  1.1044  0.8739 -0.8074
  375MPD2    H3 5615   2.280   2.220  17.464  1.0645 -0.4580 -1.1580
  375MPD2     N 5616   2.171   2.242  17.033  0.2858  0.0552  0.9492
  375MPD2    H5 5617   2.253   2.190  17.005 -0.1036 -0.1312  0.1201
  375MPD2    N1 5618   1.985   2.560  17.351  0.3013 -0.0907 -0.1790
  375MPD2    H7 5619   1.918   2.580  17.278 -0.4434 -0.8572  0.2871
  376TMC3    C1 5620   2.137   2.259  16.799 -0.1088  0.5582 -0.5433
  376TMC3    C2 5621   2.241   2.176  16.785  0.5344 -0.0108  0.0919
  376TMC3    C3 5622   2.291   2.158  16.660  0.0511 -0.6392  0.4276
  376TMC3    C4 5623   2.071   2.315  16.692  0.2357  0.6277  0.6086
  376TMC3    C5 5624   2.124   2.286  16.572 -0.1999 -0.1369 -0.1122
  376TMC3    C6 5625   2.240   2.219  16.555 -0.3683 -0.6061 -0.1136
  376TMC3     C 5626   2.083   2.286  16.931 -0.1145 -0.4820 -0.6170
  376TMC3     O 5627   1.969   2.328  16.937 -0.6048 -0.2831  0.4659
  376TMC3     H 5628   2.291   2.130  16.869  1.8265  1.3422  0.0632
  376TMC3    H1 5629   1.984   2.376  16.711 -0.1483 -0.5440  2.6310
  376TMC3    H2 5630   2.285   2.203  16.457 -1.3936  1.1697 -0.8781
  376TMC3    C7 5631   2.060   2.349  16.452 -0.0148  0.3129  0.2789
  376TMC3    C8 5632   2.404   2.074  16.656 -0.3868 -0.8365 -0.0724
  376TMC3    O1 5633   2.118   2.352  16.349  0.6859 -0.0257 -0.3429
  376TMC3    O2 5634   2.420   1.996  16.749  0.6169 -0.4855  0.2065
  377MPD2     C 5635   4.528   2.471  12.370 -0.8737 -0.0418 -0.1054
  377MPD2    C1 5636   4.650   2.430  12.430 -0.8527 -0.5011  0.0453
  377MPD2    C2 5637   4.642   2.395  12.565  0.1259 -0.0171  0.3763
  377MPD2    C3 5638   4.513   2.398  12.632  0.3952 -0.3182 -0.0794
  377MPD2    C4 5639   4.404   2.456  12.574 -1.3262 -0.6926  0.1700
  377MPD2    C5 5640   4.413   2.487  12.441 -0.3844  0.4202  0.7569
  377MPD2     H 5641   4.727   2.349  12.614 -0.3515 -1.5373 -0.2183
  377MPD2    H1 5642   4.306   2.465  12.619 -0.0539  2.6918  2.1994
  377MPD2    H2 5643   4.531   2.496  12.265  0.6605  1.5216  0.3274
  377MPD2    H3 5644   4.328   2.533  12.392 -1.1143  0.4933  2.0835
  377MPD2     N 5645   4.490   2.336  12.755  0.3807  0.6559 -0.0215
  377MPD2    H5 5646   4.400   2.360  12.795 -0.6632  0.1401 -2.0755
  377MPD2    N1 5647   0.036   2.412  12.344 -0.3651  0.5515  0.3113
  377MPD2    H7 5648   0.030   2.449  12.249 -0.0767  1.5592  0.6762
  378TMC3    C1 5649   0.263   2.354  12.038  0.7929 -0.1498  0.1138
  378TMC3    C2 5650   0.185   2.340  12.150 -0.5875  0.4073 -0.4042
  378TMC3    C3 5651   0.245   2.349  12.271 -0.6572 -0.0003  0.3676
  378TMC3    C4 5652   0.397   2.391  12.052  0.0154 -0.1850  0.6937
  378TMC3    C5 5653   0.454   2.383  12.176  0.1885  0.1168 -0.3369
  378TMC3    C6 5654   0.378   2.369  12.283  0.0105  0.8256  0.1248
  378TMC3     C 5655   0.189   2.416  11.930  0.0309  0.7037 -0.4177
  378TMC3     O 5656   0.072   2.384  11.917 -0.4554  0.2100 -0.2999
  378TMC3     H 5657   0.087   2.295  12.138  0.7599 -2.4066 -0.6694
  378TMC3    H1 5658   0.457   2.386  11.961  0.3593 -1.0188  0.9692
  378TMC3    H2 5659   0.433   2.368  12.376 -1.0714 -0.4901  0.7476
  378TMC3    C7 5660   0.588   2.343  12.188  0.1495 -0.1184  0.0254
  378TMC3    C8 5661   0.164   2.382  12.384  0.0374 -0.4881 -0.6883
  378TMC3    O1 5662   0.630   2.271  12.278  0.2223 -0.2219 -0.2761
  378TMC3    O2 5663   0.219   2.390  12.495  0.8005  0.3131 -0.6429
  379MPD2     C 5664   1.064   4.461  16.113  0.6359  0.1080  0.5582
  379MPD2    C1 5665   0.985   4.552  16.185  0.1615 -0.5162  0.5174
  379MPD2    C2 5666   1.006   4.570  16.324  1.1802  0.2949  0.3871
  379MPD2    C3 5667   1.114   4.513  16.383  0.8656  0.5688 -0.7747
  379MPD2    C4 5668   1.185   4.419  16.317 -0.1646  0.7256  0.9446
  379MPD2    C5 5669   1.155   4.390  16.186  0.2660 -0.3033 -0.4243
  379MPD2     H 5670   0.952   4.648  16.377 -0.3402  1.3302 -2.6503
  379MPD2    H1 5671   1.267   4.360  16.357  0.9709 -0.1241 -2.5618
  379MPD2    H2 5672   1.068   4.445  16.006  0.3135 -0.0994  0.5778
  379MPD2    H3 5673   1.213   4.314  16.134  1.1410 -1.3003  2.0237
  379MPD2     N 5674   1.173   4.544  16.510 -1.1891  0.2859 -0.0407
  379MPD2    H5 5675   1.260   4.499  16.534 -0.0922  2.9477  0.9518
  379MPD2    N1 5676   0.876   4.604  16.113  0.3037  0.8066  0.6112
  379MPD2    H7 5677   0.876   4.579  16.014  1.4491  0.2576  0.7562
  380TMC3    C1 5678   0.742   0.064  16.068  0.1947 -0.8294  0.3986
  380TMC3    C2 5679   0.846   0.119  15.996  0.3848  0.2422 -0.0108
  380TMC3    C3 5680   0.825   0.241  15.933 -0.2820  1.1071  0.6007
  380TMC3    C4 5681   0.631   0.135  16.096 -0.5558  0.2314  0.0304
  380TMC3    C5 5682   0.616   0.259  16.032 -0.7594  0.4122  0.2689
  380TMC3    C6 5683   0.710   0.313  15.943 -0.1877 -0.4323 -0.5051
  380TMC3     C 5684   0.785   4.693  16.164  0.2583  0.6866 -0.3153
  380TMC3     O 5685   0.747   4.721  16.279  0.4925  0.0450 -0.0736
  380TMC3     H 5686   0.936   0.059  15.988 -1.2061 -1.6959 -3.5198
  380TMC3    H1 5687   0.546   0.092  16.149 -0.5362  1.4954  1.0786
  380TMC3    H2 5688   0.697   0.400  15.881 -0.9023  0.3027  0.6707
  380TMC3    C7 5689   0.491   0.336  16.038  0.5774 -0.4295  0.6843
  380TMC3    C8 5690   0.924   0.277  15.832  0.2767  0.7387  0.5901
  380TMC3    O1 5691   0.499   0.454  16.070  0.3461 -1.0880  0.3140
  380TMC3    O2 5692   0.874   0.289  15.720 -0.6740  0.6569 -0.2509
  381TMC3    C1 5693   0.558   1.188  16.308  0.1457 -0.3350 -0.2591
  381TMC3    C2 5694   0.673   1.253  16.345 -0.6552  0.1379  0.0352
  381TMC3    C3 5695   0.650   1.370  16.418  0.6107  0.7621 -0.2801
  381TMC3    C4 5696   0.432   1.217  16.348  0.0668  0.6682 -0.4060
  381TMC3    C5 5697   0.418   1.328  16.434  0.4449 -0.3512  0.3007
  381TMC3    C6 5698   0.522   1.406  16.467  0.0513 -0.1375 -0.9034
  381TMC3     C 5699   0.553   1.141  16.167  0.3701 -0.1387 -0.3480
  381TMC3     O 5700   0.446   1.130  16.102 -0.4354 -0.4481  0.2024
  381TMC3     H 5701   0.771   1.230  16.307  0.1278 -1.5427  3.1221
  381TMC3    H1 5702   0.345   1.163  16.312  0.0135  0.6046 -0.1819
  381TMC3    H2 5703   0.513   1.505  16.511 -0.4799  0.0491 -1.4423
  381TMC3    C7 5704   0.287   1.380  16.460 -0.1238 -0.3693  0.6180
  381TMC3    C8 5705   0.759   1.466  16.416 -0.0798 -0.0810 -0.0690
  381TMC3    O1 5706   0.201   1.344  16.380  0.4958  0.4718 -0.2134
  381TMC3    O2 5707   0.853   1.418  16.354  0.4687 -0.5737 -0.2700
  382MPD2     C 5708   0.063   3.986  17.305 -0.0503 -0.0114  0.6768
  382MPD2    C1 5709   0.038   4.006  17.437 -0.4199  0.7201  0.3090
  382MPD2    C2 5710   4.705   3.898  17.507  0.0139  0.2945  0.3781
  382MPD2    C3 5711   4.677   3.784  17.444  0.4305 -0.1994 -0.1628
  382MPD2    C4 5712   4.708   3.760  17.310 -0.0356 -0.6062  0.3511
  382MPD2    C5 5713   0.044   3.865  17.244 -0.5849 -0.1391 -0.0183
  382MPD2     H 5714   4.691   3.915  17.614 -3.2919  1.2375 -0.2120
  382MPD2    H1 5715   4.685   3.666  17.262  0.0218 -0.1579 -0.5759
  382MPD2    H2 5716   0.113   4.065  17.248 -0.2218  0.3752  1.0638
  382MPD2    H3 5717   0.068   3.853  17.139 -0.0367  1.4890 -0.0811
  382MPD2     N 5718   4.610   3.678  17.506 -0.3912 -0.2501 -0.1756
  382MPD2    H5 5719   4.593   3.601  17.443 -0.3055 -1.1503  0.8986
  382MPD2    N1 5720   0.047   4.129  17.502  0.0278 -0.2447 -0.1600
  382MPD2    H7 5721   0.030   4.137  17.602 -0.1712  3.6569 -0.4800
  383TMC3    C1 5722   4.504   3.545  17.670 -0.8496 -0.1621 -0.2826
  383TMC3    C2 5723   4.433   3.471  17.580 -0.4108 -0.0719 -0.4550
  383TMC3    C3 5724   4.399   3.339  17.609  0.3821 -0.0397 -0.1079
  383TMC3    C4 5725   4.523   3.489   0.086  0.0400  0.5034 -0.3173
  383TMC3    C5 5726   4.476   3.361   0.116  0.0001 -0.1939 -0.0541
  383TMC3    C6 5727   4.431   3.277   0.025 -0.3482  0.1365  0.5973
  383TMC3     C 5728   4.567   3.672  17.639 -0.1713 -0.3665  0.5572
  383TMC3     O 5729   4.587   3.745   0.024 -0.0109 -0.1707  0.4379
  383TMC3     H 5730   4.417   3.496  17.476 -0.8013  0.3347 -0.2970
  383TMC3    H1 5731   4.583   3.548   0.155  1.0077 -0.4667 -0.3182
  383TMC3    H2 5732   4.381   3.185   0.054  2.0005 -1.0818  0.7252
  383TMC3    C7 5733   4.454   3.329   0.249  0.1884  0.4164  0.4276
  383TMC3    C8 5734   4.304   3.271  17.527  0.2213 -0.2715 -1.4059
  383TMC3    O1 5735   4.448   3.208   0.280  0.2817  0.2830 -0.0631
  383TMC3    O2 5736   4.234   3.339  17.451 -0.2594  0.1793 -0.3821
  384MPD2     C 5737   1.872   4.545  12.621 -0.0755  0.6065 -0.0337
  384MPD2    C1 5738   1.879   4.409  12.602  0.5847  0.4065 -0.7301
  384MPD2    C2 5739   1.976   4.374  12.511 -1.1314  0.0204  0.6506
  384MPD2    C3 5740   2.069   4.460  12.447 -0.2296  0.5017 -0.2128
  384MPD2    C4 5741   2.064   4.590  12.474  0.4720 -0.2167 -0.8806
  384MPD2    C5 5742   1.971   4.633  12.560  0.1370  0.9922 -0.6400
  384MPD2     H 5743   1.977   4.267  12.492 -0.9572  0.6097 -2.7074
  384MPD2    H1 5744   2.139   4.664  12.448 -1.8944  1.9578 -1.4523
  384MPD2    H2 5745   1.820   4.596  12.702 -1.7978 -0.6691 -0.3476
  384MPD2    H3 5746   1.969   0.011  12.588  1.6788  0.5672  1.0327
  384MPD2     N 5747   2.179   4.416  12.360  0.4608 -0.1342 -0.2780
  384MPD2    H5 5748   2.239   4.486  12.317 -1.7111  0.4087 -2.4285
  384MPD2    N1 5749   1.800   4.311  12.662 -0.3736  0.4154 -0.1450
  384MPD2    H7 5750   1.839   4.219  12.648 -0.4830  0.2246  0.8347
  385TMC3    C1 5751   2.299   4.262  12.222  0.2446  0.5515  0.2672
  385TMC3    C2 5752   2.258   4.326  12.103  0.9892 -0.2985  0.1465
  385TMC3    C3 5753   2.245   4.253  11.987  0.5185 -0.7800 -0.8977
  385TMC3    C4 5754   2.333   4.127  12.221 -0.5057  0.0480  0.3723
  385TMC3    C5 5755   2.299   4.056  12.104 -0.3342  0.2997 -0.3789
  385TMC3    C6 5756   2.255   4.116  11.992 -0.4318  0.8813 -0.0595
  385TMC3     C 5757   2.207   4.287  12.337  0.0583 -0.4708  0.1425
  385TMC3     O 5758   2.162   4.184  12.385  0.1392 -0.1458 -0.4897
  385TMC3     H 5759   2.237   4.433  12.099  0.4959 -0.4427 -0.9397
  385TMC3    H1 5760   2.361   4.084  12.316 -0.8706 -0.3586  0.2935
  385TMC3    H2 5761   2.238   4.043  11.914 -0.5867  0.5464  0.2815
  385TMC3    C7 5762   2.242   3.933  12.152  0.1590  0.4862 -0.0536
  385TMC3    C8 5763   2.283   4.318  11.863 -0.1100 -0.0718 -0.5094
  385TMC3    O1 5764   2.250   3.837  12.079  0.2346  0.6993  0.2132
  385TMC3    O2 5765   2.350   4.419  11.883  0.3809 -0.5708  0.3612
  386TMC3    C1 5766   1.749   2.215  11.544 -0.3138  0.4392 -0.2803
  386TMC3    C2 5767   1.671   2.136  11.462 -0.2161 -0.8733 -0.0101
  386TMC3    C3 5768   1.551   2.188  11.416  0.1435  0.2674 -0.2463
  386TMC3    C4 5769   1.724   2.350  11.564  0.1263 -0.0312 -0.0867
  386TMC3    C5 5770   1.601   2.398  11.510  0.4108  0.4449 -0.0145
  386TMC3    C6 5771   1.511   2.318  11.434 -0.3683  0.0738  0.9067
  386TMC3     C 5772   1.879   2.164  11.592  0.1472  0.0783 -0.2691
  386TMC3     O 5773   1.966   2.252  11.605 -0.0641 -0.0364 -0.0411
  386TMC3     H 5774   1.696   2.033  11.441  0.2973 -0.9156  0.8227
  386TMC3    H1 5775   1.779   2.415  11.631 -0.9647  1.4931 -0.6649
  386TMC3    H2 5776   1.411   2.352  11.410 -0.3010  0.8312  1.6660
  386TMC3    C7 5777   1.536   2.479  11.605 -0.1204 -0.5769  0.1904
  386TMC3    C8 5778   1.467   2.106  11.345  0.7564 -1.1469 -0.0476
  386TMC3    O1 5779   1.581   2.470  11.721 -0.5691  0.3168 -0.5854
  386TMC3    O2 5780   1.377   2.159  11.285  0.1297  0.3968 -0.7233
  387MPD2     C 5781   4.301   2.451   9.887  0.6841 -0.2127 -0.4612
  387MPD2    C1 5782   4.429   2.429   9.932 -0.1572  0.2887 -0.0028
  387MPD2    C2 5783   4.489   2.307   9.906  0.8056  0.5044 -0.1881
  387MPD2    C3 5784   4.433   2.201   9.836  0.3336 -0.1983  0.2396
  387MPD2    C4 5785   4.299   2.214   9.807 -0.4016  0.3720 -0.8523
  387MPD2    C5 5786   4.242   2.338   9.829 -0.6503 -0.2112  0.8950
  387MPD2     H 5787   4.589   2.305   9.946  0.4577  0.6871  0.6845
  387MPD2    H1 5788   4.245   2.132   9.763 -0.5904  0.7843 -1.3859
  387MPD2    H2 5789   4.252   2.547   9.895 -3.2963 -2.4945  2.6949
  387MPD2    H3 5790   4.141   2.351   9.792  0.1495 -1.6564 -1.8478
  387MPD2     N 5791   4.497   2.083   9.836  0.2077  0.0606  0.2788
  387MPD2    H5 5792   4.593   2.073   9.868  0.1129  0.3296  0.6457
  387MPD2    N1 5793   4.514   2.516  10.000  0.0333 -0.0713 -0.0916
  387MPD2    H7 5794   4.609   2.489  10.023  0.4915  1.9704  0.4269
  388TMC3    C1 5795   4.550   2.690  10.158 -0.0020  0.8934 -0.5197
  388TMC3    C2 5796   4.560   2.819  10.183 -0.1483  0.3085  0.5282
  388TMC3    C3 5797   4.636   2.871  10.288 -0.6081  0.0368 -0.5444
  388TMC3    C4 5798   4.615   2.601  10.240  0.6014  0.2883  0.3610
  388TMC3    C5 5799   4.707   2.645  10.327  0.2196  0.2898  0.3304
  388TMC3    C6 5800   4.714   2.779  10.362  0.2327  0.7541 -1.0668
  388TMC3     C 5801   4.466   2.640  10.048  0.8862  0.0073 -0.5322
  388TMC3     O 5802   4.376   2.706  10.003 -0.2016 -0.3298 -0.5902
  388TMC3     H 5803   4.521   2.888  10.109  1.0887  2.1679  1.6113
  388TMC3    H1 5804   4.593   2.496  10.225 -0.9994  0.6876 -0.0850
  388TMC3    H2 5805   0.062   2.809  10.434 -0.2268 -0.9488  0.1213
  388TMC3    C7 5806   0.074   2.552  10.391 -0.3211 -0.0978 -0.2062
  388TMC3    C8 5807   4.622   3.008  10.335  0.0425 -0.4260 -0.2273
  388TMC3    O1 5808   0.117   2.578  10.505 -0.4972 -0.3558 -0.6840
  388TMC3    O2 5809   4.520   3.056  10.288  0.4820 -0.5444 -0.0252
  389MPD2     C 5810   3.896   0.643  11.090 -0.3334 -0.2562  0.0847
  389MPD2    C1 5811   3.920   0.563  10.985  0.3446 -0.7732  0.4298
  389MPD2    C2 5812   3.931   0.426  11.011  0.9741 -0.3821  0.1148
  389MPD2    C3 5813   3.908   0.374  11.139  0.4221  0.1293  0.1465
  389MPD2    C4 5814   3.876   0.464  11.237  0.3732 -0.2527  0.4646
  389MPD2    C5 5815   3.860   0.597  11.213 -0.4520  0.2192 -0.3536
  389MPD2     H 5816   3.957   0.361  10.928  1.5051  1.2022 -0.9416
  389MPD2    H1 5817   3.843   0.423  11.331 -1.7465  1.7510  0.5809
  389MPD2    H2 5818   3.875   0.748  11.072 -1.8803 -0.4900  0.5480
  389MPD2    H3 5819   3.840   0.664  11.296  0.7006  0.7800 -0.5246
  389MPD2     N 5820   3.895   0.238  11.170 -0.1290  0.0597  0.5910
  389MPD2    H5 5821   3.889   0.233  11.271  0.5869  1.5504  0.7222
  389MPD2    N1 5822   3.925   0.625  10.853  0.1257 -0.1088  0.3295
  389MPD2    H7 5823   3.907   0.725  10.857 -0.4281 -0.2670  1.7080
  390TMC3    C1 5824   3.866   0.013  11.156  0.3477 -0.0695 -0.4890
  390TMC3    C2 5825   3.754   4.671  11.110 -0.3993 -0.0144  1.0894
  390TMC3    C3 5826   3.672   4.616  11.204 -0.2637 -0.3431 -0.3796
  390TMC3    C4 5827   3.896   0.017  11.290 -0.2398  0.5517  0.3890
  390TMC3    C5 5828   3.812   4.694  11.385 -0.1014 -0.0001  0.2400
  390TMC3    C6 5829   3.706   4.632  11.340 -0.2184 -0.3247  0.7567
  390TMC3     C 5830   3.896   0.131  11.081  0.3678  0.1740  0.1089
  390TMC3     O 5831   3.873   0.129  10.958 -0.1542  0.4381  0.1655
  390TMC3     H 5832   3.733   4.672  11.003 -3.2503  0.8256  1.6595
  390TMC3    H1 5833   3.986   0.068  11.322  1.1618 -1.5922 -0.0987
  390TMC3    H2 5834   3.656   4.560  11.404  0.3033 -0.9777  0.4290
  390TMC3    C7 5835   3.780   0.073  11.481  0.6845 -0.0387  0.2046
  390TMC3    C8 5836   3.526   4.621  11.188  0.0804  0.0127  0.3800
  390TMC3    O1 5837   3.862   0.164  11.484  0.3336  0.0518  0.0595
  390TMC3    O2 5838   3.465   4.546  11.110  0.1833  0.0888 -0.4465
  391MPD2     C 5839   2.529   1.812  11.555  0.3670  0.3117 -0.3651
  391MPD2    C1 5840   2.647   1.885  11.551 -0.5181 -0.4970  0.2272
  391MPD2    C2 5841   2.707   1.913  11.433 -0.4954  0.0562 -0.0134
  391MPD2    C3 5842   2.671   1.856  11.309 -0.0670 -0.3242 -0.6354
  391MPD2    C4 5843   2.570   1.765  11.319 -0.4407 -0.3508  0.3396
  391MPD2    C5 5844   2.499   1.740  11.440 -0.3652  0.0178  0.0504
  391MPD2     H 5845   2.794   1.978  11.432 -0.1661 -0.3993 -1.6963
  391MPD2    H1 5846   2.522   1.712  11.237 -0.9317  1.4967 -0.5759
  391MPD2    H2 5847   2.489   1.778  11.651  0.8838  1.6142  0.3086
  391MPD2    H3 5848   2.424   1.661  11.439 -1.5483  1.1447  0.6002
  391MPD2     N 5849   2.731   1.903  11.190  0.3694  0.6224  0.3824
  391MPD2    H5 5850   2.798   1.978  11.200 -0.6639  1.5102  0.5794
  391MPD2    N1 5851   2.706   1.947  11.658  0.3324 -0.4271 -0.1095
  391MPD2    H7 5852   2.795   1.994  11.643  1.0121 -0.9419  2.3569
  392TMC3    C1 5853   2.772   1.932  10.963  0.2988  0.0877 -1.0715
  392TMC3    C2 5854   2.712   1.959  10.844 -0.0771 -0.5739  0.1527
  392TMC3    C3 5855   2.773   2.025  10.735 -0.1344 -0.0004 -0.2827
  392TMC3    C4 5856   2.904   1.969  10.972 -0.1403 -0.1668 -0.0161
  392TMC3    C5 5857   2.964   2.038  10.872  0.2510 -0.5861 -0.4419
  392TMC3    C6 5858   2.902   2.070  10.753  0.0738 -0.5693 -0.6574
  392TMC3     C 5859   2.697   1.861  11.065 -0.6406 -0.9666 -0.1362
  392TMC3     O 5860   2.604   1.788  11.033 -0.4417 -0.5627  0.3082
  392TMC3     H 5861   2.609   1.930  10.831 -0.8507  0.5390  3.6332
  392TMC3    H1 5862   2.962   1.958  11.064  1.4944 -0.0616 -1.0252
  392TMC3    H2 5863   2.952   2.115  10.669  0.4074  1.7816  0.8011
  392TMC3    C7 5864   3.088   2.110  10.902  0.0547  0.0501  0.8053
  392TMC3    C8 5865   2.741   1.968  10.604 -0.6728  0.4848  0.1682
  392TMC3    O1 5866   3.109   2.134  11.017 -0.3282 -0.3788  0.4056
  392TMC3    O2 5867   2.829   1.941  10.522 -0.6060 -0.3095  0.0690
  393TMC3    C1 5868   2.597   0.388  10.415 -0.4629 -0.5183  0.5115
  393TMC3    C2 5869   2.517   0.363  10.529 -0.6618  0.3996  0.4551
  393TMC3    C3 5870   2.589   0.350  10.641 -0.4692  0.5192 -0.7757
  393TMC3    C4 5871   2.733   0.381  10.416  0.6065 -0.1654 -0.0398
  393TMC3    C5 5872   2.795   0.353  10.535  0.3923  0.6585  0.4375
  393TMC3    C6 5873   2.722   0.342  10.648 -0.1363 -0.0202  0.2092
  393TMC3     C 5874   2.520   0.433  10.299 -0.5588 -0.2861 -0.5684
  393TMC3     O 5875   2.398   0.420  10.297 -0.1186 -0.2177  0.4146
  393TMC3     H 5876   2.409   0.354  10.531 -0.6354  0.3165  1.4162
  393TMC3    H1 5877   2.794   0.385  10.326  0.3650  0.6196 -0.1624
  393TMC3    H2 5878   2.774   0.338  10.743 -0.3272 -0.5511  0.2899
  393TMC3    C7 5879   2.940   0.330  10.529 -0.3829  0.4227  0.2143
  393TMC3    C8 5880   2.515   0.317  10.756  0.4798 -0.0240 -0.2477
  393TMC3    O1 5881   2.987   0.265  10.434  0.2720  0.4145 -0.6650
  393TMC3    O2 5882   2.405   0.269  10.728  0.0962 -0.8761 -0.0085
  394TMC3    C1 5883   3.949   0.656  10.618  0.3236  0.3975  0.0103
  394TMC3    C2 5884   3.975   0.602  10.496 -0.0990 -0.1192 -0.0386
  394TMC3    C3 5885   3.944   0.680  10.389 -0.0849 -0.3038  0.6633
  394TMC3    C4 5886   3.892   0.779  10.639 -0.6245  0.0372  0.4923
  394TMC3    C5 5887   3.874   0.850  10.527  0.2109 -0.1289  0.4484
  394TMC3    C6 5888   3.885   0.800  10.397  0.6198  0.1199  0.0869
  394TMC3     C 5889   3.952   0.565  10.734  0.0297 -0.1729  0.7634
  394TMC3     O 5890   3.984   0.446  10.717 -0.4321  0.1294 -0.2110
  394TMC3     H 5891   4.008   0.499  10.490 -1.3233 -0.5541  0.6879
  394TMC3    H1 5892   3.862   0.822  10.734 -1.8914 -0.1251  0.1729
  394TMC3    H2 5893   3.865   0.858  10.308 -0.7804  1.7683  1.4821
  394TMC3    C7 5894   3.871   0.991  10.525  0.5062 -0.0101  0.9010
  394TMC3    C8 5895   3.977   0.627  10.258 -0.8535 -0.3892  0.0941
  394TMC3    O1 5896   3.829   1.039  10.420  0.0388 -0.5488 -0.2066
  394TMC3    O2 5897   3.951   0.692  10.157  0.6498  0.8084  0.1156
  395TMC3    C1 5898   3.365   2.315  15.124 -0.0881  0.3543  0.6290
  395TMC3    C2 5899   3.262   2.309  15.030 -0.7653  0.2324  0.0934
  395TMC3    C3 5900   3.244   2.419  14.942 -0.1914 -0.0091 -0.1387
  395TMC3    C4 5901   3.466   2.412  15.102  0.5124 -0.3485 -0.1952
  395TMC3    C5 5902   3.453   2.505  15.003 -0.4517 -0.1106 -0.0879
  395TMC3    C6 5903   3.337   2.521  14.930 -0.0049 -0.4008  0.4466
  395TMC3     C 5904   3.321   2.292  15.264  0.8170  0.4413 -0.2089
  395TMC3     O 5905   3.202   2.306  15.281 -0.2975  0.0670 -0.0524
  395TMC3     H 5906   3.183   2.235  15.031  1.7442 -2.4120 -0.7478
  395TMC3    H1 5907   3.551   2.421  15.168  0.4665  2.9787 -0.6192
  395TMC3    H2 5908   3.341   2.599  14.855 -0.3915 -0.0627  0.7779
  395TMC3    C7 5909   3.534   2.625  15.021  0.3349 -1.0698  0.0101
  395TMC3    C8 5910   3.117   2.443  14.881  0.3318 -0.3796 -0.1802
  395TMC3    O1 5911   3.484   2.737  15.007  0.1720 -0.8080  0.2982
  395TMC3    O2 5912   3.099   2.557  14.846  0.1160 -0.5398 -0.7637
  396MPD2     C 5913   3.086   3.432  17.632 -0.5800 -0.1758 -0.4821
  396MPD2    C1 5914   3.144   3.473  17.524  0.4755 -0.1500 -0.0844
  396MPD2    C2 5915   3.170   3.608  17.511 -0.1671  0.4048 -0.1193
  396MPD2    C3 5916   3.132   3.706  17.607  0.6109  0.4941 -0.2925
  396MPD2    C4 5917   3.053   3.659   0.001 -0.3730  0.0752  0.1803
  396MPD2    C5 5918   3.043   3.517   0.017  0.2947  0.0368  0.4261
  396MPD2     H 5919   3.238   3.630  17.430 -0.6841 -0.3055 -0.7461
  396MPD2    H1 5920   3.005   3.727   0.071 -0.5307 -0.3917  0.5268
  396MPD2    H2 5921   3.089   3.326  17.655  2.5384 -0.1974 -1.0795
  396MPD2    H3 5922   3.011   3.479   0.113 -1.5231  1.6799  0.4788
  396MPD2     N 5923   3.170   3.840  17.575  0.4936  0.5037  0.4419
  396MPD2    H5 5924   3.225   3.866  17.493 -0.5981  0.2378 -0.3783
  396MPD2    N1 5925   3.188   3.370  17.432  0.0445  0.4077  0.7570
  396MPD2    H7 5926   3.171   3.274  17.461  1.0788 -0.0224 -0.0603
  397TMC3    C1 5927   3.249   3.267  17.233 -1.1352  0.4335  0.7945
  397TMC3    C2 5928   3.256   3.300  17.103 -0.6733  0.4974 -0.4324
  397TMC3    C3 5929   3.203   3.217  17.006 -0.2337  0.3336  0.1565
  397TMC3    C4 5930   3.176   3.153  17.267  0.4041 -0.5514  0.0644
  397TMC3    C5 5931   3.140   3.060  17.164  0.2585  0.6174 -0.6845
  397TMC3    C6 5932   3.155   3.090  17.032 -0.5464 -0.4493 -0.3137
  397TMC3     C 5933   3.231   3.387  17.307 -0.2897 -0.1858  0.2679
  397TMC3     O 5934   3.283   3.488  17.256 -0.1167  0.0400 -0.2718
  397TMC3     H 5935   3.310   3.387  17.067 -0.4009 -0.1521 -1.5844
  397TMC3    H1 5936   3.161   3.120  17.369 -2.3096  0.4059 -0.0363
  397TMC3    H2 5937   3.121   3.016  16.961 -2.2278  0.7527 -0.7802
  397TMC3    C7 5938   3.041   2.950  17.189  0.2943 -0.2948 -0.2392
  397TMC3    C8 5939   3.186   3.257  16.871  0.1226  0.9174  0.7428
  397TMC3    O1 5940   3.017   2.867  17.098 -0.6055 -0.2048 -0.2721
  397TMC3    O2 5941   3.161   3.165  16.798  0.5001 -0.0076  0.0510
  398MPD2     C 5942   0.969   4.571   0.144  0.1034 -0.2085  0.3743
  398MPD2    C1 5943   1.054   4.559   0.251  0.4998 -0.2571  0.2750
  398MPD2    C2 5944   1.150   4.656   0.281  0.0645 -0.5665  0.3578
  398MPD2    C3 5945   1.176   0.032   0.197 -0.4015 -0.0602  0.0390
  398MPD2    C4 5946   1.098   0.040   0.086 -0.0165  0.0387  0.3621
  398MPD2    C5 5947   1.002   4.675   0.060  0.8247 -0.2161  0.0736
  398MPD2     H 5948   1.208   4.653   0.372  0.2071  0.0252  0.2835
  398MPD2    H1 5949   1.102   0.120   0.012  2.7816 -0.0578  0.3912
  398MPD2    H2 5950   0.890   4.502   0.117  0.5169 -0.4443 -0.2487
  398MPD2    H3 5951   0.939   4.693  17.683 -1.5261  0.8755  2.0142
  398MPD2     N 5952   1.287   0.118   0.225  0.1548  0.1149  0.2195
  398MPD2    H5 5953   1.322   0.113   0.320  2.2161  0.1746 -0.5324
  398MPD2    N1 5954   1.054   4.444   0.331 -0.0544 -0.4140  0.2147
  398MPD2    H7 5955   1.127   4.435   0.401  0.6026 -0.9898 -0.5398
  399TMC3    C1 5956   0.979   4.239   0.430 -0.2368  0.0461 -0.7427
  399TMC3    C2 5957   1.103   4.217   0.479  0.1499 -0.2555  0.9729
  399TMC3    C3 5958   1.107   4.158   0.605 -0.2302 -0.7028 -0.4075
  399TMC3    C4 5959   0.863   4.207   0.504 -0.0536  0.3853  0.3893
  399TMC3    C5 5960   0.875   4.143   0.624  0.3651  0.0194 -0.6355
  399TMC3    C6 5961   0.997   4.122   0.679  0.9164  0.3778 -0.3962
  399TMC3     C 5962   0.960   4.347   0.327 -0.3455 -0.2879 -0.1415
  399TMC3     O 5963   0.858   4.336   0.260 -0.8779  0.0974 -0.1479
  399TMC3     H 5964   1.195   4.236   0.426  0.5462 -3.1700  0.6597
  399TMC3    H1 5965   0.769   4.247   0.467 -0.1317 -2.2200 -2.2598
  399TMC3    H2 5966   1.003   4.066   0.771 -1.1246  0.7565 -0.0434
  399TMC3    C7 5967   0.758   4.084   0.694  0.0983  0.7706  0.0091
  399TMC3    C8 5968   1.240   4.135   0.662 -0.4385  0.8057  0.2423
  399TMC3    O1 5969   0.785   4.030   0.802 -0.1926 -0.2219  0.2195
  399TMC3    O2 5970   1.332   4.201   0.617 -0.1283  0.5725  0.2767
  400TMC3    C1 5971   4.494   3.166  17.133  0.1351  0.2945 -0.2239
  400TMC3    C2 5972   4.372   3.108  17.103 -0.4660 -0.0898  0.1285
  400TMC3    C3 5973   4.262   3.188  17.080  0.0128 -0.6662 -0.0611
  400TMC3    C4 5974   4.500   3.303  17.136  0.2829  0.7186  0.1046
  400TMC3    C5 5975   4.381   3.374  17.131  0.4869 -0.2632 -0.2213
  400TMC3    C6 5976   4.263   3.321  17.096  0.8437  0.9254 -0.0053
  400TMC3     C 5977   4.562   3.104  17.250 -0.6799 -0.4197 -0.1636
  400TMC3     O 5978   4.548   2.982  17.256  0.1394 -0.2447  0.1492
  400TMC3     H 5979   4.367   3.000  17.091 -0.1057 -0.2156  1.1298
  400TMC3    H1 5980   4.590   3.361  17.146  0.5206  0.6774 -1.7316
  400TMC3    H2 5981   4.178   3.384  17.074 -0.8329 -0.6155  2.0649
  400TMC3    C7 5982   4.396   3.515  17.155 -0.5608  0.8642  0.8600
  400TMC3    C8 5983   4.140   3.126  17.037 -0.1605  0.1755 -0.2166
  400TMC3    O1 5984   4.495   3.564  17.113  0.4198 -0.8319 -0.5120
  400TMC3    O2 5985   4.035   3.180  17.064 -0.1587 -0.0387 -0.4260
  401MPD2     C 5986   2.194   1.789   0.365  0.0148  0.0608 -0.2398
  401MPD2    C1 5987   2.270   1.753   0.477  0.4149  0.2842  0.7950
  401MPD2    C2 5988   2.276   1.626   0.518 -0.4648  0.0818  0.2373
  401MPD2    C3 5989   2.221   1.522   0.445  0.3029  0.6074 -0.0363
  401MPD2    C4 5990   2.160   1.554   0.324  0.2147  0.1535  0.0116
  401MPD2    C5 5991   2.143   1.685   0.292  0.2438  0.2447 -0.6335
  401MPD2     H 5992   2.341   1.604   0.602  0.0364 -1.3064 -0.5097
  401MPD2    H1 5993   2.123   1.481   0.254  0.0204 -0.0504  0.3243
  401MPD2    H2 5994   2.176   1.892   0.336  2.0942  0.4523 -0.1427
  401MPD2    H3 5995   2.097   1.714   0.198 -1.2849  1.8028  0.6090
  401MPD2     N 5996   2.250   1.396   0.492  0.9025  0.2493 -0.4077
  401MPD2    H5 5997   2.306   1.399   0.576  0.4863  1.2168 -0.1608
  401MPD2    N1 5998   2.345   1.840   0.557  0.0414 -0.1933  0.0527
  401MPD2    H7 5999   2.405   1.803   0.629 -0.2631 -1.7836 -0.5154
  402TMC3    C1 6000   2.334   1.186   0.477 -0.1140  0.1339  0.2328
  402TMC3    C2 6001   2.418   1.222   0.578 -0.0318  0.1158 -0.3414
  402TMC3    C3 6002   2.483   1.117   0.641 -0.8113  0.9042  0.0941
  402TMC3    C4 6003   2.310   1.058   0.433 -0.1445 -0.6529 -0.3969
  402TMC3    C5 6004   2.385   0.961   0.492  0.8963 -0.4354 -0.4070
  402TMC3    C6 6005   2.476   0.990   0.594 -0.4257  0.1945  0.1790
  402TMC3     C 6006   2.250   1.286   0.413 -0.1350 -0.8750 -0.3720
  402TMC3     O 6007   2.208   1.259   0.301  0.0468 -0.2359 -0.5541
  402TMC3     H 6008   2.446   1.324   0.601 -1.4380  0.2145  0.9522
  402TMC3    H1 6009   2.238   1.037   0.356 -3.0436 -0.8750  2.3773
  402TMC3    H2 6010   2.521   0.903   0.641  0.6375 -0.2316 -1.5921
  402TMC3    C7 6011   2.385   0.837   0.421  0.2902 -0.4164  0.0847
  402TMC3    C8 6012   2.595   1.156   0.732  0.1351  0.4030  0.0449
  402TMC3    O1 6013   2.277   0.795   0.372 -0.5811  0.1275 -0.2386
  402TMC3    O2 6014   2.684   1.066   0.736  0.2176 -0.0690  0.0944
  403MPD2     C 6015   1.189   4.653  13.574 -1.0910  0.4172 -0.5295
  403MPD2    C1 6016   1.244   4.560  13.663 -0.1080  0.4536  0.2685
  403MPD2    C2 6017   1.331   4.602  13.761 -0.1344 -0.0067  0.3129
  403MPD2    C3 6018   1.366   0.010  13.772  0.5609 -0.2011  0.2541
  403MPD2    C4 6019   1.289   0.101  13.709 -0.1112 -0.4370 -0.1207
  403MPD2    C5 6020   1.203   0.060  13.604  0.4742 -0.7008 -0.8426
  403MPD2     H 6021   1.378   4.526  13.822  1.8791  0.6050 -0.4842
  403MPD2    H1 6022   1.300   0.208  13.719  0.7761 -0.5464  0.1205
  403MPD2    H2 6023   1.141   4.626  13.481  0.7616  0.9535 -1.6463
  403MPD2    H3 6024   1.163   0.140  13.543 -1.4776 -0.8106  0.3032
  403MPD2     N 6025   1.478   0.051  13.852 -0.6257 -0.3668  0.6545
  403MPD2    H5 6026   1.527   4.696  13.885 -1.1485 -1.0616 -0.3096
  403MPD2    N1 6027   1.205   4.423  13.647  0.6410  0.1592 -0.1892
  403MPD2    H7 6028   1.169   4.397  13.555 -1.4474  1.0448  0.3605
  404TMC3    C1 6029   1.134   4.207  13.732  0.9465  0.4699  0.6090
  404TMC3    C2 6030   1.083   4.144  13.846  0.9154  0.4038  0.0588
  404TMC3    C3 6031   1.007   4.033  13.826  0.2492 -0.4911 -0.4022
  404TMC3    C4 6032   1.094   4.179  13.603  0.6617 -0.3324 -0.3184
  404TMC3    C5 6033   0.998   4.077  13.590 -0.7319  0.1971  0.0589
  404TMC3    C6 6034   0.969   3.995  13.695 -0.4951 -0.5453 -0.3896
  404TMC3     C 6035   1.202   4.336  13.752 -0.1372 -0.0797 -0.4275
  404TMC3     O 6036   1.224   4.364  13.869  0.0084  0.4552 -0.4415
  404TMC3     H 6037   1.102   4.188  13.943  1.8482 -0.7314  0.3961
  404TMC3    H1 6038   1.130   4.221  13.509  0.0488 -1.1876 -0.9442
  404TMC3    H2 6039   0.922   3.898  13.682 -1.9322 -0.2380  2.5743
  404TMC3    C7 6040   0.966   4.045  13.450  0.8546  0.5612 -0.3211
  404TMC3    C8 6041   1.017   3.943  13.942  0.2389 -0.4477 -0.1811
  404TMC3    O1 6042   1.040   4.080  13.360 -0.3069 -0.1997  0.5458
  404TMC3    O2 6043   1.100   3.855  13.920  0.1044 -0.0099 -0.2617
  405MPD2     C 6044   1.653   0.502  14.854  0.1370  0.5159 -0.4184
  405MPD2    C1 6045   1.601   0.400  14.777 -0.3497 -0.6027 -0.4033
  405MPD2    C2 6046   1.518   0.436  14.673 -0.2906  0.0789  0.1107
  405MPD2    C3 6047   1.506   0.564  14.629 -0.5454  0.9326 -0.3942
  405MPD2    C4 6048   1.558   0.669  14.705  0.2347  0.3621 -0.4797
  405MPD2    C5 6049   1.629   0.630  14.817  0.7858  0.3130 -0.1572
  405MPD2     H 6050   1.460   0.365  14.614  2.2896 -0.4603 -1.7914
  405MPD2    H1 6051   1.541   0.772  14.679 -1.3151 -0.3944 -2.4556
  405MPD2    H2 6052   1.707   0.479  14.945 -2.9679  0.7110  1.4761
  405MPD2    H3 6053   1.661   0.716  14.875 -1.6764  1.4993 -0.5737
  405MPD2     N 6054   1.424   0.575  14.512  0.3653 -0.0345  0.0585
  405MPD2    H5 6055   1.368   0.493  14.490  1.9289 -1.0346 -0.1972
  405MPD2    N1 6056   1.616   0.264  14.813  0.2045 -0.1785  0.1387
  405MPD2    H7 6057   1.651   0.244  14.907  0.0629  1.8272  0.6069
  406TMC3    C1 6058   1.151   0.711  14.178 -0.0128  0.1544 -0.3031
  406TMC3    C2 6059   1.132   0.578  14.145  0.3622 -0.4251 -0.5319
  406TMC3    C3 6060   1.217   0.488  14.202 -0.2195  0.0844 -0.1693
  406TMC3    C4 6061   1.250   0.747  14.261 -0.0745 -0.4736 -0.2044
  406TMC3    C5 6062   1.339   0.656  14.311 -0.6791  0.1781 -0.2013
  406TMC3    C6 6063   1.326   0.523  14.273  0.4293  0.6218  0.2561
  406TMC3     C 6064   1.041   0.800  14.178 -0.0737 -0.5715 -0.0356
  406TMC3     O 6065   1.067   0.916  14.158 -0.1980 -0.4362  0.0098
  406TMC3     H 6066   1.049   0.543  14.084 -0.8429 -0.0967  0.9433
  406TMC3    H1 6067   1.254   0.852  14.290 -0.9280 -0.3562 -0.5144
  406TMC3    H2 6068   1.400   0.446  14.294 -0.5090  0.3316  2.4777
  406TMC3    C7 6069   1.414   0.688  14.431  0.1243 -0.1632  0.6503
  406TMC3    C8 6070   1.206   0.350  14.163 -0.2561 -0.3633 -0.8282
  406TMC3    O1 6071   1.460   0.799  14.448  0.5192 -0.4073 -0.2442
  406TMC3    O2 6072   1.162   0.321  14.051  0.1093  0.1026 -0.4744
  407MPD2     C 6073   3.903   2.087   9.532 -0.9446 -0.4902 -0.4065
  407MPD2    C1 6074   4.008   2.025   9.602  0.3818  0.3739  0.2382
  407MPD2    C2 6075   3.995   2.006   9.740 -0.1265  0.3243  0.1624
  407MPD2    C3 6076   3.888   2.060   9.808  0.7027 -0.5080  0.4332
  407MPD2    C4 6077   3.785   2.106   9.735  0.5148 -0.4632 -0.0655
  407MPD2    C5 6078   3.797   2.122   9.605 -0.3639 -0.1298  0.2647
  407MPD2     H 6079   4.079   1.969   9.797 -0.4400  2.5101  2.0186
  407MPD2    H1 6080   3.694   2.137   9.785  0.3178  1.0950 -1.3766
  407MPD2    H2 6081   3.892   2.112   9.427  0.1555  2.8479  0.2690
  407MPD2    H3 6082   3.718   2.175   9.553  0.1546 -0.6084 -1.0149
  407MPD2     N 6083   3.871   2.059   9.951  0.0109 -0.2441 -0.2743
  407MPD2    H5 6084   3.788   2.102   9.990  1.2015  1.2642  0.5791
  407MPD2    N1 6085   4.131   1.997   9.549 -0.5968 -0.2971  0.3783
  407MPD2    H7 6086   4.197   1.938   9.600  0.2236 -0.9427 -1.4043
  408TMC3    C1 6087   4.314   1.993   9.398 -0.5211  0.9908  0.0767
  408TMC3    C2 6088   4.366   1.883   9.461 -0.0071  0.1509 -0.1783
  408TMC3    C3 6089   4.496   1.852   9.432  0.4000  0.3089 -0.2498
  408TMC3    C4 6090   4.395   2.084   9.322  0.3389  0.3069 -0.1180
  408TMC3    C5 6091   4.529   2.048   9.304 -0.3597 -0.2755 -0.1435
  408TMC3    C6 6092   4.583   1.937   9.364 -0.7746 -0.4385  0.3010
  408TMC3     C 6093   4.175   2.038   9.427 -0.1448 -0.3249  0.2764
  408TMC3     O 6094   4.131   2.124   9.357 -0.2415 -0.0333 -0.4839
  408TMC3     H 6095   4.309   1.818   9.526  0.8078  0.2218  0.6051
  408TMC3    H1 6096   4.360   2.175   9.276 -1.8679 -1.0932 -1.1937
  408TMC3    H2 6097   4.688   1.912   9.357 -1.3660 -2.6995 -0.6152
  408TMC3    C7 6098   4.634   2.133   9.251  0.1422  0.6300  0.1146
  408TMC3    C8 6099   4.555   1.739   9.501  0.1879  0.1478 -0.4768
  408TMC3    O1 6100   4.616   2.253   9.258  0.5889 -0.0257 -0.1301
  408TMC3    O2 6101   4.476   1.660   9.538 -0.6405  0.2430 -0.1373
  409MPD2     C 6102   3.443   2.242  17.199 -0.1541 -0.0932  0.2749
  409MPD2    C1 6103   3.515   2.301  17.300  0.1897 -0.3079 -0.1264
  409MPD2    C2 6104   3.515   2.435  17.312 -1.1284 -0.5528 -0.1346
  409MPD2    C3 6105   3.440   2.521  17.228  0.3087 -0.6633  0.1294
  409MPD2    C4 6106   3.376   2.457  17.124  0.8959  0.2821  0.3150
  409MPD2    C5 6107   3.367   2.321  17.124 -0.4530 -0.2762  0.1686
  409MPD2     H 6108   3.588   2.472  17.383 -0.6986 -0.8489 -0.4216
  409MPD2    H1 6109   3.311   2.513  17.057  2.2403 -1.6025 -2.5990
  409MPD2    H2 6110   3.431   2.134  17.197 -2.6278  0.2070 -0.7011
  409MPD2    H3 6111   3.290   2.277  17.061 -1.8122  0.1511  1.5278
  409MPD2     N 6112   3.449   2.662  17.221 -0.3790  0.5065  0.2568
  409MPD2    H5 6113   3.421   2.703  17.132 -1.4109 -0.3107  0.1981
  409MPD2    N1 6114   3.609   2.230  17.383 -0.3859 -0.0510 -0.1757
  409MPD2    H7 6115   3.679   2.289  17.427  0.2564 -2.1515  1.5950
  410TMC3    C1 6116   3.545   2.870  17.270 -0.7379 -0.4337 -0.3990
  410TMC3    C2 6117   3.644   2.935  17.332 -0.2017 -0.0532 -0.0440
  410TMC3    C3 6118   3.707   3.038  17.270 -0.2961  1.3162 -0.2223
  410TMC3    C4 6119   3.499   2.909  17.146  0.5774  0.2198  0.1995
  410TMC3    C5 6120   3.553   3.030  17.097  0.5852  0.3173  0.1339
  410TMC3    C6 6121   3.664   3.091  17.152 -0.1643 -0.4903  0.1522
  410TMC3     C 6122   3.521   2.735  17.315 -0.6822  0.2979 -0.9433
  410TMC3     O 6123   3.569   2.702  17.425  0.0443  0.7372  0.2090
  410TMC3     H 6124   3.678   2.895  17.427 -0.5001 -1.1931 -0.4134
  410TMC3    H1 6125   3.409   2.867  17.104  1.6142 -0.3934 -1.4087
  410TMC3    H2 6126   3.724   3.171  17.109  0.1390 -0.4050  0.7350
  410TMC3    C7 6127   3.523   3.063  16.961  0.3855 -0.4711  0.0048
  410TMC3    C8 6128   3.846   3.064  17.311 -0.2545  0.2283 -0.6061
  410TMC3    O1 6129   3.470   2.974  16.892 -0.7059 -0.3405 -0.0381
  410TMC3    O2 6130   3.873   3.181  17.318 -0.6063  0.0798 -0.4769
  411MPD2     C 6131   3.674   3.283  14.975 -0.2229  0.5454  0.2787
  411MPD2    C1 6132   3.569   3.341  14.900  0.8890 -0.0239  0.3945
  411MPD2    C2 6133   3.459   3.260  14.872 -0.0190 -0.6844 -0.1196
  411MPD2    C3 6134   3.455   3.125  14.909 -0.6866  0.1137  0.7884
  411MPD2    C4 6135   3.568   3.071  14.970 -0.2561 -0.2559  0.5120
  411MPD2    C5 6136   3.670   3.154  15.015  0.9888 -0.1638  0.0438
  411MPD2     H 6137   3.377   3.299  14.813 -0.8592 -0.8629  0.9359
  411MPD2    H1 6138   3.558   2.971  15.009  1.3211 -0.2890  0.8386
  411MPD2    H2 6139   3.752   3.349  15.010  0.7070 -1.6513  2.3393
  411MPD2    H3 6140   3.752   3.118  15.075  0.8671 -0.1777  0.2000
  411MPD2     N 6141   3.346   3.041  14.883  0.0444  0.4522 -0.5780
  411MPD2    H5 6142   3.361   2.944  14.905 -3.1090  0.4175  1.4362
  411MPD2    N1 6143   3.588   3.486  14.866  0.9516 -0.5812 -0.0303
  411MPD2    H7 6144   3.681   3.524  14.881  0.5219 -0.8159  3.3513
  412TMC3    C1 6145   3.127   2.984  14.817  0.4015 -0.5045 -0.2693
  412TMC3    C2 6146   2.998   3.019  14.830 -0.0585  0.0663  0.9259
  412TMC3    C3 6147   2.908   2.933  14.765 -0.2292  0.1109 -0.1586
  412TMC3    C4 6148   3.173   2.881  14.740 -0.1323  0.5328  0.0368
  412TMC3    C5 6149   3.078   2.806  14.664  0.9974 -0.1576 -0.2543
  412TMC3    C6 6150   2.949   2.824  14.697  0.9627 -0.3516 -0.0106
  412TMC3     C 6151   3.219   3.089  14.854  0.0288 -0.1709 -0.1740
  412TMC3     O 6152   3.178   3.202  14.866  0.2190  0.1773 -0.3732
  412TMC3     H 6153   2.965   3.112  14.874 -1.2490 -0.5423  1.3249
  412TMC3    H1 6154   3.279   2.885  14.713  0.3815  2.1208  2.3604
  412TMC3    H2 6155   2.872   2.771  14.642  2.6592 -1.2017 -1.5845
  412TMC3    C7 6156   3.089   2.820  14.522 -0.5084  0.0831  0.0356
  412TMC3    C8 6157   2.783   2.998  14.723 -0.0617 -0.0432 -0.5329
  412TMC3    O1 6158   2.984   2.832  14.459 -0.5735 -0.3068 -0.0891
  412TMC3    O2 6159   2.733   3.065  14.815  0.2895  0.3134 -0.0391
  413MPD2     C 6160   0.830   2.000  15.367  0.6743  0.1495 -0.0941
  413MPD2    C1 6161   0.723   1.942  15.296  0.3665  0.3349 -0.2737
  413MPD2    C2 6162   0.742   1.821  15.224 -0.2350  0.0421 -0.1512
  413MPD2    C3 6163   0.861   1.756  15.244 -0.1800 -0.1295 -0.1549
  413MPD2    C4 6164   0.960   1.817  15.321 -0.0384  0.0568  0.2520
  413MPD2    C5 6165   0.947   1.942  15.382 -0.2575 -0.0442  0.1206
  413MPD2     H 6166   0.665   1.783  15.158 -0.5182  1.6293 -0.7285
  413MPD2    H1 6167   1.061   1.778  15.327 -0.1402 -0.1605  0.5629
  413MPD2    H2 6168   0.812   2.090  15.424 -1.0902 -1.5060  1.9496
  413MPD2    H3 6169   1.031   1.992  15.428  0.0047 -0.9146  0.5814
  413MPD2     N 6170   0.889   1.631  15.185 -0.4204  0.6876 -0.2962
  413MPD2    H5 6171   0.816   1.599  15.123  0.4606  1.3526 -1.6632
  413MPD2    N1 6172   0.598   1.999  15.307  0.6049 -0.6426 -0.3836
  413MPD2    H7 6173   0.579   2.066  15.382  0.8048 -1.4945  0.4315
  414TMC3    C1 6174   0.974   1.434  15.117 -0.1931  0.4497 -0.1558
  414TMC3    C2 6175   1.025   1.310  15.154  0.5241 -0.3759 -0.3737
  414TMC3    C3 6176   1.023   1.215  15.062  0.1031 -0.0167 -0.4686
  414TMC3    C4 6177   0.914   1.451  14.999  0.1422 -0.1219 -0.2121
  414TMC3    C5 6178   0.932   1.352  14.905  0.1338  0.0969  0.1439
  414TMC3    C6 6179   0.966   1.225  14.939 -0.5330  0.0137  0.9064
  414TMC3     C 6180   0.992   1.548  15.202  0.3359 -0.5232  0.1698
  414TMC3     O 6181   1.077   1.554  15.291  0.4975 -0.2932 -0.4019
  414TMC3     H 6182   1.084   1.301  15.245  0.4011  1.2410 -0.1410
  414TMC3    H1 6183   0.901   1.551  14.958  1.8162  0.4295  0.6226
  414TMC3    H2 6184   0.965   1.146  14.864  1.8083  0.0783  0.8037
  414TMC3    C7 6185   0.859   1.392  14.776 -0.0740  0.4657  0.5809
  414TMC3    C8 6186   1.114   1.103  15.074 -0.7024  0.6418 -0.7991
  414TMC3    O1 6187   0.765   1.469  14.776  0.4571 -0.5081  0.1540
  414TMC3    O2 6188   1.102   1.010  14.996  0.4804  0.1673 -0.0965
  415TMC3    C1 6189   1.231   3.967  10.527  0.3724 -0.1460  0.5264
  415TMC3    C2 6190   1.332   3.959  10.433  0.1471 -0.0606  0.5867
  415TMC3    C3 6191   1.342   3.846  10.360 -0.0521  0.0581  0.3190
  415TMC3    C4 6192   1.139   3.870  10.543 -0.1681  0.0095  0.5103
  415TMC3    C5 6193   1.153   3.760  10.467 -0.1738 -0.1856 -0.0234
  415TMC3    C6 6194   1.249   3.743  10.374  0.2901  0.1149  0.2096
  415TMC3     C 6195   1.234   4.070  10.621 -0.4338 -0.7408  0.0702
  415TMC3     O 6196   1.138   4.088  10.697  0.0260  0.3327  0.0460
  415TMC3     H 6197   1.408   4.034  10.415  1.6157 -1.6707  0.1232
  415TMC3    H1 6198   1.065   3.878  10.622  0.2555 -0.4925  0.9489
  415TMC3    H2 6199   1.260   3.651  10.318  1.0289  0.7584 -0.7071
  415TMC3    C7 6200   1.066   3.649  10.489  0.6893 -0.1673 -0.5315
  415TMC3    C8 6201   1.398   3.853  10.223 -0.4587  0.0368  0.6577
  415TMC3    O1 6202   1.077   3.557  10.412 -0.3463  0.1638  0.0125
  415TMC3    O2 6203   1.358   3.767  10.148  0.2798 -0.2608 -0.0467
  416MPD2     C 6204   3.254   3.218  11.536  0.1820  0.2076  0.1620
  416MPD2    C1 6205   3.149   3.186  11.624 -0.3413  0.0456 -0.3590
  416MPD2    C2 6206   3.099   3.058  11.625  0.2021  0.3761 -0.2451
  416MPD2    C3 6207   3.133   2.960  11.534  0.1905 -0.2584 -0.2671
  416MPD2    C4 6208   3.239   2.987  11.451  0.4084  0.1032 -0.4523
  416MPD2    C5 6209   3.292   3.123  11.448  0.1399  0.2236  0.0305
  416MPD2     H 6210   3.023   3.032  11.697 -0.0551  0.5707 -0.4489
  416MPD2    H1 6211   3.273   2.923  11.370  1.8388  1.1561 -0.6826
  416MPD2    H2 6212   3.305   3.314  11.533 -0.7574  0.6875 -0.6032
  416MPD2    H3 6213   3.382   3.140  11.390  0.6489 -0.6267  0.5778
  416MPD2     N 6214   3.056   2.842  11.528 -0.1315 -0.1263  1.0680
  416MPD2    H5 6215   2.976   2.835  11.590 -0.5787  2.3754  0.7326
  416MPD2    N1 6216   3.099   3.284  11.698  0.0157 -0.0765  0.3631
  416MPD2    H7 6217   3.136   3.376  11.679  1.3729 -0.5747  0.5843
  417TMC3    C1 6218   2.951   3.415  11.819 -0.6315 -0.1136  0.3972
  417TMC3    C2 6219   2.884   3.411  11.937  0.4022 -0.1473  0.1760
  417TMC3    C3 6220   2.792   3.511  11.962  1.0709 -0.4799 -0.7168
  417TMC3    C4 6221   2.917   3.506  11.723 -0.2369 -0.5721  0.3016
  417TMC3    C5 6222   2.813   3.596  11.743 -0.2682  0.0763  0.7159
  417TMC3    C6 6223   2.753   3.602  11.866 -0.0598 -0.1489 -0.4933
  417TMC3     C 6224   2.988   3.282  11.774 -0.3566 -0.1081  0.3660
  417TMC3     O 6225   2.914   3.192  11.811 -0.0897 -0.1076  0.6300
  417TMC3     H 6226   2.922   3.342  12.011  2.6395 -0.5543 -1.3713
  417TMC3    H1 6227   2.963   3.493  11.626 -2.1764 -2.7670 -0.3378
  417TMC3    H2 6228   2.667   3.663  11.891  0.6334  0.5530  0.1353
  417TMC3    C7 6229   2.747   3.649  11.626 -0.4942 -0.2798  0.3219
  417TMC3    C8 6230   2.750   3.524  12.097  0.3054 -0.3945  0.0772
  417TMC3    O1 6231   2.813   3.688  11.530 -0.4344  0.3202 -0.1184
  417TMC3    O2 6232   2.708   3.636  12.139 -0.1050  0.2024 -0.0082
  418TMC3    C1 6233   1.609   0.441   0.104  0.5785 -0.4932 -0.3312
  418TMC3    C2 6234   1.532   0.335   0.076  0.0728 -0.6783 -0.0080
  418TMC3    C3 6235   1.448   0.281   0.172 -0.9103 -0.3046  0.5255
  418TMC3    C4 6236   1.637   0.481   0.238  0.0371 -0.4246 -0.6181
  418TMC3    C5 6237   1.575   0.406   0.336 -0.0768 -1.0540 -0.6041
  418TMC3    C6 6238   1.469   0.319   0.300  0.4007  0.0685 -0.6585
  418TMC3     C 6239   1.701   0.494   0.006 -0.6991  0.9348  0.0552
  418TMC3     O 6240   1.747   0.608   0.016 -0.4292  0.2139 -0.3923
  418TMC3     H 6241   1.525   0.307  17.681  0.3407  3.7664 -1.1910
  418TMC3    H1 6242   1.686   0.576   0.253  1.0407 -0.7183 -2.0164
  418TMC3    H2 6243   1.399   0.298   0.380  0.7750 -1.1253 -0.6458
  418TMC3    C7 6244   1.651   0.355   0.446  0.2210 -0.3280 -0.1134
  418TMC3    C8 6245   1.363   0.174   0.122 -0.3338  0.3466  0.2348
  418TMC3    O1 6246   1.618   0.252   0.496  0.0909 -0.2429 -0.2038
  418TMC3    O2 6247   1.370   0.136   0.004  0.1142 -0.5952 -0.1888
  419MPD2     C 6248   4.626   2.896  13.284  0.6081  0.1372  0.2836
  419MPD2    C1 6249   4.492   2.898  13.254 -0.2701 -0.6488  0.1276
  419MPD2    C2 6250   4.406   2.854  13.348 -0.1094  0.7172  0.3958
  419MPD2    C3 6251   4.455   2.811  13.470 -0.4830 -0.0989 -0.0540
  419MPD2    C4 6252   4.585   2.802  13.495 -0.3390  0.6410  0.0621
  419MPD2    C5 6253   4.671   2.850  13.403 -0.0150 -0.4556 -0.0190
  419MPD2     H 6254   4.301   2.879  13.349 -0.6015 -1.2721 -1.4039
  419MPD2    H1 6255   4.626   2.784  13.594 -1.1881  0.9672  0.4829
  419MPD2    H2 6256   4.698   2.922  13.207  1.1489 -0.5793  0.5463
  419MPD2    H3 6257   0.050   2.866  13.418 -0.1823 -0.6825  1.3383
  419MPD2     N 6258   4.363   2.810  13.574 -0.0292 -0.3297  0.9400
  419MPD2    H5 6259   4.266   2.834  13.555 -0.0816  0.0093  1.5935
  419MPD2    N1 6260   4.433   2.951  13.135 -0.2400 -0.0813 -0.2466
  419MPD2    H7 6261   4.332   2.961  13.143 -0.1966  0.7095 -0.6543
  420TMC3    C1 6262   4.282   2.897  13.774  0.1212  0.6557 -0.8653
  420TMC3    C2 6263   4.202   2.987  13.710 -0.0665  0.0608  0.2369
  420TMC3    C3 6264   4.149   3.095  13.772 -0.4315  0.4820  0.2256
  420TMC3    C4 6265   4.309   2.917  13.906  0.3407  0.0329  0.1767
  420TMC3    C5 6266   4.258   3.024  13.974  0.2326  0.2362  0.0706
  420TMC3    C6 6267   4.172   3.113  13.912 -0.4689  0.2388  0.0455
  420TMC3     C 6268   4.389   2.832  13.705  0.3247  0.4548  0.7195
  420TMC3     O 6269   4.500   2.830  13.768 -0.7302 -0.8826 -0.1969
  420TMC3     H 6270   4.186   2.964  13.605  2.3494  0.1927 -0.1502
  420TMC3    H1 6271   4.367   2.844  13.962 -1.3073 -1.4965 -0.0879
  420TMC3    H2 6272   4.114   3.186  13.966  1.3332  2.3197 -0.8516
  420TMC3    C7 6273   4.350   3.077  14.066  0.1209  0.0020 -0.3166
  420TMC3    C8 6274   4.118   3.214  13.695 -0.3551 -0.1292 -0.0905
  420TMC3    O1 6275   4.460   3.026  14.062  0.0030 -0.3371 -0.0180
  420TMC3    O2 6276   4.090   3.199  13.576 -0.4283 -0.2852  0.4499
  421TMC3    C1 6277   1.630   0.193  13.978  0.0162 -0.1742 -0.6115
  421TMC3    C2 6278   1.640   0.314  14.036  0.6665 -0.0457 -0.2517
  421TMC3    C3 6279   1.754   0.349  14.102  0.0851  0.7620  0.0386
  421TMC3    C4 6280   1.737   0.104  13.979  0.8451  0.1863 -0.3662
  421TMC3    C5 6281   1.852   0.142  14.041  0.2071  1.3179  0.3428
  421TMC3    C6 6282   1.855   0.262  14.115  0.3833  0.1672  0.8498
  421TMC3     C 6283   1.521   0.182  13.884 -0.0150  0.9535  0.6773
  421TMC3     O 6284   1.472   0.286  13.850 -0.2165  0.3063  0.4894
  421TMC3     H 6285   1.549   0.372  14.038  0.9967  0.3804  2.3378
  421TMC3    H1 6286   1.736   0.016  13.916 -3.7551  0.5322 -0.7655
  421TMC3    H2 6287   1.948   0.290  14.165  0.7934 -1.4454  0.9917
  421TMC3    C7 6288   1.936   0.033  14.087 -0.0297  0.1286 -0.1976
  421TMC3    C8 6289   1.748   0.462  14.197  0.1840 -0.1889 -0.1512
  421TMC3    O1 6290   2.044   0.074  14.130  0.0238 -0.6671  0.0456
  421TMC3    O2 6291   1.639   0.479  14.253  0.4611 -0.4688 -0.0204
  422TMC3    C1 6292   4.016   1.487  12.833  0.2449  0.2657 -0.3822
  422TMC3    C2 6293   3.994   1.575  12.939 -0.0835  0.0693  0.0002
  422TMC3    C3 6294   3.917   1.528  13.042  0.4159 -0.1566 -0.1182
  422TMC3    C4 6295   3.951   1.366  12.827 -0.0432 -0.4272 -0.4292
  422TMC3    C5 6296   3.874   1.328  12.935 -0.8881  0.1252 -0.2546
  422TMC3    C6 6297   3.853   1.406  13.042 -1.1533 -1.0232 -0.4800
  422TMC3     C 6298   4.120   1.524  12.740  0.9197  0.0055 -0.5048
  422TMC3     O 6299   4.133   1.646  12.718  0.5801  0.0134  0.0065
  422TMC3     H 6300   4.063   1.658  12.950  1.7059 -1.0510 -2.7762
  422TMC3    H1 6301   3.960   1.305  12.738 -0.7455 -0.3381 -0.5577
  422TMC3    H2 6302   3.797   1.377  13.130 -0.7592  0.2581  0.1883
  422TMC3    C7 6303   3.779   1.220  12.908  0.6222 -0.2832  0.0276
  422TMC3    C8 6304   3.909   1.624  13.150 -0.1620 -0.0471 -0.5766
  422TMC3    O1 6305   3.827   1.135  12.830  0.4477  0.1464  0.4127
  422TMC3    O2 6306   3.968   1.732  13.138 -0.0745 -0.3195 -0.1624
  423MPD2     C 6307   1.277   1.769   0.438 -0.4866  0.0798 -0.3065
  423MPD2    C1 6308   1.182   1.872   0.437 -0.5331  0.1429  0.5846
  423MPD2    C2 6309   1.067   1.850   0.362 -0.5099  0.1933 -0.4278
  423MPD2    C3 6310   1.058   1.741   0.273 -0.3611  0.6936 -0.0117
  423MPD2    C4 6311   1.157   1.651   0.269  0.7423  0.4714 -0.3064
  423MPD2    C5 6312   1.261   1.662   0.353 -0.3492  0.0756  0.3853
  423MPD2     H 6313   0.979   1.913   0.365 -0.5466  0.1472 -0.5316
  423MPD2    H1 6314   1.156   1.561   0.209  0.0724 -0.6574  1.3874
  423MPD2    H2 6315   1.364   1.764   0.503 -0.6677 -0.8431 -0.1393
  423MPD2    H3 6316   1.332   1.580   0.351  1.6330  1.7859  1.5269
  423MPD2     N 6317   0.937   1.734   0.201  0.0285 -0.3007 -0.2622
  423MPD2    H5 6318   0.879   1.817   0.205  1.7372  0.7961  1.8930
  423MPD2    N1 6319   1.180   1.982   0.523 -0.1548 -0.2944 -0.5726
  423MPD2    H7 6320   1.104   2.050   0.524 -1.2387 -1.5027 -0.2419
  424TMC3    C1 6321   1.249   2.127   0.690  0.2743 -0.2306 -0.2002
  424TMC3    C2 6322   1.277   2.129   0.826  0.0882 -0.5594 -0.4160
  424TMC3    C3 6323   1.213   2.230   0.895  0.1399 -0.6402 -0.0945
  424TMC3    C4 6324   1.167   2.215   0.629  0.0970  0.0026 -0.5177
  424TMC3    C5 6325   1.098   2.303   0.713  0.1140  0.2023  0.3408
  424TMC3    C6 6326   1.120   2.317   0.848 -0.2836  0.2165  0.2450
  424TMC3     C 6327   1.281   2.008   0.611  0.4378  0.1282 -0.2297
  424TMC3     O 6328   1.382   1.947   0.641  0.4485 -0.4168  0.5383
  424TMC3     H 6329   1.332   2.046   0.870  1.3969  0.6531  0.2590
  424TMC3    H1 6330   1.143   2.217   0.523 -0.0227  2.8751 -0.4351
  424TMC3    H2 6331   1.077   2.394   0.910  0.8943 -0.1269  1.4742
  424TMC3    C7 6332   0.985   2.376   0.662  0.4055  0.4532 -0.0148
  424TMC3    C8 6333   1.242   2.231   1.035  0.1445 -0.2921  0.7721
  424TMC3    O1 6334   0.980   2.377   0.539  0.0310  0.0611  0.0863
  424TMC3    O2 6335   1.158   2.274   1.115  0.2881 -0.2265 -0.7002
  425MPD2     C 6336   3.943   1.836   0.199 -0.1192 -0.3156 -0.6782
  425MPD2    C1 6337   3.949   1.787   0.069  0.1670 -0.2955  0.4918
  425MPD2    C2 6338   3.839   1.791  17.691  0.3109 -0.0032 -0.2363
  425MPD2    C3 6339   3.729   1.868   0.011  1.0745 -0.3689 -0.1705
  425MPD2    C4 6340   3.737   1.940   0.135  0.2977  0.8408  0.0042
  425MPD2    C5 6341   3.834   1.922   0.228 -0.3122 -0.3957 -0.0037
  425MPD2     H 6342   3.828   1.730  17.602  1.8263  0.8958 -1.0336
  425MPD2    H1 6343   3.657   2.006   0.167  1.3062  2.5109 -0.9531
  425MPD2    H2 6344   4.031   1.833   0.262 -0.9413 -1.7308  0.4009
  425MPD2    H3 6345   3.837   1.969   0.325  0.2753 -1.6094  0.5614
  425MPD2     N 6346   3.620   1.878  17.630 -0.0079 -0.3260  0.1340
  425MPD2    H5 6347   3.620   1.811  17.554 -1.4467 -0.7533  0.5144
  425MPD2    N1 6348   4.067   1.724   0.029  0.1809 -0.2002 -0.4613
  425MPD2    H7 6349   4.137   1.736   0.101  1.4523  0.5586 -1.8110
  426TMC3    C1 6350   4.235   1.592  17.613  0.1425  0.1130 -0.6674
  426TMC3    C2 6351   4.256   1.506  17.510 -0.1488  0.6577  0.1891
  426TMC3    C3 6352   4.373   1.443  17.514  0.0414 -0.4809  0.2553
  426TMC3    C4 6353   4.317   1.611   0.008  0.7019 -0.1749  0.5074
  426TMC3    C5 6354   4.435   1.548   0.009  0.6845 -0.4482  0.5243
  426TMC3    C6 6355   4.466   1.468  17.613  0.2647 -0.2508 -0.3591
  426TMC3     C 6356   4.097   1.652  17.620  0.9030  0.0536 -0.2558
  426TMC3     O 6357   4.028   1.633  17.518 -0.1086  0.9147 -0.3135
  426TMC3     H 6358   4.186   1.496  17.429  0.2477 -0.3848 -0.0183
  426TMC3    H1 6359   4.297   1.679   0.090  1.9991  0.0136  0.6652
  426TMC3    H2 6360   4.557   1.409  17.616 -0.2902 -1.2090 -2.1431
  426TMC3    C7 6361   4.511   1.514   0.131 -0.0432 -0.0816  0.2405
  426TMC3    C8 6362   4.385   1.335  17.416 -0.3529  0.0597 -0.0058
  426TMC3    O1 6363   4.619   1.455   0.113  0.4462 -0.0730  0.3253
  426TMC3    O2 6364   4.336   1.353  17.306 -0.7386  0.6541  0.3226
  427MPD2     C 6365   2.778   3.558  14.882 -0.1958 -0.6997  0.3461
  427MPD2    C1 6366   2.725   3.451  14.948 -0.4169 -0.4524  0.2565
  427MPD2    C2 6367   2.598   3.416  14.928 -0.4522 -0.0907  0.2830
  427MPD2    C3 6368   2.512   3.483  14.841  0.1529  0.1737  0.3144
  427MPD2    C4 6369   2.566   3.585  14.767 -0.0986 -0.0928 -0.0575
  427MPD2    C5 6370   2.696   3.613  14.781 -0.6176  0.6064 -0.0674
  427MPD2     H 6371   2.564   3.337  14.995  1.9745 -2.1129 -0.8766
  427MPD2    H1 6372   2.503   3.652  14.709 -0.3184  0.0020  0.2948
  427MPD2    H2 6373   2.882   3.590  14.881 -0.2995 -0.3516  1.2568
  427MPD2    H3 6374   2.733   3.684  14.708  0.4700  0.3175  0.2101
  427MPD2     N 6375   2.375   3.471  14.850 -0.6918  0.6326  0.1767
  427MPD2    H5 6376   2.323   3.542  14.798 -2.2584 -0.3427  0.4084
  427MPD2    N1 6377   2.811   3.384  15.042  0.2397 -0.5014  0.2254
  427MPD2    H7 6378   2.766   3.324  15.110  0.1726 -1.2090 -0.4461
  428TMC3    C1 6379   3.013   3.324  15.157  0.6099  0.3130 -0.0626
  428TMC3    C2 6380   2.942   3.229  15.216  0.3305  0.9555 -1.0020
  428TMC3    C3 6381   3.008   3.133  15.287 -0.0944 -0.4070 -0.0249
  428TMC3    C4 6382   3.151   3.335  15.169  0.4630 -0.7980  0.1248
  428TMC3    C5 6383   3.211   3.232  15.238 -0.2636  0.2570 -1.0061
  428TMC3    C6 6384   3.147   3.131  15.294  0.2969 -0.1624  0.1534
  428TMC3     C 6385   2.947   3.403  15.052  0.4759 -0.8471 -0.5137
  428TMC3     O 6386   3.025   3.464  14.978 -0.0489 -0.3071  0.0129
  428TMC3     H 6387   2.840   3.253  15.244 -0.2856 -1.0371 -1.5426
  428TMC3    H1 6388   3.207   3.424  15.140 -3.3815  0.6338 -2.9611
  428TMC3    H2 6389   3.192   3.057  15.360 -0.1613 -0.4301  0.1667
  428TMC3    C7 6390   3.335   3.258  15.321 -0.2493  0.0546  0.3870
  428TMC3    C8 6391   2.932   3.030  15.363 -0.7356 -0.2185  0.3486
  428TMC3    O1 6392   3.350   3.191  15.423  0.7232 -0.2520  0.5547
  428TMC3    O2 6393   2.995   2.927  15.393  0.1831  0.1163  0.0286
  429MPD2     C 6394   3.507   3.273   0.143 -0.3230  0.4695 -0.6472
  429MPD2    C1 6395   3.627   3.306   0.199  0.5891 -0.2001 -0.2559
  429MPD2    C2 6396   3.676   3.436   0.180  0.0490 -0.0180  0.0292
  429MPD2    C3 6397   3.597   3.538   0.120  0.5991  0.1461  0.1357
  429MPD2    C4 6398   3.469   3.499   0.082 -0.2300 -0.3608 -0.7863
  429MPD2    C5 6399   3.431   3.371   0.097 -0.5243 -0.4382 -1.0292
  429MPD2     H 6400   3.774   3.459   0.219  0.0766 -0.4492  0.2135
  429MPD2    H1 6401   3.395   3.572   0.050  0.1410  0.6291  0.6118
  429MPD2    H2 6402   3.465   3.174   0.156  1.0785 -0.3272 -2.1557
  429MPD2    H3 6403   3.331   3.347   0.063 -0.5550  1.5557 -2.3205
  429MPD2     N 6404   3.653   3.666   0.107  0.7032 -0.0882 -0.4518
  429MPD2    H5 6405   3.742   3.686   0.151 -0.1455  0.7644  0.8670
  429MPD2    N1 6406   3.708   3.211   0.270  0.3444  0.3308  0.2286
  429MPD2    H7 6407   3.782   3.246   0.330  0.7440 -0.2057  0.0472
  430TMC3    C1 6408   3.695   3.863  17.697  0.2629 -0.1166 -0.6988
  430TMC3    C2 6409   3.642   3.980  17.638 -0.0926  0.2850  0.2462
  430TMC3    C3 6410   3.730   4.044  17.555  0.8367 -0.7107  0.6842
  430TMC3    C4 6411   3.822   3.833  17.691 -0.1661 -0.2745 -0.6603
  430TMC3    C5 6412   3.904   3.909  17.613  0.0050  0.1893 -0.3197
  430TMC3    C6 6413   3.859   4.015  17.540 -0.5768  0.4047  0.6074
  430TMC3     C 6414   3.602   3.759   0.020  0.0275  0.2618 -0.4886
  430TMC3     O 6415   3.491   3.769  17.682  0.2224 -0.1647 -0.1843
  430TMC3     H 6416   3.534   3.994  17.637 -0.4571 -2.2866  2.6462
  430TMC3    H1 6417   3.861   3.742   0.027  2.5676  1.9142  1.3875
  430TMC3    H2 6418   3.926   4.051  17.463  0.1809 -0.9367  0.6265
  430TMC3    C7 6419   4.020   3.834  17.563  0.4401  0.2254 -0.0042
  430TMC3    C8 6420   3.665   4.083  17.433 -0.0839 -0.2420  0.3346
  430TMC3    O1 6421   4.023   3.710  17.579  0.4388  0.3305 -1.0653
  430TMC3    O2 6422   3.598   3.996  17.376 -0.1426  0.3038  0.1023
  431MPD2     C 6423   4.412   3.691  13.467  0.3902  0.4511 -1.3887
  431MPD2    C1 6424   4.466   3.711  13.343  0.0774  0.0116  0.7172
  431MPD2    C2 6425   4.426   3.622  13.242  0.3164  0.8900  0.0994
  431MPD2    C3 6426   4.342   3.510  13.276  0.0791  0.2861  0.3810
  431MPD2    C4 6427   4.298   3.490  13.402 -0.5426 -0.3658  0.5820
  431MPD2    C5 6428   4.329   3.583  13.498  0.6448 -0.1648 -0.6685
  431MPD2     H 6429   4.459   3.640  13.140  0.2949  2.0388  0.2917
  431MPD2    H1 6430   4.232   3.407  13.424  0.7439 -1.7674 -0.8582
  431MPD2    H2 6431   4.433   3.757  13.551  1.6886  0.3287 -1.6103
  431MPD2    H3 6432   4.297   3.568  13.600 -2.1841 -3.5163 -2.0483
  431MPD2     N 6433   4.299   3.415  13.179 -0.4209  0.2537  0.0555
  431MPD2    H5 6434   4.248   3.332  13.205  1.4298 -0.9586 -0.1897
  431MPD2    N1 6435   4.551   3.820  13.307  0.4438 -0.6640  0.3408
  431MPD2    H7 6436   4.566   3.830  13.207 -0.6544 -2.6259 -0.0081
  432TMC3    C1 6437   4.301   3.302  12.972 -0.0648 -0.0519 -0.5603
  432TMC3    C2 6438   4.312   3.319  12.836  0.1584 -0.4058  0.6236
  432TMC3    C3 6439   4.388   3.225  12.771 -0.0431 -0.3159  0.2331
  432TMC3    C4 6440   4.354   3.187  13.032 -0.0917  0.6108 -0.1354
  432TMC3    C5 6441   4.429   3.103  12.959  0.9558 -0.0593 -0.4165
  432TMC3    C6 6442   4.447   3.113  12.830  0.5674  0.3105 -0.4455
  432TMC3     C 6443   4.315   3.431  13.046 -0.2401  0.4952 -0.1469
  432TMC3     O 6444   4.331   3.531  12.978 -0.0317  0.3366 -0.3059
  432TMC3     H 6445   4.274   3.407  12.786  2.2679 -0.1427 -0.5015
  432TMC3    H1 6446   4.370   3.184  13.139  2.3282 -2.7554 -0.6061
  432TMC3    H2 6447   4.497   3.035  12.775  0.7931  1.2423 -1.5514
  432TMC3    C7 6448   4.501   3.000  13.031 -0.4213 -0.3180 -0.2949
  432TMC3    C8 6449   4.376   3.239  12.634  0.7059 -0.5859  1.0480
  432TMC3    O1 6450   4.616   2.981  12.992 -0.2605  0.0060  0.3362
  432TMC3    O2 6451   4.270   3.281  12.581  0.2424  0.2090  0.0172
  433MPD2     C 6452   3.901   2.763  11.186 -0.1666  0.0665 -0.2091
  433MPD2    C1 6453   3.858   2.640  11.232 -1.1796  0.1954  0.5185
  433MPD2    C2 6454   3.836   2.623  11.367 -0.2362  0.0385 -1.2719
  433MPD2    C3 6455   3.847   2.724  11.465  0.8593 -0.1515  1.2501
  433MPD2    C4 6456   3.880   2.848  11.414 -0.0009 -0.3842 -0.0034
  433MPD2    C5 6457   3.903   2.863  11.278  0.5495 -0.1194  0.5410
  433MPD2     H 6458   3.809   2.529  11.414  0.4361 -0.2345 -1.4315
  433MPD2    H1 6459   3.895   2.938  11.472 -1.7156 -0.8784  1.2351
  433MPD2    H2 6460   3.917   2.783  11.080  2.7441 -5.6399 -0.7971
  433MPD2    H3 6461   3.930   2.962  11.243 -2.1096  0.2549 -0.4786
  433MPD2     N 6462   3.817   2.694  11.599 -0.0247 -0.1433  0.4259
  433MPD2    H5 6463   3.800   2.595  11.616 -1.8878  0.0670 -0.2039
  433MPD2    N1 6464   3.834   2.542  11.133 -0.1713 -0.1006  0.6646
  433MPD2    H7 6465   3.885   2.557  11.047 -1.0000  1.1237  0.3878
  434TMC3    C1 6466   3.799   2.312  11.065 -0.2811  0.5546  0.2622
  434TMC3    C2 6467   3.790   2.187  11.111  0.0674 -0.1332 -0.0646
  434TMC3    C3 6468   3.845   2.081  11.041 -0.5594 -0.1811  0.9132
  434TMC3    C4 6469   3.841   2.344  10.935 -0.0403  0.3528  0.2009
  434TMC3    C5 6470   3.871   2.226  10.861  0.3657  0.1940 -0.3757
  434TMC3    C6 6471   3.888   2.099  10.909 -0.6814  0.3680  0.8637
  434TMC3     C 6472   3.772   2.419  11.161 -0.4288 -0.1071  0.3043
  434TMC3     O 6473   3.728   2.379  11.268 -0.3649 -0.3659 -0.7507
  434TMC3     H 6474   3.767   2.174  11.216  0.8455  2.0478  0.3716
  434TMC3    H1 6475   3.848   2.443  10.891  4.2848 -0.2312 -0.4326
  434TMC3    H2 6476   3.930   2.022  10.847 -1.2554  0.7298  0.0272
  434TMC3    C7 6477   3.836   2.223  10.723 -0.0569 -0.6889 -0.6719
  434TMC3    C8 6478   3.907   1.977  11.125 -0.6591 -0.1451  0.2828
  434TMC3    O1 6479   3.857   2.315  10.644  0.0029 -0.5720  0.0383
  434TMC3    O2 6480   3.914   2.002  11.244 -0.1404  0.8359 -0.3808
  435MPD2     C 6481   0.874   2.323  15.600 -0.6086 -1.0701 -0.1100
  435MPD2    C1 6482   0.854   2.296  15.740 -0.1643  0.4784  0.5539
  435MPD2    C2 6483   0.950   2.216  15.806  0.5819 -0.3497  0.0980
  435MPD2    C3 6484   1.056   2.163  15.738  0.4418 -0.4340  0.4412
  435MPD2    C4 6485   1.086   2.203  15.611 -0.5240  0.1941 -0.8632
  435MPD2    C5 6486   0.990   2.276  15.543 -0.0318  0.0300  0.3293
  435MPD2     H 6487   0.941   2.192  15.911  0.1812  1.3449  0.4462
  435MPD2    H1 6488   1.172   2.169  15.556  1.7072  1.4328  1.8800
  435MPD2    H2 6489   0.803   2.373  15.536 -1.0172  0.0743  1.2405
  435MPD2    H3 6490   1.006   2.298  15.438  0.8484 -2.0203  0.0355
  435MPD2     N 6491   1.137   2.072  15.808  0.1551  0.1333  0.1582
  435MPD2    H5 6492   1.126   2.052  15.907  0.0653 -1.0768 -0.0885
  435MPD2    N1 6493   0.739   2.337  15.815  0.0704 -0.1903  0.2262
  435MPD2    H7 6494   0.732   2.314  15.913 -0.5911  2.0456  0.6987
  436TMC3    C1 6495   0.463   2.396  16.094  0.1858  0.1769  0.0859
  436TMC3    C2 6496   0.560   2.431  15.999  0.0458  0.2883 -0.7460
  436TMC3    C3 6497   0.530   2.407  15.870 -0.4304 -0.1913 -0.4893
  436TMC3    C4 6498   0.341   2.346  16.061 -0.2918 -0.9154 -0.1105
  436TMC3    C5 6499   0.315   2.345  15.925  0.1776  0.1342 -0.5991
  436TMC3    C6 6500   0.410   2.374  15.830 -1.0326 -0.0422 -0.2360
  436TMC3     C 6501   0.499   2.442  16.233  0.0683  0.7346  0.3800
  436TMC3     O 6502   0.613   2.478  16.255 -0.4581  0.2963  0.0519
  436TMC3     H 6503   0.652   2.465  16.045 -0.6994 -1.5720  2.1533
  436TMC3    H1 6504   0.268   2.326  16.139 -0.4684  0.2927  0.0325
  436TMC3    H2 6505   0.394   2.345  15.727  0.1310  1.1356 -0.7434
  436TMC3    C7 6506   0.180   2.360  15.892 -0.1949  0.5528  0.1127
  436TMC3    C8 6507   0.637   2.413  15.770  0.7681 -0.1687 -0.1667
  436TMC3    O1 6508   0.097   2.326  15.973  0.3119 -0.0125  0.6506
  436TMC3    O2 6509   0.595   2.443  15.659 -0.4541 -0.4425  0.1172
  437TMC3    C1 6510   4.293   4.364  12.912  0.8949 -0.3460  0.4536
  437TMC3    C2 6511   4.180   4.450  12.905  0.1844 -0.2781  0.0157
  437TMC3    C3 6512   4.198   4.557  12.812 -0.0425  0.6854 -0.6510
  437TMC3    C4 6513   4.411   4.380  12.847  0.1949 -0.4545  0.1095
  437TMC3    C5 6514   4.424   4.494  12.777 -0.0227 -0.5350 -0.0723
  437TMC3    C6 6515   4.317   4.578  12.750 -0.3112  0.3077  0.0649
  437TMC3     C 6516   4.301   4.293  13.039  0.3065 -0.2018 -0.2819
  437TMC3     O 6517   4.409   4.241  13.049 -0.1926 -0.2968 -0.6073
  437TMC3     H 6518   4.080   4.426  12.938  0.1001  0.6223  0.4068
  437TMC3    H1 6519   4.495   4.315  12.867 -0.8053 -1.7431  0.1289
  437TMC3    H2 6520   4.330   4.652  12.672  1.5588 -0.2993 -0.2206
  437TMC3    C7 6521   4.539   4.497  12.687  0.2818 -0.8123 -0.9147
  437TMC3    C8 6522   4.098   4.654  12.776 -0.3606  0.2462 -0.4475
  437TMC3    O1 6523   4.518   4.553  12.581  0.3639  0.2163 -0.1790
  437TMC3    O2 6524   4.103   4.717  12.671 -0.7651  0.4009 -0.5183
  438MPD2     C 6525   1.972   0.388  16.833  0.4786  0.8781 -0.1836
  438MPD2    C1 6526   1.933   0.257  16.820 -0.0644 -0.5525 -0.1713
  438MPD2    C2 6527   1.831   0.217  16.901 -0.1664  0.1785  0.9380
  438MPD2    C3 6528   1.778   0.289  16.999 -0.4342  0.8006  0.0894
  438MPD2    C4 6529   1.824   0.415  17.008 -0.0950 -0.4070  0.5357
  438MPD2    C5 6530   1.927   0.464  16.928 -0.4590 -0.4018  0.3558
  438MPD2     H 6531   1.806   0.113  16.885  0.8629  0.6411 -3.4854
  438MPD2    H1 6532   1.793   0.476  17.093  2.8808 -0.2218  1.4812
  438MPD2    H2 6533   2.046   0.427  16.764  0.4196 -0.3737 -0.9667
  438MPD2    H3 6534   1.962   0.566  16.935 -0.9743 -0.2799  1.1465
  438MPD2     N 6535   1.686   0.240  17.090  0.4791 -0.1161 -0.2466
  438MPD2    H5 6536   1.677   0.139  17.093  1.7904 -0.2523 -0.9906
  438MPD2    N1 6537   1.998   0.160  16.735  0.0782 -0.2550  0.3635
  438MPD2    H7 6538   1.984   0.064  16.766  2.3473 -0.4484  0.7860
  439TMC3    C1 6539   2.145   0.076  16.570  0.0835  0.2145  0.2020
  439TMC3    C2 6540   2.075   4.683  16.555 -0.1291  0.3638 -0.3249
  439TMC3    C3 6541   2.122   4.586  16.465 -0.1136 -0.6162  0.0571
  439TMC3    C4 6542   2.266   0.101  16.514  0.1588 -0.0206 -0.2189
  439TMC3    C5 6543   2.307   0.008  16.419  0.2290  0.0444 -0.3415
  439TMC3    C6 6544   2.233   4.624  16.389 -0.3124  0.0801  0.3231
  439TMC3     C 6545   2.083   0.191  16.634  0.4422 -0.0345  0.3037
  439TMC3     O 6546   2.111   0.299  16.591 -0.1632  0.2420  0.7222
  439TMC3     H 6547   1.983   4.664  16.608  0.8632  0.3909  1.4136
  439TMC3    H1 6548   2.317   0.193  16.538 -0.6253  0.3774 -0.0703
  439TMC3    H2 6549   2.264   4.554  16.312  1.8729 -0.2774  1.5352
  439TMC3    C7 6550   2.447   0.012  16.376  0.3800  0.2696  0.1523
  439TMC3    C8 6551   2.156   4.461  16.530  0.8041  0.1474  0.6651
  439TMC3    O1 6552   2.470   4.690  16.264  0.1490 -0.1427  0.6878
  439TMC3    O2 6553   2.199   4.365  16.466  0.1824 -0.3623  0.0420
  440MPD2     C 6554   0.940   0.854  14.664 -0.8953 -0.8311 -0.4340
  440MPD2    C1 6555   0.904   0.830  14.793 -0.3707  0.0684 -0.0086
  440MPD2    C2 6556   0.969   0.724  14.856 -0.0704  0.5220  0.3251
  440MPD2    C3 6557   1.056   0.643  14.787  0.5699  0.0944 -0.7743
  440MPD2    C4 6558   1.086   0.673  14.650  0.3825 -0.3190  0.3421
  440MPD2    C5 6559   1.026   0.775  14.592  0.2264  0.2936 -0.3616
  440MPD2     H 6560   0.945   0.704  14.959 -0.7145 -1.5827 -0.2267
  440MPD2    H1 6561   1.156   0.614  14.593  0.9049 -0.3087  0.9769
  440MPD2    H2 6562   0.893   0.935  14.608 -0.9357 -0.2884  0.3846
  440MPD2    H3 6563   1.026   0.783  14.484  0.1390 -0.3693 -0.4133
  440MPD2     N 6564   1.131   0.543  14.852  0.0134 -0.4184 -0.2114
  440MPD2    H5 6565   1.209   0.510  14.796  0.7631  3.5189 -1.5134
  440MPD2    N1 6566   0.799   0.900  14.859  0.8141 -0.7178 -0.9750
  440MPD2    H7 6567   0.760   0.870  14.948  0.5220 -1.0766 -1.2216
  441TMC3    C1 6568   1.200   0.432  15.043  0.3468 -0.0458  0.2738
  441TMC3    C2 6569   1.327   0.488  15.034 -0.4670  0.2676  0.1052
  441TMC3    C3 6570   1.416   0.471  15.136 -0.4562 -0.4184 -0.0990
  441TMC3    C4 6571   1.166   0.375  15.168  0.3413  0.3289 -0.4890
  441TMC3    C5 6572   1.255   0.364  15.261 -0.3496 -0.7501 -0.1566
  441TMC3    C6 6573   1.384   0.409  15.253 -0.6424 -0.3134 -0.0769
  441TMC3     C 6574   1.095   0.495  14.977 -1.0364  0.0098  0.9047
  441TMC3     O 6575   0.986   0.490  15.031  0.0819  0.6956  0.5512
  441TMC3     H 6576   1.358   0.550  14.951  1.7479  0.2340  0.8892
  441TMC3    H1 6577   1.073   0.321  15.182  0.6394  0.3414  1.4761
  441TMC3    H2 6578   1.460   0.416  15.329  0.0058  2.5319 -0.9927
  441TMC3    C7 6579   1.206   0.319  15.383  0.3521 -0.6565  0.1348
  441TMC3    C8 6580   1.499   0.586  15.159 -0.3561  0.7653  0.4430
  441TMC3    O1 6581   1.096   0.363  15.402 -0.5925  0.0101 -0.2508
  441TMC3    O2 6582   1.613   0.577  15.202  0.7478  0.0227  0.2677
  442MPD2     C 6583   4.074   1.258  16.748  0.1623 -0.7293  0.2139
  442MPD2    C1 6584   3.959   1.252  16.670 -0.3902 -0.5623 -0.2558
  442MPD2    C2 6585   3.970   1.208  16.538  0.1984  0.4012 -0.3933
  442MPD2    C3 6586   4.092   1.179  16.481 -0.7410 -0.5022 -0.3216
  442MPD2    C4 6587   4.201   1.181  16.568 -0.3382  0.2802 -0.3749
  442MPD2    C5 6588   4.196   1.221  16.699 -0.0287  0.2217  0.3075
  442MPD2     H 6589   3.884   1.208  16.473  1.1014 -2.7741 -1.5948
  442MPD2    H1 6590   4.302   1.155  16.537 -0.5970 -1.1507  0.0009
  442MPD2    H2 6591   4.078   1.283  16.854 -0.9371 -1.6371  0.4659
  442MPD2    H3 6592   4.278   1.232  16.768 -0.4515  0.8742  0.7054
  442MPD2     N 6593   4.112   1.151  16.344 -0.1444 -0.0655 -0.5820
  442MPD2    H5 6594   4.206   1.120  16.320  0.2758 -0.5476  1.7311
  442MPD2    N1 6595   3.831   1.273  16.720  0.4981  0.2842  0.4832
  442MPD2    H7 6596   3.758   1.261  16.650 -0.5475 -0.6875  1.7213
  443TMC3    C1 6597   3.644   1.320  16.856  0.1065 -0.0648  0.4916
  443TMC3    C2 6598   3.582   1.448  16.859 -0.1370  1.0653  0.4855
  443TMC3    C3 6599   3.452   1.464  16.826  0.0839  0.2293  0.0994
  443TMC3    C4 6600   3.575   1.211  16.815  0.9350 -0.1931  0.8125
  443TMC3    C5 6601   3.439   1.223  16.797  0.1872 -0.5653 -0.4598
  443TMC3    C6 6602   3.380   1.346  16.798  0.2054  0.9039  0.1629
  443TMC3     C 6603   3.788   1.323  16.842  1.0575  0.0200  0.0612
  443TMC3     O 6604   3.866   1.385  16.909  0.1682  0.6086  0.1594
  443TMC3     H 6605   3.637   1.538  16.884  0.8951  1.2475 -2.4458
  443TMC3    H1 6606   3.629   1.118  16.823 -1.9908 -2.1989 -2.5465
  443TMC3    H2 6607   3.273   1.358  16.787  0.4157  0.2211 -2.4645
  443TMC3    C7 6608   3.361   1.110  16.766 -0.4259 -0.2194 -0.4913
  443TMC3    C8 6609   3.439   1.566  16.717  0.6718  0.0676 -0.6030
  443TMC3    O1 6610   3.240   1.121  16.759  0.5428 -0.0365  0.2455
  443TMC3    O2 6611   3.515   1.662  16.723 -0.3318 -0.0910  0.3529
  444MPD2     C 6612   3.934   0.893  17.166  0.9454  0.4156 -0.4878
  444MPD2    C1 6613   3.847   0.794  17.122 -0.1235  0.7677  0.5834
  444MPD2    C2 6614   3.901   0.665  17.112 -0.5268 -0.3723 -0.4015
  444MPD2    C3 6615   4.029   0.639  17.143  0.8442  0.4534  0.2415
  444MPD2    C4 6616   4.109   0.732  17.192  0.5358  0.2622 -0.5958
  444MPD2    C5 6617   4.067   0.863  17.194 -0.1864  0.5233 -0.5759
  444MPD2     H 6618   3.836   0.589  17.068 -0.9193 -0.2292 -0.0684
  444MPD2    H1 6619   4.210   0.708  17.223  0.5455  1.3029  0.1689
  444MPD2    H2 6620   3.893   0.992  17.184  0.5367  0.2033 -0.2443
  444MPD2    H3 6621   4.128   0.947  17.223 -2.3361  1.4995  1.1293
  444MPD2     N 6622   4.066   0.509  17.120 -0.1907  0.6208  0.0317
  444MPD2    H5 6623   3.993   0.454  17.075 -2.8846  2.3452  2.3127
  444MPD2    N1 6624   3.711   0.815  17.099 -0.6137 -0.0134 -0.4406
  444MPD2    H7 6625   3.660   0.728  17.089 -0.6922 -0.2723  2.2817
  445TMC3    C1 6626   4.183   0.297  17.124  0.2575 -0.1355 -0.6002
  445TMC3    C2 6627   4.124   0.227  17.233  0.2219  0.4104 -0.0769
  445TMC3    C3 6628   4.173   0.101  17.257 -0.2255 -0.1783 -0.2394
  445TMC3    C4 6629   4.292   0.246  17.057 -0.2886 -1.0674 -0.1544
  445TMC3    C5 6630   4.329   0.116  17.087  0.5478  1.0988  0.2530
  445TMC3    C6 6631   4.264   0.041  17.177 -0.3697  0.3637  0.4938
  445TMC3     C 6632   4.189   0.445  17.151  0.0106  0.2295 -0.4211
  445TMC3     O 6633   4.297   0.494  17.155  0.5360 -0.5038  0.1758
  445TMC3     H 6634   4.046   0.282  17.285 -0.4631 -0.6196 -0.0158
  445TMC3    H1 6635   4.350   0.311  16.993 -1.5497 -1.1173 -1.3476
  445TMC3    H2 6636   4.303   4.668  17.194 -0.3962  0.3798  0.6565
  445TMC3    C7 6637   4.441   0.066  17.011 -0.4217 -0.1681 -0.0968
  445TMC3    C8 6638   4.108   0.016  17.355  0.1217 -0.0265 -0.4488
  445TMC3    O1 6639   4.462   0.111  16.899 -0.4469 -0.9918 -0.4558
  445TMC3    O2 6640   4.006   0.050  17.408 -0.3108  0.2705 -0.2561
  446MPD2     C 6641   3.595   1.942  11.717  0.1798  1.0443  0.3414
  446MPD2    C1 6642   3.608   1.915  11.580 -0.3544 -0.0239 -0.3913
  446MPD2    C2 6643   3.726   1.958  11.520 -0.2198 -1.0532  0.0373
  446MPD2    C3 6644   3.827   2.023  11.587 -0.4436 -0.2292  0.5600
  446MPD2    C4 6645   3.811   2.043  11.724 -0.0136  0.2222  0.6271
  446MPD2    C5 6646   3.697   2.004  11.787  0.1202  0.3482  0.0272
  446MPD2     H 6647   3.748   1.934  11.417 -0.1647 -0.6891 -0.0351
  446MPD2    H1 6648   3.883   2.094  11.787 -0.9572  0.0892  1.8263
  446MPD2    H2 6649   3.507   1.913  11.773  0.9974 -0.4402  0.8552
  446MPD2    H3 6650   3.677   2.037  11.889 -1.0785 -1.9472  0.5347
  446MPD2     N 6651   3.948   2.056  11.514 -0.3518  0.3076 -0.3657
  446MPD2    H5 6652   3.948   2.054  11.413 -0.7620  1.9018 -0.4018
  446MPD2    N1 6653   3.518   1.847  11.503  0.4877  0.1729  0.2846
  446MPD2    H7 6654   3.532   1.849  11.403 -2.2020 -0.6742 -0.1057
  447TMC3    C1 6655   4.173   2.125  11.468 -0.4820 -0.3288 -0.0203
  447TMC3    C2 6656   4.143   2.162  11.343  0.7338 -0.2879  0.1507
  447TMC3    C3 6657   4.235   2.171  11.248 -0.7746 -0.1264  0.1472
  447TMC3    C4 6658   4.301   2.100  11.501 -0.3980  0.0670 -0.5487
  447TMC3    C5 6659   4.401   2.104  11.406  0.9580 -0.0577  0.1122
  447TMC3    C6 6660   4.363   2.143  11.283  0.4793  0.1460  0.3362
  447TMC3     C 6661   4.071   2.096  11.567  0.0788 -0.0406 -0.1659
  447TMC3     O 6662   4.097   2.102  11.684 -0.6940  0.0199  0.7269
  447TMC3     H 6663   4.038   2.176  11.319  0.5089 -1.0108  0.6905
  447TMC3    H1 6664   4.325   2.071  11.603 -2.6867 -0.4779 -0.1819
  447TMC3    H2 6665   4.432   2.143  11.199  0.5988 -0.8348  0.4367
  447TMC3    C7 6666   4.533   2.049  11.424  0.6875 -0.1612  0.2616
  447TMC3    C8 6667   4.202   2.152  11.108 -0.6244  0.5556 -0.4567
  447TMC3    O1 6668   4.613   2.073  11.334  0.4952 -0.3350 -0.6423
  447TMC3    O2 6669   4.117   2.228  11.060  0.2377 -0.1703  0.0828
  448TMC3    C1 6670   1.622   1.724  16.254  0.2138  0.4369 -0.6807
  448TMC3    C2 6671   1.644   1.592  16.237  0.5565 -0.1754  1.0008
  448TMC3    C3 6672   1.604   1.515  16.345 -0.4629  0.3432  0.5336
  448TMC3    C4 6673   1.568   1.783  16.364 -0.2075 -1.0666 -0.0410
  448TMC3    C5 6674   1.544   1.699  16.473 -0.3564  0.0156  0.1445
  448TMC3    C6 6675   1.540   1.564  16.457  1.0230 -0.1925  0.2756
  448TMC3     C 6676   1.664   1.810  16.143 -0.1029 -0.2482 -0.2547
  448TMC3     O 6677   1.609   1.920  16.144  0.2701 -0.2777 -0.2724
  448TMC3     H 6678   1.695   1.554  16.149  1.4175 -0.4748  1.6226
  448TMC3    H1 6679   1.555   1.890  16.373  0.2608 -0.9499 -0.8088
  448TMC3    H2 6680   1.511   1.504  16.543  4.1459 -2.4001 -0.1702
  448TMC3    C7 6681   1.489   1.760  16.593 -0.4784  0.7134  0.0922
  448TMC3    C8 6682   1.637   1.375  16.352  0.0936  0.3633  0.4897
  448TMC3    O1 6683   1.462   1.880  16.586 -0.0240 -0.0291  0.1046
  448TMC3    O2 6684   1.668   1.323  16.457 -1.0302 -0.3005 -0.2371
  449MPD2     C 6685   3.358   0.034  13.564  0.9060 -0.2390  0.1374
  449MPD2    C1 6686   3.346   0.128  13.461  0.1294  1.0732 -0.4457
  449MPD2    C2 6687   3.237   0.126  13.374 -0.1215 -0.4320  0.9571
  449MPD2    C3 6688   3.147   0.023  13.376 -0.3676 -0.3057 -0.1075
  449MPD2    C4 6689   3.154   4.654  13.479  0.3721 -0.2535 -0.0773
  449MPD2    C5 6690   3.255   4.671  13.574  0.8005 -0.4893  0.1081
  449MPD2     H 6691   3.233   0.203  13.298  0.1921 -1.5522 -0.1964
  449MPD2    H1 6692   3.083   4.573  13.491 -2.7486  2.4947  0.0793
  449MPD2    H2 6693   3.438   0.040  13.637  2.1308 -0.2306 -1.2056
  449MPD2    H3 6694   3.256   4.606  13.661  0.2707  0.4109  0.7744
  449MPD2     N 6695   3.048   0.022  13.278  0.4735 -0.3717  0.1401
  449MPD2    H5 6696   3.047   0.101  13.215 -0.1444 -0.0194  0.5948
  449MPD2    N1 6697   3.438   0.234  13.453  0.9269  0.1442 -0.1556
  449MPD2    H7 6698   3.407   0.307  13.390  0.7180  0.0825 -0.1259
  450TMC3    C1 6699   3.637   0.353  13.431  0.4076  0.4127  0.2330
  450TMC3    C2 6700   3.742   0.312  13.352 -0.2049 -0.4252 -0.0860
  450TMC3    C3 6701   3.744   0.366  13.227  0.7143 -0.0701 -0.6172
  450TMC3    C4 6702   3.548   0.446  13.392 -0.0075  0.1231  0.5052
  450TMC3    C5 6703   3.547   0.496  13.261  0.6092 -0.3815 -0.4914
  450TMC3    C6 6704   3.646   0.450  13.176  0.4056 -0.4910  0.0246
  450TMC3     C 6705   3.567   0.234  13.492 -0.4814  0.1112  0.7116
  450TMC3     O 6706   3.633   0.141  13.543 -0.5519 -0.0288  0.1953
  450TMC3     H 6707   3.827   0.260  13.396 -0.9414 -1.2151  0.4013
  450TMC3    H1 6708   3.465   0.475  13.455 -0.5621 -1.2176  0.3939
  450TMC3    H2 6709   3.651   0.482  13.073  1.0188 -3.4361 -0.8312
  450TMC3    C7 6710   3.414   0.489  13.210  0.4398 -0.2533 -0.3556
  450TMC3    C8 6711   3.876   0.371  13.156  0.0064 -0.3277 -0.2018
  450TMC3    O1 6712   3.334   0.430  13.285 -0.6662 -0.4910  0.2086
  450TMC3    O2 6713   3.897   0.470  13.086 -0.3652 -0.6844 -0.0082
  451MPD2     C 6714   3.781   3.053   1.833 -0.4037  0.0585 -0.0404
  451MPD2    C1 6715   3.853   3.129   1.741  0.6067 -0.0634  0.1476
  451MPD2    C2 6716   3.990   3.119   1.741 -0.0057 -0.1004  0.0052
  451MPD2    C3 6717   4.056   3.031   1.830  0.3459  0.4215 -0.5188
  451MPD2    C4 6718   3.976   2.964   1.925 -0.1965 -0.1371  0.5448
  451MPD2    C5 6719   3.839   2.970   1.927  0.1156  0.2242  0.3995
  451MPD2     H 6720   4.048   3.177   1.669 -1.1901 -0.1977 -1.0280
  451MPD2    H1 6721   4.022   2.898   1.998  2.1388  0.8631 -0.0013
  451MPD2    H2 6722   3.673   3.051   1.835 -0.4191 -0.4120 -1.4420
  451MPD2    H3 6723   3.776   2.920   1.999 -0.5308  1.0692  0.4236
  451MPD2     N 6724   4.198   3.004   1.830 -0.2901  0.1316 -0.0210
  451MPD2    H5 6725   4.220   2.918   1.880 -2.0816 -1.8988 -2.6784
  451MPD2    N1 6726   3.781   3.209   1.655 -0.3379  0.0558 -0.2266
  451MPD2    H7 6727   3.680   3.205   1.665 -0.2591  0.0389  0.5944
  452TMC3    C1 6728   4.423   3.033   1.768 -0.1015  0.3182  1.1270
  452TMC3    C2 6729   4.455   2.936   1.853 -0.0359 -0.1665 -0.2793
  452TMC3    C3 6730   4.586   2.904   1.851  0.3879  0.1248 -0.0520
  452TMC3    C4 6731   4.513   3.101   1.687  0.1975 -0.2525  0.3214
  452TMC3    C5 6732   4.641   3.067   1.700 -0.3726 -0.3643  0.1320
  452TMC3    C6 6733   4.683   2.961   1.770  0.0262  1.1808  0.1856
  452TMC3     C 6734   4.291   3.086   1.767 -0.7821 -0.0700  0.6517
  452TMC3     O 6735   4.270   3.186   1.698 -0.1237 -0.1195  0.0149
  452TMC3     H 6736   4.386   2.905   1.930  0.0151  0.6604  0.1045
  452TMC3    H1 6737   4.490   3.183   1.621  1.7914 -0.2500 -0.2251
  452TMC3    H2 6738   0.060   2.934   1.768 -0.9309 -2.5015 -0.3712
  452TMC3    C7 6739   0.002   3.155   1.628 -0.1440 -0.2861  0.5099
  452TMC3    C8 6740   4.646   2.799   1.936 -0.2121  0.2679  0.1208
  452TMC3    O1 6741   4.696   3.273   1.621 -0.2329  0.6288  0.5013
  452TMC3    O2 6742   0.043   2.812   1.952 -0.1641 -0.3092  0.3800
  453TMC3    C1 6743   1.013   0.233  11.707  0.3855 -0.0562  0.0791
  453TMC3    C2 6744   0.979   0.103  11.735  0.1753 -0.3313  0.0090
  453TMC3    C3 6745   0.959   0.020  11.629  0.2149 -0.0395 -0.7484
  453TMC3    C4 6746   1.021   0.271  11.576  0.0550 -0.5086 -0.7204
  453TMC3    C5 6747   0.994   0.188  11.476 -1.1537 -0.3083 -0.1211
  453TMC3    C6 6748   0.964   0.058  11.493  0.4255  0.2053 -0.6431
  453TMC3     C 6749   1.078   0.324  11.797  0.6106 -0.0762  0.1697
  453TMC3     O 6750   1.160   0.399  11.744 -0.7736  0.0869 -0.6470
  453TMC3     H 6751   0.994   0.069  11.837 -1.4150 -1.0162  0.0063
  453TMC3    H1 6752   1.042   0.376  11.560 -0.3556 -0.7498 -2.9173
  453TMC3    H2 6753   0.941   4.722  11.407 -0.7975 -1.6904  1.0696
  453TMC3    C7 6754   1.065   0.218  11.349 -0.2039 -0.3977  0.0202
  453TMC3    C8 6755   0.900   4.614  11.639  0.2659 -0.1178 -0.7901
  453TMC3    O1 6756   1.026   0.173  11.239 -0.0352  0.8507 -0.2383
  453TMC3    O2 6757   0.850   4.563  11.542  0.0775 -0.0426 -0.2490
  454MPD2     C 6758   0.026   0.263  16.762  0.8316  0.6273 -0.0946
  454MPD2    C1 6759   4.708   0.321  16.650 -0.6360 -0.8033  0.2395
  454MPD2    C2 6760   4.640   0.444  16.656  0.1069 -0.1740  0.4986
  454MPD2    C3 6761   4.624   0.515  16.771  0.0531 -0.2659 -0.0466
  454MPD2    C4 6762   4.675   0.452  16.883 -0.3924  0.7616 -0.7255
  454MPD2    C5 6763   0.018   0.332  16.876  0.1835 -0.1903  0.4499
  454MPD2     H 6764   4.604   0.482  16.561 -2.3394 -3.1490  0.2272
  454MPD2    H1 6765   4.682   0.503  16.979 -0.6488  1.3050 -0.9964
  454MPD2    H2 6766   0.081   0.170  16.771 -0.4695 -0.1682 -0.3782
  454MPD2    H3 6767   0.081   0.298  16.958 -0.1189  1.4106  1.3637
  454MPD2     N 6768   4.543   0.636  16.780 -0.0436 -0.8497 -0.0794
  454MPD2    H5 6769   4.510   0.660  16.873 -0.9918 -2.4707  0.0061
  454MPD2    N1 6770   4.707   0.255  16.526  0.4284 -0.3168 -0.1763
  454MPD2    H7 6771   4.675   0.316  16.453 -0.3822 -0.7754 -0.2061
  455TMC3    C1 6772   4.398   0.812  16.712  0.3917 -0.5805 -0.1839
  455TMC3    C2 6773   4.406   0.863  16.834  0.4156  1.1686  0.4356
  455TMC3    C3 6774   4.291   0.916  16.886 -0.9840  0.0791 -0.3676
  455TMC3    C4 6775   4.292   0.815  16.631 -0.1064 -0.5965 -0.1759
  455TMC3    C5 6776   4.179   0.851  16.699 -0.0065  0.9175 -0.3853
  455TMC3    C6 6777   4.174   0.909  16.824  0.2811  0.5907 -0.5649
  455TMC3     C 6778   4.491   0.707  16.679 -0.1054 -0.1986 -0.8691
  455TMC3     O 6779   4.506   0.682  16.559 -0.2474  0.3580  0.1332
  455TMC3     H 6780   4.498   0.859  16.890  0.3590  2.7594  0.6366
  455TMC3    H1 6781   4.297   0.783  16.528  3.1623  0.2082 -0.2621
  455TMC3    H2 6782   4.081   0.947  16.866  0.7486  0.5170  0.5368
  455TMC3    C7 6783   4.054   0.826  16.633  0.1003  0.3072 -0.2192
  455TMC3    C8 6784   4.296   0.986  17.017  0.5608  0.6166  0.0682
  455TMC3    O1 6785   3.955   0.884  16.676 -0.2564  0.1764 -0.8098
  455TMC3    O2 6786   4.217   1.080  17.036  0.2244 -0.1646  0.2555
  456MPD2     C 6787   2.583   0.290  16.190  0.8355 -0.2913 -0.2125
  456MPD2    C1 6788   2.619   0.358  16.308 -0.3026 -0.5714 -0.3418
  456MPD2    C2 6789   2.525   0.425  16.371 -0.1526  0.8008 -0.2835
  456MPD2    C3 6790   2.396   0.432  16.323 -0.0795 -0.5867 -0.0946
  456MPD2    C4 6791   2.360   0.349  16.217 -0.9102 -0.0080  0.1772
  456MPD2    C5 6792   2.454   0.286  16.145 -0.9720  0.0983 -0.0073
  456MPD2     H 6793   2.542   0.484  16.460 -0.3640  1.3342 -0.6010
  456MPD2    H1 6794   2.260   0.341  16.175 -0.0973  1.2756 -1.9876
  456MPD2    H2 6795   2.660   0.245  16.128  1.3827  3.0041 -1.9211
  456MPD2    H3 6796   2.435   0.227  16.056  2.0889  1.5438 -1.6120
  456MPD2     N 6797   2.307   0.516  16.392 -0.6419  0.1029 -0.2787
  456MPD2    H5 6798   2.336   0.559  16.480 -0.9422  0.4181 -0.3315
  456MPD2    N1 6799   2.756   0.358  16.348 -0.1196  0.0963  0.0834
  456MPD2    H7 6800   2.825   0.313  16.289 -0.2462  1.0433 -0.7815
  457TMC3    C1 6801   2.118   0.632  16.450  0.3235 -0.8866  0.4709
  457TMC3    C2 6802   2.011   0.704  16.399 -0.2211  1.0778 -0.1599
  457TMC3    C3 6803   1.950   0.781  16.491  0.3819  0.2034  0.1889
  457TMC3    C4 6804   2.159   0.631  16.577  0.0532 -0.8217  0.0291
  457TMC3    C5 6805   2.089   0.708  16.664 -0.1953 -0.0457  0.6758
  457TMC3    C6 6806   1.984   0.788  16.624  0.5054 -0.9525  1.4127
  457TMC3     C 6807   2.189   0.558  16.346  0.4453  0.1346  0.2363
  457TMC3     O 6808   2.146   0.552  16.233  0.5632 -0.6490  0.2037
  457TMC3     H 6809   1.997   0.708  16.292 -0.3082 -1.7693 -0.2480
  457TMC3    H1 6810   2.218   0.548  16.616  0.1624 -0.3164  0.9466
  457TMC3    H2 6811   1.916   0.846  16.684  0.1948 -1.3645  1.4579
  457TMC3    C7 6812   2.144   0.716  16.798 -0.3619  0.3847 -0.4038
  457TMC3    C8 6813   1.887   0.903  16.441  0.4254  0.3605  0.6036
  457TMC3    O1 6814   2.222   0.634  16.843 -0.1368 -0.3729  0.5733
  457TMC3    O2 6815   1.879   0.999  16.518 -0.0093  0.5497 -0.2693
  458MPD2     C 6816   0.319   4.505  12.620 -0.0029 -0.3688  1.2277
  458MPD2    C1 6817   0.291   4.423  12.726 -0.2393  0.5602 -0.6609
  458MPD2    C2 6818   0.160   4.406  12.764 -0.4539 -0.6680  0.4300
  458MPD2    C3 6819   0.057   4.466  12.697  0.0088 -0.2265  0.3912
  458MPD2    C4 6820   0.090   4.525  12.581  0.1865  0.0086  0.1969
  458MPD2    C5 6821   0.218   4.559  12.547 -0.3853  0.2029  0.7301
  458MPD2     H 6822   0.138   4.347  12.852  2.7072 -0.6887  1.1992
  458MPD2    H1 6823   0.010   4.560  12.517 -0.5227 -1.1016  0.4590
  458MPD2    H2 6824   0.421   4.523  12.589 -0.1776 -1.2285  0.1633
  458MPD2    H3 6825   0.244   4.616  12.458 -1.0699 -0.8687 -0.1757
  458MPD2     N 6826   4.652   4.450  12.749 -0.2330  0.1314  0.2299
  458MPD2    H5 6827   4.644   4.401  12.838  0.6147  1.5443  1.0802
  458MPD2    N1 6828   0.408   4.365  12.792 -0.5022 -0.2563  0.5061
  458MPD2    H7 6829   0.501   4.382  12.756  0.2527 -0.0480  2.5539
  459TMC3    C1 6830   0.510   4.269  12.986  0.7739 -0.1849 -0.4300
  459TMC3    C2 6831   0.635   4.278  12.926 -0.3301 -0.2081  0.6879
  459TMC3    C3 6832   0.746   4.274  13.011 -0.1035 -0.2064  0.4356
  459TMC3    C4 6833   0.492   4.251  13.118  0.0030 -0.1162  0.7471
  459TMC3    C5 6834   0.601   4.259  13.194  0.1179  0.1631  0.1591
  459TMC3    C6 6835   0.728   4.262  13.145 -0.2573 -0.0155 -0.5649
  459TMC3     C 6836   0.388   4.279  12.904  0.3155 -0.3809 -1.1261
  459TMC3     O 6837   0.286   4.225  12.951  0.3656  0.4332 -0.1004
  459TMC3     H 6838   0.649   4.278  12.819  1.6520 -0.1046  0.9430
  459TMC3    H1 6839   0.393   4.243  13.162 -1.5911  1.0411 -2.5696
  459TMC3    H2 6840   0.814   4.257  13.211  0.1830 -0.9573 -1.2050
  459TMC3    C7 6841   0.577   4.262  13.338  0.3283  0.1172  0.3825
  459TMC3    C8 6842   0.864   4.213  12.962 -0.3284  0.8698 -0.2027
  459TMC3    O1 6843   0.471   4.231  13.385  0.5436 -0.2006  0.2530
  459TMC3    O2 6844   0.967   4.228  13.027  0.4688  0.4976 -0.8364
  460MPD2     C 6845   4.294   1.864  10.923  0.6179  0.5799  0.2099
  460MPD2    C1 6846   4.260   1.990  10.937 -0.5276 -0.3598  0.6241
  460MPD2    C2 6847   4.209   2.060  10.831 -0.0729  0.0321  0.5568
  460MPD2    C3 6848   4.194   2.009  10.707  0.2179  1.2875 -0.3623
  460MPD2    C4 6849   4.249   1.884  10.690  0.8263 -0.6202  0.2679
  460MPD2    C5 6850   4.297   1.810  10.797  0.1084 -0.0809 -0.4536
  460MPD2     H 6851   4.164   2.157  10.846 -0.8154 -0.2255  0.0307
  460MPD2    H1 6852   4.240   1.838  10.592 -1.0859 -0.6157  0.4402
  460MPD2    H2 6853   4.335   1.812  11.008  0.5292  0.1101 -0.0356
  460MPD2    H3 6854   4.358   1.723  10.774  0.7773  0.8595 -2.2244
  460MPD2     N 6855   4.124   2.080  10.606 -0.3633  0.1537  0.2493
  460MPD2    H5 6856   4.121   2.181  10.615 -1.2336  0.2486 -1.0835
  460MPD2    N1 6857   4.273   2.042  11.062 -0.0970  0.5227  0.2114
  460MPD2    H7 6858   4.319   1.981  11.129 -2.2005 -1.5070 -0.1910
  461TMC3    C1 6859   4.017   2.085  10.388  0.0505 -0.1691  0.5601
  461TMC3    C2 6860   3.988   2.010  10.282 -0.0926  0.7431  0.0429
  461TMC3    C3 6861   3.945   2.078  10.167  0.0744  0.4862  1.0440
  461TMC3    C4 6862   4.002   2.223  10.392  0.6810 -0.2661 -1.0880
  461TMC3    C5 6863   3.959   2.277  10.273 -0.6951 -0.3176  0.4881
  461TMC3    C6 6864   3.926   2.212  10.160 -0.4311  0.2104  0.0367
  461TMC3     C 6865   4.053   2.013  10.509 -0.1989 -0.5566  0.2330
  461TMC3     O 6866   4.017   1.896  10.511  0.1977  0.1068  0.0606
  461TMC3     H 6867   3.998   1.902  10.288  0.8508  0.7759 -0.9906
  461TMC3    H1 6868   4.012   2.276  10.485  0.8806 -0.4845 -0.9851
  461TMC3    H2 6869   3.886   2.264  10.074 -0.0039 -1.1342 -0.9799
  461TMC3    C7 6870   3.913   2.417  10.263 -0.4538  0.7362  0.4956
  461TMC3    C8 6871   3.963   2.016  10.041  0.1676 -0.1838 -0.6078
  461TMC3    O1 6872   3.960   2.472  10.164 -0.3072 -0.6701 -0.1296
  461TMC3    O2 6873   4.060   1.943  10.019 -0.7427 -0.3809 -0.3832
  462TMC3    C1 6874   3.827   3.809   0.536  0.5266 -1.2167 -0.7423
  462TMC3    C2 6875   3.927   3.756   0.464  0.8490  0.6296  0.0191
  462TMC3    C3 6876   3.940   3.620   0.461 -0.0350 -0.4117  0.6173
  462TMC3    C4 6877   3.730   3.736   0.594 -0.1164 -0.1105 -0.0593
  462TMC3    C5 6878   3.751   3.600   0.590  0.0583  0.0370  0.0252
  462TMC3    C6 6879   3.860   3.537   0.540  0.6319  0.3679 -0.0536
  462TMC3     C 6880   3.811   3.954   0.533 -0.0672 -0.0384 -0.2045
  462TMC3     O 6881   3.878   4.013   0.449  0.3942  0.4374 -0.1651
  462TMC3     H 6882   3.989   3.814   0.397  1.6975 -0.1691  0.1145
  462TMC3    H1 6883   3.641   3.767   0.647 -0.9695 -0.8135 -1.0732
  462TMC3    H2 6884   3.849   3.431   0.520  1.6932  0.6541 -2.0783
  462TMC3    C7 6885   3.634   3.505   0.585  0.7733  0.5042  0.8248
  462TMC3    C8 6886   3.985   3.579   0.327 -0.3863  1.1639  0.8728
  462TMC3    O1 6887   3.650   3.391   0.622  0.4031 -0.1043  0.5990
  462TMC3    O2 6888   3.981   3.655   0.232 -0.7533  0.3498  0.3220
  463MPD2     C 6889   0.771   1.949   1.884  0.4644  0.7845  0.0035
  463MPD2    C1 6890   0.735   1.829   1.937  0.0321  0.3976  0.6276
  463MPD2    C2 6891   0.830   1.753   2.013 -0.1406 -0.2016  0.1605
  463MPD2    C3 6892   0.954   1.807   2.018  0.9628  0.4203 -0.0967
  463MPD2    C4 6893   0.984   1.932   1.981 -0.2267  0.3612  0.2024
  463MPD2    C5 6894   0.893   2.000   1.916  0.6230  0.3578  0.3786
  463MPD2     H 6895   0.819   1.648   2.040  1.3888  0.1484  2.1078
  463MPD2    H1 6896   1.083   1.972   1.992 -0.3940  0.7741  0.1998
  463MPD2    H2 6897   0.699   2.005   1.826 -2.8220 -1.7642  1.6505
  463MPD2    H3 6898   0.910   2.099   1.874 -0.2799 -0.3235 -1.6164
  463MPD2     N 6899   1.064   1.733   2.075  0.1281  0.1332  0.3504
  463MPD2    H5 6900   1.141   1.789   2.108  1.3652 -0.4997 -1.4398
  463MPD2    N1 6901   0.605   1.772   1.936  0.9920 -0.3139  0.3913
  463MPD2    H7 6902   0.595   1.675   1.962  3.3956 -0.8297 -0.5760
  464TMC3    C1 6903   0.372   1.767   1.899  0.6000  0.6049 -0.1877
  464TMC3    C2 6904   0.261   1.845   1.879  0.4132  0.4473  0.0254
  464TMC3    C3 6905   0.157   1.780   1.815  0.8007  0.3356 -0.2497
  464TMC3    C4 6906   0.389   1.642   1.849 -0.3574  0.7018 -0.0520
  464TMC3    C5 6907   0.276   1.581   1.800  0.1711 -0.0894  0.1498
  464TMC3    C6 6908   0.161   1.648   1.779  0.2774  0.0243 -0.6380
  464TMC3     C 6909   0.496   1.848   1.905  0.1188  0.0043 -0.3479
  464TMC3     O 6910   0.485   1.972   1.895  0.4175  0.0932 -0.3319
  464TMC3     H 6911   0.258   1.953   1.891  1.3481  0.2156  2.5117
  464TMC3    H1 6912   0.485   1.593   1.840 -1.1816 -0.9670  0.3938
  464TMC3    H2 6913   0.070   1.595   1.751  1.1603  1.1641 -5.6688
  464TMC3    C7 6914   0.291   1.442   1.759  0.2295  0.6840  0.5637
  464TMC3    C8 6915   0.053   1.861   1.757  0.2942  0.1559  0.7962
  464TMC3    O1 6916   0.378   1.373   1.805  0.2493 -0.5237 -0.3576
  464TMC3    O2 6917   4.701   1.798   1.682  0.1578  0.8266  0.0320
  465MPD2     C 6918   1.535   0.361  16.402 -0.3371  0.3559 -0.5592
  465MPD2    C1 6919   1.453   0.391  16.513  0.1813 -0.1799 -0.2217
  465MPD2    C2 6920   1.321   0.349  16.507 -0.2880 -0.9745  0.6935
  465MPD2    C3 6921   1.259   0.307  16.393 -0.1326  0.4907  0.0815
  465MPD2    C4 6922   1.341   0.281  16.282  0.3382 -0.2843  0.6897
  465MPD2    C5 6923   1.478   0.302  16.291 -0.4004  0.3192  1.0249
  465MPD2     H 6924   1.247   0.363  16.585 -1.7952 -1.7877 -0.5699
  465MPD2    H1 6925   1.300   0.247  16.188 -1.0090 -1.6555  1.7640
  465MPD2    H2 6926   1.642   0.377  16.403 -0.2173 -0.4813  0.2626
  465MPD2    H3 6927   1.540   0.272  16.207 -0.0182 -0.7912  1.7143
  465MPD2     N 6928   1.122   0.301  16.392 -0.1302  0.3659 -0.0977
  465MPD2    H5 6929   1.073   0.299  16.481 -1.8866 -0.4622 -1.0872
  465MPD2    N1 6930   1.503   0.431  16.638  0.1176  0.0845 -0.2893
  465MPD2    H7 6931   1.432   0.448  16.708  1.6171  2.2510  0.7171
  466TMC3    C1 6932   0.734   0.329  16.450 -0.6501  0.2807 -0.3658
  466TMC3    C2 6933   0.687   0.451  16.402 -0.5672  0.1380 -0.1419
  466TMC3    C3 6934   0.752   0.496  16.287 -0.0240 -0.4752 -0.0253
  466TMC3    C4 6935   0.851   0.262  16.408 -0.1132 -0.5398  0.0115
  466TMC3    C5 6936   0.912   0.314  16.298 -0.0311 -0.0852  0.7016
  466TMC3    C6 6937   0.860   0.428  16.232 -0.2277 -0.1599 -0.4347
  466TMC3     C 6938   0.652   0.271  16.544 -0.2693  0.4930  0.1675
  466TMC3     O 6939   0.615   0.344  16.638  0.4782 -0.4215 -0.5324
  466TMC3     H 6940   0.588   0.490  16.426 -1.3238 -0.2239 -2.6367
  466TMC3    H1 6941   0.891   0.176  16.461  1.8630  0.6768  0.4644
  466TMC3    H2 6942   0.900   0.477  16.143  0.5752 -1.3443 -0.7352
  466TMC3    C7 6943   1.048   0.292  16.278  0.0230 -0.2663  0.6543
  466TMC3    C8 6944   0.767   0.640  16.260  0.5906 -0.0825  0.1809
  466TMC3    O1 6945   1.087   0.297  16.162  0.3379  0.2648  0.1949
  466TMC3    O2 6946   0.796   0.682  16.144  0.3389 -0.1607 -0.3797
  467TMC3    C1 6947   2.172   4.076  14.109  0.5464 -0.0603 -0.2027
  467TMC3    C2 6948   2.115   4.076  13.980  0.8558  0.4434  0.4901
  467TMC3    C3 6949   2.020   3.978  13.960  0.8046 -0.2351  0.6120
  467TMC3    C4 6950   2.133   3.995  14.207 -0.9081  0.5560 -0.1658
  467TMC3    C5 6951   2.044   3.893  14.176  0.6702 -0.0523  0.5129
  467TMC3    C6 6952   1.990   3.886  14.056  0.1040 -0.5426  0.7831
  467TMC3     C 6953   2.285   4.158  14.143  0.3761  0.2834  0.1984
  467TMC3     O 6954   2.341   4.148  14.256  0.2596  0.7637  0.0405
  467TMC3     H 6955   2.135   4.145  13.898 -2.7967 -0.7947 -1.4264
  467TMC3    H1 6956   2.189   3.978  14.298 -0.4320 -0.4699 -0.6456
  467TMC3    H2 6957   1.948   3.789  14.032 -3.0200  1.6821 -2.7510
  467TMC3    C7 6958   2.037   3.775  14.265 -0.3480 -0.3293 -0.7402
  467TMC3    C8 6959   2.014   3.943  13.821  0.9064 -0.6456 -0.0175
  467TMC3    O1 6960   2.145   3.723  14.294 -0.1454 -0.1385 -0.5327
  467TMC3    O2 6961   2.111   3.986  13.756 -0.2803 -0.1109 -0.4085
  468MPD2     C 6962   1.212   1.393  10.182 -0.6449 -0.0920 -0.6126
  468MPD2    C1 6963   1.238   1.382  10.313  0.0090 -0.0688 -0.9021
  468MPD2    C2 6964   1.280   1.257  10.371 -0.0752 -0.9363  0.2025
  468MPD2    C3 6965   1.290   1.148  10.288 -0.5362 -1.0254  0.7843
  468MPD2    C4 6966   1.249   1.158  10.154 -0.1594  0.1718 -0.1830
  468MPD2    C5 6967   1.214   1.277  10.097  0.4535 -0.1550 -0.2240
  468MPD2     H 6968   1.304   1.258  10.477  0.8084  0.0755  0.0021
  468MPD2    H1 6969   1.239   1.066  10.097 -0.0806 -1.3755  2.3178
  468MPD2    H2 6970   1.177   1.485  10.137 -0.4826  0.1894 -0.1676
  468MPD2    H3 6971   1.178   1.282   9.995 -0.7714 -1.2582  0.1551
  468MPD2     N 6972   1.341   1.028  10.341  0.8023 -0.0075  0.0640
  468MPD2    H5 6973   1.356   1.040  10.441  1.8360 -0.4366 -0.0432
  468MPD2    N1 6974   1.226   1.488  10.407  0.4746 -0.2516  0.2271
  468MPD2    H7 6975   1.266   1.476  10.500  3.6533  0.8773 -1.0076
  469TMC3    C1 6976   1.183   1.703  10.485  0.1585 -0.6798 -0.4711
  469TMC3    C2 6977   1.195   1.667  10.616  0.1351 -0.4058  0.1527
  469TMC3    C3 6978   1.245   1.765  10.706  0.2379 -0.7331 -0.3905
  469TMC3    C4 6979   1.175   1.830  10.443  1.0001 -0.1251 -0.5779
  469TMC3    C5 6980   1.216   1.928  10.540  0.5428  0.5208  0.5485
  469TMC3    C6 6981   1.248   1.897  10.666 -0.4354  0.1170  0.1530
  469TMC3     C 6982   1.175   1.605  10.378 -0.6225 -0.3974  0.8816
  469TMC3     O 6983   1.091   1.634  10.291 -0.3896  0.4797 -0.2991
  469TMC3     H 6984   1.192   1.562  10.643  1.5164 -0.9621 -1.8529
  469TMC3    H1 6985   1.137   1.854  10.344 -0.9946  4.8045  1.3568
  469TMC3    H2 6986   1.291   1.970  10.734  0.1002  0.3031 -0.3893
  469TMC3    C7 6987   1.218   2.066  10.498  0.8081 -0.1088  0.2361
  469TMC3    C8 6988   1.251   1.722  10.845 -0.2583 -0.1765  0.5705
  469TMC3    O1 6989   1.248   2.083  10.382 -0.7847  0.0564 -0.0508
  469TMC3    O2 6990   1.203   1.612  10.873 -0.3033 -0.4468  0.3221
  470TMC3    C1 6991   2.885   3.136   0.593  0.3848  0.5624 -0.6571
  470TMC3    C2 6992   2.902   3.262   0.544  0.8516  0.6299 -0.6953
  470TMC3    C3 6993   2.997   3.325   0.618 -0.2292 -0.1191  0.8199
  470TMC3    C4 6994   2.965   3.072   0.689 -0.4427  0.5032 -0.4686
  470TMC3    C5 6995   3.067   3.131   0.743 -0.4076 -0.1536  0.8034
  470TMC3    C6 6996   3.077   3.264   0.713  0.3365  0.9146  0.9954
  470TMC3     C 6997   2.829   3.044   0.495 -0.0830  0.4061  0.5028
  470TMC3     O 6998   2.821   3.083   0.381 -0.0758 -0.3531 -0.3215
  470TMC3     H 6999   2.835   3.306   0.471 -1.0533 -1.6434 -0.3084
  470TMC3    H1 7000   2.954   2.966   0.709 -0.6529  0.4633 -0.7891
  470TMC3    H2 7001   3.145   3.319   0.776  0.9363  0.1773  0.9906
  470TMC3    C7 7002   3.100   3.103   0.880  0.2194  0.3517 -0.2540
  470TMC3    C8 7003   2.989   3.467   0.637  0.1103 -0.4237  0.3909
  470TMC3    O1 7004   3.212   3.135   0.920  0.6984 -0.2909  0.1837
  470TMC3    O2 7005   3.030   3.510   0.747 -0.4373 -0.1879 -0.2545
  471MPD2     C 7006   3.750   4.339  16.998 -0.0150  0.2188 -0.5232
  471MPD2    C1 7007   3.682   4.222  17.023  0.3684 -0.3331 -0.2473
  471MPD2    C2 7008   3.671   4.169  17.156 -0.6317 -0.5081 -0.6330
  471MPD2    C3 7009   3.721   4.243  17.261  0.2076  0.3426  0.2959
  471MPD2    C4 7010   3.782   4.359  17.231 -0.2332 -0.1673 -0.2003
  471MPD2    C5 7011   3.802   4.405  17.104 -0.0630 -0.2376 -0.1571
  471MPD2     H 7012   3.612   4.079  17.165 -0.9263 -0.2635 -0.0881
  471MPD2    H1 7013   3.825   4.429  17.303  3.9591 -0.0135 -2.8508
  471MPD2    H2 7014   3.760   4.383  16.900 -0.7315 -3.0283 -2.0423
  471MPD2    H3 7015   3.853   4.499  17.087  1.0596 -0.8882 -0.3874
  471MPD2     N 7016   3.716   4.203  17.392 -0.1799  0.3766 -0.1092
  471MPD2    H5 7017   3.769   4.262  17.456 -4.3104  1.6067  2.1668
  471MPD2    N1 7018   3.636   4.136  16.917 -0.1110 -0.1048  1.1370
  471MPD2    H7 7019   3.585   4.052  16.943 -1.0967  1.1186  3.1849
  472TMC3    C1 7020   3.557   4.066  16.707 -0.0384  0.0402  0.6471
  472TMC3    C2 7021   3.468   4.092  16.608  0.6109 -0.6903 -0.0570
  472TMC3    C3 7022   3.408   3.980  16.553  0.1843  0.1600 -0.3676
  472TMC3    C4 7023   3.598   3.946  16.749  0.3026  0.0053  0.2297
  472TMC3    C5 7024   3.521   3.836  16.705  0.2555  0.4903  0.6571
  472TMC3    C6 7025   3.425   3.854  16.606 -0.2006  0.5340  0.2675
  472TMC3     C 7026   3.627   4.170  16.786  0.3785  0.1741 -0.1229
  472TMC3     O 7027   3.646   4.279  16.733 -0.3977 -0.2098  0.6076
  472TMC3     H 7028   3.430   4.191  16.583  1.2873 -0.7437 -1.2914
  472TMC3    H1 7029   3.689   3.930  16.805  1.2593  0.4401 -1.2010
  472TMC3    H2 7030   3.371   3.769  16.567  2.1618 -1.6981  1.8237
  472TMC3    C7 7031   3.540   3.697  16.746 -0.4521 -0.0139 -1.0222
  472TMC3    C8 7032   3.291   4.008  16.476 -0.0717 -0.0549 -0.3411
  472TMC3    O1 7033   3.604   3.677  16.849 -0.2658  0.0230  0.7730
  472TMC3    O2 7034   3.230   4.111  16.500 -0.2716 -0.1111  0.5410
  473MPD2     C 7035   3.985   1.215  13.947 -0.1127  0.1822  0.1329
  473MPD2    C1 7036   3.868   1.290  13.942  0.5960  0.0246  0.0195
  473MPD2    C2 7037   3.859   1.406  14.023 -1.0381 -0.8251  0.4182
  473MPD2    C3 7038   3.961   1.447  14.106  0.2091  1.1354  0.2215
  473MPD2    C4 7039   4.072   1.365  14.106  0.2228 -0.3028 -1.0542
  473MPD2    C5 7040   4.086   1.259  14.024 -0.0393  0.2661 -0.3117
  473MPD2     H 7041   3.773   1.472  14.016 -0.4598 -0.0392  0.6532
  473MPD2    H1 7042   4.153   1.390  14.174 -0.0264 -0.8416 -0.5600
  473MPD2    H2 7043   3.987   1.113  13.911  1.9746 -0.3749  1.8209
  473MPD2    H3 7044   4.173   1.195  14.032  0.9180  1.9581  3.1842
  473MPD2     N 7045   3.956   1.554  14.198  0.0455  0.2774  0.4449
  473MPD2    H5 7046   4.047   1.566  14.241  0.6261 -0.1308 -0.6849
  473MPD2    N1 7047   3.763   1.259  13.859  0.0027  0.2251  0.0736
  473MPD2    H7 7048   3.688   1.326  13.848 -0.5961 -0.5273 -0.4277
  474TMC3    C1 7049   3.876   1.732  14.332  0.1501 -0.9530  0.8201
  474TMC3    C2 7050   3.771   1.793  14.390 -0.1257 -0.3346 -0.0656
  474TMC3    C3 7051   3.796   1.912  14.460 -0.4546 -0.0776  0.7996
  474TMC3    C4 7052   4.004   1.771  14.349 -0.7780  0.0859  0.6046
  474TMC3    C5 7053   4.022   1.869  14.444  0.0330  0.4335 -0.6500
  474TMC3    C6 7054   3.922   1.945  14.496 -0.7262 -0.1641  0.1774
  474TMC3     C 7055   3.848   1.627  14.241 -0.2824 -0.2192  0.1240
  474TMC3     O 7056   3.732   1.619  14.207  0.5637 -0.2797 -0.0132
  474TMC3     H 7057   3.668   1.771  14.362  1.1230 -3.6599 -2.0467
  474TMC3    H1 7058   4.081   1.744  14.278  0.1231 -0.3352  1.7303
  474TMC3    H2 7059   3.943   2.042  14.539 -2.3383 -0.2396  1.0935
  474TMC3    C7 7060   4.156   1.918  14.476  0.2317 -0.3740  0.7005
  474TMC3    C8 7061   3.685   1.998  14.494  0.0539 -0.7466  0.0650
  474TMC3    O1 7062   4.238   1.913  14.388 -0.1681  0.2893 -0.0895
  474TMC3    O2 7063   3.577   1.954  14.461  0.0922 -0.1346 -0.8220
  475MPD2     C 7064   3.424   0.433  10.706 -0.1027  0.2470 -0.5036
  475MPD2    C1 7065   3.374   0.335  10.618  0.2850  0.3562 -0.4074
  475MPD2    C2 7066   3.235   0.315  10.595  0.0243 -0.8939  0.1274
  475MPD2    C3 7067   3.144   0.399  10.653 -0.1880  0.3370  0.1038
  475MPD2    C4 7068   3.189   0.493  10.744 -0.0394  0.4036  0.4229
  475MPD2    C5 7069   3.325   0.501  10.773 -0.1167  0.7506 -0.1524
  475MPD2     H 7070   3.201   0.234  10.532  1.4435 -1.4829  0.1078
  475MPD2    H1 7071   3.121   0.559  10.797  2.5454  3.8110 -0.4289
  475MPD2    H2 7072   3.531   0.447  10.713 -0.3857  2.5465 -0.7324
  475MPD2    H3 7073   3.348   0.575  10.848  1.6864  1.5420 -1.5112
  475MPD2     N 7074   3.004   0.393  10.635  0.1454  0.3703  0.3332
  475MPD2    H5 7075   2.946   0.445  10.700 -1.1395 -0.2104 -0.3550
  475MPD2    N1 7076   3.472   0.266  10.545 -0.6263  0.1939 -0.0358
  475MPD2    H7 7077   3.568   0.280  10.576 -0.5568 -0.7760  0.1767
  476TMC3    C1 7078   3.578   0.142  10.378  0.2578 -0.2500 -0.7040
  476TMC3    C2 7079   3.551   0.056  10.276  0.0897  0.0813  0.5811
  476TMC3    C3 7080   3.617   0.073  10.156  0.4200  0.4166 -0.2259
  476TMC3    C4 7081   3.658   0.251  10.349 -0.5653 -0.4062 -0.1678
  476TMC3    C5 7082   3.693   0.278  10.222  0.5353  0.7691  0.3734
  476TMC3    C6 7083   3.686   0.183  10.125 -0.5225  0.2165  0.7798
  476TMC3     C 7084   3.453   0.177  10.442  0.3036  0.2064 -0.2063
  476TMC3     O 7085   3.353   0.150  10.378  0.2184  0.8204 -0.8704
  476TMC3     H 7086   3.500   4.689  10.291 -1.3858  0.6413 -0.8493
  476TMC3    H1 7087   3.690   0.318  10.428  0.9296 -1.9068  0.4990
  476TMC3    H2 7088   3.729   0.198  10.026 -0.1739 -1.6077  0.6422
  476TMC3    C7 7089   3.676   0.414  10.178 -0.6533  0.4229  0.7677
  476TMC3    C8 7090   3.536   0.032  10.035 -0.2509 -0.1731  0.1977
  476TMC3    O1 7091   3.670   0.432  10.059 -0.1279 -0.0072 -0.0157
  476TMC3    O2 7092   3.589   0.046   9.927  0.6911 -0.1692  0.5779
  477MPD2     C 7093   4.623   1.464  11.688 -0.8486  0.8005 -0.5421
  477MPD2    C1 7094   4.538   1.430  11.788 -0.8380 -0.1318  0.5605
  477MPD2    C2 7095   4.606   1.378  11.897 -0.6370 -0.5686 -0.1857
  477MPD2    C3 7096   0.014   1.337  11.891  0.7195  0.2371  0.3473
  477MPD2    C4 7097   0.092   1.378  11.785  0.0475 -0.4127 -0.2086
  477MPD2    C5 7098   0.031   1.452  11.691 -0.1403 -0.1833  0.0633
  477MPD2     H 7099   4.544   1.347  11.980  1.3551 -2.3063  0.6537
  477MPD2    H1 7100   0.197   1.354  11.776  0.0129 -0.0855 -1.4659
  477MPD2    H2 7101   4.583   1.508  11.597 -1.7648  0.0634 -0.4960
  477MPD2    H3 7102   0.094   1.481  11.609  1.2824 -0.4339  1.0683
  477MPD2     N 7103   0.070   1.264  12.001 -0.0823 -0.0920  0.2468
  477MPD2    H5 7104   0.024   1.246  12.089 -0.4463  0.7696  0.2287
  477MPD2    N1 7105   4.398   1.462  11.772 -0.2428 -1.0532 -0.2738
  477MPD2    H7 7106   4.367   1.502  11.684 -0.3611  2.8926  1.5806
  478TMC3    C1 7107   4.173   1.489  11.832 -1.0388  0.1597  0.1852
  478TMC3    C2 7108   4.108   1.551  11.940  0.7324 -0.6618  0.2703
  478TMC3    C3 7109   4.021   1.652  11.920  0.6805  0.3894 -0.6071
  478TMC3    C4 7110   4.149   1.533  11.702  0.1635  0.1312 -0.0083
  478TMC3    C5 7111   4.063   1.638  11.682 -0.7057  0.3083 -0.0383
  478TMC3    C6 7112   3.997   1.692  11.794 -0.1144 -0.6097 -0.3419
  478TMC3     C 7113   4.309   1.441  11.869 -1.0475 -0.6571  0.1959
  478TMC3     O 7114   4.331   1.407  11.984 -0.2055 -0.3467 -0.7145
  478TMC3     H 7115   4.125   1.514  12.040  0.9766  0.4536  0.6405
  478TMC3    H1 7116   4.201   1.474  11.627 -1.0977 -2.2931  1.0075
  478TMC3    H2 7117   3.937   1.780  11.772  1.4725  0.7955  0.9924
  478TMC3    C7 7118   4.008   1.663  11.555  0.1825 -0.3745 -0.2363
  478TMC3    C8 7119   3.982   1.737  12.037 -0.0451 -0.1485 -0.2100
  478TMC3    O1 7120   3.908   1.732  11.547 -0.8436 -0.1487  0.0894
  478TMC3    O2 7121   3.975   1.685  12.148 -0.0949 -0.4570 -0.7214
  479MPD2     C 7122   3.576   3.543  15.257 -0.0789 -0.0107  0.0481
  479MPD2    C1 7123   3.505   3.450  15.330 -0.1222  0.2387 -0.5222
  479MPD2    C2 7124   3.519   3.453  15.471  0.1204  0.6345 -0.8449
  479MPD2    C3 7125   3.589   3.553  15.531 -0.9571  0.0127 -0.5651
  479MPD2    C4 7126   3.661   3.642  15.456  0.2405  0.1706  0.7132
  479MPD2    C5 7127   3.652   3.639  15.323  0.4346 -0.6619  0.3663
  479MPD2     H 7128   3.465   3.382  15.533 -0.3814  1.0297 -0.8279
  479MPD2    H1 7129   3.724   3.719  15.500 -0.4702  0.4599  1.2182
  479MPD2    H2 7130   3.578   3.541  15.149  0.6068 -1.9097  0.1012
  479MPD2    H3 7131   3.701   3.716  15.265 -0.1364 -0.8145 -0.3095
  479MPD2     N 7132   3.601   3.566  15.670 -0.4852  0.7402 -0.1804
  479MPD2    H5 7133   3.665   3.642  15.689  0.6635 -0.8450  2.3315
  479MPD2    N1 7134   3.418   3.352  15.267 -0.6948  0.3611  0.2435
  479MPD2    H7 7135   3.410   3.361  15.166  1.5745  1.8617  0.2101
  480TMC3    C1 7136   3.243   3.282  15.744  0.1458 -0.0916  0.2640
  480TMC3    C2 7137   3.149   3.361  15.683  0.2454  0.6205 -0.3436
  480TMC3    C3 7138   3.188   3.483  15.645 -0.0676 -0.0140  0.0461
  480TMC3    C4 7139   3.363   3.333  15.790 -0.1576  0.9122 -0.0147
  480TMC3    C5 7140   3.392   3.459  15.748  0.5031  0.0197 -0.1548
  480TMC3    C6 7141   3.310   3.541  15.678  0.6216  0.0938  1.0578
  480TMC3     C 7142   3.190   3.173  15.830 -1.0192  0.3553  0.5368
  480TMC3     O 7143   3.258   3.145  15.924  0.6968 -0.2053 -0.0253
  480TMC3     H 7144   3.059   3.320  15.638 -0.7789  1.1000  1.2542
  480TMC3    H1 7145   3.438   3.272  15.840  0.5343  0.6078 -1.4463
  480TMC3    H2 7146   3.330   3.647  15.665 -0.3155 -0.0097 -1.2357
  480TMC3    C7 7147   3.528   3.501  15.770 -0.3319  0.2959  1.0246
  480TMC3    C8 7148   3.108   3.560  15.552 -0.0435  0.2019 -0.2433
  480TMC3    O1 7149   3.554   3.510  15.891 -0.4286 -0.2417 -0.2413
  480TMC3    O2 7150   2.994   3.519  15.552 -0.1843  0.0020 -0.1796
  481MPD2     C 7151   0.786   3.173  14.556  0.4821 -0.3392  0.5816
  481MPD2    C1 7152   0.652   3.188  14.566  0.1641  0.2677 -0.5545
  481MPD2    C2 7153   0.594   3.156  14.685 -0.1867  0.0786  0.9044
  481MPD2    C3 7154   0.671   3.098  14.784 -0.5610  0.2629 -0.1317
  481MPD2    C4 7155   0.806   3.086  14.775 -0.2410  0.2649  0.5519
  481MPD2    C5 7156   0.863   3.134  14.662  0.2545 -0.6427  0.1859
  481MPD2     H 7157   0.486   3.154  14.691 -0.2932  4.7991  0.1660
  481MPD2    H1 7158   0.874   3.059  14.855  0.9583 -0.8158 -0.8282
  481MPD2    H2 7159   0.855   3.198  14.476 -0.2200 -0.8620 -0.1960
  481MPD2    H3 7160   0.971   3.127  14.656  0.4083  2.1947 -0.1890
  481MPD2     N 7161   0.616   3.048  14.905  0.3515  0.0590  0.0143
  481MPD2    H5 7162   0.678   3.023  14.981 -1.6194  0.1526  1.6625
  481MPD2    N1 7163   0.579   3.234  14.460  0.4073 -0.4174  0.4671
  481MPD2    H7 7164   0.634   3.243  14.375  0.6809 -1.8820  0.4845
  482TMC3    C1 7165   0.412   3.334  14.329  0.4521 -1.1100 -0.0141
  482TMC3    C2 7166   0.448   3.254  14.222  0.6974 -0.2490 -0.5799
  482TMC3    C3 7167   0.360   3.252  14.118 -0.3499 -0.6002 -0.9040
  482TMC3    C4 7168   0.306   3.421  14.325 -0.3950  0.6225 -0.2391
  482TMC3    C5 7169   0.239   3.427  14.206 -0.3041 -0.5130  0.4787
  482TMC3    C6 7170   0.260   3.340  14.095 -0.1734  0.1535 -0.0740
  482TMC3     C 7171   0.448   3.284  14.458 -0.1856  0.3055  0.4867
  482TMC3     O 7172   0.364   3.295  14.547 -0.0075 -0.1578 -0.1077
  482TMC3     H 7173   0.525   3.178  14.226  0.5252 -0.4644 -1.3088
  482TMC3    H1 7174   0.269   3.466  14.417 -1.9008 -0.3318 -0.3775
  482TMC3    H2 7175   0.192   3.325  14.013 -1.2607 -0.8540  0.9964
  482TMC3    C7 7176   0.107   3.476  14.220 -0.1068 -0.5643 -0.1774
  482TMC3    C8 7177   0.375   3.132  14.033 -0.1874  0.5531  0.5528
  482TMC3    O1 7178   0.102   3.586  14.266 -0.6246  0.1561 -0.2713
  482TMC3    O2 7179   0.404   3.028  14.096  0.4025 -0.5074  0.1433
  483TMC3    C1 7180   2.422   2.036   0.652 -1.0974  0.0737 -0.3437
  483TMC3    C2 7181   2.510   2.133   0.621  0.5526 -0.0509  0.6477
  483TMC3    C3 7182   2.583   2.194   0.717  0.7941 -0.4794 -0.8180
  483TMC3    C4 7183   2.413   1.988   0.784 -0.0758 -0.1840  0.1162
  483TMC3    C5 7184   2.503   2.044   0.872 -0.4115 -0.3240  0.6373
  483TMC3    C6 7185   2.585   2.146   0.842 -0.4253 -0.5857  0.3016
  483TMC3     C 7186   2.356   1.975   0.537 -0.0625  0.0447 -0.6763
  483TMC3     O 7187   2.304   2.047   0.455 -0.6973  0.7545  0.3456
  483TMC3     H 7188   2.512   2.179   0.522  0.0964  0.6269  0.9558
  483TMC3    H1 7189   2.370   1.889   0.796 -1.0437  0.3478  1.0526
  483TMC3    H2 7190   2.675   2.169   0.897 -0.8580 -0.5725  1.0002
  483TMC3    C7 7191   2.556   1.948   0.953 -0.0243 -0.5445  0.0796
  483TMC3    C8 7192   2.666   2.308   0.679 -0.2058  0.3265 -0.6615
  483TMC3    O1 7193   2.678   1.955   0.959 -0.0649  0.0903 -0.0561
  483TMC3    O2 7194   2.720   2.305   0.567  0.3802  0.0114  0.0450
  484MPD2     C 7195   0.890   3.955  12.694 -0.2683  0.2557  0.8165
  484MPD2    C1 7196   0.931   4.060  12.775  0.1843  0.0191 -0.3326
  484MPD2    C2 7197   1.063   4.097  12.774 -0.2080 -0.1735 -0.2034
  484MPD2    C3 7198   1.159   4.008  12.717  0.4438  0.0850  0.8116
  484MPD2    C4 7199   1.115   3.898  12.639 -0.4238  0.6777  0.0790
  484MPD2    C5 7200   0.981   3.876  12.628 -0.2045 -0.3346  0.2460
  484MPD2     H 7201   1.103   4.180  12.833 -2.9570  1.1858 -0.2500
  484MPD2    H1 7202   1.180   3.831  12.583 -0.5028  0.6618  0.0073
  484MPD2    H2 7203   0.787   3.920  12.686  0.0901 -1.1473  2.1695
  484MPD2    H3 7204   0.940   3.795  12.568 -1.0030 -0.7876  1.4110
  484MPD2     N 7205   1.289   4.025  12.742  0.2026 -0.6287 -0.3698
  484MPD2    H5 7206   1.310   4.097  12.810 -0.8863 -1.2087  0.6060
  484MPD2    N1 7207   0.831   4.125  12.854 -0.8236  0.8848  0.7818
  484MPD2    H7 7208   0.733   4.105  12.837  0.3380 -2.7160 -1.6671
  485TMC3    C1 7209   1.520   4.012  12.736 -0.0345  0.2167 -0.6719
  485TMC3    C2 7210   1.633   3.937  12.743 -0.1877  0.4378  0.8866
  485TMC3    C3 7211   1.751   3.997  12.783 -0.0225 -0.6908  0.2302
  485TMC3    C4 7212   1.524   4.146  12.746 -0.0627  0.3327 -0.2589
  485TMC3    C5 7213   1.639   4.197  12.789 -0.7978 -0.0476  0.4211
  485TMC3    C6 7214   1.746   4.125  12.817 -0.6454  0.0141 -0.3341
  485TMC3     C 7215   1.395   3.948  12.704 -0.1838 -0.3555  0.3708
  485TMC3     O 7216   1.403   3.834  12.656  0.0106 -1.0496  0.0511
  485TMC3     H 7217   1.634   3.831  12.722 -2.2049  0.3333  1.3161
  485TMC3    H1 7218   1.442   4.212  12.718 -1.0997 -1.1148 -0.6602
  485TMC3    H2 7219   1.832   4.182  12.849 -0.3346 -0.3552 -0.5242
  485TMC3    C7 7220   1.682   4.327  12.729  0.2060  0.2329  0.7241
  485TMC3    C8 7221   1.859   3.966  12.695  0.2419 -0.4160  0.2446
  485TMC3    O1 7222   1.606   4.421  12.722 -0.3499  0.2773 -0.0952
  485TMC3    O2 7223   1.923   4.068  12.653  0.4315 -0.2051 -0.3299
  486MPD2     C 7224   3.103   3.738  13.180  0.8610 -0.1785  0.3006
  486MPD2    C1 7225   3.086   3.718  13.043 -0.4959 -0.4561  0.1882
  486MPD2    C2 7226   3.083   3.823  12.958 -0.3508  1.0074 -0.0898
  486MPD2    C3 7227   3.080   3.953  12.997  0.3025 -0.0856  0.5549
  486MPD2    C4 7228   3.093   3.979  13.136 -0.3442  0.2503 -0.5147
  486MPD2    C5 7229   3.102   3.871  13.227 -0.5585 -0.1408  0.7067
  486MPD2     H 7230   3.068   3.808  12.852 -2.0218 -0.1194  0.3138
  486MPD2    H1 7231   3.096   4.078  13.179  0.3987  0.5582 -1.2734
  486MPD2    H2 7232   3.088   3.662  13.256 -1.7256  0.7106  0.6756
  486MPD2    H3 7233   3.117   3.897  13.331  2.7727  0.3703  0.1071
  486MPD2     N 7234   3.046   4.054  12.905  0.3609 -0.6344 -0.1747
  486MPD2    H5 7235   3.051   4.015  12.811  1.2138 -1.0037  0.0204
  486MPD2    N1 7236   3.062   3.584  13.011 -0.3788 -0.3331  0.0590
  486MPD2    H7 7237   3.034   3.520  13.085  2.2953 -0.0819  1.2749
  487TMC3    C1 7238   3.009   3.382  12.890  0.6630  0.0641  0.0627
  487TMC3    C2 7239   2.944   3.329  12.784  0.1586  0.8485 -0.1149
  487TMC3    C3 7240   2.932   3.189  12.782  0.2306  0.6041  0.3480
  487TMC3    C4 7241   3.063   3.308  12.993  0.0531 -0.0735  0.1823
  487TMC3    C5 7242   3.055   3.167  12.985  0.2442  0.6085 -0.6964
  487TMC3    C6 7243   2.992   3.105  12.874  0.5553  0.3876 -0.2238
  487TMC3     C 7244   3.050   3.530  12.887  0.2820  0.4705 -0.2659
  487TMC3     O 7245   3.048   3.592  12.780  0.5222  0.0737 -0.2345
  487TMC3     H 7246   2.922   3.386  12.695 -4.4417 -0.3069  0.3014
  487TMC3    H1 7247   3.111   3.357  13.077 -0.3192 -2.6738  1.9396
  487TMC3    H2 7248   2.995   2.998  12.857  1.2466  0.4547 -0.5242
  487TMC3    C7 7249   3.037   3.107  13.115  0.0964  0.0691 -0.7112
  487TMC3    C8 7250   2.901   3.134  12.656 -0.6863 -0.2273 -0.4992
  487TMC3    O1 7251   3.091   3.165  13.208  0.2788 -0.4127  0.8135
  487TMC3    O2 7252   2.951   3.192  12.560 -0.1038 -0.3767 -0.4753
  488MPD2     C 7253   2.805   0.728  16.124 -0.4777  0.1257  0.0902
  488MPD2    C1 7254   2.879   0.806  16.204 -1.0627 -0.3793 -0.3804
  488MPD2    C2 7255   2.832   0.843  16.329  0.0473  0.4558 -0.8911
  488MPD2    C3 7256   2.703   0.796  16.367  0.3898  0.2382 -0.0272
  488MPD2    C4 7257   2.627   0.721  16.284  0.6148 -0.3384  0.0643
  488MPD2    C5 7258   2.676   0.686  16.163  0.0963 -0.6119 -0.2902
  488MPD2     H 7259   2.887   0.909  16.396  0.1843 -2.1926  1.6086
  488MPD2    H1 7260   2.529   0.677  16.298  0.8353 -1.0295 -0.5339
  488MPD2    H2 7261   2.838   0.685  16.030 -0.3419  0.3534  0.0355
  488MPD2    H3 7262   2.613   0.632  16.093 -2.6472  0.6949  1.1635
  488MPD2     N 7263   2.656   0.834  16.495 -0.5009  0.4262  0.3597
  488MPD2    H5 7264   2.723   0.894  16.543  1.4620 -1.4727 -0.0240
  488MPD2    N1 7265   3.010   0.860  16.168  0.2963  0.4422  0.1619
  488MPD2    H7 7266   3.061   0.915  16.237 -0.2053  2.6920 -1.2556
  489TMC3    C1 7267   2.574   0.779  16.711 -0.5149  0.6040 -0.1046
  489TMC3    C2 7268   2.694   0.839  16.744 -0.1700 -0.6447  0.5015
  489TMC3    C3 7269   2.780   0.761  16.820 -0.0319 -0.2864 -0.5448
  489TMC3    C4 7270   2.535   0.658  16.758  0.7477 -0.1519 -0.2091
  489TMC3    C5 7271   2.620   0.595  16.837 -0.1329  0.5401 -0.2123
  489TMC3    C6 7272   2.742   0.641  16.877 -0.2673 -1.2089 -0.8233
  489TMC3     C 7273   2.555   0.780  16.564  0.3016 -1.1596  0.9222
  489TMC3     O 7274   2.470   0.695  16.532 -0.5011  0.0064  0.0160
  489TMC3     H 7275   2.736   0.932  16.706  0.1682 -0.7355  0.6552
  489TMC3    H1 7276   2.440   0.614  16.729  0.8221 -1.4378  1.5394
  489TMC3    H2 7277   2.812   0.587  16.939  0.7025  1.1377  0.1435
  489TMC3    C7 7278   2.597   0.449  16.853 -0.6617 -0.2945 -0.0253
  489TMC3    C8 7279   2.918   0.804  16.835  0.0071 -0.4105 -0.1249
  489TMC3    O1 7280   2.696   0.378  16.872  0.4895  0.0268 -0.0168
  489TMC3    O2 7281   2.936   0.917  16.873 -0.0842 -0.3578 -0.1595
  490MPD2     C 7282   4.159   0.416   0.135 -0.7177 -0.5190  0.1471
  490MPD2    C1 7283   4.259   0.361   0.215  0.4110  0.1255 -0.0046
  490MPD2    C2 7284   4.322   0.431   0.319  0.6774 -0.0205 -0.0945
  490MPD2    C3 7285   4.290   0.559   0.342 -0.3613 -0.4001 -1.0662
  490MPD2    C4 7286   4.186   0.617   0.264  0.3959  0.2807  0.0829
  490MPD2    C5 7287   4.118   0.537   0.174  0.3037  0.7859 -0.1669
  490MPD2     H 7288   4.388   0.371   0.379 -1.0677 -2.9944 -1.1319
  490MPD2    H1 7289   4.152   0.715   0.297  2.3846  1.1042 -0.2829
  490MPD2    H2 7290   4.104   0.357   0.063 -0.7608  1.7960 -1.7428
  490MPD2    H3 7291   4.039   0.585   0.118  0.9267 -1.8249 -3.2664
  490MPD2     N 7292   4.352   0.636   0.437 -0.7784 -0.2793  0.6938
  490MPD2    H5 7293   4.313   0.728   0.456 -2.7110 -0.9097 -0.3052
  490MPD2    N1 7294   4.287   0.225   0.198 -0.3773 -0.6531 -0.5142
  490MPD2    H7 7295   4.352   0.187   0.266 -2.0794 -1.0702  0.8892
  491TMC3    C1 7296   4.243   0.009   0.144  0.4473 -0.1250 -0.3552
  491TMC3    C2 7297   4.298   4.710   0.269 -0.3646 -0.2208  0.3588
  491TMC3    C3 7298   4.230   4.631   0.354  0.5473 -0.3415  0.4106
  491TMC3    C4 7299   4.139   4.665   0.099 -0.8032 -0.6182 -0.5763
  491TMC3    C5 7300   4.075   4.585   0.199 -0.7856 -0.2820 -0.7444
  491TMC3    C6 7301   4.118   4.563   0.326  0.0398  0.3174  0.6115
  491TMC3     C 7302   4.238   0.140   0.097  0.1256 -0.2668  0.2366
  491TMC3     O 7303   4.180   0.161  17.700 -0.0508  0.2658  0.2680
  491TMC3     H 7304   4.394   0.021   0.300 -0.8595 -0.5543  2.2869
  491TMC3    H1 7305   4.090   4.674   0.003  0.9790 -3.1227 -1.7086
  491TMC3    H2 7306   4.085   4.479   0.386  0.1327 -0.1659 -0.0075
  491TMC3    C7 7307   3.931   4.550   0.172  0.2187  0.2437  0.1221
  491TMC3    C8 7308   4.212   4.723   0.465  0.5906  0.7753 -0.3398
  491TMC3    O1 7309   3.892   4.436   0.191 -0.0097 -0.0458 -0.0214
  491TMC3    O2 7310   4.293   0.087   0.485  0.1351 -0.2078  0.2634
  492MPD2     C 7311   4.598   0.143  11.911  0.7130  0.2696  0.1080
  492MPD2    C1 7312   4.547   0.055  11.813  0.2832 -0.1590 -0.8582
  492MPD2    C2 7313   4.486   4.660  11.853 -0.4348 -0.1433 -0.5031
  492MPD2    C3 7314   4.481   4.624  11.985 -0.7315 -0.4404  0.1361
  492MPD2    C4 7315   4.540   4.709  12.074  0.4527  0.1008  0.2239
  492MPD2    C5 7316   4.597   0.104  12.039  0.1799  0.1645 -0.1376
  492MPD2     H 7317   4.434   4.607  11.773  0.1811  0.7388 -1.4866
  492MPD2    H1 7318   4.544   4.684  12.180 -3.0412  0.1144  0.3702
  492MPD2    H2 7319   4.639   0.235  11.871 -0.4450  1.0834  0.7923
  492MPD2    H3 7320   4.646   0.163  12.116 -2.2145  0.6063  1.0432
  492MPD2     N 7321   4.405   4.514  12.040  0.1282 -1.0945 -0.2795
  492MPD2    H5 7322   4.411   4.493  12.139 -0.8413  0.0633  0.0354
  492MPD2    N1 7323   4.559   0.097  11.682  0.5831  0.1071  0.1376
  492MPD2    H7 7324   4.580   0.195  11.666  1.7964 -0.0107  0.9928
  493TMC3    C1 7325   4.578   0.085  11.442  0.1390 -0.1329 -0.8787
  493TMC3    C2 7326   4.595   0.218  11.433  0.0741 -0.4225 -0.7462
  493TMC3    C3 7327   4.617   0.274  11.310  0.1065 -0.8042 -0.5179
  493TMC3    C4 7328   4.582   0.008  11.333  0.9296 -0.5120 -0.3560
  493TMC3    C5 7329   4.596   0.065  11.206 -0.4316  0.3763  0.3872
  493TMC3    C6 7330   4.617   0.205  11.196 -0.2650 -0.1944 -0.3805
  493TMC3     C 7331   4.544   0.019  11.572  0.2122 -0.2456  0.4690
  493TMC3     O 7332   4.506   4.630  11.561  0.0423 -0.3484 -0.8934
  493TMC3     H 7333   4.589   0.287  11.516 -1.9563 -0.2759 -1.0240
  493TMC3    H1 7334   4.587   4.629  11.351 -1.0180 -0.1979  1.9601
  493TMC3    H2 7335   4.632   0.239  11.094  1.3024 -0.1689 -0.1366
  493TMC3    C7 7336   4.494   0.014  11.112 -0.0022 -0.3549  0.2004
  493TMC3    C8 7337   4.664   0.405  11.322  0.7244 -0.5584  0.0638
  493TMC3    O1 7338   4.474   0.065  11.003  0.1021 -0.0917 -0.6757
  493TMC3    O2 7339   0.007   0.433  11.418 -0.5694  0.1684  0.6753
  494TMC3    C1 7340   4.563   1.862   0.379  0.1453 -0.2406 -0.3023
  494TMC3    C2 7341   4.642   1.806   0.475  0.2838  0.0190 -0.2029
  494TMC3    C3 7342   0.032   1.744   0.430  0.2943 -1.0551  0.0510
  494TMC3    C4 7343   4.582   1.846   0.245  0.2220  0.5023  0.7140
  494TMC3    C5 7344   4.704   1.792   0.204 -0.3610 -0.5045 -0.0338
  494TMC3    C6 7345   0.061   1.738   0.298 -0.3904  0.2798  0.2298
  494TMC3     C 7346   4.426   1.906   0.408 -0.7027  0.6561 -0.3103
  494TMC3     O 7347   4.347   1.897   0.314  0.0604 -0.1563  0.1625
  494TMC3     H 7348   4.630   1.816   0.582 -0.9642  0.5570 -0.4014
  494TMC3    H1 7349   4.510   1.894   0.180  2.8661  0.9609 -1.8415
  494TMC3    H2 7350   0.163   1.720   0.265 -0.4442 -1.6657  1.1347
  494TMC3    C7 7351   0.031   1.802   0.065 -0.0941  0.3439  0.2435
  494TMC3    C8 7352   0.102   1.669   0.525  0.0660 -0.1686  0.5865
  494TMC3    O1 7353   0.008   1.904   0.002 -0.0627  0.0286 -0.1207
  494TMC3    O2 7354   0.075   1.677   0.646  0.7568 -0.8026 -0.4919
  495TMC3    C1 7355   3.545   3.696  14.768 -0.0330  0.6760 -0.3854
  495TMC3    C2 7356   3.465   3.753  14.669 -0.1984  0.5448  0.1978
  495TMC3    C3 7357   3.384   3.862  14.694  1.2856 -0.3092  0.6142
  495TMC3    C4 7358   3.544   3.757  14.891 -0.2355  0.0820 -0.5890
  495TMC3    C5 7359   3.462   3.867  14.915 -0.1013  0.3882  0.1566
  495TMC3    C6 7360   3.377   3.921  14.815 -0.2519  0.0735  0.2896
  495TMC3     C 7361   3.504   3.561  14.781 -0.4576  0.5010 -0.1599
  495TMC3     O 7362   3.393   3.533  14.735 -0.3984 -0.4116 -0.0827
  495TMC3     H 7363   3.456   3.688  14.582 -0.7782 -0.5141  1.0574
  495TMC3    H1 7364   3.596   3.720  14.979 -1.2189  1.3843  0.5513
  495TMC3    H2 7365   3.306   4.003  14.823 -1.2784 -1.1095  3.2316
  495TMC3    C7 7366   3.401   3.847  15.043 -0.7142 -0.9124 -0.1646
  495TMC3    C8 7367   3.284   3.885  14.592 -0.7001 -0.0226 -0.3379
  495TMC3    O1 7368   3.475   3.849  15.140  0.0865  0.7177  0.5387
  495TMC3    O2 7369   3.173   3.912  14.641  0.5647 -0.4035 -0.3115
  496MPD2     C 7370   0.546   3.914  15.828 -0.1608  0.8252 -0.4454
  496MPD2    C1 7371   0.559   3.785  15.880  0.1963  0.2358  0.0544
  496MPD2    C2 7372   0.537   3.766  16.018  0.2128  0.9163 -0.8765
  496MPD2    C3 7373   0.499   3.875  16.102  0.4611 -0.0011 -0.2470
  496MPD2    C4 7374   0.503   4.000  16.049 -0.7068  0.6171  0.0273
  496MPD2    C5 7375   0.529   4.020  15.920  0.1978 -0.2596 -0.3706
  496MPD2     H 7376   0.548   3.666  16.059 -2.7025  0.6545 -0.7200
  496MPD2    H1 7377   0.491   4.083  16.119 -0.0631  1.4458 -0.8470
  496MPD2    H2 7378   0.571   3.937  15.725 -0.1488 -0.4335 -0.7270
  496MPD2    H3 7379   0.522   4.122  15.883 -0.8004  0.6603  2.3157
  496MPD2     N 7380   0.461   3.871  16.238 -0.8500 -0.2731  0.0603
  496MPD2    H5 7381   0.424   3.956  16.278 -1.0027 -0.8547  1.1547
  496MPD2    N1 7382   0.585   3.679  15.788 -0.1632  0.2413  0.2403
  496MPD2    H7 7383   0.600   3.707  15.691 -1.1978 -0.7742 -0.2279
  497TMC3    C1 7384   0.477   3.761  16.452 -0.3099  0.3646  0.8480
  497TMC3    C2 7385   0.460   3.651  16.530  0.3906  0.6366 -0.1941
  497TMC3    C3 7386   0.462   3.663  16.663  0.7464  0.2271 -0.6993
  497TMC3    C4 7387   0.481   3.883  16.505 -0.1708 -0.5915 -0.1945
  497TMC3    C5 7388   0.485   3.889  16.639 -0.5664  0.4710  0.3345
  497TMC3    C6 7389   0.474   3.787  16.723  0.3509 -0.3271  0.0213
  497TMC3     C 7390   0.464   3.749  16.306 -0.6173  0.5516  0.7094
  497TMC3     O 7391   0.472   3.631  16.265  0.2388 -0.2526  0.0159
  497TMC3     H 7392   0.459   3.554  16.482 -0.4446  0.6819 -0.2680
  497TMC3    H1 7393   0.492   3.978  16.454  0.5711 -0.2886  0.5356
  497TMC3    H2 7394   0.476   3.802  16.831 -1.5439 -0.8510  0.1252
  497TMC3    C7 7395   0.520   4.027  16.683  0.2364  0.8179 -0.5245
  497TMC3    C8 7396   0.415   3.553  16.749 -0.1335  0.1265  0.5414
  497TMC3    O1 7397   0.470   4.122  16.622 -0.1113  0.0085 -0.0689
  497TMC3    O2 7398   0.422   3.577  16.865  0.1383  0.1501  0.3436
  498MPD2     C 7399   1.753   3.940   9.860  0.1146 -0.2215  0.1843
  498MPD2    C1 7400   1.772   4.030   9.960  0.0764  1.1756  0.7810
  498MPD2    C2 7401   1.680   4.031  10.071 -0.6357  0.7740  0.6525
  498MPD2    C3 7402   1.573   3.942  10.082 -0.3853 -0.7873  0.1014
  498MPD2    C4 7403   1.559   3.851   9.976  0.7934 -0.0095  0.1922
  498MPD2    C5 7404   1.642   3.862   9.862  0.4553  0.4037 -0.5184
  498MPD2     H 7405   1.709   4.099  10.150  1.9872 -0.6259  0.8838
  498MPD2    H1 7406   1.476   3.784   9.955  0.4335 -0.4486  3.0152
  498MPD2    H2 7407   1.810   3.913   9.771 -1.7547  0.7769 -1.3095
  498MPD2    H3 7408   1.638   3.791   9.780 -1.1757 -0.6018  0.4249
  498MPD2     N 7409   1.491   3.946  10.195 -0.2799 -0.2921  0.4807
  498MPD2    H5 7410   1.525   3.993  10.277 -0.3587  0.4394  0.0904
  498MPD2    N1 7411   1.887   4.111   9.959  0.3248 -0.1332  0.0629
  498MPD2    H7 7412   1.889   4.188  10.026 -1.8412  0.2260 -0.2869
  499TMC3    C1 7413   2.074   4.215   9.873  0.9285 -0.2919 -0.7538
  499TMC3    C2 7414   2.204   4.190   9.845  0.8239 -0.4082 -0.0691
  499TMC3    C3 7415   2.279   4.294   9.807  0.1303  0.1315 -0.3581
  499TMC3    C4 7416   2.012   4.340   9.863  0.0826 -0.1102  0.3314
  499TMC3    C5 7417   2.099   4.443   9.830  0.2322  0.7650 -0.0980
  499TMC3    C6 7418   2.231   4.425   9.801  0.4436  0.0126 -0.5725
  499TMC3     C 7419   1.990   4.101   9.867  0.5369 -0.1277  0.1607
  499TMC3     O 7420   2.025   4.007   9.797 -0.0375 -0.8698  0.2828
  499TMC3     H 7421   2.232   4.086   9.849 -0.2171 -0.5748  2.9796
  499TMC3    H1 7422   1.904   4.345   9.873  0.0830 -0.8845  0.7830
  499TMC3    H2 7423   2.284   4.509   9.759  0.4952 -0.9918 -2.4899
  499TMC3    C7 7424   2.058   4.583   9.813 -0.1737  0.3338  1.0593
  499TMC3    C8 7425   2.425   4.291   9.798  0.2124  0.0267 -0.4614
  499TMC3    O1 7426   2.136   4.658   9.753  0.7697 -0.3899 -0.0087
  499TMC3    O2 7427   2.474   4.402   9.779  0.2801 -0.2027 -0.3069
  500MPD2     C 7428   3.527   1.267  10.043 -0.2375 -0.1161 -0.2737
  500MPD2    C1 7429   3.446   1.247  10.152  0.4456 -0.3381 -0.5033
  500MPD2    C2 7430   3.314   1.211  10.127  0.1761  0.1351  0.2132
  500MPD2    C3 7431   3.270   1.193   9.995  0.1733 -0.0001 -0.2022
  500MPD2    C4 7432   3.351   1.214   9.887  0.2414 -0.1462  0.1276
  500MPD2    C5 7433   3.479   1.247   9.910 -0.0633 -0.0090 -0.2798
  500MPD2     H 7434   3.243   1.216  10.208  0.2028  2.6761  0.0768
  500MPD2    H1 7435   3.318   1.217   9.784  0.3606  2.6935  0.1879
  500MPD2    H2 7436   3.627   1.306  10.060 -0.2973  1.4312 -3.5640
  500MPD2    H3 7437   3.533   1.276   9.821  1.3847  1.4466  1.0704
  500MPD2     N 7438   3.138   1.160   9.959  0.8700  0.0535  0.0145
  500MPD2    H5 7439   3.122   1.136   9.861 -0.6877 -0.2860  0.3577
  500MPD2    N1 7440   3.502   1.272  10.278 -0.2417  0.7051 -0.1254
  500MPD2    H7 7441   3.595   1.314  10.282  0.2417 -0.4003  0.1755
  501TMC3    C1 7442   3.521   1.300  10.509 -0.2536  0.3976 -0.2597
  501TMC3    C2 7443   3.567   1.430  10.491  0.4122  0.4644  0.8685
  501TMC3    C3 7444   3.604   1.502  10.606 -0.2512 -1.1351  0.3209
  501TMC3    C4 7445   3.496   1.236  10.628 -0.1029 -0.4310  0.0732
  501TMC3    C5 7446   3.529   1.308  10.735 -0.1479 -0.1695  0.3879
  501TMC3    C6 7447   3.582   1.435  10.729 -0.0686  0.3805 -0.4022
  501TMC3     C 7448   3.442   1.245  10.401  0.4561  0.0155 -0.1536
  501TMC3     O 7449   3.353   1.165  10.424  0.1716 -0.5710  0.0275
  501TMC3     H 7450   3.562   1.473  10.392  1.3410  0.9649  1.0422
  501TMC3    H1 7451   3.455   1.135  10.633 -1.4958  0.1594  0.5159
  501TMC3    H2 7452   3.605   1.487  10.821  0.4810 -1.3385  0.4307
  501TMC3    C7 7453   3.565   1.235  10.857 -0.0290  0.2644  0.2553
  501TMC3    C8 7454   3.669   1.629  10.609 -0.3160 -0.7604 -0.1202
  501TMC3    O1 7455   3.593   1.116  10.847 -0.4455  0.4776 -0.4023
  501TMC3    O2 7456   3.708   1.664  10.717 -0.1952 -0.2770  0.2893
  502TMC3    C1 7457   2.990   4.286  15.626 -0.2517  0.4004  0.1131
  502TMC3    C2 7458   2.984   4.398  15.544 -0.8218  0.2804  0.5728
  502TMC3    C3 7459   2.869   4.449  15.497  0.0002 -0.2861 -0.2976
  502TMC3    C4 7460   2.874   4.239  15.681  0.1365 -0.4283 -0.1386
  502TMC3    C5 7461   2.761   4.303  15.644  0.3551 -0.2268 -0.2523
  502TMC3    C6 7462   2.752   4.401  15.547  0.1357 -0.1593 -1.0039
  502TMC3     C 7463   3.115   4.266  15.696  0.4923 -0.2671  0.1887
  502TMC3     O 7464   3.214   4.306  15.636 -0.1515 -0.4475 -0.3624
  502TMC3     H 7465   3.073   4.452  15.515 -1.5642  1.5836  0.6972
  502TMC3    H1 7466   2.880   4.148  15.740 -0.2752 -0.6339 -0.4092
  502TMC3    H2 7467   2.660   4.441  15.506  1.6594  1.6415 -2.7057
  502TMC3    C7 7468   2.635   4.243  15.693 -0.1406 -0.4823 -0.0527
  502TMC3    C8 7469   2.865   4.568  15.417 -0.1300  0.0211  0.1398
  502TMC3    O1 7470   2.638   4.125  15.730  0.5963 -0.8617  0.3069
  502TMC3    O2 7471   2.963   4.598  15.351 -0.1571 -0.0795  0.3086
  503MPD2     C 7472   0.006   0.276  17.246  0.1317 -0.2908 -0.3633
  503MPD2    C1 7473   0.062   0.325  17.362 -0.0528 -0.2319  0.1422
  503MPD2    C2 7474   0.138   0.240  17.441 -0.4005  0.8296 -0.7968
  503MPD2    C3 7475   0.147   0.103  17.401 -0.4314 -0.0192  0.0779
  503MPD2    C4 7476   0.083   0.062  17.288  0.0559 -0.7085  0.1945
  503MPD2    C5 7477   0.008   0.146  17.215  0.2359  0.1724  0.2155
  503MPD2     H 7478   0.186   0.276  17.532 -1.6319 -2.1264  1.0202
  503MPD2    H1 7479   0.091   4.689  17.246 -0.6991 -0.2383 -1.0583
  503MPD2    H2 7480   4.672   0.344  17.188  0.0249  1.2774  1.6125
  503MPD2    H3 7481   4.689   0.111  17.124 -0.2005  1.5676 -0.1095
  503MPD2     N 7482   0.232   0.020  17.475  0.3870 -0.0295  0.1294
  503MPD2    H5 7483   0.275   0.073  17.550  1.7986 -0.9198 -0.0506
  503MPD2    N1 7484   0.057   0.461  17.389 -0.3097 -0.4503  0.1898
  503MPD2    H7 7485   0.105   0.492  17.473 -0.4748 -1.4244  0.6479
  504TMC3    C1 7486   0.392   4.590  17.529 -0.1673  0.0577  0.4259
  504TMC3    C2 7487   0.396   4.594  17.661  0.4522  0.0631 -0.4256
  504TMC3    C3 7488   0.516   4.548   0.019  0.1394 -0.1925 -0.0209
  504TMC3    C4 7489   0.495   4.533  17.454  0.6053 -0.6279 -0.5166
  504TMC3    C5 7490   0.614   4.502  17.520 -0.0503  0.2956 -0.2182
  504TMC3    C6 7491   0.630   4.511  17.658  0.4569  0.0922 -0.1625
  504TMC3     C 7492   0.272   4.619  17.452 -0.3970  1.0869 -0.1360
  504TMC3     O 7493   0.225   4.538  17.370 -0.0297  0.6801 -0.6736
  504TMC3     H 7494   0.305   4.602   0.009  0.5683  0.0679 -0.2424
  504TMC3    H1 7495   0.475   4.536  17.347 -1.3354 -0.9365 -0.1567
  504TMC3    H2 7496   0.709   4.464   0.006 -0.5881 -1.1559  0.2390
  504TMC3    C7 7497   0.728   4.533  17.423  0.1632  0.9251  0.0886
  504TMC3    C8 7498   0.492   4.496   0.151 -0.1628  0.0893 -0.2174
  504TMC3    O1 7499   0.711   4.610  17.331  0.2915  0.0309  0.2418
  504TMC3    O2 7500   0.372   4.479   0.174 -0.5500 -0.1864  0.0454
  505MPD2     C 7501   0.422   4.058  11.197 -0.0261 -0.7956  0.3809
  505MPD2    C1 7502   0.526   4.017  11.286 -0.2685 -0.5346 -0.5022
  505MPD2    C2 7503   0.624   4.103  11.336 -0.9628 -0.0680  0.1259
  505MPD2    C3 7504   0.626   4.236  11.288 -0.0506 -0.0077  0.1216
  505MPD2    C4 7505   0.518   4.274  11.210 -0.2806  0.2975 -0.0174
  505MPD2    C5 7506   0.424   4.188  11.165  0.1393  0.8419  0.1079
  505MPD2     H 7507   0.708   4.061  11.391 -0.7367 -0.8954 -0.8517
  505MPD2    H1 7508   0.515   4.377  11.175  0.1698  0.2485 -0.1969
  505MPD2    H2 7509   0.344   3.993  11.158 -0.0620  0.2505 -1.2723
  505MPD2    H3 7510   0.348   4.229  11.099  0.9693 -0.2986 -1.5585
  505MPD2     N 7511   0.732   4.331  11.324  0.1424 -0.9145 -0.2293
  505MPD2    H5 7512   0.721   4.429  11.298  2.7327 -0.7081 -0.5009
  505MPD2    N1 7513   0.529   3.878  11.303 -0.1542  0.0133 -0.1367
  505MPD2    H7 7514   0.479   3.820  11.236 -0.9751 -0.1008  0.5693
  506TMC3    C1 7515   0.617   3.674  11.363 -0.3022 -0.6914 -0.2087
  506TMC3    C2 7516   0.642   3.656  11.226 -0.3302 -0.0698 -0.3181
  506TMC3    C3 7517   0.728   3.559  11.189 -0.0258 -0.0265 -0.7480
  506TMC3    C4 7518   0.702   3.614  11.450 -0.1029  0.0576 -0.0775
  506TMC3    C5 7519   0.806   3.532  11.408  0.0944  0.5381  0.4133
  506TMC3    C6 7520   0.809   3.493  11.277  0.0438 -0.7101  0.3921
  506TMC3     C 7521   0.617   3.811  11.386 -0.0666 -0.3023  0.3977
  506TMC3     O 7522   0.696   3.849  11.468 -0.5580 -0.8125  0.0204
  506TMC3     H 7523   0.595   3.716  11.149  0.4076 -0.2068 -0.8783
  506TMC3    H1 7524   0.701   3.638  11.556 -2.2838  1.2802 -0.3721
  506TMC3    H2 7525   0.899   3.443  11.243  0.3855  0.1212  0.0761
  506TMC3    C7 7526   0.937   3.561  11.461  0.0727  0.3567  0.3765
  506TMC3    C8 7527   0.778   3.594  11.056  0.1539  0.7748 -0.4347
  506TMC3    O1 7528   1.031   3.488  11.442 -0.3284 -0.5244 -0.2210
  506TMC3    O2 7529   0.806   3.711  11.030 -0.3896  0.1864 -0.3465
  507TMC3    C1 7530   1.438   0.005  14.946 -0.2327 -0.1577  0.1944
  507TMC3    C2 7531   1.364   4.666  14.855 -0.5153 -0.6183  0.1428
  507TMC3    C3 7532   1.417   4.633  14.736  0.0229 -0.2293  0.5800
  507TMC3    C4 7533   1.561   0.059  14.917  0.3551 -0.0271  0.0173
  507TMC3    C5 7534   1.605   0.034  14.790  0.4986  0.2762 -0.8522
  507TMC3    C6 7535   1.544   4.675  14.702 -0.0362  0.3065 -0.1558
  507TMC3     C 7536   1.413   0.003  15.090 -0.0722 -0.4153  0.1238
  507TMC3     O 7537   1.497   0.057  15.158 -0.0667  0.6624  0.3454
  507TMC3     H 7538   1.267   4.624  14.882  0.0741  0.2433  3.6633
  507TMC3    H1 7539   1.631   0.112  14.979 -0.2902 -0.2573  0.9408
  507TMC3    H2 7540   1.596   4.660  14.608 -0.3093  1.0639 -0.4300
  507TMC3    C7 7541   1.598   0.160  14.721 -0.3733  0.9389 -0.6713
  507TMC3    C8 7542   1.316   4.641  14.629 -1.0060  0.0376  0.5666
  507TMC3    O1 7543   1.554   0.155  14.609  0.5047  0.3653 -0.2014
  507TMC3    O2 7544   1.226   4.722  14.659  0.2053  0.0197 -0.5848
  508MPD2     C 7545   1.700   2.451  16.438 -0.7268 -0.0833 -0.3609
  508MPD2    C1 7546   1.831   2.428  16.389  0.4698 -0.6973 -0.4518
  508MPD2    C2 7547   1.870   2.476  16.263  0.3867 -0.0945  0.7471
  508MPD2    C3 7548   1.773   2.535  16.177 -0.5201  0.5109  0.3876
  508MPD2    C4 7549   1.642   2.551  16.225 -0.5678  0.2889  0.4985
  508MPD2    C5 7550   1.604   2.513  16.354  0.0429  0.3043  0.2870
  508MPD2     H 7551   1.968   2.446  16.227  0.7024 -0.8278  2.2039
  508MPD2    H1 7552   1.566   2.599  16.165 -0.2325  0.1826 -0.0092
  508MPD2    H2 7553   1.676   2.416  16.538  2.5695 -0.5171  0.2804
  508MPD2    H3 7554   1.508   2.534  16.399  0.1630  1.6524 -0.0736
  508MPD2     N 7555   1.810   2.581  16.052  0.5858 -0.7463  0.8876
  508MPD2    H5 7556   1.907   2.563  16.028  0.2219  2.1398 -2.6634
  508MPD2    N1 7557   1.926   2.374  16.480  0.0578 -0.0131  0.2428
  508MPD2    H7 7558   1.894   2.341  16.571 -0.2747  0.1507  0.1857
  509TMC3    C1 7559   1.746   2.868  15.693 -0.3944  0.1488  0.7737
  509TMC3    C2 7560   1.866   2.930  15.711  0.3699  0.2303  0.6785
  509TMC3    C3 7561   1.948   2.867  15.796  0.5625  0.0648 -0.4630
  509TMC3    C4 7562   1.701   2.757  15.759  0.1064 -0.0724  0.5396
  509TMC3    C5 7563   1.789   2.710  15.853 -0.1165  0.6899  0.1391
  509TMC3    C6 7564   1.914   2.761  15.870 -0.2367 -0.2484 -0.6220
  509TMC3     C 7565   1.646   2.924  15.603 -0.4324 -0.5874  0.1219
  509TMC3     O 7566   1.524   2.898  15.618 -0.1519  0.1199  0.3540
  509TMC3     H 7567   1.876   3.032  15.677 -0.5024  0.1217  0.0848
  509TMC3    H1 7568   1.599   2.720  15.752  0.1049 -0.0505  0.4414
  509TMC3    H2 7569   1.977   2.730  15.952  0.8454  0.6703 -1.0979
  509TMC3    C7 7570   1.728   2.638  15.957  0.5015  0.0368 -0.1868
  509TMC3    C8 7571   2.088   2.906  15.814 -0.7433 -0.0700  0.2874
  509TMC3    O1 7572   1.604   2.622  15.947 -0.6018 -0.4052 -0.1525
  509TMC3    O2 7573   2.160   2.819  15.864  0.1545  0.1968  0.5708
  510MPD2     C 7574   4.676   4.298  14.974 -0.3435 -1.0181  0.4695
  510MPD2    C1 7575   0.007   4.232  15.074  0.2094  0.5453  0.4282
  510MPD2    C2 7576   0.136   4.179  15.053 -0.1756  0.3268  0.6404
  510MPD2    C3 7577   0.199   4.198  14.931  0.2390  0.2238 -0.1238
  510MPD2    C4 7578   0.140   4.276  14.835  0.0683 -0.0612  0.3342
  510MPD2    C5 7579   0.012   4.323  14.852  0.0441 -0.2100 -0.6365
  510MPD2     H 7580   0.187   4.127  15.133 -0.2088  0.6047  0.8397
  510MPD2    H1 7581   0.190   4.312  14.747 -3.2292 -1.6504 -2.2089
  510MPD2    H2 7582   4.585   4.354  14.996  1.2461  1.4304  0.8458
  510MPD2    H3 7583   4.702   4.393  14.778  2.9290  0.8749 -1.0454
  510MPD2     N 7584   0.332   4.142  14.904  0.4812  0.3158 -0.8373
  510MPD2    H5 7585   0.381   4.089  14.976 -0.3103 -0.9599 -1.2361
  510MPD2    N1 7586   4.646   4.195  15.184 -0.3033  0.2726  0.0837
  510MPD2    H7 7587   4.546   4.207  15.176 -0.2559  1.6122  1.3001
  511TMC3    C1 7588   4.588   4.062  15.376  0.2925 -0.1805  0.1033
  511TMC3    C2 7589   4.477   4.134  15.416  0.4297 -0.5523  0.2849
  511TMC3    C3 7590   4.389   4.068  15.505 -0.2056 -0.6929  0.4771
  511TMC3    C4 7591   4.604   3.925  15.409  0.5361 -0.3231 -0.2737
  511TMC3    C5 7592   4.506   3.866  15.485 -0.6158  0.2997  0.3699
  511TMC3    C6 7593   4.399   3.931  15.535 -0.3724 -0.8827 -0.3746
  511TMC3     C 7594   4.691   4.110  15.285  0.3126  0.1308 -0.1485
  511TMC3     O 7595   0.068   4.057  15.294  0.5652 -0.0352  0.2709
  511TMC3     H 7596   4.466   4.240  15.398  1.0891 -0.4855  0.2471
  511TMC3    H1 7597   4.697   3.880  15.377  0.6979  0.4276 -0.8611
  511TMC3    H2 7598   4.323   3.880  15.593 -1.2323  0.6480 -0.1581
  511TMC3    C7 7599   4.496   3.722  15.485  0.4175  0.1173 -0.3258
  511TMC3    C8 7600   4.320   4.158  15.599  0.4847  0.1204  0.3727
  511TMC3    O1 7601   4.434   3.683  15.580  0.8141  0.1258 -0.6486
  511TMC3    O2 7602   4.306   4.276  15.566  0.1302  0.4442 -0.0433
  512TMC3    C1 7603   3.557   3.437  13.581  0.8288 -0.3796  0.1407
  512TMC3    C2 7604   3.627   3.454  13.694  0.5367  0.6056  0.2748
  512TMC3    C3 7605   3.735   3.375  13.713 -0.1091  0.4368 -0.0493
  512TMC3    C4 7606   3.590   3.348  13.485 -0.4808  0.1511  0.0097
  512TMC3    C5 7607   3.701   3.273  13.507 -0.1326  0.1972  0.6135
  512TMC3    C6 7608   3.764   3.274  13.626  0.0365  0.0797 -0.1514
  512TMC3     C 7609   3.443   3.520  13.550  0.3353  0.1279  0.2450
  512TMC3     O 7610   3.420   3.535  13.429  0.2413 -0.1676 -0.1821
  512TMC3     H 7611   3.602   3.539  13.756 -0.9665  0.3466  0.0328
  512TMC3    H1 7612   3.527   3.329  13.398  1.5012  2.0356 -1.8383
  512TMC3    H2 7613   3.854   3.213  13.631 -0.5915 -0.7608  0.9889
  512TMC3    C7 7614   3.730   3.165  13.409  0.1135  0.2286 -0.2972
  512TMC3    C8 7615   3.812   3.367  13.832 -0.9174 -0.6100 -0.1090
  512TMC3    O1 7616   3.752   3.193  13.289 -0.1401  0.3518 -0.3666
  512TMC3    O2 7617   3.859   3.252  13.862  0.2909 -0.0651 -0.3624
  513MPD2     C 7618   0.720   2.901  13.761 -0.7124 -0.3241 -0.0707
  513MPD2    C1 7619   0.784   3.008  13.701 -0.0507 -0.2573  0.5166
  513MPD2    C2 7620   0.814   3.121  13.768  0.0791 -0.0676  0.3345
  513MPD2    C3 7621   0.779   3.123  13.903 -0.2636 -0.9606 -0.2099
  513MPD2    C4 7622   0.700   3.027  13.956  0.4177 -0.0804 -0.0736
  513MPD2    C5 7623   0.673   2.912  13.879  0.5022 -0.4310 -0.7120
  513MPD2     H 7624   0.879   3.195  13.722 -1.2524  1.1258  0.3962
  513MPD2    H1 7625   0.672   3.021  14.060  0.9238 -2.9822 -0.1137
  513MPD2    H2 7626   0.694   2.810  13.707 -0.6859 -0.1525 -0.3708
  513MPD2    H3 7627   0.622   2.825  13.919  0.6763 -0.6586 -0.9845
  513MPD2     N 7628   0.805   3.248  13.973 -0.8825 -0.3963 -0.5063
  513MPD2    H5 7629   0.855   3.322  13.924  0.7536 -2.1600 -1.5138
  513MPD2    N1 7630   0.819   3.007  13.560  0.0232  0.0344  0.1344
  513MPD2    H7 7631   0.875   3.087  13.532 -0.1890  0.5593  1.2032
  514TMC3    C1 7632   0.823   2.972  13.338  0.3586 -0.4102 -0.4223
  514TMC3    C2 7633   0.714   2.991  13.260  0.4358  0.1755 -0.4416
  514TMC3    C3 7634   0.728   3.105  13.185 -0.4351  1.1139  0.2014
  514TMC3    C4 7635   0.937   3.050  13.332 -1.0179  0.9299 -0.5376
  514TMC3    C5 7636   0.935   3.164  13.260 -0.2376 -0.3107  0.6880
  514TMC3    C6 7637   0.832   3.193  13.180 -0.0035 -0.1915 -1.2851
  514TMC3     C 7638   0.783   2.920  13.462 -0.1463 -0.0600  0.8823
  514TMC3     O 7639   0.694   2.836  13.458  0.2742 -0.1003 -0.2156
  514TMC3     H 7640   0.624   2.930  13.259 -1.1284  2.4575  0.2190
  514TMC3    H1 7641   1.022   3.025  13.394 -1.6165 -0.6255 -0.3499
  514TMC3    H2 7642   0.833   3.279  13.114  0.9112 -1.0748 -2.4198
  514TMC3    C7 7643   0.968   3.264  13.361 -0.4893  0.1389 -0.2148
  514TMC3    C8 7644   0.606   3.152  13.125 -1.3627 -0.0437  0.4611
  514TMC3    O1 7645   0.996   3.225  13.470 -0.0770  0.1196 -0.3837
  514TMC3    O2 7646   0.515   3.181  13.200  0.3192 -0.6977  0.4023
  515MPD2     C 7647   3.834   0.803  14.593  0.5567 -0.2359 -0.5884
  515MPD2    C1 7648   3.895   0.689  14.625  0.1764 -0.0493  0.2839
  515MPD2    C2 7649   4.001   0.689  14.713 -0.2313  0.0898 -0.5447
  515MPD2    C3 7650   4.055   0.805  14.769 -0.1421  0.8141  0.7748
  515MPD2    C4 7651   3.986   0.920  14.740  0.1446 -0.1722 -0.3162
  515MPD2    C5 7652   3.882   0.913  14.654  0.2035  0.7178 -0.4122
  515MPD2     H 7653   4.054   0.595  14.728 -0.1404  0.1272 -0.6331
  515MPD2    H1 7654   4.022   1.013  14.781 -0.4780 -0.0549 -0.0382
  515MPD2    H2 7655   3.737   0.804  14.545 -0.4858 -0.2764  1.5022
  515MPD2    H3 7656   3.824   1.000  14.624 -0.9084  0.0160 -0.3090
  515MPD2     N 7657   4.176   0.808  14.848 -0.7236  0.5742 -0.0442
  515MPD2    H5 7658   4.165   0.869  14.928 -0.4756 -0.3190  0.6766
  515MPD2    N1 7659   3.851   0.565  14.572  0.0156  0.0585  0.0629
  515MPD2    H7 7660   3.792   0.571  14.489  1.7984  3.4649 -0.9650
  516TMC3    C1 7661   3.802   0.321  14.587  0.0885 -0.1882  0.7033
  516TMC3    C2 7662   3.787   0.312  14.453 -0.4833 -0.1598  0.0040
  516TMC3    C3 7663   3.786   0.194  14.393 -0.5256 -0.1120  1.0215
  516TMC3    C4 7664   3.811   0.218  14.672 -0.2610 -0.5348  0.2679
  516TMC3    C5 7665   3.803   0.093  14.603 -0.5601 -0.0303 -0.0174
  516TMC3    C6 7666   3.786   0.082  14.468 -0.7647  0.1625  0.1785
  516TMC3     C 7667   3.848   0.450  14.650  0.1627  0.8183 -0.2938
  516TMC3     O 7668   3.874   0.443  14.769  0.2150 -0.1795  0.0682
  516TMC3     H 7669   3.774   0.400  14.391 -1.3275  0.7981  1.5721
  516TMC3    H1 7670   3.828   0.229  14.778 -1.6532  0.4085  0.3908
  516TMC3    H2 7671   3.793   4.714  14.417  1.6457  0.8386 -0.7680
  516TMC3    C7 7672   3.779   4.707  14.684 -0.5921 -0.2049  0.0822
  516TMC3    C8 7673   3.718   0.177  14.267  0.2461  0.1929  0.2749
  516TMC3    O1 7674   3.815   4.720  14.806 -0.0781  0.4828  0.4535
  516TMC3    O2 7675   3.628   0.094  14.255  0.6537 -0.2556 -0.1675
  517MPD2     C 7676   3.117   2.487  17.380 -0.0423  0.3636  0.9060
  517MPD2    C1 7677   3.143   2.413  17.493  0.2244 -0.9653  0.5218
  517MPD2    C2 7678   3.153   2.478  17.617 -0.3786 -0.2273 -0.1333
  517MPD2    C3 7679   3.116   2.610  17.630  0.2042  0.4214 -0.0372
  517MPD2    C4 7680   3.077   2.681  17.524  0.3987 -0.2066  0.0344
  517MPD2    C5 7681   3.089   2.618  17.402 -0.5402 -0.2823  0.7804
  517MPD2     H 7682   3.194   2.422  17.701  0.0666  0.1546 -0.0940
  517MPD2    H1 7683   3.040   2.783  17.530  1.2378 -0.0303  2.1047
  517MPD2    H2 7684   3.141   2.452  17.280 -0.7990 -0.4731  1.0145
  517MPD2    H3 7685   3.063   2.666  17.309  0.2034  0.7402  1.0948
  517MPD2     N 7686   3.119   2.683   0.048  0.3487 -0.2327 -0.0328
  517MPD2    H5 7687   3.090   2.780   0.041 -1.2952 -0.6727  0.8458
  517MPD2    N1 7688   3.185   2.279  17.500 -0.1356 -0.2369  0.2565
  517MPD2    H7 7689   3.210   2.236  17.588  1.0950 -0.2397 -0.0913
  518TMC3    C1 7690   3.235   2.060  17.440 -0.4018  0.1008 -0.3922
  518TMC3    C2 7691   3.179   1.941  17.401  0.5071  0.3966 -0.1261
  518TMC3    C3 7692   3.251   1.832  17.442 -0.1742 -0.6547 -0.0892
  518TMC3    C4 7693   3.349   2.070  17.510  0.1607 -0.0156  0.3665
  518TMC3    C5 7694   3.421   1.961  17.545 -0.3528  0.1583 -0.0723
  518TMC3    C6 7695   3.367   1.838  17.515 -0.2419 -0.0433 -0.7085
  518TMC3     C 7696   3.171   2.185  17.400 -0.4999  0.4154 -0.2779
  518TMC3     O 7697   3.129   2.200  17.283 -0.7114  0.1843 -0.1700
  518TMC3     H 7698   3.085   1.927  17.348  1.5857 -2.2074 -1.3478
  518TMC3    H1 7699   3.381   2.170  17.535 -1.3500  0.8858 -1.3163
  518TMC3    H2 7700   3.422   1.744  17.522 -1.4434 -0.5589  1.8634
  518TMC3    C7 7701   3.518   1.974  17.639 -0.1698  0.5638  0.3036
  518TMC3    C8 7702   3.224   1.706  17.381  0.0181 -0.2448 -0.2846
  518TMC3    O1 7703   3.513   2.072  17.708  0.1287  0.0627  0.1942
  518TMC3    O2 7704   3.269   1.612  17.448  0.6669 -0.2911 -0.1833
  519MPD2     C 7705   0.223   0.463  14.570  0.0701 -0.0249 -0.6170
  519MPD2    C1 7706   0.165   0.434  14.455 -0.7890  0.1152  0.4826
  519MPD2    C2 7707   0.160   0.305  14.413  0.1038 -0.6465 -0.4533
  519MPD2    C3 7708   0.217   0.205  14.492  0.3304  0.0290  0.1777
  519MPD2    C4 7709   0.288   0.238  14.602  0.1394 -0.2903  0.3177
  519MPD2    C5 7710   0.284   0.363  14.643  0.2549 -0.6606 -0.4375
  519MPD2     H 7711   0.112   0.276  14.320 -0.6644  2.4171 -1.0096
  519MPD2    H1 7712   0.336   0.161  14.662 -0.0893 -1.6795 -1.2748
  519MPD2    H2 7713   0.219   0.558  14.622 -1.5420 -0.4003 -0.0692
  519MPD2    H3 7714   0.320   0.394  14.740  1.2257  1.2924 -1.4198
  519MPD2     N 7715   0.231   0.077  14.434 -0.2388 -0.0041 -1.4070
  519MPD2    H5 7716   0.306   0.020  14.471  1.7215  2.8719 -1.0473
  519MPD2    N1 7717   0.095   0.537  14.375  0.3773  0.0798 -0.9479
  519MPD2    H7 7718   0.029   0.510  14.303 -1.1855  0.4469  0.3501
  520TMC3    C1 7719   0.207   4.630  14.282 -0.0622  0.0495 -0.8742
  520TMC3    C2 7720   0.149   4.591  14.164  0.5502 -0.0752 -0.4705
  520TMC3    C3 7721   0.231   4.514  14.079  0.6925 -0.0615 -0.3107
  520TMC3    C4 7722   0.323   4.577  14.334 -0.0408 -1.1989  0.0814
  520TMC3    C5 7723   0.387   4.485  14.255 -0.2225  0.6578 -0.4645
  520TMC3    C6 7724   0.353   4.458  14.126 -0.0750 -0.8441 -0.5401
  520TMC3     C 7725   0.155   0.027  14.335 -0.6045  0.0841 -0.2902
  520TMC3     O 7726   0.050   0.071  14.282  0.1965  0.5476 -0.4511
  520TMC3     H 7727   0.068   4.649  14.122 -0.8881  0.1387  2.5835
  520TMC3    H1 7728   0.376   4.609  14.423  0.3689 -0.2949 -0.4837
  520TMC3    H2 7729   0.423   4.405  14.062 -0.1804 -2.1984  0.4773
  520TMC3    C7 7730   0.524   4.454  14.286 -0.3155  0.6925  0.0005
  520TMC3    C8 7731   0.237   4.540  13.933  0.2973  0.3803  0.0647
  520TMC3    O1 7732   0.554   4.441  14.406 -0.1295 -0.5691 -0.5459
  520TMC3    O2 7733   0.342   4.514  13.880 -0.0732  0.0278 -0.3358
  521MPD2     C 7734   1.307   2.924   0.295 -0.8896 -0.0220 -0.0404
  521MPD2    C1 7735   1.262   2.900   0.169  1.8701 -0.2542  0.3041
  521MPD2    C2 7736   1.356   2.883   0.070  0.1691 -0.4633 -0.2490
  521MPD2    C3 7737   1.489   2.907   0.086 -0.4363 -0.2773  0.5178
  521MPD2    C4 7738   1.529   2.926   0.219  0.5063 -0.7713 -0.8153
  521MPD2    C5 7739   1.439   2.929   0.319  0.0540 -0.1836 -0.2288
  521MPD2     H 7740   1.323   2.860  17.679 -2.5235  0.3118  0.4684
  521MPD2    H1 7741   1.636   2.933   0.234  0.5178 -2.2911 -0.2276
  521MPD2    H2 7742   1.234   2.933   0.376  2.7458  3.1717  2.8640
  521MPD2    H3 7743   1.474   2.952   0.420 -0.4881 -0.5240  0.0355
  521MPD2     N 7744   1.569   2.898  17.676 -0.3921 -0.3410  0.4893
  521MPD2    H5 7745   1.529   2.857  17.593 -0.3491  0.8219 -0.1091
  521MPD2    N1 7746   1.124   2.886   0.140  0.1583 -0.5962 -0.1390
  521MPD2    H7 7747   1.057   2.925   0.206  0.3254  1.3406 -1.1063
  522TMC3    C1 7748   1.763   2.915  17.551  0.4189 -0.6359 -0.2653
  522TMC3    C2 7749   1.872   2.829  17.553  0.8215  0.1358 -0.1479
  522TMC3    C3 7750   1.890   2.752  17.448 -0.0788 -0.7514  0.3843
  522TMC3    C4 7751   1.671   2.921  17.445  0.3993  0.1958 -0.0533
  522TMC3    C5 7752   1.702   2.838  17.339  1.0923  0.0838  0.0593
  522TMC3    C6 7753   1.808   2.756  17.342  0.5973  0.2223 -0.1400
  522TMC3     C 7754   1.703   2.929  17.677  0.4427  0.6952  0.3229
  522TMC3     O 7755   1.779   2.954   0.063 -0.2687  0.4892 -0.4850
  522TMC3     H 7756   1.932   2.821  17.644  2.5067 -0.8137 -1.3398
  522TMC3    H1 7757   1.592   2.995  17.440 -1.2435 -1.5599  0.0010
  522TMC3    H2 7758   1.816   2.687  17.259 -1.5919 -0.0702 -0.1040
  522TMC3    C7 7759   1.659   2.870  17.201  0.4554  0.7115  0.9867
  522TMC3    C8 7760   1.988   2.645  17.453  1.0210 -0.1225 -0.1931
  522TMC3    O1 7761   1.740   2.850  17.111  0.0604  0.0028 -0.4072
  522TMC3    O2 7762   2.072   2.661  17.543 -0.4096 -0.0177 -0.7275
  523MPD2     C 7763   3.734   2.652  10.487  0.2520 -0.3270  0.4340
  523MPD2    C1 7764   3.778   2.593  10.370 -0.4275 -0.3310  0.1735
  523MPD2    C2 7765   3.741   2.655  10.249 -0.1524 -0.0692  0.5635
  523MPD2    C3 7766   3.665   2.772  10.252  0.2737  0.0505  0.0492
  523MPD2    C4 7767   3.638   2.835  10.368  0.7395 -0.3578  0.0901
  523MPD2    C5 7768   3.668   2.775  10.485  0.1654  0.1253 -0.0357
  523MPD2     H 7769   3.773   2.611  10.155 -0.5699  1.0518 -0.1012
  523MPD2    H1 7770   3.589   2.931  10.360 -1.2081 -1.4608 -1.2871
  523MPD2    H2 7771   3.756   2.619  10.588  1.8094  1.3363  0.6441
  523MPD2    H3 7772   3.639   2.816  10.581 -0.3684 -1.0414  0.3019
  523MPD2     N 7773   3.613   2.828  10.125  0.3841  0.1860 -0.0900
  523MPD2    H5 7774   3.567   2.918  10.135 -2.0499 -1.0733 -0.0614
  523MPD2    N1 7775   3.856   2.472  10.373 -0.1864  0.8573 -0.3325
  523MPD2    H7 7776   3.858   2.422  10.461 -0.9501  0.3374 -0.6074
  524TMC3    C1 7777   3.500   2.813   9.911 -0.3577 -0.4290  0.4810
  524TMC3    C2 7778   3.429   2.731   9.826 -1.0421  0.0919  0.0412
  524TMC3    C3 7779   3.312   2.780   9.770  0.1237  0.2934  0.5107
  524TMC3    C4 7780   3.470   2.944   9.932  0.4143  0.4579 -0.6156
  524TMC3    C5 7781   3.358   2.987   9.864 -0.3929  0.2377  0.2460
  524TMC3    C6 7782   3.273   2.912   9.790 -0.0791 -0.2921 -0.3966
  524TMC3     C 7783   3.600   2.760  10.006 -0.2112 -0.2574 -0.2193
  524TMC3     O 7784   3.647   2.647   9.976 -0.0491  0.2338 -0.4539
  524TMC3     H 7785   3.450   2.624   9.819 -3.0819 -0.1798 -1.6998
  524TMC3    H1 7786   3.536   3.008   9.989  1.6950 -2.1552  0.8515
  524TMC3    H2 7787   3.176   2.946   9.757  0.2444 -0.0758 -1.1328
  524TMC3    C7 7788   3.319   3.126   9.887  0.0871 -1.0591 -0.1516
  524TMC3    C8 7789   3.217   2.686   9.706  0.2775  0.2763 -0.4671
  524TMC3    O1 7790   3.373   3.194   9.975 -0.1414 -0.3238  0.1102
  524TMC3    O2 7791   3.108   2.738   9.699 -0.2536  0.4622 -0.4571
  525MPD2     C 7792   1.681   4.386  14.470  0.1480 -0.0848  0.3924
  525MPD2    C1 7793   1.775   4.434  14.557  0.0338 -0.1875  0.0758
  525MPD2    C2 7794   1.832   4.556  14.530  0.5359 -0.6439  0.0046
  525MPD2    C3 7795   1.775   4.643  14.437  0.2601  0.8820  0.0351
  525MPD2    C4 7796   1.665   4.602  14.361 -0.6020  0.0447  0.3893
  525MPD2    C5 7797   1.629   4.469  14.375  0.2505  0.2080  0.1798
  525MPD2     H 7798   1.918   4.575  14.594  0.7232  2.7428 -1.2586
  525MPD2    H1 7799   1.607   4.669  14.298 -1.8515 -2.7699 -1.4790
  525MPD2    H2 7800   1.637   4.289  14.491  0.4304 -0.4145 -0.5263
  525MPD2    H3 7801   1.543   4.429  14.323  1.3929 -4.1022  1.5945
  525MPD2     N 7802   1.827   0.044  14.417  0.1471 -0.2493  0.1058
  525MPD2    H5 7803   1.764   0.109  14.373 -1.0902 -1.0153  0.7528
  525MPD2    N1 7804   1.824   4.355  14.656  0.5430 -0.3796  0.6437
  525MPD2    H7 7805   1.919   4.372  14.689  0.7596  1.0788 -0.7146
  526TMC3    C1 7806   1.795   4.186  14.829  0.5065  0.2452 -0.2815
  526TMC3    C2 7807   1.727   4.139  14.941  0.4421 -0.4034 -0.4593
  526TMC3    C3 7808   1.797   4.079  15.041 -0.2227  0.5680  0.5617
  526TMC3    C4 7809   1.930   4.174  14.819 -0.1434 -0.8307 -0.5658
  526TMC3    C5 7810   1.997   4.138  14.933 -0.2639  0.1445  0.3414
  526TMC3    C6 7811   1.934   4.100  15.050  0.0717 -0.5457 -0.0277
  526TMC3     C 7812   1.734   4.272  14.731 -0.2276  0.5490  0.2912
  526TMC3     O 7813   1.613   4.266  14.731 -0.0825 -0.3602 -0.3968
  526TMC3     H 7814   1.620   4.155  14.948  0.3068 -1.8428  0.7937
  526TMC3    H1 7815   1.981   4.178  14.723  0.0677  1.1146 -0.3783
  526TMC3    H2 7816   1.993   4.067  15.135 -1.1894  0.0900  1.0832
  526TMC3    C7 7817   2.144   4.142  14.938  0.6465  0.4021 -0.0420
  526TMC3    C8 7818   1.722   4.070  15.168 -0.3621 -0.0638 -0.8090
  526TMC3    O1 7819   2.190   4.138  15.053  0.3889 -0.4769 -0.3887
  526TMC3    O2 7820   1.790   4.083  15.266  0.0799 -0.9614 -0.4305
  527MPD2     C 7821   0.593   2.689   0.699 -0.1775  0.6761 -0.2000
  527MPD2    C1 7822   0.633   2.656   0.825 -0.2063  0.2667 -0.4866
  527MPD2    C2 7823   0.739   2.571   0.837 -0.6221 -0.3660 -0.4166
  527MPD2    C3 7824   0.804   2.524   0.730  0.6041  0.1384  0.0530
  527MPD2    C4 7825   0.774   2.569   0.605 -0.0669  0.5748  0.2369
  527MPD2    C5 7826   0.666   2.647   0.589 -0.0980 -0.8716 -0.0428
  527MPD2     H 7827   0.783   2.537   0.930 -0.8948 -0.3418 -0.2766
  527MPD2    H1 7828   0.822   2.536   0.513 -1.2289 -0.4283 -0.0016
  527MPD2    H2 7829   0.504   2.749   0.685  0.3060  1.4345 -0.0528
  527MPD2    H3 7830   0.632   2.663   0.487 -0.5516 -1.2467  0.0511
  527MPD2     N 7831   0.912   2.438   0.755  0.2333 -0.2548  0.2522
  527MPD2    H5 7832   0.921   2.401   0.849  1.0990 -0.5092  0.0705
  527MPD2    N1 7833   0.572   2.698   0.948  0.3179 -0.5344  0.1196
  527MPD2    H7 7834   0.610   2.658   1.033  1.4076 -0.3255 -0.2613
  528TMC3    C1 7835   0.403   2.774   1.093 -0.2577 -0.5389  0.4145
  528TMC3    C2 7836   0.457   2.687   1.187  0.4227 -0.4668  0.9602
  528TMC3    C3 7837   0.387   2.672   1.303 -0.3177 -0.6479  0.2999
  528TMC3    C4 7838   0.277   2.820   1.103  0.0444 -0.0512 -0.2577
  528TMC3    C5 7839   0.204   2.784   1.212 -0.8711  0.1220  0.1386
  528TMC3    C6 7840   0.260   2.720   1.317 -0.8967  0.0319  0.2122
  528TMC3     C 7841   0.462   2.779   0.958  0.0660 -0.4174  0.0304
  528TMC3     O 7842   0.386   2.814   0.867  0.0244 -0.1887 -0.7314
  528TMC3     H 7843   0.563   2.666   1.191  0.0524 -2.2656  1.3947
  528TMC3    H1 7844   0.233   2.885   1.028 -1.5651  0.1767  0.8794
  528TMC3    H2 7845   0.200   2.688   1.401  2.1182  0.6666  2.6293
  528TMC3    C7 7846   0.074   2.840   1.231  0.5577 -0.2128 -0.6093
  528TMC3    C8 7847   0.443   2.599   1.420 -0.3353 -0.0382  0.1246
  528TMC3    O1 7848   4.722   2.769   1.294 -0.1145  0.0489 -0.0760
  528TMC3    O2 7849   0.380   2.616   1.524 -0.1499 -0.3521  0.3503
  529MPD2     C 7850   1.713   1.568   0.384  0.1716  0.2531  0.1062
  529MPD2    C1 7851   1.706   1.436   0.350 -0.1682  0.0383  0.4004
  529MPD2    C2 7852   1.627   1.401   0.239  0.0361 -0.2505 -0.1657
  529MPD2    C3 7853   1.555   1.497   0.169  0.1252 -0.5004 -0.4285
  529MPD2    C4 7854   1.561   1.623   0.221  0.8583  0.4177 -0.0137
  529MPD2    C5 7855   1.639   1.661   0.322  0.4396 -0.5217  0.9198
  529MPD2     H 7856   1.632   1.298   0.207  1.6977 -0.2084 -0.0083
  529MPD2    H1 7857   1.508   1.707   0.176 -1.1669  0.4655  2.4354
  529MPD2    H2 7858   1.783   1.605   0.459 -0.4246 -0.0272  0.8025
  529MPD2    H3 7859   1.631   1.762   0.362 -2.4452 -0.6511  0.6450
  529MPD2     N 7860   1.475   1.477   0.054 -0.6032 -0.3491  0.1175
  529MPD2    H5 7861   1.416   1.556   0.030  0.5719  0.7217  0.7822
  529MPD2    N1 7862   1.780   1.332   0.404  0.3825  0.1917  0.4880
  529MPD2    H7 7863   1.755   1.242   0.363 -0.9474 -0.4296  2.6731
  530TMC3    C1 7864   1.919   1.221   0.566  0.5126  0.3903 -0.1135
  530TMC3    C2 7865   2.025   1.222   0.651  0.0827  0.1232  0.6605
  530TMC3    C3 7866   2.046   1.117   0.737  0.1306  0.2456 -0.6441
  530TMC3    C4 7867   1.832   1.112   0.572 -0.0360 -0.2241 -0.0626
  530TMC3    C5 7868   1.853   1.006   0.655 -0.2965  0.3899 -0.1063
  530TMC3    C6 7869   1.958   1.010   0.750  0.1292  0.3733 -0.3531
  530TMC3     C 7870   1.876   1.348   0.508 -0.3163 -0.2794 -0.0071
  530TMC3     O 7871   1.916   1.452   0.553 -0.0127 -0.2265  0.4051
  530TMC3     H 7872   2.086   1.312   0.655 -2.0062  1.5321  0.4006
  530TMC3    H1 7873   1.749   1.104   0.503 -0.0125 -0.1824 -0.0954
  530TMC3    H2 7874   1.976   0.942   0.832  2.4762  0.3860 -0.8327
  530TMC3    C7 7875   1.754   0.899   0.652  0.4353  0.6718 -0.2089
  530TMC3    C8 7876   2.136   1.148   0.846 -0.5342  0.7223  0.1869
  530TMC3    O1 7877   1.655   0.913   0.576  0.3026 -0.3464 -0.2007
  530TMC3    O2 7878   2.152   1.265   0.864 -0.2307 -0.3695  0.1592
  531MPD2     C 7879   1.110   3.707  13.557  0.0866  1.2027 -0.7443
  531MPD2    C1 7880   1.052   3.607  13.628  0.0604 -0.1259  0.4138
  531MPD2    C2 7881   1.009   3.498  13.545 -0.6475 -0.1191  0.3212
  531MPD2    C3 7882   1.009   3.506  13.406 -0.3508 -0.2056 -0.0444
  531MPD2    C4 7883   1.064   3.619  13.346 -0.3154  0.5615  0.1897
  531MPD2    C5 7884   1.118   3.714  13.423 -0.1452  0.6531  0.3998
  531MPD2     H 7885   0.959   3.409  13.582 -0.0475 -0.0303  1.3383
  531MPD2    H1 7886   1.061   3.624  13.238  0.7186 -1.0294  0.0874
  531MPD2    H2 7887   1.153   3.792  13.609 -0.8366  1.7114 -0.8179
  531MPD2    H3 7888   1.167   3.799  13.375 -1.4315  0.9425 -0.4184
  531MPD2     N 7889   0.982   3.395  13.317  0.2477 -0.2421 -0.0414
  531MPD2    H5 7890   0.964   3.414  13.219  2.0879  0.4128 -0.2554
  531MPD2    N1 7891   1.034   3.615  13.771 -0.4471 -0.0507 -0.8216
  531MPD2    H7 7892   1.083   3.682  13.830 -2.9236  0.8767  0.1551
  532TMC3    C1 7893   0.930   3.558  13.968  0.4548  0.0869  0.8679
  532TMC3    C2 7894   0.834   3.487  14.028  0.2576 -0.4220 -0.3513
  532TMC3    C3 7895   0.863   3.402  14.132  0.1247 -0.0257 -0.1012
  532TMC3    C4 7896   1.056   3.561  14.024  0.0186  0.2490 -0.4784
  532TMC3    C5 7897   1.089   3.463  14.113 -0.0627 -0.5712 -0.3046
  532TMC3    C6 7898   0.994   3.387  14.176 -0.2777 -1.2660 -0.2790
  532TMC3     C 7899   0.936   3.537  13.830 -0.6317  0.1226 -0.2759
  532TMC3     O 7900   0.846   3.477  13.771  0.0678  0.0244  0.5086
  532TMC3     H 7901   0.740   3.476  13.975 -1.0467  0.2912  1.8252
  532TMC3    H1 7902   1.132   3.632  13.993 -0.3520  0.4591 -0.9112
  532TMC3    H2 7903   1.024   3.307  14.242  1.0631  1.0032  1.8753
  532TMC3    C7 7904   1.228   3.444  14.155  0.8522  0.0769  0.0254
  532TMC3    C8 7905   0.803   3.270  14.113  0.2665  0.7087  0.0945
  532TMC3    O1 7906   1.251   3.444  14.277 -0.1533  0.2242 -0.4643
  532TMC3    O2 7907   0.768   3.203  14.208 -0.1413 -0.2070  0.0616
  533TMC3    C1 7908   1.973   0.228  14.436  0.5876 -0.0742 -0.2247
  533TMC3    C2 7909   2.106   0.258  14.429 -0.1663  0.3568 -0.4457
  533TMC3    C3 7910   2.152   0.366  14.500 -0.3841 -0.3174  0.0476
  533TMC3    C4 7911   1.894   0.291  14.532 -0.0487 -0.2001  0.6842
  533TMC3    C5 7912   1.957   0.374  14.619  0.4100  1.0415 -0.0573
  533TMC3    C6 7913   2.072   0.434  14.582  0.3574  0.4875  0.4159
  533TMC3     C 7914   1.959   0.084  14.439  0.3829  0.2221  0.0517
  533TMC3     O 7915   2.057   0.013  14.470  0.1642  0.0818 -0.2256
  533TMC3     H 7916   2.178   0.195  14.378 -1.0182 -0.5494 -0.5427
  533TMC3    H1 7917   1.796   0.251  14.555 -0.7363 -0.1856 -2.2404
  533TMC3    H2 7918   2.109   0.527  14.622  0.4968  0.9557 -0.8128
  533TMC3    C7 7919   1.946   0.333  14.751 -0.5087  0.0133  0.5516
  533TMC3    C8 7920   2.291   0.400  14.504  0.8132  0.3247 -0.2689
  533TMC3    O1 7921   1.907   0.217  14.765  0.1976  0.6083  0.3706
  533TMC3    O2 7922   2.331   0.466  14.598  0.5832  0.3234 -0.1303
  534MPD2     C 7923   0.224   1.161   1.686 -0.2745 -0.4545 -0.1492
  534MPD2    C1 7924   0.162   1.273   1.633 -0.1761 -0.0264 -0.0866
  534MPD2    C2 7925   0.056   1.253   1.547 -0.1131  0.5680  0.7950
  534MPD2    C3 7926   0.028   1.127   1.495 -0.3687  0.4102  0.1655
  534MPD2    C4 7927   0.094   1.018   1.541 -0.4492  0.2551  0.5059
  534MPD2    C5 7928   0.191   1.042   1.637 -0.3311  0.0081 -0.0992
  534MPD2     H 7929   0.014   1.346   1.510 -1.0675 -1.3102 -2.8130
  534MPD2    H1 7930   0.073   0.919   1.502 -0.2176  0.5915 -0.4595
  534MPD2    H2 7931   0.302   1.159   1.761  1.0060  2.4731 -1.4037
  534MPD2    H3 7932   0.237   0.956   1.684  1.7694  0.3913 -1.4758
  534MPD2     N 7933   4.669   1.117   1.385  0.0639 -0.4514  0.3032
  534MPD2    H5 7934   4.670   1.043   1.316 -0.1553 -1.8560  1.8052
  534MPD2    N1 7935   0.201   1.408   1.661 -0.0519 -0.3630  0.7250
  534MPD2    H7 7936   0.151   1.480   1.610  1.6053  0.8891  0.8697
  535TMC3    C1 7937   4.511   1.207   1.230 -0.3644 -0.8627  0.1452
  535TMC3    C2 7938   4.378   1.237   1.222 -0.1707  0.8084  0.7827
  535TMC3    C3 7939   4.335   1.254   1.093  0.1206 -0.3352 -0.0824
  535TMC3    C4 7940   4.597   1.201   1.125 -0.1089 -0.3213  0.6096
  535TMC3    C5 7941   4.546   1.216   1.004  0.3145  0.4910  0.1839
  535TMC3    C6 7942   4.415   1.236   0.980 -0.3501 -0.6119 -0.0544
  535TMC3     C 7943   4.569   1.214   1.361  0.0653 -0.1809 -0.4482
  535TMC3     O 7944   4.529   1.311   1.426  0.2103  0.1744 -0.5183
  535TMC3     H 7945   4.320   1.234   1.313  0.4476  2.2004  1.2249
  535TMC3    H1 7946   4.704   1.191   1.137 -0.1607 -1.1067  0.4124
  535TMC3    H2 7947   4.368   1.251   0.883  1.2056  1.4738 -0.4830
  535TMC3    C7 7948   4.639   1.206   0.906 -0.4091 -0.4859 -0.2015
  535TMC3    C8 7949   4.192   1.287   1.069 -0.0078 -0.6663 -0.1795
  535TMC3    O1 7950   0.019   1.269   0.914 -0.2641 -0.6005 -0.4984
  535TMC3    O2 7951   4.132   1.225   0.978  0.2170  0.4707 -0.0169
  536MPD2     C 7952   3.445   4.504  17.099  0.0912 -0.2583  0.3900
  536MPD2    C1 7953   3.376   4.387  17.113 -0.1546  0.3642  0.1958
  536MPD2    C2 7954   3.306   4.332  17.010  0.3363  0.1631 -0.4195
  536MPD2    C3 7955   3.290   4.408  16.893 -0.1227 -0.4367  0.2001
  536MPD2    C4 7956   3.370   4.519  16.878 -0.0651 -0.0253  0.4728
  536MPD2    C5 7957   3.434   4.581  16.985  0.2527 -0.2827 -0.1729
  536MPD2     H 7958   3.255   4.237  17.018  0.5878  0.1139  0.6296
  536MPD2    H1 7959   3.374   4.577  16.787  3.0061 -0.9507  0.0231
  536MPD2    H2 7960   3.512   4.532  17.180  0.6153 -3.1603  0.9586
  536MPD2    H3 7961   3.492   4.672  16.972  0.1783 -0.2006  0.0558
  536MPD2     N 7962   3.214   4.374  16.783  0.1477 -0.7555 -0.0498
  536MPD2    H5 7963   3.209   4.428  16.697  0.9044 -0.7057 -0.0587
  536MPD2    N1 7964   3.386   4.334  17.249 -0.0890  0.4897  0.5714
  536MPD2    H7 7965   3.438   4.393  17.312 -0.2959  0.1629  1.0479
  537TMC3    C1 7966   3.317   4.184  17.428  0.7738 -0.2691 -0.8127
  537TMC3    C2 7967   3.379   4.267  17.521  0.4761  0.1865 -0.0364
  537TMC3    C3 7968   3.358   4.247  17.647  0.2972  0.5130  0.5947
  537TMC3    C4 7969   3.235   4.080  17.467  0.6030  0.3467 -0.1374
  537TMC3    C5 7970   3.216   4.064  17.599  0.3814 -0.0645  0.0583
  537TMC3    C6 7971   3.276   4.149  17.691 -0.2901  0.6127  0.7208
  537TMC3     C 7972   3.338   4.210  17.286  0.3726 -0.0658 -0.2351
  537TMC3     O 7973   3.311   4.115  17.210 -0.2865  0.2320 -0.3820
  537TMC3     H 7974   3.451   4.342  17.493  1.4615 -0.6611  0.2515
  537TMC3    H1 7975   3.187   4.024  17.388 -0.1603  1.7399 -0.6757
  537TMC3    H2 7976   3.266   4.143   0.089 -0.8104 -1.0241  0.5683
  537TMC3    C7 7977   3.158   3.941  17.661 -0.3688  0.0989  0.2075
  537TMC3    C8 7978   3.449   4.323   0.023 -1.1871 -0.2725 -0.1601
  537TMC3    O1 7979   3.120   3.944   0.066  0.0581 -0.2082  0.4675
  537TMC3    O2 7980   3.519   4.268   0.110  0.0836  0.3095  0.9057
  538TMC3    C1 7981   4.182   3.418  10.810 -0.2627 -0.3667  0.2463
  538TMC3    C2 7982   4.252   3.311  10.761 -0.5107  0.2340 -0.4407
  538TMC3    C3 7983   4.179   3.205  10.714  0.6495  0.0856  0.4832
  538TMC3    C4 7984   4.047   3.415  10.813  0.0887  0.0838 -0.1868
  538TMC3    C5 7985   3.987   3.302  10.780 -0.7690  0.3570 -0.5616
  538TMC3    C6 7986   4.047   3.200  10.724  0.5296 -0.0353  0.3730
  538TMC3     C 7987   4.241   3.472  10.935 -0.2442 -0.2853  0.0595
  538TMC3     O 7988   4.215   3.585  10.973 -0.0595 -0.1282 -0.6017
  538TMC3     H 7989   4.361   3.313  10.760 -0.4983  0.5570  1.4447
  538TMC3    H1 7990   3.998   3.500  10.861 -0.2418 -1.3838  2.0964
  538TMC3    H2 7991   3.997   3.109  10.692  1.1304  0.9465 -3.4243
  538TMC3    C7 7992   3.875   3.254  10.860 -0.7336 -0.0434  0.3405
  538TMC3    C8 7993   4.236   3.092  10.639 -0.7606 -0.1819 -0.7132
  538TMC3    O1 7994   3.843   3.138  10.847  0.2219  0.0992 -0.1388
  538TMC3    O2 7995   4.168   3.037  10.552 -0.4989 -0.4368  0.0216
  539MPD2     C 7996   3.948   1.954  12.239  0.1273  0.3432  0.1174
  539MPD2    C1 7997   3.956   1.976  12.100  1.2390  0.0671 -0.8297
  539MPD2    C2 7998   3.955   2.110  12.055  0.4100  0.2265  0.8630
  539MPD2    C3 7999   3.936   2.216  12.144 -0.0161 -0.2281 -0.0405
  539MPD2    C4 8000   3.931   2.188  12.282 -0.0559 -0.1537  0.2189
  539MPD2    C5 8001   3.935   2.060  12.326 -0.3773 -0.4321 -0.4787
  539MPD2     H 8002   3.973   2.131  11.950  0.4373 -1.1072  0.6130
  539MPD2    H1 8003   3.923   2.270  12.352  2.7277 -0.3588  0.7689
  539MPD2    H2 8004   3.938   1.857  12.286 -0.1535  0.4827  0.3451
  539MPD2    H3 8005   3.930   2.044  12.433  3.2616  0.5066 -0.1540
  539MPD2     N 8006   3.926   2.354  12.098  0.6824  0.1277  0.0227
  539MPD2    H5 8007   3.902   2.424  12.168 -1.2169 -1.5103  0.9775
  539MPD2    N1 8008   3.969   1.871  12.005  0.6790  0.0516  0.0645
  539MPD2    H7 8009   3.999   1.902  11.913 -1.2498 -0.3864 -0.7029
  540TMC3    C1 8010   3.862   2.520  11.950 -0.3773 -0.4744 -0.0105
  540TMC3    C2 8011   3.880   2.592  11.837  0.0627  0.3800 -0.4438
  540TMC3    C3 8012   3.810   2.706  11.827  1.2219 -0.0585  0.4795
  540TMC3    C4 8013   3.789   2.568  12.054 -0.0520 -0.6734  0.5193
  540TMC3    C5 8014   3.734   2.693  12.040  0.1697  0.8217 -0.2311
  540TMC3    C6 8015   3.735   2.765  11.927 -0.1182 -0.5270  0.1737
  540TMC3     C 8016   3.925   2.391  11.962 -0.3941  0.5617  0.5570
  540TMC3     O 8017   3.960   2.325  11.868 -0.0388 -0.7427  0.4495
  540TMC3     H 8018   3.947   2.563  11.757  1.1899 -1.6067  1.1945
  540TMC3    H1 8019   3.760   2.511  12.142  1.1400 -1.0049  0.6967
  540TMC3    H2 8020   3.679   2.856  11.911 -0.3740 -0.7490 -0.1952
  540TMC3    C7 8021   3.620   2.723  12.132 -0.8837  0.0374  0.2425
  540TMC3    C8 8022   3.820   2.780  11.701 -0.0855 -0.1215  0.2909
  540TMC3    O1 8023   3.591   2.629  12.203  0.7809  0.1649 -0.3016
  540TMC3    O2 8024   3.837   2.901  11.696 -0.1687 -0.0952  0.3181
  541MPD2     C 8025   2.638   3.671  13.550 -0.3064 -0.2576 -0.3444
  541MPD2    C1 8026   2.636   3.584  13.446  0.3341  0.1370  0.3736
  541MPD2    C2 8027   2.665   3.638  13.318  1.0496  0.0477 -0.0457
  541MPD2    C3 8028   2.722   3.762  13.307 -0.5946  0.3001  0.5523
  541MPD2    C4 8029   2.738   3.839  13.419 -0.3823  0.2552  0.1750
  541MPD2    C5 8030   2.691   3.795  13.539 -0.5305 -0.2291  0.1667
  541MPD2     H 8031   2.634   3.566  13.243 -0.9644  0.6667  0.1772
  541MPD2    H1 8032   2.800   3.927  13.403  0.1591  0.3790  2.9508
  541MPD2    H2 8033   2.614   3.642  13.652 -1.7361 -0.4541 -0.7223
  541MPD2    H3 8034   2.688   3.859  13.626 -2.6797 -0.3540  0.2050
  541MPD2     N 8035   2.740   3.823  13.183 -0.2732 -0.4475  0.3193
  541MPD2    H5 8036   2.752   3.923  13.169  2.2964 -0.8155 -0.0473
  541MPD2    N1 8037   2.591   3.453  13.460 -0.4330 -0.5607  0.4027
  541MPD2    H7 8038   2.564   3.426  13.554 -3.5619  0.4509 -0.2000
  542TMC3    C1 8039   2.723   3.811  12.940  0.5254  0.6466  0.2069
  542TMC3    C2 8040   2.718   3.728  12.836  0.2707 -0.3549 -1.0943
  542TMC3    C3 8041   2.699   3.777  12.709  0.8345 -0.1113 -0.9294
  542TMC3    C4 8042   2.687   3.942  12.928 -0.6985  0.2934 -0.2566
  542TMC3    C5 8043   2.680   3.994  12.800 -0.6364  0.8047  0.3795
  542TMC3    C6 8044   2.685   3.913  12.692 -0.2262 -0.4099  0.6289
  542TMC3     C 8045   2.734   3.740  13.064  0.3226  0.2758  0.2291
  542TMC3     O 8046   2.764   3.620  13.056  0.1526 -0.9941 -0.2190
  542TMC3     H 8047   2.748   3.624  12.844  1.4242 -0.1412 -2.4739
  542TMC3    H1 8048   2.689   4.013  13.010  1.7802  0.2093 -0.2511
  542TMC3    H2 8049   2.653   3.947  12.595 -1.0125 -0.8519  0.7326
  542TMC3    C7 8050   2.635   4.132  12.791 -0.0186  0.2289 -0.4279
  542TMC3    C8 8051   2.734   3.689  12.596  0.3085  0.2768 -0.3927
  542TMC3    O1 8052   2.606   4.195  12.889 -0.3566  0.0823 -0.1960
  542TMC3    O2 8053   2.791   3.742  12.502 -0.0128 -0.3009  0.5438
  543TMC3    C1 8054   1.522   0.238  17.259  0.0871  0.2974  0.4314
  543TMC3    C2 8055   1.561   0.116  17.299  0.1592 -0.2268 -0.0856
  543TMC3    C3 8056   1.481   0.056  17.390  0.1591  0.3534 -0.0146
  543TMC3    C4 8057   1.404   0.295  17.295 -0.3370 -0.1992 -0.3034
  543TMC3    C5 8058   1.319   0.225  17.377 -0.4994  0.0083  0.4183
  543TMC3    C6 8059   1.360   0.110  17.424 -0.1647  0.2177 -0.3310
  543TMC3     C 8060   1.606   0.313  17.176 -0.7456 -0.0134 -0.2367
  543TMC3     O 8061   1.569   0.427  17.164  0.5501  0.3853  0.6834
  543TMC3     H 8062   1.666   0.090  17.290  0.5375  0.0163  3.6841
  543TMC3    H1 8063   1.381   0.396  17.264 -0.2498  0.1358  0.7358
  543TMC3    H2 8064   1.294   0.054  17.490  0.8897 -0.4766  0.1201
  543TMC3    C7 8065   1.238   0.296  17.469 -0.1406 -0.3207  0.1558
  543TMC3    C8 8066   1.533   4.660  17.451 -0.3096  0.0529  0.3365
  543TMC3    O1 8067   1.142   0.241  17.528  0.5008  0.3414  0.2060
  543TMC3    O2 8068   1.625   4.606  17.397 -0.2804 -0.2393 -0.5149
  544MPD2     C 8069   1.529   4.294   0.100 -0.7430  0.5474 -0.2779
  544MPD2    C1 8070   1.576   4.286  17.678 -0.4387  0.5712  0.6029
  544MPD2    C2 8071   1.540   4.391  17.587  0.2685  0.6581 -0.4479
  544MPD2    C3 8072   1.468   4.499  17.632  0.9275 -0.0598 -0.3772
  544MPD2    C4 8073   1.428   4.504   0.058  0.6017  0.3633 -0.0441
  544MPD2    C5 8074   1.462   4.408   0.145  0.2504  1.2609 -0.6368
  544MPD2     H 8075   1.564   4.392  17.481  1.1147 -1.4953 -0.2637
  544MPD2    H1 8076   1.376   4.592   0.094 -3.2509 -2.5149  1.5657
  544MPD2    H2 8077   1.573   4.226   0.172  0.5471  0.7765 -0.8644
  544MPD2    H3 8078   1.443   4.423   0.251 -0.0751 -0.7817 -0.4079
  544MPD2     N 8079   1.460   4.626  17.564  0.2629 -0.7167 -0.8674
  544MPD2    H5 8080   1.411   4.700  17.615  2.0556  0.2336 -0.5378
  544MPD2    N1 8081   1.638   4.169  17.626  0.7353 -0.3965 -0.1382
  544MPD2    H7 8082   1.659   4.104  17.702 -0.2363 -0.9306 -0.3250
  545TMC3    C1 8083   1.689   4.005  17.485 -0.2060  0.2748  0.0144
  545TMC3    C2 8084   1.792   3.972  17.401  0.0329  0.3299  0.0871
  545TMC3    C3 8085   1.839   3.846  17.406  0.7473 -0.1561 -0.6895
  545TMC3    C4 8086   1.608   3.918  17.548 -0.0788 -0.4840 -0.7014
  545TMC3    C5 8087   1.659   3.788  17.547 -0.2089 -0.3985 -0.1140
  545TMC3    C6 8088   1.769   3.751  17.480 -0.3379 -1.1618  0.2341
  545TMC3     C 8089   1.660   4.143  17.493  0.4654 -0.0574 -0.9189
  545TMC3     O 8090   1.650   4.207  17.389 -0.0431 -0.7742 -0.7320
  545TMC3     H 8091   1.839   4.051  17.343  2.1881 -1.6816 -0.8804
  545TMC3    H1 8092   1.518   3.945  17.604 -1.1664  1.0705 -3.2067
  545TMC3    H2 8093   1.806   3.649  17.478  2.0328 -0.3336  1.6763
  545TMC3    C7 8094   1.565   3.686  17.590  0.4148  0.1995  0.7232
  545TMC3    C8 8095   1.948   3.797  17.317  0.4659 -0.4860  0.1350
  545TMC3    O1 8096   1.445   3.706  17.574  0.7457  0.2259  0.2176
  545TMC3    O2 8097   1.997   3.689  17.351  0.0909  0.4094 -0.5512
  546MPD2     C 8098   2.881   0.334  17.294  0.0458 -0.1333 -0.1190
  546MPD2    C1 8099   2.985   0.317  17.215 -0.4642  0.1645  0.0792
  546MPD2    C2 8100   3.069   0.422  17.189  0.0457  0.6822  1.2352
  546MPD2    C3 8101   3.037   0.548  17.234 -0.1697  0.1358 -0.0997
  546MPD2    C4 8102   2.921   0.568  17.303  0.2581  0.1657 -0.8765
  546MPD2    C5 8103   2.843   0.460  17.336 -0.1941  0.3061  0.2881
  546MPD2     H 8104   3.162   0.399  17.139 -0.5312  2.7272 -0.7775
  546MPD2    H1 8105   2.893   0.661  17.351  0.9319  0.0542 -0.2595
  546MPD2    H2 8106   2.820   0.247  17.311 -0.2660 -0.0098 -0.6020
  546MPD2    H3 8107   2.751   0.481  17.389  0.1482  0.2429  0.9147
  546MPD2     N 8108   3.123   0.657  17.215  0.3525  0.3689  0.2175
  546MPD2    H5 8109   3.083   0.746  17.242  1.6009  0.7466  0.8210
  546MPD2    N1 8110   3.024   0.187  17.171  0.1725  0.4588 -0.1624
  546MPD2    H7 8111   2.961   0.119  17.213 -0.2799  0.5176 -0.7480
  547TMC3    C1 8112   3.116   0.009  17.050 -0.9237  0.0855 -0.4074
  547TMC3    C2 8113   3.095   4.704  16.923  0.4932  0.2693 -0.1195
  547TMC3    C3 8114   3.010   4.596  16.907  0.2972  0.0897 -0.6673
  547TMC3    C4 8115   3.081   4.662  17.157  0.7692  0.7572 -0.0944
  547TMC3    C5 8116   3.013   4.544  17.140 -0.5180  0.2450 -0.1705
  547TMC3    C6 8117   2.964   4.515  17.011  0.5843  0.5334 -0.5302
  547TMC3     C 8118   3.112   0.154  17.070  0.0484  0.1856 -0.3456
  547TMC3     O 8119   3.155   0.227  16.978 -0.6348  0.1230 -0.5046
  547TMC3     H 8120   3.107   0.058  16.852 -0.8981 -0.0174 -0.6796
  547TMC3    H1 8121   3.110   4.692  17.257  0.0477 -0.8662  0.5995
  547TMC3    H2 8122   2.881   4.446  17.001  1.7715 -1.2062  1.6782
  547TMC3    C7 8123   2.998   4.444  17.249 -0.5843 -0.1831  0.8128
  547TMC3    C8 8124   2.920   4.603  16.794  0.0846 -0.2794 -0.2725
  547TMC3    O1 8125   2.987   4.490  17.360  0.0237 -0.3001  0.2486
  547TMC3    O2 8126   2.806   4.555  16.808  0.2686 -0.7238 -0.0704
  548MPD2     C 8127   2.840   0.925  12.307 -0.1481 -0.8674  0.3915
  548MPD2    C1 8128   2.837   0.795  12.324 -0.3277  0.6008 -0.4925
  548MPD2    C2 8129   2.953   0.717  12.295 -0.1036  0.2712 -0.5211
  548MPD2    C3 8130   3.060   0.779  12.236  0.0093 -0.4157  0.6746
  548MPD2    C4 8131   3.065   0.920  12.229 -0.0728 -0.2758  0.0016
  548MPD2    C5 8132   2.953   0.988  12.261 -0.0089 -0.3153  0.8696
  548MPD2     H 8133   2.959   0.611  12.317 -1.1883  0.1858 -0.6394
  548MPD2    H1 8134   3.153   0.978  12.203 -0.3896  0.3180  0.2437
  548MPD2    H2 8135   2.750   0.981  12.331  1.4390  1.4182  1.0821
  548MPD2    H3 8136   2.964   1.095  12.250 -1.5608 -0.3263 -0.9225
  548MPD2     N 8137   3.173   0.696  12.193 -0.6522 -0.0975 -0.6488
  548MPD2    H5 8138   3.180   0.599  12.222 -4.2814 -0.2543 -0.3800
  548MPD2    N1 8139   2.724   0.730  12.379 -0.1338  0.1825 -0.9248
  548MPD2    H7 8140   2.648   0.788  12.413  0.6160  1.5547 -1.5642
  549TMC3    C1 8141   2.567   0.566  12.454  0.0682 -0.7613  0.1095
  549TMC3    C2 8142   2.468   0.653  12.418 -0.4201 -0.7918 -1.1229
  549TMC3    C3 8143   2.348   0.633  12.478  0.3808  0.3263  0.7014
  549TMC3    C4 8144   2.554   0.464  12.544  0.0856 -0.8758  0.6989
  549TMC3    C5 8145   2.429   0.443  12.592  0.5182  0.4435 -0.2370
  549TMC3    C6 8146   2.327   0.531  12.567 -0.1822  0.8249 -0.0720
  549TMC3     C 8147   2.702   0.596  12.394 -0.0943 -0.5017 -0.1924
  549TMC3     O 8148   2.780   0.497  12.404  0.4559  0.6177  0.4522
  549TMC3     H 8149   2.465   0.727  12.339 -1.1577 -0.8495 -1.1471
  549TMC3    H1 8150   2.638   0.399  12.563 -0.1673 -1.0250  1.2940
  549TMC3    H2 8151   2.229   0.519  12.614 -0.6020  2.9600 -0.4151
  549TMC3    C7 8152   2.405   0.352  12.703 -0.0162 -0.2496 -0.4777
  549TMC3    C8 8153   2.236   0.710  12.458 -0.4469  0.2752  0.4197
  549TMC3    O1 8154   2.302   0.372  12.765 -0.2087 -0.1017  0.2414
  549TMC3    O2 8155   2.118   0.665  12.473 -1.0555 -0.6986 -0.1635
  550TMC3    C1 8156   1.590   2.810  12.019  0.7727 -0.4991  0.3946
  550TMC3    C2 8157   1.649   2.803  12.140 -0.3458  0.0770  0.0847
  550TMC3    C3 8158   1.581   2.862  12.253  0.4353 -0.5427 -0.2134
  550TMC3    C4 8159   1.472   2.877  12.004  0.0693 -0.7686 -0.3769
  550TMC3    C5 8160   1.409   2.918  12.120 -0.4093  0.3061  0.6589
  550TMC3    C6 8161   1.461   2.917  12.241  0.2271  0.6601  0.0499
  550TMC3     C 8162   1.662   2.761  11.904 -0.0045 -0.0317 -0.0668
  550TMC3     O 8163   1.750   2.680  11.930 -0.4075 -0.2649  0.0791
  550TMC3     H 8164   1.742   2.750  12.154  0.0291  0.6509 -0.2407
  550TMC3    H1 8165   1.420   2.877  11.909 -0.5957 -0.3533 -0.0195
  550TMC3    H2 8166   1.397   2.950  12.322  0.9214  0.8295  0.5290
  550TMC3    C7 8167   1.280   2.993  12.102 -0.2159  0.5726  0.3686
  550TMC3    C8 8168   1.644   2.841  12.379 -0.1018 -0.4263 -0.1327
  550TMC3    O1 8169   1.194   2.974  12.190 -0.3424 -0.2992  0.2258
  550TMC3    O2 8170   1.711   2.739  12.383 -0.0020  0.2734  0.4659
  551TMC3    C1 8171   4.240   1.176  13.375 -0.2600  0.1936 -0.0227
  551TMC3    C2 8172   4.361   1.196  13.312  0.4415 -0.3902 -0.1183
  551TMC3    C3 8173   4.471   1.244  13.371  0.3433  0.4762 -0.3164
  551TMC3    C4 8174   4.228   1.199  13.510 -0.2874 -0.0038  0.2203
  551TMC3    C5 8175   4.340   1.256  13.566  0.0352 -0.1452  0.0698
  551TMC3    C6 8176   4.459   1.286  13.502  0.4217  0.0819 -0.6657
  551TMC3     C 8177   4.143   1.103  13.292  0.2850 -0.0483  0.2815
  551TMC3     O 8178   4.150   1.114  13.171  0.0399 -0.3061 -0.0721
  551TMC3     H 8179   4.372   1.161  13.210 -1.2292  0.3591 -0.5568
  551TMC3    H1 8180   4.141   1.183  13.573 -0.5846  1.0243  0.0692
  551TMC3    H2 8181   4.544   1.322  13.558 -1.8275  0.7698  2.3323
  551TMC3    C7 8182   4.328   1.292  13.704  0.2827 -0.4630 -0.8072
  551TMC3    C8 8183   4.584   1.288  13.293 -0.3859 -0.4475 -0.8118
  551TMC3    O1 8184   4.427   1.267  13.771  0.1468  0.1080 -0.1004
  551TMC3    O2 8185   4.631   1.215  13.208 -0.1029 -0.0951 -0.0784
  552MPD2     C 8186   1.268   3.122  14.469 -0.1171  0.1831 -0.0861
  552MPD2    C1 8187   1.283   3.097  14.336  0.7030 -0.0857  0.2114
  552MPD2    C2 8188   1.407   3.121  14.283 -0.2677  0.0006 -0.2959
  552MPD2    C3 8189   1.516   3.136  14.368  0.2408  0.0197 -0.4995
  552MPD2    C4 8190   1.498   3.136  14.508 -0.2061  0.7092 -0.3009
  552MPD2    C5 8191   1.369   3.142  14.558  0.1810  0.3539 -1.8001
  552MPD2     H 8192   1.419   3.124  14.176  0.5446  0.9666 -0.1782
  552MPD2    H1 8193   1.581   3.156  14.576  0.5055 -3.4018  0.0070
  552MPD2    H2 8194   1.175   3.098  14.521  0.1065  0.1956  0.3211
  552MPD2    H3 8195   1.344   3.152  14.663 -0.1770  0.6662 -1.9181
  552MPD2     N 8196   1.649   3.123  14.325  0.3773  0.4274  0.4334
  552MPD2    H5 8197   1.717   3.122  14.401  1.6044  1.2697 -0.6357
  552MPD2    N1 8198   1.179   3.060  14.250 -0.4256 -0.5543  0.4857
  552MPD2    H7 8199   1.204   3.052  14.152  2.3452 -2.9114  1.3766
  553TMC3    C1 8200   1.000   2.933  14.175  0.4029  0.2897 -0.0874
  553TMC3    C2 8201   1.053   2.976  14.052  0.8207  0.1290  0.9742
  553TMC3    C3 8202   1.063   2.895  13.938  0.3161 -0.0810 -0.0683
  553TMC3    C4 8203   0.968   2.804  14.197  0.2114 -0.0616  0.0061
  553TMC3    C5 8204   0.996   2.722  14.088 -0.4685 -0.7120  0.0791
  553TMC3    C6 8205   1.050   2.765  13.965 -0.6495 -0.3086  0.9426
  553TMC3     C 8206   1.064   3.002  14.284  0.2091  0.8910  0.5003
  553TMC3     O 8207   1.022   2.973  14.397 -0.6850 -0.4861 -0.6577
  553TMC3     H 8208   1.076   3.082  14.047 -1.7443  0.6849  0.6697
  553TMC3    H1 8209   0.953   2.764  14.296  0.6951  0.9642  0.4872
  553TMC3    H2 8210   1.078   2.694  13.888 -0.0992  0.2418  0.6317
  553TMC3    C7 8211   1.064   2.605  14.137  0.3680 -0.5444 -0.5578
  553TMC3    C8 8212   1.123   2.941  13.815 -0.0174 -0.0657 -0.4509
  553TMC3    O1 8213   1.008   2.548  14.228 -0.2956 -0.6252 -0.3560
  553TMC3    O2 8214   1.190   3.047  13.821  0.2830 -0.2184 -0.2655
  554TMC3    C1 8215   2.778   2.115  12.082  0.2325 -0.7473 -0.1031
  554TMC3    C2 8216   2.703   2.041  11.998 -0.5995 -0.5094 -0.3625
  554TMC3    C3 8217   2.727   2.044  11.863 -0.2257  0.6990  0.2052
  554TMC3    C4 8218   2.877   2.203  12.035  0.3410 -0.3000  0.4172
  554TMC3    C5 8219   2.883   2.216  11.902 -0.5573  0.4392 -0.4429
  554TMC3    C6 8220   2.812   2.133  11.812 -0.0271 -0.2644 -0.4507
  554TMC3     C 8221   2.798   2.078  12.217 -0.3266  0.0957  0.4072
  554TMC3     O 8222   2.704   2.018  12.262  0.0883  0.1663  0.4170
  554TMC3     H 8223   2.638   1.966  12.042  0.7380 -1.0834  0.6376
  554TMC3    H1 8224   2.922   2.271  12.106  0.0516  0.0357  0.2764
  554TMC3    H2 8225   2.843   2.141  11.709 -0.8926  1.3616 -0.5948
  554TMC3    C7 8226   2.997   2.292  11.849  0.2601  0.1527  0.3331
  554TMC3    C8 8227   2.644   1.957  11.782  0.6067  0.3157  0.4733
  554TMC3    O1 8228   3.056   2.247  11.753 -0.0559 -0.0197 -0.4259
  554TMC3    O2 8229   2.550   1.897  11.836 -0.3326 -0.4256 -0.0134
  555TMC3    C1 8230   2.604   1.471  15.226 -0.1784 -0.8685 -0.0552
  555TMC3    C2 8231   2.591   1.593  15.293 -0.3308 -0.0004  0.3443
  555TMC3    C3 8232   2.566   1.577  15.428 -0.6175  0.1492  0.5772
  555TMC3    C4 8233   2.610   1.350  15.289  0.2035 -0.1302  0.1517
  555TMC3    C5 8234   2.583   1.344  15.422 -0.4567 -0.0047 -0.0880
  555TMC3    C6 8235   2.563   1.461  15.503  0.3547 -0.2685  0.1155
  555TMC3     C 8236   2.616   1.464  15.084  0.8915  0.6290 -0.2080
  555TMC3     O 8237   2.669   1.364  15.030  0.3136  0.3987 -0.2232
  555TMC3     H 8238   2.588   1.691  15.248  1.0017  0.7447  1.8556
  555TMC3    H1 8239   2.604   1.257  15.234 -0.6398  2.4935 -4.1171
  555TMC3    H2 8240   2.533   1.445  15.606 -0.4302 -3.0343 -0.5489
  555TMC3    C7 8241   2.560   1.210  15.480  0.2195  0.2113  0.0418
  555TMC3    C8 8242   2.558   1.703  15.501 -0.9897  0.6625  0.1951
  555TMC3    O1 8243   2.468   1.204  15.556  0.2367  0.2177 -0.4429
  555TMC3    O2 8244   2.572   1.808  15.434  0.2220 -0.0150  0.2596
  556MPD2     C 8245   0.360   3.601  11.015  0.2716  0.0772  0.3289
  556MPD2    C1 8246   0.329   3.504  11.115  0.5624 -0.0725 -0.8265
  556MPD2    C2 8247   0.346   3.371  11.077  0.6939  0.2354  0.6687
  556MPD2    C3 8248   0.381   3.340  10.946 -0.0719 -0.6717  0.3789
  556MPD2    C4 8249   0.420   3.436  10.852  0.4556 -0.1583  0.2768
  556MPD2    C5 8250   0.415   3.566  10.894  0.1242 -0.4804  0.6737
  556MPD2     H 8251   0.332   3.297  11.156 -2.0294  2.1551  1.9832
  556MPD2    H1 8252   0.461   3.401  10.758 -1.0746  0.8337 -0.7458
  556MPD2    H2 8253   0.358   3.708  11.030  0.0851  0.0365  0.5792
  556MPD2    H3 8254   0.432   3.641  10.819 -0.4133 -1.8916 -0.8677
  556MPD2     N 8255   0.380   3.202  10.916 -0.5754 -0.6990  0.1739
  556MPD2    H5 8256   0.359   3.139  10.993 -0.0262  2.1034  2.6294
  556MPD2    N1 8257   0.285   3.531  11.246  0.1049 -0.2477 -0.9276
  556MPD2    H7 8258   0.281   3.459  11.317 -0.7456 -1.7116 -2.4570
  557TMC3    C1 8259   0.425   2.989  10.818 -0.2945  0.1065  0.0210
  557TMC3    C2 8260   0.480   2.922  10.707  0.0828 -0.1073 -0.2479
  557TMC3    C3 8261   0.409   2.818  10.653 -0.0706 -0.6781 -0.0297
  557TMC3    C4 8262   0.302   2.941  10.873 -0.2570  0.7444  0.5168
  557TMC3    C5 8263   0.242   2.836  10.813  0.0025  0.2243 -0.2247
  557TMC3    C6 8264   0.296   2.764  10.709  0.2000 -0.1280  0.0604
  557TMC3     C 8265   0.441   3.138  10.808 -0.2785 -0.1345  0.4056
  557TMC3     O 8266   0.497   3.178  10.710 -0.0376  0.0160 -0.2581
  557TMC3     H 8267   0.563   2.964  10.651 -0.6850  0.5827 -0.8613
  557TMC3    H1 8268   0.263   2.986  10.963 -0.0505  1.0350  0.4632
  557TMC3    H2 8269   0.254   2.671  10.673 -0.9429 -0.2383  1.6842
  557TMC3    C7 8270   0.096   2.842  10.818  0.0107 -0.2334  0.7139
  557TMC3    C8 8271   0.445   2.784  10.524  0.4088 -0.1829 -0.2067
  557TMC3    O1 8272   0.052   2.923  10.901  0.2789 -0.6715  0.4597
  557TMC3    O2 8273   0.531   2.848  10.465  0.0941  0.4427 -0.2061
  558TMC3    C1 8274   2.900   1.134   9.973  0.1868  0.3820  0.3904
  558TMC3    C2 8275   2.798   1.115  10.059 -0.1202 -0.3146  0.9046
  558TMC3    C3 8276   2.682   1.055  10.022  0.0554  0.7092 -0.7901
  558TMC3    C4 8277   2.890   1.083   9.842  0.3874 -0.0771 -0.0310
  558TMC3    C5 8278   2.780   1.013   9.813  0.0237 -0.3050  0.3612
  558TMC3    C6 8279   2.667   1.011   9.895  0.6816 -0.2703 -0.4373
  558TMC3     C 8280   3.032   1.134  10.042  0.2050 -0.2730  0.4203
  558TMC3     O 8281   3.040   1.112  10.164  0.1183  0.0753 -0.3022
  558TMC3     H 8282   2.820   1.138  10.163  1.2294 -3.5979  1.3417
  558TMC3    H1 8283   2.979   1.105   9.785  0.8840 -0.5673  0.5645
  558TMC3    H2 8284   2.589   0.938   9.878  0.5849 -0.1218 -0.6359
  558TMC3    C7 8285   2.750   0.972   9.676 -0.4593 -0.3852 -0.4781
  558TMC3    C8 8286   2.624   0.964  10.121  0.1414  0.4982 -0.7831
  558TMC3    O1 8287   2.848   0.966   9.609  0.8696  0.0054 -0.2897
  558TMC3    O2 8288   2.520   0.899  10.098 -0.1663  0.2866 -0.3719
  559MPD2     C 8289   2.910   1.666  10.690 -0.3425  0.3452  0.2500
  559MPD2    C1 8290   2.858   1.583  10.789 -0.5529 -0.5840  0.7762
  559MPD2    C2 8291   2.915   1.575  10.917  0.2380  0.0572 -0.9337
  559MPD2    C3 8292   3.025   1.651  10.947 -0.0722 -0.0608 -0.2406
  559MPD2    C4 8293   3.082   1.734  10.852  0.0755 -0.1347 -0.1506
  559MPD2    C5 8294   3.024   1.733  10.727  0.7334 -0.2359 -0.1794
  559MPD2     H 8295   2.879   1.508  10.994 -1.0938  1.0173 -0.7215
  559MPD2    H1 8296   3.170   1.795  10.868 -0.0240  0.2842 -1.2146
  559MPD2    H2 8297   2.871   1.675  10.590 -0.0113  1.1720  0.1948
  559MPD2    H3 8298   3.065   1.797  10.650 -0.1551  3.0446  2.0767
  559MPD2     N 8299   3.073   1.645  11.082 -0.0397 -0.2914  0.3818
  559MPD2    H5 8300   3.018   1.593  11.150 -0.3894 -4.0260 -2.7393
  559MPD2    N1 8301   2.741   1.508  10.766  0.3239 -0.5669  0.3925
  559MPD2    H7 8302   2.706   1.469  10.853  0.4280 -0.6720  0.3865
  560TMC3    C1 8303   3.215   1.665  11.270  0.3305 -0.3778 -0.3584
  560TMC3    C2 8304   3.165   1.545  11.314  0.3200 -0.5123  0.1148
  560TMC3    C3 8305   3.205   1.491  11.435 -0.0099  0.1969 -0.3176
  560TMC3    C4 8306   3.315   1.723  11.345 -0.1876 -0.2654  0.0039
  560TMC3    C5 8307   3.351   1.682  11.468  0.2812  0.7358  0.1729
  560TMC3    C6 8308   3.295   1.560  11.515 -0.0721 -0.5925 -0.2982
  560TMC3     C 8309   3.181   1.708  11.132  0.3740 -0.0656  0.3137
  560TMC3     O 8310   3.277   1.754  11.078  0.2209 -0.1751  0.3417
  560TMC3     H 8311   3.105   1.481  11.251 -3.1362  1.9698  0.9043
  560TMC3    H1 8312   3.353   1.823  11.322  0.9893 -0.9917 -1.2057
  560TMC3    H2 8313   3.333   1.526  11.610  0.8537  3.6774  0.8866
  560TMC3    C7 8314   3.430   1.758  11.557 -0.1145  0.5007 -0.8851
  560TMC3    C8 8315   3.217   1.350  11.419 -0.0162 -0.0477 -0.2906
  560TMC3    O1 8316   3.422   1.718  11.673  0.0938  0.1745 -0.0903
  560TMC3    O2 8317   3.125   1.294  11.362  0.3242  0.5173 -0.2018
  561TMC3    C1 8318   1.038   0.611  11.404  0.0576  0.2778  0.3592
  561TMC3    C2 8319   1.011   0.645  11.534  0.0405  0.5349 -0.3620
  561TMC3    C3 8320   1.106   0.723  11.604  0.3179 -0.5384  0.1081
  561TMC3    C4 8321   1.160   0.653  11.351 -0.1128 -0.5108 -0.4378
  561TMC3    C5 8322   1.250   0.721  11.430  0.4998  0.3903 -0.2194
  561TMC3    C6 8323   1.225   0.756  11.555  0.3804 -0.6896  0.7285
  561TMC3     C 8324   0.937   0.527  11.339  0.0720  0.1504 -0.3003
  561TMC3     O 8325   0.847   0.485  11.408 -0.6243  0.2065  0.1052
  561TMC3     H 8326   0.917   0.621  11.581 -0.9630  0.4663 -2.3970
  561TMC3    H1 8327   1.199   0.613  11.258  0.0618  0.3226 -0.7192
  561TMC3    H2 8328   1.297   0.806  11.617  1.8890 -1.8590 -0.0771
  561TMC3    C7 8329   1.386   0.747  11.382  0.1908 -0.1727 -0.0819
  561TMC3    C8 8330   1.081   0.750  11.751  0.0627  0.2374 -0.5238
  561TMC3    O1 8331   1.471   0.764  11.464 -0.2157  0.7150 -0.2535
  561TMC3    O2 8332   1.175   0.766  11.825 -0.5142 -0.3176 -0.3664
  562TMC3    C1 8333   2.033   2.073  16.163  0.5060  0.2307 -0.1410
  562TMC3    C2 8334   1.934   2.154  16.117  0.0203 -0.2774  0.7264
  562TMC3    C3 8335   1.916   2.165  15.984 -1.6857  0.6541 -0.2883
  562TMC3    C4 8336   2.119   2.007  16.075 -0.5796 -0.3176 -0.8838
  562TMC3    C5 8337   2.093   2.025  15.940  1.0489 -0.3318 -0.1225
  562TMC3    C6 8338   1.992   2.102  15.889  0.6871 -0.1484 -0.6516
  562TMC3     C 8339   2.034   2.032  16.302  0.8696  0.9071 -0.0151
  562TMC3     O 8340   2.135   1.975  16.341 -0.4712 -0.1303  0.2211
  562TMC3     H 8341   1.878   2.224  16.178 -0.4835 -1.5917  1.7777
  562TMC3    H1 8342   2.209   1.958  16.109 -0.6931  0.4715  0.5173
  562TMC3    H2 8343   1.970   2.119  15.784 -2.2504 -1.8296 -0.3099
  562TMC3    C7 8344   2.148   1.929  15.837 -0.6178  0.2967  0.4605
  562TMC3    C8 8345   1.783   2.212  15.951  0.5272 -0.1886  0.6716
  562TMC3    O1 8346   2.162   1.960  15.721 -0.0444 -0.6097  0.2544
  562TMC3    O2 8347   1.695   2.205  16.034  0.0244  0.0485 -0.2812
  563MPD2     C 8348   4.143   3.484  15.953  0.4070 -0.1682  0.3280
  563MPD2    C1 8349   4.174   3.459  16.090 -0.4541 -0.2854  0.1749
  563MPD2    C2 8350   4.286   3.383  16.125  0.1435  0.4685  0.4590
  563MPD2    C3 8351   4.356   3.329  16.022  0.0138 -0.2900  0.6632
  563MPD2    C4 8352   4.324   3.345  15.887  0.1693  0.0701 -0.5984
  563MPD2    C5 8353   4.225   3.430  15.851  0.8716 -0.1670  0.4211
  563MPD2     H 8354   4.310   3.351  16.225  1.0497  2.2708  0.8129
  563MPD2    H1 8355   4.386   3.309  15.805 -1.1231  0.0801 -1.5848
  563MPD2    H2 8356   4.048   3.523  15.917  1.4094  1.8298 -0.1128
  563MPD2    H3 8357   4.209   3.454  15.746 -1.4655  1.0045  1.0446
  563MPD2     N 8358   4.470   3.257  16.071 -0.3779 -0.3581 -0.2095
  563MPD2    H5 8359   4.475   3.248  16.172  0.4932  1.2617 -0.1095
  563MPD2    N1 8360   4.079   3.505  16.187  0.2071  0.3873 -0.2320
  563MPD2    H7 8361   3.994   3.547  16.151 -0.6213 -1.4747 -0.4562
  564TMC3    C1 8362   3.989   3.519  16.407 -0.2194 -0.0560  0.5109
  564TMC3    C2 8363   3.880   3.470  16.343 -0.2228 -0.8497  0.4720
  564TMC3    C3 8364   3.812   3.363  16.401 -0.2488 -0.0173  0.3651
  564TMC3    C4 8365   4.024   3.456  16.532 -0.2288  0.2570 -0.0446
  564TMC3    C5 8366   3.953   3.356  16.579  0.6943  0.4370 -1.1732
  564TMC3    C6 8367   3.853   3.302  16.517 -0.1281  0.2345  0.2881
  564TMC3     C 8368   4.105   3.503  16.322 -0.0024 -0.8352 -0.2265
  564TMC3     O 8369   4.216   3.495  16.382 -0.1715  0.1907 -0.3122
  564TMC3     H 8370   3.844   3.513  16.251  0.4193  2.1530  1.5945
  564TMC3    H1 8371   4.121   3.473  16.577 -1.3332  2.4377  1.5340
  564TMC3    H2 8372   3.818   3.206  16.553  1.3316 -1.2211 -2.1096
  564TMC3    C7 8373   4.055   3.254  16.607 -0.2241  0.7373  0.6657
  564TMC3    C8 8374   3.747   3.268  16.310  0.3505  0.3862  0.2892
  564TMC3    O1 8375   4.126   3.258  16.705 -0.2345 -0.1241  0.3935
  564TMC3    O2 8376   3.713   3.170  16.374  0.0087  0.0362  0.0097
  565TMC3    C1 8377   0.296   0.107  10.697  0.8297  0.1459  0.6857
  565TMC3    C2 8378   0.305   0.075  10.832  0.2935  0.2170 -0.2205
  565TMC3    C3 8379   0.248   4.690  10.874  0.0362  0.6158  0.6873
  565TMC3    C4 8380   0.238   0.016  10.609 -0.5200 -0.6958 -0.1602
  565TMC3    C5 8381   0.189   4.628  10.659 -0.4025  0.3726 -0.1971
  565TMC3    C6 8382   0.189   4.602  10.793 -0.1991 -0.7488 -0.3187
  565TMC3     C 8383   0.363   0.220  10.648 -0.6640  0.4229  0.1417
  565TMC3     O 8384   0.396   0.222  10.529  0.6123  0.2561 -0.0787
  565TMC3     H 8385   0.352   0.134  10.910 -1.6644  1.3483  0.1005
  565TMC3    H1 8386   0.225   0.024  10.502 -0.1777 -0.0734 -0.1581
  565TMC3    H2 8387   0.125   4.520  10.823  0.2428 -1.2402 -0.7122
  565TMC3    C7 8388   0.162   4.512  10.579 -0.1138 -0.5666  0.0329
  565TMC3    C8 8389   0.228   4.674  11.019  0.5998  0.4295  0.4192
  565TMC3    O1 8390   0.079   4.427  10.608  0.3087 -0.2605  0.4132
  565TMC3    O2 8391   0.259   0.045  11.088  0.1127 -0.0371 -0.1694
  566MPD2     C 8392   1.741   0.911  14.177  0.3936 -0.0320  0.5179
  566MPD2    C1 8393   1.794   0.993  14.083 -0.2832 -0.1117 -0.7956
  566MPD2    C2 8394   1.717   1.021  13.973  0.6935 -0.0369  0.0445
  566MPD2    C3 8395   1.603   0.951  13.948  0.6836  0.9861 -0.6659
  566MPD2    C4 8396   1.562   0.857  14.035  0.0734  0.3940  0.2608
  566MPD2    C5 8397   1.630   0.840  14.149  0.5425  0.7264  0.2349
  566MPD2     H 8398   1.751   1.093  13.899 -1.5305 -0.6582 -1.5700
  566MPD2    H1 8399   1.480   0.790  14.011  0.5334 -0.3743  0.8892
  566MPD2    H2 8400   1.798   0.892  14.267  1.8881 -1.9357 -0.8247
  566MPD2    H3 8401   1.599   0.758  14.212  0.8997  1.6357  1.5850
  566MPD2     N 8402   1.534   0.957  13.832  0.2636  0.0718  0.0602
  566MPD2    H5 8403   1.467   0.882  13.818 -1.2699  1.3765  0.2982
  566MPD2    N1 8404   1.919   1.054  14.117  0.0835  0.5547 -0.1745
  566MPD2    H7 8405   1.949   1.069  14.213  0.9692  1.1052 -0.5377
  567TMC3    C1 8406   2.121   1.167  14.061 -0.1083 -0.2563  0.0024
  567TMC3    C2 8407   2.173   1.250  13.967  0.7147  0.2264  0.4432
  567TMC3    C3 8408   2.249   1.353  14.007  0.2976 -0.0698  0.3720
  567TMC3    C4 8409   2.132   1.187  14.196  0.0095 -0.1556  0.0350
  567TMC3    C5 8410   2.207   1.299  14.227 -0.0810  0.2995  0.3144
  567TMC3    C6 8411   2.268   1.376  14.132 -0.5569  0.1933 -0.2692
  567TMC3     C 8412   2.005   1.095  14.018  0.0223 -0.8400 -0.3556
  567TMC3     O 8413   1.976   1.085  13.899  0.1368 -0.1281 -0.2799
  567TMC3     H 8414   2.162   1.231  13.861  0.2926  0.2834  0.4763
  567TMC3    H1 8415   2.096   1.119  14.272 -1.2082 -1.9786 -2.1743
  567TMC3    H2 8416   2.316   1.470  14.159  0.2589 -0.4517  0.4928
  567TMC3    C7 8417   2.240   1.323  14.363  0.6285  0.2117  0.9762
  567TMC3    C8 8418   2.263   1.464  13.915  0.1475 -0.0021 -0.4528
  567TMC3    O1 8419   2.335   1.400  14.375 -0.3184  0.0186  0.2405
  567TMC3    O2 8420   2.250   1.579  13.956 -0.2601  0.3690 -0.4967
  568MPD2     C 8421   4.183   1.783  16.282 -0.4027  0.1736  0.7629
  568MPD2    C1 8422   4.212   1.843  16.401 -0.4738 -0.0238  0.2149
  568MPD2    C2 8423   4.173   1.976  16.412 -0.0792 -0.5796 -0.4772
  568MPD2    C3 8424   4.098   2.037  16.316 -0.3541 -0.1354 -0.6742
  568MPD2    C4 8425   4.061   1.969  16.201  0.6675 -0.1609 -0.0483
  568MPD2    C5 8426   4.098   1.841  16.196  0.2582 -0.4592 -0.1474
  568MPD2     H 8427   4.196   2.035  16.500  0.4636 -1.4247 -0.0467
  568MPD2    H1 8428   4.003   1.999  16.115 -1.5560 -1.2010  1.0605
  568MPD2    H2 8429   4.211   1.680  16.262  0.4761  0.7169 -0.8805
  568MPD2    H3 8430   4.059   1.782  16.114 -3.3719  0.5921  0.8463
  568MPD2     N 8431   4.064   2.176  16.339  0.0086  0.1299 -0.7047
  568MPD2    H5 8432   4.102   2.214  16.425  2.0678  0.6898 -1.8572
  568MPD2    N1 8433   4.281   1.772  16.499  0.5450  0.3949 -0.1594
  568MPD2    H7 8434   4.295   1.672  16.501  0.8678  0.4492  0.7733
  569TMC3    C1 8435   3.992   2.390  16.288  0.0296 -0.4927 -1.2805
  569TMC3    C2 8436   3.972   2.419  16.422  0.3134  0.1997 -0.3614
  569TMC3    C3 8437   4.013   2.539  16.472 -0.1005  0.0826 -0.4313
  569TMC3    C4 8438   4.042   2.483  16.208  0.1495 -0.2293  0.2213
  569TMC3    C5 8439   4.070   2.607  16.258  0.3851  0.1410  0.1193
  569TMC3    C6 8440   4.053   2.644  16.390  0.1211  0.0598 -0.0237
  569TMC3     C 8441   4.002   2.256  16.243  0.7386  0.4967  0.1822
  569TMC3     O 8442   3.947   2.235  16.136 -0.2819  0.4910 -1.1083
  569TMC3     H 8443   3.928   2.346  16.489 -0.8499  0.1511 -1.1761
  569TMC3    H1 8444   4.062   2.452  16.106  0.1045 -3.6225  1.2452
  569TMC3    H2 8445   4.072   2.745  16.426  0.6680 -0.0159 -0.0963
  569TMC3    C7 8446   4.048   2.704  16.154 -0.0534  0.4623 -0.5823
  569TMC3    C8 8447   3.960   2.579  16.590  0.8009 -0.3605 -0.0994
  569TMC3    O1 8448   4.088   2.678  16.042  0.0863 -0.7104 -0.4545
  569TMC3    O2 8449   3.845   2.549  16.616 -0.2584  0.0835 -0.0260
  570TMC3    C1 8450   3.178   0.937  16.032 -0.6797 -0.0138 -0.5400
  570TMC3    C2 8451   3.296   0.903  15.961  0.4385 -0.0197  0.4588
  570TMC3    C3 8452   3.397   0.997  15.966 -0.3107  0.5209 -0.4944
  570TMC3    C4 8453   3.161   1.052  16.095 -0.7141 -0.6614  0.1888
  570TMC3    C5 8454   3.259   1.145  16.088 -0.0553  0.3722  0.6196
  570TMC3    C6 8455   3.382   1.124  16.030 -0.3714  0.2425 -0.1742
  570TMC3     C 8456   3.074   0.833  16.052 -0.6420 -0.3612 -0.4216
  570TMC3     O 8457   3.056   0.748  15.969  0.3287 -0.4027  0.0367
  570TMC3     H 8458   3.305   0.804  15.918 -1.8511 -0.7706  1.7193
  570TMC3    H1 8459   3.069   1.092  16.137  0.1702 -0.4014  1.9064
  570TMC3    H2 8460   3.456   1.201  16.010  0.6364 -0.6075  0.2581
  570TMC3    C7 8461   3.246   1.253  16.183 -0.2036 -0.3497 -0.7140
  570TMC3    C8 8462   3.514   0.976  15.891  0.1106  0.4520  0.4417
  570TMC3    O1 8463   3.161   1.240  16.272  0.7406 -0.0682 -0.4272
  570TMC3    O2 8464   3.595   1.069  15.887  0.5078  0.1920 -0.7971
  571MPD2     C 8465   0.700   2.503  17.694 -0.0218  0.2501  0.2528
  571MPD2    C1 8466   0.832   2.449  17.708 -0.1007  0.0890 -0.4359
  571MPD2    C2 8467   0.908   2.491   0.106 -0.2505 -0.2641 -0.6126
  571MPD2    C3 8468   0.868   2.596   0.190  0.5463  0.3511  1.0353
  571MPD2    C4 8469   0.743   2.649   0.173  0.0198  0.7803  0.9016
  571MPD2    C5 8470   0.658   2.598   0.073  0.2566 -0.2751  0.3304
  571MPD2     H 8471   1.007   2.453   0.124 -0.7128 -0.6454  1.1281
  571MPD2    H1 8472   0.706   2.725   0.241 -2.6859 -0.7820  1.1657
  571MPD2    H2 8473   0.634   2.470  17.614  0.0220 -1.6335  0.9849
  571MPD2    H3 8474   0.557   2.638   0.065  0.4833  0.3000  0.3149
  571MPD2     N 8475   0.944   2.647   0.297  0.3561  0.3596  0.1218
  571MPD2    H5 8476   0.893   2.703   0.365 -1.5300  0.2780 -1.2408
  571MPD2    N1 8477   0.869   2.351  17.618 -0.2679 -0.5171  0.4891
  571MPD2    H7 8478   0.839   2.336  17.522  0.1872  1.0884  0.1007
  572TMC3    C1 8479   1.119   2.677   0.450 -0.0207 -0.0530  0.8926
  572TMC3    C2 8480   1.206   2.599   0.522  0.6178 -0.2256  0.1538
  572TMC3    C3 8481   1.230   2.640   0.654  0.2168 -0.3013 -0.0423
  572TMC3    C4 8482   1.037   2.770   0.499 -0.6331 -1.1366  0.5324
  572TMC3    C5 8483   1.068   2.812   0.630  0.2192  0.0965 -0.2414
  572TMC3    C6 8484   1.157   2.747   0.706  0.1280 -0.0919  0.8208
  572TMC3     C 8485   1.077   2.620   0.323  1.0214 -0.3391  1.3288
  572TMC3     O 8486   1.149   2.548   0.256 -0.1393  0.0199  0.5873
  572TMC3     H 8487   1.230   2.503   0.480  2.0898  0.8537 -1.4555
  572TMC3    H1 8488   0.972   2.827   0.433 -0.2355 -2.3348 -0.9043
  572TMC3    H2 8489   1.196   2.788   0.798 -1.1535  0.3049  1.1845
  572TMC3    C7 8490   0.991   2.924   0.690 -0.5306 -0.1501 -0.1540
  572TMC3    C8 8491   1.346   2.594   0.717 -0.1863  0.3583  0.7467
  572TMC3    O1 8492   0.918   2.992   0.618  0.0797 -0.0320  0.1191
  572TMC3    O2 8493   1.413   2.529   0.640 -0.4043  0.0541  0.4580
  573MPD2     C 8494   2.241   3.363   1.175 -0.6382 -0.0371  0.1794
  573MPD2    C1 8495   2.126   3.425   1.127 -0.2541  0.2616  0.8369
  573MPD2    C2 8496   2.070   3.378   1.012 -0.0684 -0.3087  0.2612
  573MPD2    C3 8497   2.125   3.271   0.948 -0.1136  0.1225  0.2337
  573MPD2    C4 8498   2.236   3.204   1.002 -0.3648 -0.2271  0.1077
  573MPD2    C5 8499   2.296   3.259   1.106  0.8638 -0.0942  0.0720
  573MPD2     H 8500   1.988   3.431   0.966  0.2233 -0.6616 -0.6526
  573MPD2    H1 8501   2.288   3.120   0.957 -2.1682 -0.7899 -0.9474
  573MPD2    H2 8502   2.291   3.399   1.264  1.6543 -1.7538 -0.4313
  573MPD2    H3 8503   2.384   3.203   1.137  1.7982  1.1602 -0.3040
  573MPD2     N 8504   2.067   3.208   0.838 -0.4418  0.3613 -0.0773
  573MPD2    H5 8505   2.121   3.132   0.798 -0.7379  1.1224 -1.9239
  573MPD2    N1 8506   2.088   3.530   1.207  0.2089 -0.4497 -0.0122
  573MPD2    H7 8507   2.150   3.565   1.279 -1.0181  0.6990  0.4767
  574TMC3    C1 8508   1.922   3.162   0.654  0.1704  0.2258  0.5964
  574TMC3    C2 8509   1.795   3.161   0.610  0.4128  0.3949  0.8252
  574TMC3    C3 8510   1.775   3.140   0.476 -0.3472 -0.1028 -0.0893
  574TMC3    C4 8511   2.033   3.124   0.576  0.1223 -1.0334  0.1246
  574TMC3    C5 8512   1.999   3.090   0.449 -0.3036  0.0096 -0.4183
  574TMC3    C6 8513   1.872   3.089   0.396 -0.8578  0.1671  0.4313
  574TMC3     C 8514   1.944   3.233   0.785 -1.0286  0.7822 -0.3051
  574TMC3     O 8515   1.862   3.318   0.817 -0.3071  0.1810 -0.4727
  574TMC3     H 8516   1.715   3.208   0.667  0.5863  2.7924 -0.9311
  574TMC3    H1 8517   2.137   3.125   0.608  0.3003 -2.4566 -0.4314
  574TMC3    H2 8518   1.841   3.077   0.293 -2.3182  2.4686  0.6132
  574TMC3    C7 8519   2.092   3.141   0.350  0.6915 -0.2422 -0.5233
  574TMC3    C8 8520   1.656   3.198   0.416 -1.1684  0.0549 -0.0058
  574TMC3    O1 8521   2.174   3.230   0.375  0.5530  0.2250 -0.1298
  574TMC3    O2 8522   1.549   3.192   0.475 -0.5585 -0.0809  0.4639
  575TMC3    C1 8523   0.190   0.301  11.805  0.5153  0.2355  0.4294
  575TMC3    C2 8524   0.214   0.235  11.918  0.0886  0.0178 -0.2226
  575TMC3    C3 8525   0.223   0.097  11.907 -0.5479  0.1568 -0.4503
  575TMC3    C4 8526   0.185   0.240  11.685 -0.2643 -0.4249 -0.7980
  575TMC3    C5 8527   0.194   0.102  11.682  0.3967  0.1749 -0.2149
  575TMC3    C6 8528   0.210   0.021  11.791 -0.7724 -0.1943 -0.1707
  575TMC3     C 8529   0.148   0.438  11.817  1.1358 -0.1804  0.1980
  575TMC3     O 8530   0.101   0.460  11.927  0.0229  0.1046  0.0032
  575TMC3     H 8531   0.213   0.273  12.020  2.9950 -1.8915  0.5102
  575TMC3    H1 8532   0.171   0.289  11.589  1.9847  0.0462 -0.8881
  575TMC3    H2 8533   0.207   4.640  11.787 -1.5690 -0.2969  2.8715
  575TMC3    C7 8534   0.172   0.045  11.556  0.1592 -0.0806  0.6062
  575TMC3    C8 8535   0.270   0.019  12.018  0.0518 -0.2037  0.2963
  575TMC3    O1 8536   0.203   0.115  11.456 -0.1509 -0.0867  0.0146
  575TMC3    O2 8537   0.242   4.631  12.033  0.4980 -0.3470 -0.1273
  576MPD2     C 8538   4.708   1.043  12.659  0.0321  0.2064  0.8444
  576MPD2    C1 8539   4.721   1.166  12.608  0.6639 -0.6546 -0.0161
  576MPD2    C2 8540   4.658   1.273  12.665 -0.2948 -0.3982  1.6637
  576MPD2    C3 8541   4.571   1.251  12.777  0.1434  0.5039  0.5008
  576MPD2    C4 8542   4.555   1.124  12.823 -0.1542 -0.5079 -0.1033
  576MPD2    C5 8543   4.620   1.022  12.755  0.6692 -0.5528 -0.0052
  576MPD2     H 8544   4.679   1.372  12.625  2.4631 -0.4005  3.1180
  576MPD2    H1 8545   4.502   1.112  12.916 -0.7410  0.5987 -0.2969
  576MPD2    H2 8546   0.033   0.959  12.616 -1.3844 -0.9111  1.3135
  576MPD2    H3 8547   4.589   0.924  12.790 -2.6389  0.0611 -1.2078
  576MPD2     N 8548   4.504   1.354  12.844  0.6707 -0.0816 -0.0056
  576MPD2    H5 8549   4.445   1.324  12.920 -0.0586 -0.1057 -0.5860
  576MPD2    N1 8550   0.081   1.195  12.502  0.5375  0.0453  0.4030
  576MPD2    H7 8551   0.079   1.291  12.469  4.0551 -0.6345 -1.7838
  577TMC3    C1 8552   0.265   1.163  12.359  0.3935  0.0194 -0.0280
  577TMC3    C2 8553   0.389   1.101  12.350 -0.1994 -0.0878 -1.0400
  577TMC3    C3 8554   0.441   1.065  12.224  0.5046 -0.7436 -0.7371
  577TMC3    C4 8555   0.189   1.196  12.246 -0.7895  0.3852  0.0397
  577TMC3    C5 8556   0.244   1.157  12.125 -0.2921 -0.0780  0.7840
  577TMC3    C6 8557   0.368   1.096  12.108  0.1768  0.4027 -0.3900
  577TMC3     C 8558   0.185   1.114  12.466 -0.3247  0.8492 -0.2550
  577TMC3     O 8559   0.230   1.014  12.517  0.0863 -0.3387 -0.7478
  577TMC3     H 8560   0.449   1.078  12.438 -0.4892 -0.2252 -0.8815
  577TMC3    H1 8561   0.085   1.222  12.254 -0.8587  0.0668  0.1647
  577TMC3    H2 8562   0.408   1.060  12.014  0.2741 -1.1345  0.2374
  577TMC3    C7 8563   0.191   1.199  11.998  0.1723  0.6969 -0.3531
  577TMC3    C8 8564   0.558   0.976  12.227 -0.1321  0.6866 -0.1755
  577TMC3    O1 8565   0.253   1.177  11.894 -0.0746 -0.1250 -0.2395
  577TMC3    O2 8566   0.619   0.977  12.333  0.2531 -0.6111  0.3131
  578MPD2     C 8567   2.672   1.471   0.906 -0.4925 -0.1822  0.6233
  578MPD2    C1 8568   2.698   1.354   0.843  0.2175  0.3021 -0.4931
  578MPD2    C2 8569   2.823   1.304   0.832 -0.3212 -1.0238  0.0291
  578MPD2    C3 8570   2.926   1.368   0.894  1.1564  0.4653  0.2434
  578MPD2    C4 8571   2.903   1.491   0.951  0.7605  0.0422  0.2842
  578MPD2    C5 8572   2.774   1.551   0.948  0.1940 -0.4784  0.3590
  578MPD2     H 8573   2.855   1.217   0.777  1.7045 -0.5971  0.5476
  578MPD2    H1 8574   2.980   1.551   0.999  1.4709 -0.7521  0.1313
  578MPD2    H2 8575   2.574   1.516   0.911  0.0022  1.0257 -0.7571
  578MPD2    H3 8576   2.760   1.655   0.977 -0.3821 -0.0277 -1.4994
  578MPD2     N 8577   3.051   1.304   0.888 -0.6006 -0.1760 -0.1269
  578MPD2    H5 8578   3.058   1.233   0.816 -0.5440 -1.6788  1.3585
  578MPD2    N1 8579   2.591   1.283   0.791  0.1181  0.2784 -0.3063
  578MPD2    H7 8580   2.507   1.340   0.797  0.1439  0.2956 -0.1175
  579TMC3    C1 8581   3.264   1.234   0.968  0.1904 -0.0687 -0.5459
  579TMC3    C2 8582   3.393   1.277   1.005 -0.8705  0.0065 -0.4115
  579TMC3    C3 8583   3.492   1.184   1.002  0.0584 -0.6905 -0.0262
  579TMC3    C4 8584   3.234   1.100   0.944  0.4217  0.0055 -0.5009
  579TMC3    C5 8585   3.335   1.010   0.943 -0.1399  0.4163  0.2650
  579TMC3    C6 8586   3.467   1.050   0.977 -0.5369 -0.1173  0.4582
  579TMC3     C 8587   3.161   1.333   0.972  0.5838 -0.3104  0.1818
  579TMC3     O 8588   3.177   1.421   1.059 -0.8658  0.1382  0.2650
  579TMC3     H 8589   3.413   1.382   1.024  0.8863 -0.1995 -1.1222
  579TMC3    H1 8590   3.132   1.068   0.923  0.7741 -1.6295  0.2649
  579TMC3    H2 8591   3.549   0.982   0.992  0.9707  1.4253 -0.8242
  579TMC3    C7 8592   3.320   0.872   0.913 -0.2096 -0.2222  0.1772
  579TMC3    C8 8593   3.629   1.222   1.034  0.2347  0.0198 -0.0628
  579TMC3    O1 8594   3.406   0.794   0.954 -0.1839 -0.1543 -0.1837
  579TMC3    O2 8595   3.713   1.151   0.984 -0.4616 -0.3000 -0.6005
  580TMC3    C1 8596   2.790   0.222  11.835 -0.2258 -0.1488 -0.1392
  580TMC3    C2 8597   2.901   0.287  11.786 -0.7035  0.2462 -0.3694
  580TMC3    C3 8598   3.018   0.220  11.797  0.4650  1.2196 -0.4156
  580TMC3    C4 8599   2.793   0.097  11.892 -0.6291  0.9981 -0.2483
  580TMC3    C5 8600   2.919   0.043  11.898  0.4213 -0.1065 -0.0443
  580TMC3    C6 8601   3.030   0.096  11.849  0.4177  0.2042  0.1260
  580TMC3     C 8602   2.653   0.280  11.816  0.2234  0.6680  1.0448
  580TMC3     O 8603   2.562   0.208  11.855 -0.0642  0.1076 -0.6895
  580TMC3     H 8604   2.901   0.384  11.737 -1.0924  0.1950 -0.4719
  580TMC3    H1 8605   2.712   0.041  11.936 -0.2389  0.7724  0.1832
  580TMC3    H2 8606   3.126   0.053  11.873  1.1965  1.1780 -1.2823
  580TMC3    C7 8607   2.942   4.646  11.969  0.7549  0.1081 -0.4266
  580TMC3    C8 8608   3.139   0.283  11.757  0.2400 -0.0996 -0.5278
  580TMC3    O1 8609   3.053   4.633  12.020  0.5047 -0.2555 -0.2245
  580TMC3    O2 8610   3.140   0.408  11.770 -0.3422 -0.3683  0.5496
  581MPD2     C 8611   0.510   4.459  14.843  0.1728  0.3482 -0.3786
  581MPD2    C1 8612   0.443   4.490  14.960  0.1620 -0.1174 -0.3344
  581MPD2    C2 8613   0.324   4.569  14.956 -0.5271  0.0178 -0.1513
  581MPD2    C3 8614   0.270   4.605  14.834 -0.6124  0.0125 -0.1216
  581MPD2    C4 8615   0.339   4.561  14.717  0.0954 -0.1185 -0.3498
  581MPD2    C5 8616   0.458   4.497  14.726 -0.0463  0.3536 -0.0639
  581MPD2     H 8617   0.272   4.598  15.047  1.9897  0.0423  1.2566
  581MPD2    H1 8618   0.293   4.571  14.619  0.2946 -1.5769 -0.5938
  581MPD2    H2 8619   0.611   4.420  14.842 -0.6625 -1.8849  2.1141
  581MPD2    H3 8620   0.518   4.481  14.637 -0.8046 -2.5136 -0.0790
  581MPD2     N 8621   0.137   4.658  14.831  0.4397  0.3529 -0.7188
  581MPD2    H5 8622   0.098   4.702  14.913  1.3847 -3.6985  1.8746
  581MPD2    N1 8623   0.491   4.436  15.088  0.1273 -0.8910  0.6231
  581MPD2    H7 8624   0.568   4.370  15.093  0.3548 -0.6438  0.3843
  582TMC3    C1 8625   0.502   4.401  15.309  0.7516 -0.2719 -0.5087
  582TMC3    C2 8626   0.544   4.466  15.425 -0.1505  0.4036  0.2631
  582TMC3    C3 8627   0.601   4.383  15.514  0.1781  0.5355 -0.3289
  582TMC3    C4 8628   0.498   4.267  15.299  0.1380  0.0784  0.1273
  582TMC3    C5 8629   0.540   4.189  15.404 -0.2288  0.2923  0.2303
  582TMC3    C6 8630   0.601   4.246  15.507 -0.6060  0.2610  0.3256
  582TMC3     C 8631   0.440   4.479  15.208 -0.6142 -0.0584  0.1266
  582TMC3     O 8632   0.381   4.585  15.233 -0.6750 -0.0751  0.6869
  582TMC3     H 8633   0.549   4.575  15.426  2.2598  0.2836  1.5803
  582TMC3    H1 8634   0.463   4.215  15.210  0.3989  0.7026 -0.3410
  582TMC3    H2 8635   0.606   4.187  15.597  2.3644 -0.6931 -0.4817
  582TMC3    C7 8636   0.460   4.077  15.447  0.1273  0.1266  0.3008
  582TMC3    C8 8637   0.620   4.437  15.645  1.0841 -0.1409 -0.5970
  582TMC3    O1 8638   0.522   3.991  15.502  0.2809 -0.4202  0.2692
  582TMC3    O2 8639   0.542   4.528  15.670 -0.3740 -0.0653 -0.2029
  583MPD2     C 8640   0.085   1.588  16.504 -1.1348 -0.0510 -0.0916
  583MPD2    C1 8641   0.186   1.568  16.590 -0.6503 -0.3834  0.1876
  583MPD2    C2 8642   0.209   1.644  16.702  0.6863  0.2158  0.4552
  583MPD2    C3 8643   0.132   1.758  16.715  0.5952  0.2341  0.6164
  583MPD2    C4 8644   0.034   1.791  16.618  0.0740  0.1959  0.5971
  583MPD2    C5 8645   0.004   1.695  16.524  0.6306  0.3095  0.3211
  583MPD2     H 8646   0.284   1.608  16.772  0.6973  0.9943  0.8363
  583MPD2    H1 8647   4.694   1.876  16.616  1.8496  1.6356  2.3827
  583MPD2    H2 8648   0.053   1.508  16.437  1.5450 -1.0041 -0.2266
  583MPD2    H3 8649   4.642   1.699  16.463  1.8484 -2.5436 -1.6262
  583MPD2     N 8650   0.141   1.840  16.828 -0.4245  0.0539 -0.8035
  583MPD2    H5 8651   0.193   1.798  16.905 -0.6105  2.2899  0.5628
  583MPD2    N1 8652   0.278   1.453  16.579  0.0701 -0.1399 -0.0036
  583MPD2    H7 8653   0.357   1.458  16.643 -0.3920  0.6909  0.5066
  584TMC3    C1 8654   0.135   2.035  16.956  0.7077  0.6343  0.0213
  584TMC3    C2 8655   0.169   2.165  16.960 -0.1217 -0.6602 -0.2055
  584TMC3    C3 8656   0.226   2.226  17.074  0.0423 -0.4887  0.2398
  584TMC3    C4 8657   0.149   1.961  17.068 -0.1241  0.3543 -0.3439
  584TMC3    C5 8658   0.211   2.015  17.181  1.5930  0.5071 -0.2369
  584TMC3    C6 8659   0.256   2.151  17.182  0.3135 -0.0853 -0.1960
  584TMC3     C 8660   0.109   1.969  16.827 -0.1204 -0.2548 -0.4815
  584TMC3     O 8661   0.066   2.044  16.739  0.2626  0.4895  0.4748
  584TMC3     H 8662   0.149   2.231  16.876 -0.1078  0.3779  0.5991
  584TMC3    H1 8663   0.103   1.863  17.073 -0.3379  0.4942  0.4275
  584TMC3    H2 8664   0.301   2.194  17.271 -0.8166 -2.2709  1.4333
  584TMC3    C7 8665   0.218   1.944  17.308 -0.5127 -0.2839 -0.2597
  584TMC3    C8 8666   0.322   2.332  17.032 -0.7909  0.7547 -0.0131
  584TMC3    O1 8667   0.207   2.009  17.412  0.2286  0.5792  0.6059
  584TMC3    O2 8668   0.343   2.341  16.913 -0.2148 -0.2224  0.4457
  585MPD2     C 8669   0.487   0.714   0.930  0.1662  0.0239 -0.1578
  585MPD2    C1 8670   0.517   0.706   0.793 -0.0270  0.4367 -0.1816
  585MPD2    C2 8671   0.429   0.645   0.701 -0.1164 -0.0376 -0.6094
  585MPD2    C3 8672   0.304   0.589   0.750  0.1099 -0.1974  0.2870
  585MPD2    C4 8673   0.289   0.584   0.888  0.1535  0.2919  0.2850
  585MPD2    C5 8674   0.380   0.648   0.971 -0.7236  0.3694 -0.0225
  585MPD2     H 8675   0.449   0.654   0.595 -3.9630  0.3937 -1.3016
  585MPD2    H1 8676   0.200   0.545   0.937 -0.6541  0.8230 -0.7625
  585MPD2    H2 8677   0.555   0.769   0.994  1.2486 -0.9516 -0.4703
  585MPD2    H3 8678   0.353   0.646   1.076 -1.8946  0.5237 -0.3245
  585MPD2     N 8679   0.196   0.542   0.664 -0.0282 -0.5349  0.2457
  585MPD2    H5 8680   0.114   0.502   0.708 -0.8286 -0.3727 -1.1111
  585MPD2    N1 8681   0.614   0.795   0.745  0.9720 -0.2709 -0.0959
  585MPD2    H7 8682   0.641   0.873   0.804  0.4563 -1.6449  1.9505
  586TMC3    C1 8683   0.086   0.503   0.459  0.1463 -0.0672  0.5100
  586TMC3    C2 8684   0.093   0.480   0.326  0.1397  0.8355 -0.0212
  586TMC3    C3 8685   4.716   0.521   0.254 -0.0985  0.1321  0.0287
  586TMC3    C4 8686   4.701   0.537   0.519  0.3706 -0.0940 -0.0521
  586TMC3    C5 8687   4.594   0.566   0.442 -0.4004 -0.1903 -0.6898
  586TMC3    C6 8688   4.597   0.555   0.310 -0.3950  0.3114 -0.1452
  586TMC3     C 8689   0.204   0.543   0.526 -0.0245  0.5891 -0.2626
  586TMC3     O 8690   0.301   0.565   0.454 -0.3202  0.0066 -0.2550
  586TMC3     H 8691   0.186   0.463   0.274  1.4217 -2.1705  3.2427
  586TMC3    H1 8692   4.695   0.535   0.627  1.1826  2.1475  0.0188
  586TMC3    H2 8693   4.519   0.599   0.248  2.3854  2.7866 -1.9219
  586TMC3    C7 8694   4.466   0.612   0.510 -0.2186 -0.2941  0.1881
  586TMC3    C8 8695   4.715   0.438   0.136 -0.9134 -0.3146  0.6995
  586TMC3    O1 8696   4.482   0.649   0.627  0.3261 -0.1475  0.0810
  586TMC3    O2 8697   0.062   0.346   0.135 -0.6229  0.2057 -0.3594
  587TMC3    C1 8698   1.987   4.035  16.426  0.3039  0.7924 -0.4371
  587TMC3    C2 8699   1.918   4.152  16.416  0.1162  0.0856 -0.0759
  587TMC3    C3 8700   1.961   4.232  16.311  0.2640 -1.1266  0.5766
  587TMC3    C4 8701   2.085   4.003  16.343 -0.2601 -0.5658  0.2910
  587TMC3    C5 8702   2.127   4.083  16.247  0.5527  0.2524  0.5715
  587TMC3    C6 8703   2.071   4.207  16.233 -0.6681  0.5052 -0.0803
  587TMC3     C 8704   1.955   3.936  16.526  0.3586  0.5253  0.4140
  587TMC3     O 8705   1.968   3.814  16.505 -0.0056  0.5996 -0.2703
  587TMC3     H 8706   1.826   4.167  16.471  1.6661  2.8980  1.7711
  587TMC3    H1 8707   2.131   3.905  16.349  0.3414 -0.1972  1.8019
  587TMC3    H2 8708   2.093   4.264  16.144  1.6550 -1.8964 -1.0497
  587TMC3    C7 8709   2.272   4.067  16.216  0.0560  0.8369  0.1586
  587TMC3    C8 8710   1.896   4.355  16.290  0.1576 -0.0940  0.0681
  587TMC3    O1 8711   2.333   3.964  16.235  0.1334 -0.1953  0.0596
  587TMC3    O2 8712   1.928   4.416  16.189 -0.2558 -0.0685  0.2615
  588TMC3    C1 8713   4.511   1.859   9.892 -0.7790 -0.7419  0.1307
  588TMC3    C2 8714   4.478   1.729   9.888  0.0865  0.7330  0.3210
  588TMC3    C3 8715   4.529   1.641   9.981  0.2111 -0.6373  0.1996
  588TMC3    C4 8716   4.604   1.900   9.988  0.4366 -0.2779  0.6791
  588TMC3    C5 8717   4.644   1.820  10.095 -0.6828 -0.3300 -0.5419
  588TMC3    C6 8718   4.607   1.687  10.085 -0.3759 -1.4114 -0.8221
  588TMC3     C 8719   4.438   1.959   9.811 -0.0004  0.0710  0.0042
  588TMC3     O 8720   4.337   1.926   9.754  1.0451 -0.1024 -0.5194
  588TMC3     H 8721   4.417   1.682   9.811  0.5519 -0.0269  0.4155
  588TMC3    H1 8722   4.629   2.002  10.016 -3.1496  0.7668  0.0396
  588TMC3    H2 8723   4.653   1.623  10.160 -2.5153 -2.5252 -0.4673
  588TMC3    C7 8724   0.002   1.866  10.203 -0.1788  0.7271  0.1838
  588TMC3    C8 8725   4.449   1.517   9.995 -0.4828  0.5106 -0.0726
  588TMC3    O1 8726   0.022   1.792  10.296  0.7487  0.6063  0.2824
  588TMC3    O2 8727   4.371   1.488   9.906  0.1959  0.1269  0.4531
  589TMC3    C1 8728   2.620   4.086   1.151  0.3945  0.4678 -0.4807
  589TMC3    C2 8729   2.668   4.054   1.283 -0.4323 -0.4813  0.3148
  589TMC3    C3 8730   2.756   3.955   1.281  0.0080 -0.2004  0.5036
  589TMC3    C4 8731   2.655   4.021   1.037 -0.3392  0.1054  0.5950
  589TMC3    C5 8732   2.735   3.912   1.055  0.1468 -0.4242 -0.2592
  589TMC3    C6 8733   2.794   3.880   1.170 -0.0407  0.4353  0.4286
  589TMC3     C 8734   2.561   4.219   1.122 -0.6013  0.2599 -0.2063
  589TMC3     O 8735   2.521   4.258   1.012 -0.2290  0.3859  0.6856
  589TMC3     H 8736   2.649   4.116   1.370 -0.9333 -1.6262  1.0246
  589TMC3    H1 8737   2.597   4.023   0.946  0.4844  0.7012  0.0878
  589TMC3    H2 8738   2.867   3.801   1.180 -0.5326  0.1534  1.7320
  589TMC3    C7 8739   2.776   3.831   0.948  0.5205 -1.0157  0.2175
  589TMC3    C8 8740   2.809   3.916   1.403 -0.6605  0.3042  0.4208
  589TMC3    O1 8741   2.810   3.712   0.970  0.0161  0.1533  0.1063
  589TMC3    O2 8742   2.728   3.921   1.494 -0.0226 -0.6046 -0.1003
  590MPD2     C 8743   2.676   1.963  16.603 -0.3755  0.1091  0.4504
  590MPD2    C1 8744   2.626   2.076  16.542 -0.0357 -0.1085  0.3998
  590MPD2    C2 8745   2.717   2.154  16.474 -0.3266 -0.4295  0.5025
  590MPD2    C3 8746   2.850   2.119  16.463  0.0869 -0.2845  0.5109
  590MPD2    C4 8747   2.892   2.006  16.522  0.2185  0.7116  0.1640
  590MPD2    C5 8748   2.806   1.925  16.584 -0.3592 -0.1451  0.9271
  590MPD2     H 8749   2.684   2.252  16.442  0.8135  0.3411  1.7233
  590MPD2    H1 8750   2.992   1.969  16.504 -0.8789 -1.6472 -1.0328
  590MPD2    H2 8751   2.613   1.885  16.645 -0.2993  0.4928  1.2832
  590MPD2    H3 8752   2.848   1.835  16.628 -1.2284 -0.4560  1.1220
  590MPD2     N 8753   2.926   2.217  16.401 -0.1291  0.1240 -0.4215
  590MPD2    H5 8754   2.872   2.292  16.358  1.5185  0.6648 -1.5467
  590MPD2    N1 8755   2.493   2.123  16.564  0.0378  0.1745  0.0443
  590MPD2    H7 8756   2.469   2.203  16.506  0.8227  0.9938  0.8392
  591TMC3    C1 8757   3.119   2.344  16.340  0.2105 -0.0151  0.3575
  591TMC3    C2 8758   3.256   2.348  16.334 -0.2644  0.7957  0.5475
  591TMC3    C3 8759   3.310   2.460  16.276 -0.4677 -0.4012 -0.5397
  591TMC3    C4 8760   3.038   2.437  16.290 -0.1278  0.4013 -0.6325
  591TMC3    C5 8761   3.090   2.544  16.227 -0.0516  0.1047  0.8711
  591TMC3    C6 8762   3.227   2.558  16.223  0.5399  0.5322 -0.5859
  591TMC3     C 8763   3.064   2.217  16.388  0.0050 -0.4994  0.8046
  591TMC3     O 8764   3.151   2.139  16.426 -0.5457  0.3616 -0.6488
  591TMC3     H 8765   3.317   2.277  16.388 -2.4252  1.3416  3.6795
  591TMC3    H1 8766   2.932   2.427  16.310  0.0075  1.2702  0.4917
  591TMC3    H2 8767   3.269   2.650  16.185 -0.0338  1.0951  0.1510
  591TMC3    C7 8768   2.999   2.645  16.178 -0.1556 -0.0895  0.8624
  591TMC3    C8 8769   3.437   2.420  16.209 -0.0703  0.4944  0.0423
  591TMC3    O1 8770   2.885   2.633  16.221 -0.9473 -0.2731  0.5974
  591TMC3    O2 8771   3.471   2.304  16.215  0.9593  0.4020 -0.0381
  592MPD2     C 8772   3.899   4.439  11.556  0.3517  0.2880  0.2865
  592MPD2    C1 8773   3.905   4.483  11.682 -0.6907  0.0826 -0.7329
  592MPD2    C2 8774   3.807   4.442  11.767 -0.0823 -0.4727 -0.4098
  592MPD2    C3 8775   3.704   4.360  11.725  0.3155 -0.5778 -0.1394
  592MPD2    C4 8776   3.698   4.323  11.589 -0.1710  0.0048 -0.0170
  592MPD2    C5 8777   3.794   4.360  11.506  0.6876 -0.1134  0.5232
  592MPD2     H 8778   3.801   4.452  11.875  2.8753 -2.8225 -0.0526
  592MPD2    H1 8779   3.615   4.262  11.557 -1.1549  0.9809  0.6605
  592MPD2    H2 8780   3.976   4.469  11.485 -0.9597  1.5061 -0.6007
  592MPD2    H3 8781   3.791   4.334  11.401  1.1462  0.9264  0.2440
  592MPD2     N 8782   3.594   4.322  11.821 -0.3369 -0.0345  0.1598
  592MPD2    H5 8783   3.609   4.354  11.916  0.3804  0.6996 -0.2081
  592MPD2    N1 8784   4.011   4.564  11.728  0.4116 -0.2327  0.0152
  592MPD2    H7 8785   4.084   4.585  11.660 -0.0715  0.4202 -0.2996
  593TMC3    C1 8786   4.137   4.709  11.863  0.8032  0.4328  0.7997
  593TMC3    C2 8787   4.169   0.013  11.990 -0.1845 -0.4900  0.4144
  593TMC3    C3 8788   4.210   0.139  12.015 -1.1256  1.0892 -0.4840
  593TMC3    C4 8789   4.159   0.067  11.755  0.6441  0.4910  0.5821
  593TMC3    C5 8790   4.205   0.195  11.785 -0.0273 -0.4760 -0.4728
  593TMC3    C6 8791   4.230   0.228  11.913  0.6744 -0.0320  0.3928
  593TMC3     C 8792   4.036   4.606  11.856  0.0963 -0.0882 -0.0243
  593TMC3     O 8793   3.990   4.579  11.967  0.5090 -0.0136 -0.5861
  593TMC3     H 8794   4.160   4.665  12.068  1.6359 -0.4080  0.7130
  593TMC3    H1 8795   4.098   0.046  11.669 -0.7215  0.6952  1.5051
  593TMC3    H2 8796   4.276   0.324  11.935  1.8683 -0.8096  1.2608
  593TMC3    C7 8797   4.218   0.293  11.677 -0.3291  0.1130 -0.6473
  593TMC3    C8 8798   4.205   0.172  12.152 -0.5598 -0.6234  0.3021
  593TMC3    O1 8799   4.244   0.409  11.709  0.6527  0.3453 -0.0930
  593TMC3    O2 8800   4.118   0.111  12.213  0.2613 -0.2066 -0.1310
  594MPD2     C 8801   2.145   3.391  13.824  0.0259 -0.0706  0.1617
  594MPD2    C1 8802   2.150   3.397  13.963 -0.5837 -0.5911 -0.2122
  594MPD2    C2 8803   2.201   3.507  14.022  0.2683  0.4024  0.2482
  594MPD2    C3 8804   2.268   3.601  13.949 -0.7950 -0.6510  1.5287
  594MPD2    C4 8805   2.275   3.586  13.813 -0.6886  0.1946 -0.2435
  594MPD2    C5 8806   2.215   3.483  13.751  0.1021 -0.1672 -0.3920
  594MPD2     H 8807   2.192   3.527  14.128 -0.4968  1.1840  0.0397
  594MPD2    H1 8808   2.323   3.663  13.754 -3.0998  2.1991  0.3962
  594MPD2    H2 8809   2.096   3.307  13.776 -2.6365  1.5415  0.0238
  594MPD2    H3 8810   2.231   3.471  13.644 -1.6831  0.1459 -0.6910
  594MPD2     N 8811   2.336   3.697  14.023  0.2581 -0.5249 -0.1828
  594MPD2    H5 8812   2.341   3.697  14.125 -1.1306  1.3368 -0.1128
  594MPD2    N1 8813   2.093   3.287  14.029  0.4330  0.3752  0.1882
  594MPD2    H7 8814   2.038   3.223  13.973 -0.4322  0.3966  1.0260
  595TMC3    C1 8815   2.686   3.946  14.146 -0.3141 -0.4270  0.3571
  595TMC3    C2 8816   2.600   3.919  14.047 -0.0285  0.0109 -0.9461
  595TMC3    C3 8817   2.478   3.863  14.076  0.4396  0.3620  0.1182
  595TMC3    C4 8818   2.656   3.935  14.277  0.3819 -0.2360 -0.4933
  595TMC3    C5 8819   2.534   3.877  14.305  0.4469 -0.2645  0.8529
  595TMC3    C6 8820   2.445   3.835  14.208  0.3259 -0.1713  1.3143
  595TMC3     C 8821   2.828   3.965  14.111 -0.1402  0.2407 -0.4059
  595TMC3     O 8822   2.856   3.973  13.995  0.0440 -0.1000 -0.1619
  595TMC3     H 8823   2.624   3.929  13.941 -0.2214  1.1822 -0.8751
  595TMC3    H1 8824   2.716   3.976  14.358 -0.3303  0.2468 -0.2093
  595TMC3    H2 8825   2.342   3.811  14.230 -0.4981  1.7636 -0.5449
  595TMC3    C7 8826   2.472   3.898  14.435 -0.9480  0.5786  0.2621
  595TMC3    C8 8827   2.413   3.790  13.970 -0.7594 -0.2953 -0.3186
  595TMC3    O1 8828   2.360   3.854  14.466 -0.3901 -0.6071 -0.4511
  595TMC3    O2 8829   2.448   3.804  13.851 -0.4253 -0.5550  0.6786
  596MPD2     C 8830   1.253   1.406  16.660 -0.5626 -0.0801 -0.0383
  596MPD2    C1 8831   1.180   1.492  16.580  0.3086 -0.6160  0.1895
  596MPD2    C2 8832   1.177   1.473  16.443  0.1056  0.2223 -0.0279
  596MPD2    C3 8833   1.235   1.367  16.377 -0.5977  0.2736 -0.0665
  596MPD2    C4 8834   1.298   1.278  16.454  0.5916 -0.3193 -0.0724
  596MPD2    C5 8835   1.312   1.298  16.596 -0.2268 -0.1294 -0.3286
  596MPD2     H 8836   1.112   1.539  16.387 -0.3359  0.1418  0.3862
  596MPD2    H1 8837   1.341   1.193  16.403  0.4537 -0.5970  0.2783
  596MPD2    H2 8838   1.263   1.417  16.767 -0.5657  0.5600 -0.1010
  596MPD2    H3 8839   1.370   1.228  16.655 -1.2320  0.6354  1.5588
  596MPD2     N 8840   1.210   1.358  16.236  0.4645 -0.0826 -0.0234
  596MPD2    H5 8841   1.168   1.437  16.189 -0.2063 -1.5972 -1.9593
  596MPD2    N1 8842   1.118   1.607  16.632  0.5187 -0.1884  0.5682
  596MPD2    H7 8843   1.081   1.665  16.557  1.7266 -0.9104 -0.5676
  597TMC3    C1 8844   1.063   1.776  16.784  0.6248  0.2106 -0.6360
  597TMC3    C2 8845   1.138   1.872  16.730 -0.3180 -0.7171  0.0782
  597TMC3    C3 8846   1.133   2.000  16.781 -0.0444  0.0028 -1.1681
  597TMC3    C4 8847   0.986   1.797  16.893 -0.2833  0.9508 -0.1642
  597TMC3    C5 8848   0.977   1.925  16.939 -0.5550  0.2599 -0.0321
  597TMC3    C6 8849   1.058   2.026  16.892 -0.0797  0.1632 -0.5201
  597TMC3     C 8850   1.117   1.641  16.768 -0.1700 -0.0689 -0.5206
  597TMC3     O 8851   1.131   1.576  16.869  0.0830 -0.2968  0.5356
  597TMC3     H 8852   1.190   1.842  16.639 -1.2613 -2.2678  0.0458
  597TMC3    H1 8853   0.930   1.726  16.952  1.9658 -0.7398 -0.0676
  597TMC3    H2 8854   1.053   2.127  16.931  0.8105  0.1056 -0.2623
  597TMC3    C7 8855   0.935   1.939  17.078  0.0574 -0.1198  0.3210
  597TMC3    C8 8856   1.155   2.109  16.698  0.2131  0.0526 -0.2356
  597TMC3    O1 8857   0.937   1.838  17.148 -0.1300  0.5408 -0.2661
  597TMC3    O2 8858   1.095   2.213  16.731 -0.1313 -0.0289  0.0571
  598TMC3    C1 8859   4.355   2.908  15.778  0.3472 -0.2937 -0.6467
  598TMC3    C2 8860   4.243   2.850  15.737 -0.6585  0.6796 -0.3545
  598TMC3    C3 8861   4.165   2.913  15.640  0.0534 -0.3347  0.5811
  598TMC3    C4 8862   4.399   3.025  15.716  0.7046 -0.3905 -0.3672
  598TMC3    C5 8863   4.310   3.092  15.629 -0.3868 -0.2224  0.2502
  598TMC3    C6 8864   4.193   3.035  15.586 -0.3538 -0.5594 -0.3461
  598TMC3     C 8865   4.438   2.841  15.878  0.4871  0.0375 -0.0524
  598TMC3     O 8866   4.384   2.780  15.966 -0.0407 -0.0537 -0.0683
  598TMC3     H 8867   4.203   2.758  15.777  1.4361 -0.0677  0.0647
  598TMC3    H1 8868   4.491   3.072  15.748  0.7321 -0.1971 -0.7309
  598TMC3    H2 8869   4.128   3.080  15.512  0.9254 -2.2348 -2.4764
  598TMC3    C7 8870   4.366   3.196  15.543  0.1529 -0.9074 -0.1370
  598TMC3    C8 8871   4.024   2.874  15.629 -0.1697 -0.5752  0.2751
  598TMC3    O1 8872   4.279   3.268  15.499  0.8001  0.2497 -0.5550
  598TMC3    O2 8873   3.938   2.938  15.681 -0.3742 -0.3797 -0.0487
  599MPD2     C 8874   0.010   0.687  16.270  0.3689  1.0631 -0.1880
  599MPD2    C1 8875   4.632   0.612  16.215  0.6941 -0.3768  0.3484
  599MPD2    C2 8876   4.508   0.669  16.188  0.3456  0.2444  0.3084
  599MPD2    C3 8877   4.493   0.799  16.196 -0.6217 -0.5612  0.4324
  599MPD2    C4 8878   4.604   0.879  16.231  0.0116 -0.2252 -0.0510
  599MPD2    C5 8879   4.722   0.819  16.269  0.0567 -0.7376 -0.2940
  599MPD2     H 8880   4.425   0.608  16.153  1.9924 -1.0484 -1.3699
  599MPD2    H1 8881   4.605   0.987  16.237  1.9857 -0.2665  0.3637
  599MPD2    H2 8882   0.112   0.651  16.285  0.4449  2.3145  2.3315
  599MPD2    H3 8883   0.080   0.877  16.304 -0.3405 -0.5017  0.2672
  599MPD2     N 8884   4.364   0.865  16.170  0.4116 -0.4148  0.4147
  599MPD2    H5 8885   4.368   0.966  16.159 -0.3425 -0.4885 -0.5362
  599MPD2    N1 8886   4.647   0.473  16.207 -0.2959 -0.2532  0.2064
  599MPD2    H7 8887   0.004   0.430  16.244 -0.1188 -1.3758 -1.5295
  600TMC3    C1 8888   4.131   0.900  16.128 -0.1444 -0.0394 -0.0158
  600TMC3    C2 8889   4.002   0.849  16.115  0.5060 -0.4174 -0.1567
  600TMC3    C3 8890   3.905   0.930  16.090 -0.3862  0.4977  0.4123
  600TMC3    C4 8891   4.154   1.031  16.138  0.3771  0.0551 -0.6402
  600TMC3    C5 8892   4.049   1.109  16.118 -0.4001 -0.0242 -0.1185
  600TMC3    C6 8893   3.922   1.066  16.081  0.1134  0.0750 -0.1827
  600TMC3     C 8894   4.240   0.803  16.162 -0.4453  0.7690  0.1029
  600TMC3     O 8895   4.210   0.680  16.178 -0.0030  0.3544 -0.2335
  600TMC3     H 8896   3.989   0.742  16.110 -2.8838  0.0655 -2.0445
  600TMC3    H1 8897   4.253   1.073  16.120  0.4079  0.7743  1.1458
  600TMC3    H2 8898   3.848   1.142  16.058 -0.5892 -0.0923  1.5160
  600TMC3    C7 8899   4.024   1.178  16.242 -0.5476 -0.1963 -0.0748
  600TMC3    C8 8900   3.775   0.879  16.126  0.6976  0.7635  0.5797
  600TMC3    O1 8901   3.913   1.226  16.252  0.0776  0.2611 -0.2442
  600TMC3    O2 8902   3.740   0.761  16.109  0.0912 -0.4549 -0.2620
  601MPD2     C 8903   0.651   3.098   1.040  0.3018 -0.5662 -0.0804
  601MPD2    C1 8904   0.701   3.157   0.925 -0.2836 -0.9832 -0.4882
  601MPD2    C2 8905   0.799   3.093   0.854  0.3196 -0.1653  0.1410
  601MPD2    C3 8906   0.868   2.982   0.898 -1.2875  0.5708 -0.4203
  601MPD2    C4 8907   0.833   2.941   1.026  0.2130 -0.7231  0.0026
  601MPD2    C5 8908   0.717   2.989   1.086  0.1658  0.4135 -0.1865
  601MPD2     H 8909   0.826   3.136   0.759  2.3054 -2.3331 -0.2894
  601MPD2    H1 8910   0.882   2.857   1.076  3.1111 -0.3913 -2.2892
  601MPD2    H2 8911   0.562   3.130   1.093  1.1633  0.6024  0.6760
  601MPD2    H3 8912   0.680   2.955   1.183 -1.9856 -0.5262 -1.3195
  601MPD2     N 8913   0.967   2.910   0.825 -0.2019 -0.1556  0.4168
  601MPD2    H5 8914   1.010   2.828   0.868 -0.0133  0.2318  0.9675
  601MPD2    N1 8915   0.658   3.284   0.880  0.2396 -0.0889 -0.5404
  601MPD2    H7 8916   0.707   3.320   0.799  2.3438 -2.6436 -0.4176
  602TMC3    C1 8917   0.552   3.490   0.884 -0.7908 -0.2078 -0.8223
  602TMC3    C2 8918   0.668   3.542   0.830 -0.4511  0.0521  0.7667
  602TMC3    C3 8919   0.647   3.649   0.746  0.0641  0.1639  0.5499
  602TMC3    C4 8920   0.428   3.542   0.863  0.1068 -0.0511 -0.1046
  602TMC3    C5 8921   0.415   3.648   0.777 -0.0594  0.5324  0.1905
  602TMC3    C6 8922   0.527   3.703   0.724  0.4067 -0.5116 -0.1160
  602TMC3     C 8923   0.552   3.354   0.936  0.7557  0.7345  0.2066
  602TMC3     O 8924   0.471   3.321   1.020 -0.0747 -0.1362  0.0387
  602TMC3     H 8925   0.767   3.504   0.852 -0.1156 -0.4640 -1.5765
  602TMC3    H1 8926   0.338   3.489   0.893  0.3823 -0.3706  0.1534
  602TMC3    H2 8927   0.529   3.790   0.661 -0.0624 -0.7381 -0.4449
  602TMC3    C7 8928   0.281   3.673   0.716  0.2485  0.3276  0.6850
  602TMC3    C8 8929   0.762   3.687   0.667  0.3733  1.1002 -0.4114
  602TMC3    O1 8930   0.179   3.650   0.780  0.2638 -0.0567 -0.1267
  602TMC3    O2 8931   0.870   3.633   0.684 -0.3043 -0.0163 -0.1323
  603TMC3    C1 8932   4.473   3.795  11.190 -0.2292 -0.2223  0.8130
  603TMC3    C2 8933   4.403   3.783  11.301  0.2784 -0.3357 -0.2322
  603TMC3    C3 8934   4.339   3.886  11.349 -0.2566  0.1818 -0.5653
  603TMC3    C4 8935   4.469   3.909  11.121  0.1256 -0.6541 -0.3600
  603TMC3    C5 8936   4.414   4.023  11.182 -0.3099  0.5330 -0.6044
  603TMC3    C6 8937   4.348   4.013  11.301  1.0547  1.0155  0.9873
  603TMC3     C 8938   4.553   3.687  11.137 -0.6392 -0.1025 -0.2086
  603TMC3     O 8939   4.599   3.712  11.025  0.4999 -0.1736 -0.0251
  603TMC3     H 8940   4.374   3.683  11.332  0.5058 -0.4424 -0.3631
  603TMC3    H1 8941   4.506   3.919  11.019 -1.3011 -1.0198 -0.9146
  603TMC3    H2 8942   4.296   4.101  11.338  1.8002  2.4493 -1.4026
  603TMC3    C7 8943   4.447   4.154  11.132 -0.6743 -0.7092  0.2692
  603TMC3    C8 8944   4.255   3.858  11.459  0.0750  0.8521  0.3729
  603TMC3    O1 8945   4.479   4.234  11.218  0.2754  0.0976 -0.8548
  603TMC3    O2 8946   4.291   3.760  11.522 -0.0385  0.4291  0.2623
  604MPD2     C 8947   0.389   2.611  16.702  0.2340  0.2822 -0.8260
  604MPD2    C1 8948   0.272   2.564  16.648 -0.3575 -0.8371  0.7867
  604MPD2    C2 8949   0.272   2.517  16.518 -0.2650 -0.2519  0.1855
  604MPD2    C3 8950   0.391   2.491  16.454  0.1323  0.3407 -0.4220
  604MPD2    C4 8951   0.510   2.527  16.515  0.0364 -0.1641  0.0674
  604MPD2    C5 8952   0.507   2.591  16.633 -0.2068 -0.7428  0.5667
  604MPD2     H 8953   0.183   2.467  16.484 -2.4707  1.3373  3.6645
  604MPD2    H1 8954   0.612   2.532  16.477  0.1662 -1.5237  0.2532
  604MPD2    H2 8955   0.381   2.653  16.802 -0.8984  3.8166 -2.3972
  604MPD2    H3 8956   0.597   2.622  16.685  1.4212 -0.8205 -2.1997
  604MPD2     N 8957   0.388   2.449  16.315 -0.7715 -0.7134 -0.4160
  604MPD2    H5 8958   0.296   2.421  16.285  0.4624 -2.6339 -2.4043
  604MPD2    N1 8959   0.164   2.562  16.736 -0.3716  0.3005 -0.7253
  604MPD2    H7 8960   0.171   2.615  16.822 -0.4209  0.6089 -0.9118
  605TMC3    C1 8961   4.667   2.570  16.804  0.1525 -0.0182 -1.3740
  605TMC3    C2 8962   4.710   2.598  16.928  1.0507 -0.5838  0.1817
  605TMC3    C3 8963   4.677   2.714  16.992 -0.0004  0.7932 -0.8305
  605TMC3    C4 8964   4.580   2.658  16.741  0.1626  0.1218  0.8345
  605TMC3    C5 8965   4.541   2.771  16.812  1.0300 -0.4313  0.4236
  605TMC3    C6 8966   4.589   2.798  16.938 -0.6452  0.0127 -0.4009
  605TMC3     C 8967   0.039   2.513  16.712  0.2636 -0.6991  0.3121
  605TMC3     O 8968   4.718   2.463  16.608 -0.2167  0.3912  0.3175
  605TMC3     H 8969   0.052   2.530  16.977 -0.2186 -2.1593 -0.2304
  605TMC3    H1 8970   4.529   2.625  16.651 -1.8410 -1.6400  2.6405
  605TMC3    H2 8971   4.569   2.891  16.989 -1.4267  0.3330 -1.2708
  605TMC3    C7 8972   4.467   2.883  16.755  0.4497 -0.3564  0.0370
  605TMC3    C8 8973   0.075   2.778  17.025  1.0945  0.1606  0.9375
  605TMC3    O1 8974   4.429   2.975  16.829  0.2803 -0.2762 -0.2504
  605TMC3    O2 8975   0.159   2.756  16.938  0.1101 -0.1363 -0.4092
  606TMC3    C1 8976   1.077   0.715  16.570  0.7108 -0.9411  0.2947
  606TMC3    C2 8977   1.063   0.805  16.667  0.2592 -0.6188  0.3051
  606TMC3    C3 8978   1.029   0.759  16.788  0.1170  1.0739  0.5593
  606TMC3    C4 8979   1.046   0.583  16.580 -0.0015 -0.2369 -0.1593
  606TMC3    C5 8980   0.992   0.545  16.699  0.6842 -0.2607 -0.2084
  606TMC3    C6 8981   0.994   0.631  16.809  0.5134  0.0958 -0.2987
  606TMC3     C 8982   1.156   0.760  16.456  0.1023  0.5701 -0.8115
  606TMC3     O 8983   1.210   0.867  16.474 -0.7465 -0.3141 -0.2588
  606TMC3     H 8984   1.099   0.907  16.654  1.7830 -1.0335  1.2851
  606TMC3    H1 8985   1.056   0.510  16.500 -2.6523 -1.2502  0.4048
  606TMC3    H2 8986   0.978   0.603  16.912  0.2933  5.0883  1.0150
  606TMC3    C7 8987   0.985   0.397  16.732  0.2083  0.2818  0.0947
  606TMC3    C8 8988   1.050   0.845  16.905 -0.0103 -0.4445 -0.6333
  606TMC3    O1 8989   1.021   0.326  16.638 -0.3197 -0.2992 -0.0776
  606TMC3    O2 8990   1.134   0.936  16.891  0.3676  0.4536  0.2225
  607MPD2     C 8991   3.639   4.164  12.218 -0.7930  0.7632 -0.0104
  607MPD2    C1 8992   3.735   4.224  12.304 -0.6247  0.6566  0.2438
  607MPD2    C2 8993   3.704   4.234  12.437 -1.1033  0.7035  0.2782
  607MPD2    C3 8994   3.588   4.192  12.492  0.0550 -0.4639 -0.5856
  607MPD2    C4 8995   3.495   4.135  12.407  0.1627  0.8193  0.2584
  607MPD2    C5 8996   3.521   4.125  12.275 -0.6318  0.0223 -0.6467
  607MPD2     H 8997   3.770   4.287  12.506 -1.1558  2.2439 -0.8512
  607MPD2    H1 8998   3.399   4.097  12.442  0.5556 -0.9598 -0.6003
  607MPD2    H2 8999   3.665   4.156  12.113  1.2205  0.6194  0.5066
  607MPD2    H3 9000   3.456   4.079  12.202  1.9574 -1.5324 -1.9827
  607MPD2     N 9001   3.575   4.189  12.629 -0.0122 -0.4672  0.5217
  607MPD2    H5 9002   3.663   4.211  12.675  1.7258 -1.6193 -2.1817
  607MPD2    N1 9003   3.862   4.271  12.264 -0.1457  0.3678  0.4018
  607MPD2    H7 9004   3.914   4.315  12.340  3.1052  2.5717 -3.0775
  608TMC3    C1 9005   4.066   4.267  12.145 -0.2762  0.8856  0.1076
  608TMC3    C2 9006   4.125   4.242  12.263  0.3516 -0.3622 -0.2716
  608TMC3    C3 9007   4.263   4.239  12.268 -0.3865  0.8518  0.8006
  608TMC3    C4 9008   4.141   4.313  12.038  0.1049 -0.3683  0.7282
  608TMC3    C5 9009   4.278   4.332  12.055 -0.0282  0.0204 -0.0179
  608TMC3    C6 9010   4.339   4.289  12.172  0.0527  0.5674  0.5625
  608TMC3     C 9011   3.920   4.258  12.137 -0.2276 -0.1508  0.1456
  608TMC3     O 9012   3.866   4.261  12.029  0.4198 -0.3817  0.0496
  608TMC3     H 9013   4.068   4.179  12.331  1.8399  1.2822  2.5181
  608TMC3    H1 9014   4.091   4.354  11.951 -0.8591 -1.4596  0.7641
  608TMC3    H2 9015   4.446   4.295  12.183  0.4536 -1.3828 -2.0676
  608TMC3    C7 9016   4.330   4.429  11.967  0.1290  0.0600 -0.0007
  608TMC3    C8 9017   4.323   4.201  12.396  0.1920  0.0163  0.2602
  608TMC3    O1 9018   4.290   4.433  11.850 -0.3783  0.3895 -0.3581
  608TMC3    O2 9019   4.435   4.154  12.400 -0.1475 -0.3914 -0.3409
  609TMC3    C1 9020   2.115   2.767   9.888  0.4382  0.3960 -0.0587
  609TMC3    C2 9021   1.989   2.710   9.871  0.3692 -0.7538 -0.2510
  609TMC3    C3 9022   1.987   2.580   9.829  0.4543  0.0608 -0.4036
  609TMC3    C4 9023   2.230   2.691   9.847  0.2334  0.3855 -0.7938
  609TMC3    C5 9024   2.224   2.562   9.799  0.0187 -0.0314  0.1392
  609TMC3    C6 9025   2.099   2.503   9.798  0.8923 -0.1643  0.3779
  609TMC3     C 9026   2.108   2.908   9.931 -0.1105 -0.2705  0.1149
  609TMC3     O 9027   1.995   2.970   9.944 -0.6590  0.2746  0.2562
  609TMC3     H 9028   1.901   2.769   9.891  0.8802 -0.0329 -0.1498
  609TMC3    H1 9029   2.322   2.748   9.843 -0.1366  1.1254  0.9623
  609TMC3    H2 9030   2.082   2.398   9.777  2.6423  0.0833 -2.3206
  609TMC3    C7 9031   2.352   2.489   9.815  1.1499  0.5347 -0.2120
  609TMC3    C8 9032   1.856   2.535   9.781  0.3554 -0.2989  0.5208
  609TMC3    O1 9033   2.427   2.539   9.898  0.1406  0.1563 -0.0364
  609TMC3    O2 9034   1.764   2.610   9.817  0.1933  0.5996  0.2634
  610TMC3    C1 9035   3.596   3.657  13.195 -0.2827  0.2556 -0.8569
  610TMC3    C2 9036   3.587   3.578  13.079  0.1952 -0.4404  0.2852
  610TMC3    C3 9037   3.698   3.503  13.055  0.0287  0.3786 -0.6218
  610TMC3    C4 9038   3.704   3.661  13.275  0.0930  0.8755 -0.0047
  610TMC3    C5 9039   3.810   3.586  13.239  0.1091 -0.6248 -0.2527
  610TMC3    C6 9040   3.811   3.510  13.133  0.1070  1.0048  0.0375
  610TMC3     C 9041   3.494   3.760  13.216  0.3501 -0.4351 -0.0006
  610TMC3     O 9042   3.398   3.742  13.144 -0.0490 -0.3848 -0.1694
  610TMC3     H 9043   3.497   3.579  13.019  2.0313 -2.7275 -2.4814
  610TMC3    H1 9044   3.703   3.720  13.366 -0.7707 -1.5188  1.5431
  610TMC3    H2 9045   3.898   3.451  13.106 -0.3589 -0.0341  0.7887
  610TMC3    C7 9046   3.900   3.540  13.344  0.0058  1.4842 -0.1605
  610TMC3    C8 9047   3.692   3.383  12.969 -0.2783  0.0903  0.5245
  610TMC3    O1 9048   3.948   3.431  13.333 -0.7891  0.2670 -0.0636
  610TMC3    O2 9049   3.796   3.325  12.945 -0.3052  0.2603  0.3958
  611MPD2     C 9050   3.904   3.725  10.075  0.2886  0.5750  0.0123
  611MPD2    C1 9051   3.906   3.791  10.195 -0.2193  0.2639  0.8026
  611MPD2    C2 9052   4.002   3.884  10.221  1.0740  0.7526 -0.0038
  611MPD2    C3 9053   4.083   3.925  10.112 -0.1816 -0.3242 -0.1178
  611MPD2    C4 9054   4.068   3.875   9.983  0.0064 -0.7932  0.7117
  611MPD2    C5 9055   3.979   3.770   9.970  0.2240 -0.3671  0.0642
  611MPD2     H 9056   4.006   3.941  10.314  0.7336 -0.8349  0.9872
  611MPD2    H1 9057   4.122   3.906   9.894  1.7454 -0.9765  1.7131
  611MPD2    H2 9058   3.830   3.648  10.058 -1.0633  2.0296 -0.6166
  611MPD2    H3 9059   3.970   3.721   9.874 -0.8886  0.0392 -0.0337
  611MPD2     N 9060   4.173   4.031  10.127 -0.3886 -0.3555  0.1393
  611MPD2    H5 9061   4.203   4.076  10.041 -1.1577 -0.7180 -0.3240
  611MPD2    N1 9062   3.808   3.752  10.291  0.2579 -0.4779  0.7365
  611MPD2    H7 9063   3.728   3.702  10.254  1.1820  0.5755 -2.6060
  612TMC3    C1 9064   4.302   4.191  10.226  0.7376  0.1584 -0.3084
  612TMC3    C2 9065   4.388   4.234  10.324 -0.6990 -0.1239  0.0011
  612TMC3    C3 9066   4.441   4.360  10.324 -0.0835 -0.4970 -0.2569
  612TMC3    C4 9067   4.253   4.281  10.138 -0.1070  0.3972  0.7058
  612TMC3    C5 9068   4.315   4.406  10.135 -0.1533 -0.6778  0.1597
  612TMC3    C6 9069   4.413   4.445  10.219  0.1953 -0.0272  0.1486
  612TMC3     C 9070   4.237   4.067  10.244  0.2108  0.9060  0.5933
  612TMC3     O 9071   4.223   4.037  10.362 -0.1361 -0.1930 -0.1741
  612TMC3     H 9072   4.426   4.151  10.383  1.5673 -0.2531 -1.6630
  612TMC3    H1 9073   4.178   4.264  10.062  0.9876  3.4453 -1.0870
  612TMC3    H2 9074   4.464   4.540  10.214  1.0351 -0.4770  0.1955
  612TMC3    C7 9075   4.273   4.486  10.020  0.2948  0.1113  0.0247
  612TMC3    C8 9076   4.483   4.407  10.457 -0.3597  0.2771  1.0022
  612TMC3    O1 9077   4.170   4.456   9.959  0.1871 -0.4838  0.6502
  612TMC3    O2 9078   4.544   4.514  10.453  0.1857 -0.3162  0.4995
  613MPD2     C 9079   2.179   1.432  16.835  0.3303  0.0643  0.8973
  613MPD2    C1 9080   2.204   1.481  16.702 -0.4310 -1.0252  0.0002
  613MPD2    C2 9081   2.146   1.419  16.591 -0.4951  0.8087 -0.1447
  613MPD2    C3 9082   2.069   1.304  16.611 -0.6149 -0.0017 -0.4400
  613MPD2    C4 9083   2.058   1.252  16.735 -0.4852 -0.5455 -0.2678
  613MPD2    C5 9084   2.105   1.322  16.850  0.4655 -0.2347 -0.4133
  613MPD2     H 9085   2.173   1.436  16.487  0.4165 -0.4921 -0.1155
  613MPD2    H1 9086   2.014   1.153  16.744  0.3788 -0.8986  0.0226
  613MPD2    H2 9087   2.219   1.484  16.922 -0.2569 -1.3519  2.0116
  613MPD2    H3 9088   2.082   1.286  16.950  3.7366  0.6700  0.6754
  613MPD2     N 9089   2.021   1.225  16.508 -0.0459  0.3049 -1.2813
  613MPD2    H5 9090   2.002   1.128  16.532  3.3121 -0.2208 -0.7432
  613MPD2    N1 9091   2.301   1.578  16.672 -0.4881 -0.3254 -0.3045
  613MPD2    H7 9092   2.362   1.608  16.747 -1.3404  0.2713  0.1501
  614TMC3    C1 9093   2.439   1.699  16.525  0.3720  0.8316  0.3537
  614TMC3    C2 9094   2.536   1.612  16.561  0.4709  0.5829  0.5469
  614TMC3    C3 9095   2.632   1.586  16.469  0.5422  0.0344  0.1383
  614TMC3    C4 9096   2.440   1.781  16.421  0.4357  0.5833 -0.1226
  614TMC3    C5 9097   2.542   1.757  16.332 -0.9383  0.5472 -0.7075
  614TMC3    C6 9098   2.637   1.656  16.357  0.4130  0.0701  0.4365
  614TMC3     C 9099   2.308   1.649  16.555  1.0756 -0.4711  0.2406
  614TMC3     O 9100   2.217   1.679  16.481 -0.3661  0.5324 -0.1509
  614TMC3     H 9101   2.522   1.550  16.649 -0.9548  0.2673  0.1070
  614TMC3    H1 9102   2.370   1.863  16.410  0.0295  0.4293  1.3594
  614TMC3    H2 9103   2.713   1.643  16.281 -2.5431  0.6321 -2.6222
  614TMC3    C7 9104   2.549   1.852  16.220  0.2408 -0.1646  0.2743
  614TMC3    C8 9105   2.631   1.444  16.443 -0.3907 -0.0151  0.7505
  614TMC3    O1 9106   2.526   1.972  16.233 -0.0445 -0.1819  0.3234
  614TMC3    O2 9107   2.548   1.377  16.506 -0.5972 -0.0078 -0.2171
  615MPD2     C 9108   1.518   2.914  16.463 -0.3188 -0.2045  0.2981
  615MPD2    C1 9109   1.585   2.904  16.341 -0.8993 -0.2278 -0.9364
  615MPD2    C2 9110   1.512   2.868  16.225 -1.0793 -0.7974  1.0151
  615MPD2    C3 9111   1.379   2.853  16.228 -0.0602  0.2237 -0.4857
  615MPD2    C4 9112   1.312   2.862  16.346 -0.0411  0.4375 -0.1149
  615MPD2    C5 9113   1.382   2.893  16.461  0.6104 -0.2015  0.1041
  615MPD2     H 9114   1.563   2.862  16.130 -1.0549 -1.6748  1.0908
  615MPD2    H1 9115   1.203   2.862  16.347 -0.0461 -2.0192  3.2901
  615MPD2    H2 9116   1.558   2.959  16.553  0.5857  0.1663 -0.2932
  615MPD2    H3 9117   1.319   2.916  16.545 -0.3595 -0.5526 -0.5265
  615MPD2     N 9118   1.301   2.819  16.114 -0.1371 -0.5143 -0.9729
  615MPD2    H5 9119   1.207   2.782  16.121 -0.5085  1.1879  2.6075
  615MPD2    N1 9120   1.727   2.910  16.330 -0.4193  0.6016 -0.7798
  615MPD2    H7 9121   1.766   2.894  16.237 -0.3147 -2.4641 -0.2253
  616TMC3    C1 9122   1.943   2.893  16.387  0.1329 -0.7835  0.1498
  616TMC3    C2 9123   1.984   2.970  16.287  0.6078  0.0212  0.2283
  616TMC3    C3 9124   2.108   2.976  16.255 -0.4719 -0.4046  0.0897
  616TMC3    C4 9125   2.037   2.818  16.458 -0.3886  0.2355  0.1471
  616TMC3    C5 9126   2.165   2.821  16.419  0.8325  0.3091 -0.0819
  616TMC3    C6 9127   2.206   2.902  16.320 -0.2771 -0.5442 -0.0234
  616TMC3     C 9128   1.814   2.911  16.439 -0.3414  0.4460  0.7797
  616TMC3     O 9129   1.795   2.882  16.556 -0.2445  0.2966 -0.2585
  616TMC3     H 9130   1.920   3.053  16.261 -0.1847 -0.4709  0.6155
  616TMC3    H1 9131   2.003   2.756  16.541 -0.7581 -0.1962 -0.3252
  616TMC3    H2 9132   2.313   2.912  16.306 -0.3349 -0.3821 -0.3555
  616TMC3    C7 9133   2.251   2.722  16.474  0.2506 -0.8341  0.5259
  616TMC3    C8 9134   2.141   3.080  16.162  0.3942  0.2479 -0.3839
  616TMC3    O1 9135   2.353   2.698  16.412 -0.0928 -0.3437 -0.0797
  616TMC3    O2 9136   2.050   3.137  16.102 -0.2027  0.0115 -0.1786
  617MPD2     C 9137   0.231   1.390  13.767  0.2990 -0.5363  0.8384
  617MPD2    C1 9138   0.267   1.310  13.878 -0.2687  1.0033 -0.9432
  617MPD2    C2 9139   0.165   1.257  13.967 -0.2018  0.5621 -0.2039
  617MPD2    C3 9140   0.035   1.298  13.944  0.4459 -0.0271  0.5398
  617MPD2    C4 9141   0.006   1.380  13.838  0.1115  0.0297 -0.1251
  617MPD2    C5 9142   0.100   1.423  13.752 -0.2144 -0.8715  0.0104
  617MPD2     H 9143   0.189   1.207  14.060 -0.9242  0.0835 -0.2678
  617MPD2    H1 9144   4.628   1.400  13.820  0.6380  0.6127 -2.4632
  617MPD2    H2 9145   0.310   1.425  13.701  1.2361 -1.1059  1.6589
  617MPD2    H3 9146   0.075   1.491  13.670  0.0186  0.9959  1.4774
  617MPD2     N 9147   4.651   1.255  14.019  0.2472  0.2274  0.6608
  617MPD2    H5 9148   4.565   1.308  14.008  1.0480  1.5235  0.6469
  617MPD2    N1 9149   0.408   1.292  13.896  0.5220  0.0228  0.3817
  617MPD2    H7 9150   0.469   1.308  13.817  0.8415  0.5936  0.7469
  618TMC3    C1 9151   0.599   1.180  13.948 -0.3209 -0.8373  0.7356
  618TMC3    C2 9152   0.638   1.045  13.953  0.8113 -0.2095 -0.0308
  618TMC3    C3 9153   0.756   1.006  13.895 -0.5756 -0.4636 -0.0757
  618TMC3    C4 9154   0.682   1.274  13.900 -0.3140 -0.1072  0.0874
  618TMC3    C5 9155   0.797   1.232  13.843 -0.5499 -0.5253  0.4758
  618TMC3    C6 9156   0.832   1.099  13.827 -0.2895 -0.0593 -0.1353
  618TMC3     C 9157   0.469   1.226  14.002 -0.6707 -0.0702  0.1746
  618TMC3     O 9158   0.419   1.159  14.089 -0.2331  0.2739  0.1243
  618TMC3     H 9159   0.559   0.981  13.990  0.8330  0.5971  1.4172
  618TMC3    H1 9160   0.658   1.379  13.913 -0.3340 -0.3810  2.2960
  618TMC3    H2 9161   0.925   1.067  13.781 -0.0531 -0.6293  0.7338
  618TMC3    C7 9162   0.852   1.327  13.748  1.1626 -0.0403  0.1135
  618TMC3    C8 9163   0.778   0.863  13.894 -0.3894  0.7218  0.1652
  618TMC3    O1 9164   0.970   1.344  13.742  0.0429 -0.0696  0.0127
  618TMC3    O2 9165   0.693   0.792  13.944 -0.7048  0.1515  0.1681
  619MPD2     C 9166   1.747   2.484  13.599  0.4097  0.6090 -0.8566
  619MPD2    C1 9167   1.672   2.572  13.529 -0.2697 -0.2037 -0.2495
  619MPD2    C2 9168   1.550   2.529  13.482 -0.6328  0.1600  0.6427
  619MPD2    C3 9169   1.510   2.393  13.492 -0.1285 -0.0778 -0.5950
  619MPD2    C4 9170   1.593   2.311  13.564 -0.4762 -0.0010  0.0936
  619MPD2    C5 9171   1.707   2.357  13.621  0.0778 -0.3723 -0.2490
  619MPD2     H 9172   1.482   2.601  13.438  0.0973  0.2304 -0.3746
  619MPD2    H1 9173   1.576   2.205  13.578 -1.5356 -0.0057 -1.2577
  619MPD2    H2 9174   1.844   2.506  13.641  0.7475 -0.3257 -1.1604
  619MPD2    H3 9175   1.767   2.289  13.680  0.2754  0.7697  0.8729
  619MPD2     N 9176   1.383   2.347  13.464 -0.1580  0.0961 -0.1894
  619MPD2    H5 9177   1.361   2.253  13.496 -0.8032  0.4158  0.3008
  619MPD2    N1 9178   1.697   2.711  13.511  0.0889  0.0929  0.5524
  619MPD2    H7 9179   1.629   2.762  13.456  0.4629  0.0139  0.0191
  620TMC3    C1 9180   1.770   2.927  13.557  0.6476 -0.1585 -0.5348
  620TMC3    C2 9181   1.696   2.962  13.446  1.0693 -0.0085 -0.1768
  620TMC3    C3 9182   1.655   3.092  13.440 -0.1677 -0.8085 -0.0703
  620TMC3    C4 9183   1.810   3.008  13.664  0.9264  0.1294  0.9304
  620TMC3    C5 9184   1.786   3.144  13.640  0.0552 -0.0170 -0.2737
  620TMC3    C6 9185   1.708   3.181  13.533 -0.9748  0.4342 -0.0564
  620TMC3     C 9186   1.785   2.787  13.587  1.0380 -0.1221  0.7759
  620TMC3     O 9187   1.839   2.762  13.693  0.4329 -0.3490 -0.3804
  620TMC3     H 9188   1.665   2.893  13.369  1.4592  1.5124 -1.7022
  620TMC3    H1 9189   1.868   2.978  13.750  2.2762 -1.2984 -0.4877
  620TMC3    H2 9190   1.678   3.285  13.529 -2.8920 -0.1951 -2.5396
  620TMC3    C7 9191   1.786   3.225  13.762 -0.1715 -0.6053  0.0112
  620TMC3    C8 9192   1.515   3.105  13.467  0.1729  0.2033  0.1053
  620TMC3    O1 9193   1.880   3.205  13.839 -1.0365  0.0746 -0.3099
  620TMC3    O2 9194   1.497   3.138  13.584 -0.2934  0.2313  0.0077
  621MPD2     C 9195   1.810   2.688  10.456 -0.6590  0.4802  0.0954
  621MPD2    C1 9196   1.882   2.608  10.543 -0.1554 -1.2666  0.1126
  621MPD2    C2 9197   2.013   2.569  10.510 -0.3927 -0.2725 -0.1057
  621MPD2    C3 9198   2.068   2.598  10.390  0.0092 -0.6183 -0.0021
  621MPD2    C4 9199   1.996   2.676  10.302  0.0553  0.3607 -0.2688
  621MPD2    C5 9200   1.869   2.712  10.335 -0.7256 -0.4208  0.1773
  621MPD2     H 9201   2.063   2.517  10.591  0.9801 -0.3850 -1.0209
  621MPD2    H1 9202   2.027   2.705  10.202 -1.0370  0.0678 -0.6976
  621MPD2    H2 9203   1.711   2.724  10.485 -0.8760 -0.8626  1.0487
  621MPD2    H3 9204   1.813   2.756  10.253  0.0041  1.1536  0.5161
  621MPD2     N 9205   2.209   2.570  10.360  0.1726  0.1913  0.7394
  621MPD2    H5 9206   2.264   2.525  10.432 -0.4336  1.1009  1.7702
  621MPD2    N1 9207   1.827   2.562  10.669 -0.3344 -0.1994  0.5503
  621MPD2    H7 9208   1.881   2.495  10.724  1.2129 -0.4597 -1.3020
  622TMC3    C1 9209   1.683   2.562  10.865  0.1823 -0.1167 -0.0401
  622TMC3    C2 9210   1.624   2.644  10.958  0.1419 -0.1993 -0.0522
  622TMC3    C3 9211   1.599   2.598  11.081 -0.0894  0.2072  0.8064
  622TMC3    C4 9212   1.706   2.431  10.894 -0.9409 -0.2025 -0.1167
  622TMC3    C5 9213   1.670   2.381  11.016  0.0116  0.5753 -0.1416
  622TMC3    C6 9214   1.614   2.464  11.112  0.7059 -0.2716  0.0870
  622TMC3     C 9215   1.714   2.615  10.730  0.2018  0.8143  0.7560
  622TMC3     O 9216   1.650   2.718  10.708 -0.0782 -0.1677  0.3590
  622TMC3     H 9217   1.630   2.751  10.940  1.3174 -0.2802 -0.1613
  622TMC3    H1 9218   1.747   2.366  10.818 -0.0404 -2.2434  2.1185
  622TMC3    H2 9219   1.592   2.431  11.213 -0.0711  0.1774  0.0636
  622TMC3    C7 9220   1.645   2.234  11.033  0.2381 -0.3944  0.2267
  622TMC3    C8 9221   1.528   2.687  11.174 -0.0434  0.4933  0.5386
  622TMC3    O1 9222   1.679   2.187  11.139 -0.2390  0.2420 -0.2422
  622TMC3    O2 9223   1.512   2.638  11.285  0.1929 -0.0752 -0.1687
  623MPD2     C 9224   0.533   3.275  16.214 -0.3910 -0.0657 -0.2357
  623MPD2    C1 9225   0.479   3.170  16.282  0.4330 -0.0126 -0.0763
  623MPD2    C2 9226   0.533   3.141  16.405 -0.0931  0.1858 -0.5827
  623MPD2    C3 9227   0.623   3.217  16.474 -0.0567 -0.6433  0.1170
  623MPD2    C4 9228   0.664   3.331  16.410  0.2694 -0.6889 -0.2765
  623MPD2    C5 9229   0.622   3.359  16.283  0.1835 -0.3054 -0.6754
  623MPD2     H 9230   0.495   3.051  16.453  1.4458 -0.2865 -0.2760
  623MPD2    H1 9231   0.723   3.407  16.461  0.3672 -0.9191 -0.0442
  623MPD2    H2 9232   0.497   3.305  16.116 -1.4907  1.5235  0.6519
  623MPD2    H3 9233   0.663   3.453  16.247 -0.2185  0.0183 -0.2878
  623MPD2     N 9234   0.660   3.185  16.602 -0.2697 -0.3100 -0.0192
  623MPD2    H5 9235   0.622   3.099  16.640 -2.3582 -0.3258 -2.1901
  623MPD2    N1 9236   0.371   3.090  16.241  0.9239  0.0814 -0.5732
  623MPD2    H7 9237   0.329   3.028  16.310 -0.8576  1.1445 -0.6947
  624TMC3    C1 9238   0.904   3.134  17.004 -0.4514  0.5557 -0.1361
  624TMC3    C2 9239   0.796   3.082  17.074  0.0686 -0.5998 -0.1178
  624TMC3    C3 9240   0.685   3.072  17.005 -0.2147 -0.2550 -0.8425
  624TMC3    C4 9241   0.900   3.179  16.873  0.6991 -0.2331 -0.1925
  624TMC3    C5 9242   0.780   3.174  16.809  0.4868 -0.8650  0.8190
  624TMC3    C6 9243   0.677   3.119  16.877  0.1668 -0.0583  0.3004
  624TMC3     C 9244   1.040   3.098  17.050  0.3389  0.7076 -0.3382
  624TMC3     O 9245   1.047   3.061  17.165  0.1950 -0.0107  0.0165
  624TMC3     H 9246   0.806   3.046  17.176 -0.6536  2.0045  0.8721
  624TMC3    H1 9247   0.984   3.236  16.834  0.6796 -0.1550 -0.1203
  624TMC3    H2 9248   0.579   3.134  16.833  0.7644 -0.9780 -1.3325
  624TMC3    C7 9249   0.755   3.247  16.682  0.6314 -0.3221  0.1155
  624TMC3    C8 9250   0.580   2.988  17.045  0.0461 -0.2614 -0.2574
  624TMC3    O1 9251   0.828   3.346  16.653 -0.0364 -0.2514  0.0866
  624TMC3    O2 9252   0.523   2.932  16.957  0.2284 -0.4083 -0.0439
  625MPD2     C 9253   1.491   4.272   1.025  0.5633  0.4482 -0.1176
  625MPD2    C1 9254   1.477   4.364   0.932 -0.0929  0.0113 -0.4746
  625MPD2    C2 9255   1.583   4.400   0.850  0.1888 -0.1285 -0.1165
  625MPD2    C3 9256   1.702   4.329   0.849  0.1172  0.1190 -0.6062
  625MPD2    C4 9257   1.710   4.220   0.935  0.4756 -0.3422  0.9803
  625MPD2    C5 9258   1.607   4.197   1.022 -0.1355  0.1150  0.0546
  625MPD2     H 9259   1.579   4.491   0.791  0.5323  0.5244  0.8801
  625MPD2    H1 9260   1.791   4.147   0.935  1.4856  0.7885 -1.0588
  625MPD2    H2 9261   1.416   4.239   1.096 -0.1021  0.7349 -0.6997
  625MPD2    H3 9262   1.626   4.115   1.090 -1.9953  1.1229  1.7830
  625MPD2     N 9263   1.809   4.370   0.762 -0.1444  0.0391  0.6205
  625MPD2    H5 9264   1.794   4.453   0.706  0.7161  1.4236  2.4662
  625MPD2    N1 9265   1.348   4.425   0.923  0.6129  0.2327 -0.0984
  625MPD2    H7 9266   1.342   4.514   0.873  2.3993 -1.2253 -2.8668
  626TMC3    C1 9267   1.121   4.475   0.975 -0.0940  0.1844  0.1595
  626TMC3    C2 9268   1.076   4.495   0.853  0.1985 -0.3500 -0.0381
  626TMC3    C3 9269   0.944   4.516   0.831  0.2960 -0.2337  0.1174
  626TMC3    C4 9270   1.037   4.489   1.089  0.5258  0.2407 -0.0504
  626TMC3    C5 9271   0.909   4.527   1.065 -0.2737  0.4056 -0.4188
  626TMC3    C6 9272   0.854   4.532   0.933  0.0249 -0.4772 -0.0034
  626TMC3     C 9273   1.236   4.391   0.996  0.8062  0.1693 -0.3160
  626TMC3     O 9274   1.225   4.311   1.086 -0.4179  0.1552  0.3938
  626TMC3     H 9275   1.140   4.482   0.767  0.3442  0.8543 -0.1109
  626TMC3    H1 9276   1.071   4.464   1.189 -2.0913  0.7502  0.9469
  626TMC3    H2 9277   0.753   4.570   0.926 -0.3759 -0.9082  3.7666
  626TMC3    C7 9278   0.816   4.540   1.174  0.1635  0.4530 -0.3682
  626TMC3    C8 9279   0.895   4.513   0.697  0.0348  0.4317  0.1563
  626TMC3    O1 9280   0.866   4.558   1.286  0.2746  0.5351  0.5319
  626TMC3    O2 9281   0.965   4.546   0.601  0.0167 -0.6203  0.0436
  627MPD2     C 9282   4.172   4.655  14.363  0.1329 -0.2750 -0.3697
  627MPD2    C1 9283   4.220   4.619  14.483 -0.3614 -0.1169 -0.2316
  627MPD2    C2 9284   4.162   4.511  14.553 -0.3787  0.5367  0.3367
  627MPD2    C3 9285   4.052   4.442  14.498  0.0716  0.4671 -0.4612
  627MPD2    C4 9286   3.996   4.492  14.380  0.0188  0.1283 -0.2924
  627MPD2    C5 9287   4.063   4.589  14.311 -0.0710  0.0671  0.5540
  627MPD2     H 9288   4.208   4.485  14.648  0.7092 -1.6784 -0.7982
  627MPD2    H1 9289   3.915   4.442  14.328 -1.4936 -1.0221  3.1618
  627MPD2    H2 9290   4.216   0.007  14.303 -0.3422 -1.3333 -2.1089
  627MPD2    H3 9291   4.029   4.617  14.212 -1.1375 -1.3912  0.4982
  627MPD2     N 9292   4.005   4.339  14.573 -0.1006  0.5108  0.1617
  627MPD2    H5 9293   4.046   4.325  14.664  0.1208 -3.7568 -0.5842
  627MPD2    N1 9294   4.337   4.685  14.542 -0.3261  0.1999 -0.0712
  627MPD2    H7 9295   4.375   4.652  14.630  0.0816  2.0406  0.4432
  628TMC3    C1 9296   4.507   0.111  14.581  0.2509  0.1495  0.3280
  628TMC3    C2 9297   4.586   0.005  14.620  0.2164  0.1079 -0.1753
  628TMC3    C3 9298   4.689   0.034  14.705 -0.5628 -0.6529 -0.2178
  628TMC3    C4 9299   4.526   0.240  14.615  0.0808 -0.6664 -1.0622
  628TMC3    C5 9300   4.633   0.258  14.701  0.1404  0.2233 -0.4116
  628TMC3    C6 9301   4.710   0.164  14.752 -0.9210 -0.3715 -0.5577
  628TMC3     C 9302   4.390   0.078  14.497  0.3001 -0.2000 -0.0112
  628TMC3     O 9303   4.357   0.151  14.404  0.1713 -0.0953  0.4309
  628TMC3     H 9304   4.588   4.633  14.576  1.2254 -1.4751  3.5011
  628TMC3    H1 9305   4.448   0.311  14.591 -1.9558 -2.6435 -0.2069
  628TMC3    H2 9306   0.080   0.193  14.789 -0.3678 -0.2395 -2.1086
  628TMC3    C7 9307   4.673   0.388  14.760  0.1328 -0.0112 -0.2861
  628TMC3    C8 9308   0.063   4.656  14.713 -0.2668  0.1468 -0.5562
  628TMC3    O1 9309   0.023   0.401  14.851 -0.1264  0.3488 -0.3326
  628TMC3    O2 9310   0.058   4.576  14.621  0.0469 -0.3685  0.3659
  629MPD2     C 9311   2.475   3.434  15.979  0.2643  0.0105  0.4063
  629MPD2    C1 9312   2.540   3.340  16.054  0.1025 -0.8751  0.5328
  629MPD2    C2 9313   2.470   3.246  16.128 -0.5912  0.1550 -0.7959
  629MPD2    C3 9314   2.333   3.232  16.111 -0.0210 -0.4796 -0.0458
  629MPD2    C4 9315   2.272   3.318  16.024  0.0438  0.1174  0.4688
  629MPD2    C5 9316   2.336   3.417  15.965  0.3444  0.4294 -0.3451
  629MPD2     H 9317   2.516   3.173  16.194 -0.5176  1.1743  0.2701
  629MPD2    H1 9318   2.171   3.302  15.987 -0.4688  1.2703  1.3570
  629MPD2    H2 9319   2.512   3.520  15.926 -0.7368 -1.0524 -2.0346
  629MPD2    H3 9320   2.281   3.482  15.899 -0.5919 -0.8948 -0.8666
  629MPD2     N 9321   2.266   3.129  16.186 -0.3118  0.1936  0.1159
  629MPD2    H5 9322   2.329   3.086  16.254 -0.5205 -1.1583 -0.5357
  629MPD2    N1 9323   2.684   3.351  16.054 -0.4866 -0.3515 -0.2288
  629MPD2    H7 9324   2.717   3.434  16.006 -1.1115 -0.5354 -0.9778
  630TMC3    C1 9325   2.906   3.284  16.096 -0.3630 -0.3352 -0.4720
  630TMC3    C2 9326   2.934   3.391  16.020  0.5187  0.2525 -0.6994
  630TMC3    C3 9327   3.077   3.426  16.025 -0.0490  0.1121  0.0001
  630TMC3    C4 9328   2.996   3.218  16.181 -0.6117 -0.3307  0.1420
  630TMC3    C5 9329   3.125   3.259  16.190 -0.7900  0.1128 -0.4901
  630TMC3    C6 9330   3.166   3.358  16.102 -0.3498  0.4872 -0.2227
  630TMC3     C 9331   2.766   3.251  16.100 -0.5340 -0.1044  0.3451
  630TMC3     O 9332   2.738   3.141  16.150  0.0641  0.0376  0.0277
  630TMC3     H 9333   2.870   3.446  15.953  1.1193 -1.3174 -2.5487
  630TMC3    H1 9334   2.965   3.150  16.259 -2.3570  0.2900 -0.0203
  630TMC3    H2 9335   3.268   3.395  16.105 -0.3404  0.6067 -1.6730
  630TMC3    C7 9336   3.162   3.267  16.325  0.3408 -0.4175 -0.6449
  630TMC3    C8 9337   3.110   3.573  16.018 -0.7898 -0.3063 -0.9141
  630TMC3    O1 9338   3.157   3.168  16.397  0.6426 -0.2349 -0.1497
  630TMC3    O2 9339   3.232   3.605  16.018  0.2817  0.0376 -0.0311
  631MPD2     C 9340   0.601   2.966  15.985  0.9139 -1.0714  0.2755
  631MPD2    C1 9341   0.651   2.981  15.858 -0.4121  0.0488 -0.2398
  631MPD2    C2 9342   0.747   2.900  15.821  0.5117 -0.1802  0.3797
  631MPD2    C3 9343   0.781   2.787  15.897  0.5537 -0.6670 -0.2782
  631MPD2    C4 9344   0.734   2.774  16.024 -0.2776 -0.1336 -0.0484
  631MPD2    C5 9345   0.653   2.866  16.072 -0.7295 -0.4957 -0.2182
  631MPD2     H 9346   0.799   2.909  15.726 -2.4108 -0.5613 -1.2514
  631MPD2    H1 9347   0.760   2.694  16.092 -0.0117  0.4192  0.4997
  631MPD2    H2 9348   0.530   3.038  16.024  2.4618  0.5476  0.0747
  631MPD2    H3 9349   0.613   2.859  16.173 -0.5225 -0.7412 -0.1541
  631MPD2     N 9350   0.881   2.692  15.852  0.1851 -0.5398 -0.6303
  631MPD2    H5 9351   0.909   2.699  15.755  1.2778  2.4855 -0.1155
  631MPD2    N1 9352   0.598   3.091  15.790  0.1208  0.3751 -0.7290
  631MPD2    H7 9353   0.532   3.153  15.836  1.1304  1.1990 -0.3850
  632TMC3    C1 9354   0.627   3.249  15.620  0.2228 -0.8509 -0.3389
  632TMC3    C2 9355   0.575   3.344  15.707  0.4186 -0.1615  0.2519
  632TMC3    C3 9356   0.620   3.467  15.695 -0.9011  0.5258  0.2781
  632TMC3    C4 9357   0.708   3.279  15.512 -0.5679 -0.7300 -0.6577
  632TMC3    C5 9358   0.744   3.412  15.502  0.8057 -0.6394  0.0571
  632TMC3    C6 9359   0.706   3.508  15.595 -0.4114 -0.6571 -0.2686
  632TMC3     C 9360   0.634   3.112  15.661 -0.2745 -0.3458 -1.0021
  632TMC3     O 9361   0.688   3.031  15.584  0.5199 -0.0890 -0.5184
  632TMC3     H 9362   0.501   3.316  15.781 -0.8963  0.3362 -0.8559
  632TMC3    H1 9363   0.752   3.198  15.454 -0.6641 -0.5025 -1.0431
  632TMC3    H2 9364   0.725   3.613  15.573 -3.1475  0.2242  1.5059
  632TMC3    C7 9365   0.847   3.439  15.407 -0.4722  0.9398 -0.3167
  632TMC3    C8 9366   0.579   3.547  15.811 -0.1328 -0.1873 -1.1606
  632TMC3    O1 9367   0.839   3.387  15.301 -0.1792 -0.2871 -1.3146
  632TMC3    O2 9368   0.563   3.483  15.916  0.4542  0.3453  0.2315
  633MPD2     C 9369   0.507   1.018  17.425  0.1951  0.0528 -0.1384
  633MPD2    C1 9370   0.477   0.979  17.297  0.3182  0.4698  0.2547
  633MPD2    C2 9371   0.442   0.842  17.276  0.0159  0.5776  0.1005
  633MPD2    C3 9372   0.438   0.750  17.382 -0.1175  1.0271  0.7084
  633MPD2    C4 9373   0.460   0.804  17.510  0.3080 -0.2182  0.3228
  633MPD2    C5 9374   0.490   0.934  17.529  0.1788  0.1335 -0.0020
  633MPD2     H 9375   0.427   0.813  17.173  1.3945 -2.2949  0.6801
  633MPD2    H1 9376   0.447   0.741  17.597  0.9626 -1.4846 -0.4923
  633MPD2    H2 9377   0.532   1.119  17.452 -0.9459  0.6073 -1.1313
  633MPD2    H3 9378   0.517   0.974  17.626 -0.0846 -0.9371  0.5128
  633MPD2     N 9379   0.433   0.607  17.359  0.1347  0.1672 -0.2235
  633MPD2    H5 9380   0.429   0.547  17.441 -1.4749  1.2767  0.5301
  633MPD2    N1 9381   0.489   1.062  17.190  0.0539 -0.4804  0.7354
  633MPD2    H7 9382   0.481   1.021  17.097 -0.7024 -2.1740  1.5309
  634TMC3    C1 9383   0.610   1.228  17.092  0.5318  0.2051 -0.1060
  634TMC3    C2 9384   0.650   1.128  17.001  0.2559  0.9766  0.4696
  634TMC3    C3 9385   0.679   1.158  16.871  0.0089 -0.5955 -0.1308
  634TMC3    C4 9386   0.606   1.363  17.052  0.7178  0.3303  0.0669
  634TMC3    C5 9387   0.622   1.380  16.915  0.3097  0.3164 -0.4705
  634TMC3    C6 9388   0.662   1.285  16.823  0.5492  0.3297  0.6609
  634TMC3     C 9389   0.528   1.190  17.196 -0.5487  0.1609  0.7934
  634TMC3     O 9390   0.515   1.265  17.293 -0.5958  0.2120 -0.2361
  634TMC3     H 9391   0.677   1.025  17.025  0.6916  1.3018  1.4074
  634TMC3    H1 9392   0.561   1.430  17.124 -0.0873  0.3490 -0.4555
  634TMC3    H2 9393   0.673   1.318  16.720  0.5300 -0.1057  0.5193
  634TMC3    C7 9394   0.594   1.501  16.850 -0.2503 -0.4420 -0.6102
  634TMC3    C8 9395   0.705   1.055  16.774 -0.3540  0.0959 -0.5663
  634TMC3    O1 9396   0.544   1.497  16.738 -0.3411 -0.0782 -0.0919
  634TMC3    O2 9397   0.671   0.943  16.789 -0.5024  0.4731  0.9071
  635TMC3    C1 9398   1.032   2.182  17.564 -0.8632  0.3884  0.0442
  635TMC3    C2 9399   1.053   2.237  17.444 -0.2563  0.6341 -0.5961
  635TMC3    C3 9400   1.108   2.153  17.344 -0.2382  0.1448  0.5802
  635TMC3    C4 9401   1.050   2.049  17.595 -1.1673 -0.5789  0.7697
  635TMC3    C5 9402   1.097   1.970  17.488 -0.7919 -0.1497  0.2146
  635TMC3    C6 9403   1.134   2.020  17.362  0.0067 -0.3258  0.4783
  635TMC3     C 9404   0.949   2.252  17.665 -0.3448  0.1859  0.0812
  635TMC3     O 9405   0.965   2.226   0.073 -0.1822  0.3058  0.6252
  635TMC3     H 9406   1.021   2.339  17.426 -0.2596  0.5645 -0.9980
  635TMC3    H1 9407   1.029   1.999  17.689  1.6272 -1.0567  1.1494
  635TMC3    H2 9408   1.175   1.963  17.280 -0.4945 -1.1369  0.7937
  635TMC3    C7 9409   1.089   1.823  17.510 -0.0319 -0.1974  0.1875
  635TMC3    C8 9410   1.165   2.204  17.216  0.3906 -0.0637  0.9063
  635TMC3    O1 9411   1.078   1.784  17.623  0.0780 -0.7267  0.4252
  635TMC3    O2 9412   1.242   2.141  17.145 -0.0316 -0.0642  0.3519
  636MPD2     C 9413   2.234   1.662  15.704  0.1441  0.1579  0.2387
  636MPD2    C1 9414   2.201   1.679  15.840  0.3138  0.0553 -0.0247
  636MPD2    C2 9415   2.190   1.567  15.920 -0.2961  0.7406  0.3763
  636MPD2    C3 9416   2.198   1.434  15.872  0.0076 -0.0119  0.4853
  636MPD2    C4 9417   2.240   1.418  15.746 -0.3236 -0.0626  0.6028
  636MPD2    C5 9418   2.259   1.527  15.661  0.2289  0.0900  0.2791
  636MPD2     H 9419   2.184   1.580  16.028  0.4529  0.5488  0.4411
  636MPD2    H1 9420   2.250   1.320  15.699  1.7363  1.4450 -2.1293
  636MPD2    H2 9421   2.256   1.744  15.636  2.2963  0.3161  1.1304
  636MPD2    H3 9422   2.287   1.520  15.557 -0.5980  0.4694  0.0317
  636MPD2     N 9423   2.168   1.333  15.966  0.1555  0.1601 -0.0963
  636MPD2    H5 9424   2.129   1.362  16.055 -0.3007  1.5333 -0.7351
  636MPD2    N1 9425   2.168   1.804  15.899 -0.3172 -0.6720  0.0652
  636MPD2    H7 9426   2.153   1.798  15.999 -0.9189  3.6800  0.2604
  637TMC3    C1 9427   2.149   1.131  16.064 -0.4822 -0.2669 -0.4774
  637TMC3    C2 9428   2.067   1.198  16.151 -0.0982 -0.1987 -0.0795
  637TMC3    C3 9429   2.074   1.158  16.286 -0.5358 -0.2338  0.6296
  637TMC3    C4 9430   2.238   1.038  16.109  0.9975  0.1810 -0.3536
  637TMC3    C5 9431   2.243   1.005  16.243 -0.3445 -0.8297 -0.0362
  637TMC3    C6 9432   2.151   1.063  16.333  0.3522 -0.1689  0.0950
  637TMC3     C 9433   2.182   1.203  15.944  0.0745  0.0544 -0.5178
  637TMC3     O 9434   2.243   1.148  15.854  0.2812  0.5915 -0.0069
  637TMC3     H 9435   2.010   1.286  16.123 -2.3814 -1.5027  0.4658
  637TMC3    H1 9436   2.309   1.006  16.034 -1.3651 -2.6427 -1.3897
  637TMC3    H2 9437   2.156   1.026  16.435  0.5444 -0.2747  0.0457
  637TMC3    C7 9438   2.377   1.000  16.294 -0.3190  0.4265  0.4072
  637TMC3    C8 9439   2.021   1.261  16.380 -0.4782 -0.2622  0.0009
  637TMC3    O1 9440   2.389   1.037  16.410 -0.2791 -0.6871  0.1864
  637TMC3    O2 9441   1.996   1.374  16.337  0.1249 -0.2938 -0.2205
  638MPD2     C 9442   2.072   0.499  15.064 -0.5912  0.3021 -0.1348
  638MPD2    C1 9443   2.013   0.401  14.984  0.0220 -0.1012  0.2218
  638MPD2    C2 9444   1.979   0.282  15.049  0.4771  0.2307 -0.1037
  638MPD2    C3 9445   1.992   0.271  15.187 -0.1780 -0.2354  0.2919
  638MPD2    C4 9446   2.046   0.375  15.261 -0.8297 -0.4178  0.3796
  638MPD2    C5 9447   2.088   0.486  15.199 -0.1010  0.2664  0.3616
  638MPD2     H 9448   1.937   0.197  14.997  2.2660 -0.6322 -0.1212
  638MPD2    H1 9449   2.044   0.373  15.369  0.1485  1.0797  0.4226
  638MPD2    H2 9450   2.116   0.590  15.024 -0.4799  0.1727 -0.3025
  638MPD2    H3 9451   2.131   0.565  15.260 -1.3289 -0.0618  1.6312
  638MPD2     N 9452   1.944   0.151  15.246  0.7654  0.1003  0.1501
  638MPD2    H5 9453   1.896   0.092  15.179  0.5393  1.6177 -1.0109
  638MPD2    N1 9454   1.996   0.422  14.840  0.6327  0.2818  0.5026
  638MPD2    H7 9455   2.036   0.502  14.792  0.5365  0.2564  0.3816
  639TMC3    C1 9456   1.903   4.701  15.373  0.1283 -0.0033 -0.1521
  639TMC3    C2 9457   1.821   4.656  15.275 -0.3498 -0.5561  0.2054
  639TMC3    C3 9458   1.772   4.526  15.285 -0.4217 -0.0652  0.0575
  639TMC3    C4 9459   1.932   4.610  15.474 -0.0968 -0.2324  0.3096
  639TMC3    C5 9460   1.875   4.486  15.478 -0.2942 -0.2538  0.3191
  639TMC3    C6 9461   1.795   4.439  15.385 -0.1083  0.0580  0.2184
  639TMC3     C 9462   1.964   0.112  15.374  0.5982  0.2753 -0.5441
  639TMC3     O 9463   2.011   0.163  15.477  0.2389  0.2580  0.2739
  639TMC3     H 9464   1.777   4.723  15.202 -1.4589 -2.4384 -0.8612
  639TMC3    H1 9465   1.986   4.652  15.558 -0.6009  0.7286  0.1481
  639TMC3    H2 9466   1.767   4.335  15.376  0.4742 -0.4388  4.2010
  639TMC3    C7 9467   1.937   4.395  15.576  0.0193 -0.4333 -0.0382
  639TMC3    C8 9468   1.671   4.498  15.182 -1.0333  0.3340 -0.4497
  639TMC3    O1 9469   1.869   4.302  15.623 -0.3344 -1.1507  0.3590
  639TMC3    O2 9470   1.688   4.539  15.068 -0.6195  0.5335 -0.5447
  640MPD2     C 9471   3.125   3.707  10.106 -0.1361 -0.1936 -1.4367
  640MPD2    C1 9472   2.991   3.703  10.090 -0.4111  0.9158 -0.1615
  640MPD2    C2 9473   2.915   3.818  10.103  0.0681 -0.1970  0.1077
  640MPD2    C3 9474   2.974   3.938  10.149  0.2492 -0.5375 -0.1212
  640MPD2    C4 9475   3.109   3.938  10.175 -0.6481 -0.0122  0.3986
  640MPD2    C5 9476   3.184   3.821  10.148  0.0483  0.2574 -0.1764
  640MPD2     H 9477   2.817   3.826  10.059 -0.4699 -0.4252  1.2610
  640MPD2    H1 9478   3.173   4.022  10.200  1.8203 -1.8455  0.2861
  640MPD2    H2 9479   3.178   3.614  10.087 -1.7911 -1.8370  2.0761
  640MPD2    H3 9480   3.289   3.820  10.173  0.5038 -0.7562 -2.1467
  640MPD2     N 9481   2.912   4.061  10.157 -0.7186 -0.3120 -0.4854
  640MPD2    H5 9482   2.970   4.145  10.156  1.0237 -1.5225  0.4529
  640MPD2    N1 9483   2.926   3.576  10.063 -0.1861 -0.4891  0.3756
  640MPD2    H7 9484   2.977   3.488  10.069  1.4301  0.6293  2.9757
  641TMC3    C1 9485   2.749   3.413  10.003 -0.3139  0.5285 -0.5763
  641TMC3    C2 9486   2.824   3.313  10.041  0.5571  0.1576  0.3200
  641TMC3    C3 9487   2.811   3.187   9.973 -0.2073  0.0802  0.7662
  641TMC3    C4 9488   2.650   3.399   9.913  0.3453  0.2169  0.3701
  641TMC3    C5 9489   2.626   3.277   9.849 -0.0287  0.1317 -0.2452
  641TMC3    C6 9490   2.719   3.175   9.867  0.4183 -0.5843 -0.2388
  641TMC3     C 9491   2.789   3.552  10.027  0.3020  0.8439 -0.6839
  641TMC3     O 9492   2.715   3.644   9.998  0.0795  0.1082  0.2533
  641TMC3     H 9493   2.906   3.329  10.110  3.4435  0.5534 -3.1933
  641TMC3    H1 9494   2.580   3.480   9.895 -0.2373 -0.2882  0.3525
  641TMC3    H2 9495   2.702   3.084   9.811 -1.0297 -0.4646  0.0117
  641TMC3    C7 9496   2.523   3.280   9.745 -0.9234 -0.4976 -0.3899
  641TMC3    C8 9497   2.893   3.069   9.995 -0.3220  0.4728  0.7014
  641TMC3    O1 9498   2.468   3.388   9.730  0.2771 -0.2926 -0.0222
  641TMC3    O2 9499   2.898   2.986   9.903 -0.2165 -0.0037 -0.4305
  642TMC3    C1 9500   3.365   0.632  12.069 -0.3004  0.0551 -0.7261
  642TMC3    C2 9501   3.475   0.681  12.002  0.4956 -0.4739 -0.6054
  642TMC3    C3 9502   3.587   0.596  11.991 -1.0418 -0.9571  0.5669
  642TMC3    C4 9503   3.357   0.509  12.123 -0.0027 -0.2399 -0.1311
  642TMC3    C5 9504   3.462   0.430  12.094 -0.2053 -0.6312 -0.0315
  642TMC3    C6 9505   3.580   0.468  12.032 -0.4533  0.0694  0.2033
  642TMC3     C 9506   3.281   0.740  12.118  0.2158 -0.1730  0.0169
  642TMC3     O 9507   3.313   0.849  12.076  0.2147 -0.2549  0.4517
  642TMC3     H 9508   3.479   0.777  11.952 -1.8534  0.7572  1.5418
  642TMC3    H1 9509   3.261   0.471  12.156 -0.2971  1.5005  1.0288
  642TMC3    H2 9510   3.650   0.387  12.014  1.0197  1.5904 -0.9003
  642TMC3    C7 9511   3.447   0.288  12.113  0.6211  0.2457  0.5457
  642TMC3    C8 9512   3.715   0.625  11.932  0.2496  0.5333 -0.3234
  642TMC3    O1 9513   3.501   0.210  12.036 -0.9990 -0.5218  0.3929
  642TMC3    O2 9514   3.800   0.542  11.954 -0.3716 -0.3641  0.2508
  643TMC3    C1 9515   2.511   4.287   0.132 -0.1793 -0.1364 -0.5589
  643TMC3    C2 9516   2.409   4.301   0.038  0.1017  0.0312  0.2635
  643TMC3    C3 9517   2.415   4.229  17.635  0.1792 -0.9390  0.7355
  643TMC3    C4 9518   2.616   4.212   0.105  0.2918 -0.1017 -0.2182
  643TMC3    C5 9519   2.626   4.148  17.692 -0.1329  0.0544  0.0496
  643TMC3    C6 9520   2.523   4.146  17.603 -0.5206 -0.7065  0.0763
  643TMC3     C 9521   2.537   4.402   0.216  0.0382 -0.7399 -0.9148
  643TMC3     O 9522   2.501   4.512   0.178  0.2224 -0.5180  0.0190
  643TMC3     H 9523   2.325   4.366   0.061  0.5909  0.5496  0.5692
  643TMC3    H1 9524   2.712   4.223   0.153  0.2715  3.4932 -1.0505
  643TMC3    H2 9525   2.522   4.080  17.517  3.2951 -0.5298 -0.1011
  643TMC3    C7 9526   2.761   4.161  17.634 -0.1334 -0.7170  0.7906
  643TMC3    C8 9527   2.375   4.301  17.512  0.4903 -0.3472  0.0620
  643TMC3    O1 9528   2.820   4.263  17.656  0.3867 -0.2850 -0.6081
  643TMC3    O2 9529   2.385   4.238  17.409  0.1493  0.0784 -0.0558
  644MPD2     C 9530   2.664   4.168   9.463  0.1542 -0.7054 -0.7066
  644MPD2    C1 9531   2.549   4.093   9.443 -0.4559  0.1521  0.3464
  644MPD2    C2 9532   2.433   4.156   9.408 -0.4156 -0.3216  0.5017
  644MPD2    C3 9533   2.427   4.294   9.401 -0.3235 -0.3032 -0.3609
  644MPD2    C4 9534   2.544   4.368   9.413  0.3719  0.6022 -0.3570
  644MPD2    C5 9535   2.661   4.300   9.446  0.1642 -0.1413  0.1527
  644MPD2     H 9536   2.338   4.106   9.394 -0.3407 -0.5212  0.6896
  644MPD2    H1 9537   2.546   4.474   9.389 -0.6033  0.5144 -0.8063
  644MPD2    H2 9538   2.763   4.125   9.470  1.3600  2.0443 -0.6429
  644MPD2    H3 9539   2.754   4.354   9.460  0.0021  0.2331 -0.1804
  644MPD2     N 9540   2.294   4.356   9.403 -0.1511 -0.1873  0.7585
  644MPD2    H5 9541   2.220   4.287   9.393 -1.0408  0.5883  2.0149
  644MPD2    N1 9542   2.563   3.949   9.454  0.3811 -0.3916 -0.4800
  644MPD2    H7 9543   2.658   3.917   9.467  0.0114 -1.0758  0.5970
  645TMC3    C1 9544   2.127   4.532   9.418  0.8372 -0.2585  0.5164
  645TMC3    C2 9545   2.033   4.447   9.473 -0.2404 -0.1036 -0.6145
  645TMC3    C3 9546   1.903   4.498   9.494 -0.1666  0.1474 -0.4122
  645TMC3    C4 9547   2.099   4.661   9.374 -0.5468 -0.0150 -0.5699
  645TMC3    C5 9548   1.970   4.700   9.387  0.0881 -0.4566 -0.2177
  645TMC3    C6 9549   1.874   4.629   9.457  0.3592  0.3186 -0.4358
  645TMC3     C 9550   2.268   4.490   9.409 -0.3027  0.2761 -0.1344
  645TMC3     O 9551   2.351   4.582   9.400  0.1497  0.4814 -0.1472
  645TMC3     H 9552   2.054   4.348   9.512 -2.9079 -0.2637  0.3677
  645TMC3    H1 9553   2.184   4.720   9.342  0.0115 -1.4640 -1.7204
  645TMC3    H2 9554   1.773   4.668   9.450  0.2178  0.2155  0.9684
  645TMC3    C7 9555   1.932   0.106   9.345  0.0562  0.6079 -0.0361
  645TMC3    C8 9556   1.813   4.410   9.570 -0.1188 -0.2147 -0.0112
  645TMC3    O1 9557   1.818   0.149   9.352  0.0911 -0.0178 -0.9457
  645TMC3    O2 9558   1.840   4.292   9.581 -0.0363 -0.0753 -0.1012
  646MPD2     C 9559   2.011   3.883  14.578  0.7814  0.4738 -0.4394
  646MPD2    C1 9560   1.922   3.816  14.658 -0.1007 -0.0878  0.4019
  646MPD2    C2 9561   1.789   3.852  14.656  0.3399  0.3690  0.1337
  646MPD2    C3 9562   1.743   3.954  14.576 -0.1983  0.0112 -0.4630
  646MPD2    C4 9563   1.826   4.019  14.493 -0.3813 -0.2548  0.2675
  646MPD2    C5 9564   1.959   3.986  14.500 -0.0093 -0.2367 -0.5755
  646MPD2     H 9565   1.720   3.797  14.719 -0.7226 -0.2793 -1.5862
  646MPD2    H1 9566   1.791   4.099  14.430 -0.3226 -2.3710 -2.4911
  646MPD2    H2 9567   2.115   3.855  14.575  1.3322  2.0390  3.2279
  646MPD2    H3 9568   2.036   4.043  14.448 -0.3600  0.1378 -0.6806
  646MPD2     N 9569   1.605   3.988  14.579 -0.1191  0.4537  0.2481
  646MPD2    H5 9570   1.543   3.937  14.641 -1.2542  2.2395  0.5728
  646MPD2    N1 9571   1.969   3.717  14.746 -0.1803 -0.3533 -0.4354
  646MPD2    H7 9572   2.060   3.673  14.733  0.0305  0.4690 -1.7078
  647TMC3    C1 9573   1.971   3.523  14.873  0.4317 -0.2709  0.8017
  647TMC3    C2 9574   1.902   3.437  14.952 -0.5941  0.0237 -0.2460
  647TMC3    C3 9575   1.962   3.327  15.001  0.2619  0.6410 -0.2448
  647TMC3    C4 9576   2.108   3.504  14.846 -0.1327  0.3311 -0.0833
  647TMC3    C5 9577   2.160   3.396  14.913  0.4835  0.0552 -0.1913
  647TMC3    C6 9578   2.094   3.296  14.980 -0.6785  0.0314  0.3050
  647TMC3     C 9579   1.892   3.638  14.825 -0.2618 -0.7311  0.7205
  647TMC3     O 9580   1.779   3.655  14.869 -0.0799  0.1460  0.0602
  647TMC3     H 9581   1.795   3.450  14.965 -0.6718  1.2746 -2.1632
  647TMC3    H1 9582   2.167   3.581  14.799  1.0163  0.2825  1.2917
  647TMC3    H2 9583   2.136   3.206  15.025 -3.1752 -1.8334 -1.0871
  647TMC3    C7 9584   2.307   3.380  14.921 -0.0679 -0.1758 -0.0235
  647TMC3    C8 9585   1.893   3.247  15.098  0.5717 -0.6168 -0.4090
  647TMC3    O1 9586   2.356   3.285  14.983 -0.0990  0.5639 -0.3365
  647TMC3    O2 9587   1.970   3.188  15.172 -0.4183 -0.3389  0.2289
  648TMC3    C1 9588   1.236   1.294  16.010 -0.2400 -0.1801  0.2182
  648TMC3    C2 9589   1.312   1.221  15.915 -0.1373 -1.2495 -0.0349
  648TMC3    C3 9590   1.268   1.232  15.783 -0.1012 -0.4312  0.2157
  648TMC3    C4 9591   1.147   1.387  15.976 -0.3764  0.0527  0.7384
  648TMC3    C5 9592   1.107   1.388  15.848 -0.1324 -0.1034 -0.2750
  648TMC3    C6 9593   1.166   1.318  15.749  0.0663 -0.3314 -0.3035
  648TMC3     C 9594   1.269   1.266  16.149 -0.2211 -0.5822  0.8666
  648TMC3     O 9595   1.355   1.179  16.170  0.2179  0.5200  0.3950
  648TMC3     H 9596   1.384   1.146  15.946  0.6794 -0.0585  0.9422
  648TMC3    H1 9597   1.096   1.457  16.041 -1.2102  0.1599 -0.0334
  648TMC3    H2 9598   1.125   1.308  15.649  0.7669 -1.2187 -0.4970
  648TMC3    C7 9599   1.059   1.514  15.801 -0.1321  0.1639 -0.2522
  648TMC3    C8 9600   1.278   1.108  15.714 -0.3397  0.7884 -0.1087
  648TMC3    O1 9601   1.120   1.548  15.701 -0.1015 -0.7704 -0.1744
  648TMC3    O2 9602   1.173   1.073  15.665 -0.0082 -0.4723  0.5831
  649TMC3    C1 9603   0.440   2.617  12.665  0.1480 -0.1506 -0.2431
  649TMC3    C2 9604   0.577   2.633  12.637  0.4707 -0.2658 -0.0688
  649TMC3    C3 9605   0.670   2.566  12.713  0.2840  0.7539 -0.2187
  649TMC3    C4 9606   0.404   2.534  12.765  0.2409  0.0382  0.1868
  649TMC3    C5 9607   0.505   2.455  12.823 -0.7548 -0.1125 -0.8445
  649TMC3    C6 9608   0.639   2.464  12.801  0.6960 -0.9007 -0.0670
  649TMC3     C 9609   0.346   2.668  12.570  0.1330 -0.2780 -0.9583
  649TMC3     O 9610   0.241   2.715  12.622  0.8492 -0.0245 -0.9952
  649TMC3     H 9611   0.607   2.708  12.566  1.4469 -1.6001 -1.0701
  649TMC3    H1 9612   0.301   2.508  12.787  0.2300  0.4489  0.6068
  649TMC3    H2 9613   0.718   2.413  12.856 -0.9460 -2.3099  0.9799
  649TMC3    C7 9614   0.464   2.376  12.942 -0.4966  0.3821  0.1077
  649TMC3    C8 9615   0.813   2.594  12.700  0.3492  0.6018 -0.4195
  649TMC3    O1 9616   0.364   2.414  12.996  0.1575  0.1023  0.1197
  649TMC3    O2 9617   0.895   2.507  12.718 -0.1321 -0.1383 -0.4029
  650TMC3    C1 9618   2.977   4.264  12.807  0.0514  0.6319  0.2641
  650TMC3    C2 9619   2.924   4.393  12.829 -0.1759 -0.4860  0.3699
  650TMC3    C3 9620   2.887   4.456  12.720 -1.0403 -0.3301 -0.8326
  650TMC3    C4 9621   2.975   4.199  12.680 -0.2256 -0.0028 -0.2583
  650TMC3    C5 9622   2.936   4.278  12.570  0.3686  0.1946  0.5383
  650TMC3    C6 9623   2.900   4.406  12.591 -0.4555  0.1975 -0.9617
  650TMC3     C 9624   3.013   4.186  12.928 -0.5920 -0.0761  0.3673
  650TMC3     O 9625   3.005   4.246  13.039 -0.1634 -0.0124  0.0405
  650TMC3     H 9626   2.932   4.437  12.927 -0.3013  0.2789  0.0427
  650TMC3    H1 9627   2.995   4.093  12.665 -0.1954 -0.1692  0.9396
  650TMC3    H2 9628   2.860   4.463  12.509  3.1193  2.0804 -1.4276
  650TMC3    C7 9629   2.886   4.221  12.450  0.1429  0.2596  0.4730
  650TMC3    C8 9630   2.814   4.580  12.730 -0.4264 -0.3522 -0.2493
  650TMC3    O1 9631   2.818   4.118  12.463  0.6699 -0.2969 -0.4524
  650TMC3    O2 9632   2.837   4.648  12.634  0.4264 -0.0120  0.0391
  651MPD2     C 9633   2.089   0.751  10.296  0.1325 -0.5370 -0.4560
  651MPD2    C1 9634   2.021   0.824  10.393 -0.0728  0.2277  0.3216
  651MPD2    C2 9635   2.088   0.922  10.466 -0.0443  0.3207  1.0674
  651MPD2    C3 9636   2.217   0.963  10.430  0.5438 -0.0614 -1.0199
  651MPD2    C4 9637   2.269   0.910  10.314 -0.4923  0.0848 -0.1308
  651MPD2    C5 9638   2.215   0.797  10.260 -0.1111  0.0769 -0.2064
  651MPD2     H 9639   2.027   0.961  10.547  0.1814  1.4754  0.6710
  651MPD2    H1 9640   2.365   0.931  10.268 -0.8500  1.1508 -0.3795
  651MPD2    H2 9641   2.051   0.672  10.232 -1.7045  0.1409 -0.2031
  651MPD2    H3 9642   2.265   0.750  10.176 -2.2406  0.2558 -1.5769
  651MPD2     N 9643   2.272   1.066  10.512  0.2887  0.5765 -0.1680
  651MPD2    H5 9644   2.216   1.091  10.593 -0.8218 -0.4479 -0.5976
  651MPD2    N1 9645   1.890   0.805  10.423 -0.3355 -0.2596 -0.4492
  651MPD2    H7 9646   1.843   0.865  10.490 -0.1073 -0.1481 -0.3882
  652TMC3    C1 9647   2.557   1.401  10.677  0.2497 -0.6648  0.1543
  652TMC3    C2 9648   2.530   1.312  10.579 -0.2467  0.4120 -1.0423
  652TMC3    C3 9649   2.429   1.226  10.601 -0.5231  0.2933  0.2601
  652TMC3    C4 9650   2.482   1.415  10.785 -0.6563 -0.2746  0.1542
  652TMC3    C5 9651   2.373   1.337  10.800 -0.7331 -0.1435 -0.0350
  652TMC3    C6 9652   2.353   1.237  10.709  0.5518 -0.4807  0.1045
  652TMC3     C 9653   2.674   1.480  10.649  0.4774 -0.2971  0.6321
  652TMC3     O 9654   2.701   1.497  10.532 -0.0435 -0.0631  0.5360
  652TMC3     H 9655   2.590   1.296  10.490  0.7715 -1.3545 -0.0275
  652TMC3    H1 9656   2.503   1.495  10.854 -0.2983 -0.3197  0.0995
  652TMC3    H2 9657   2.282   1.158  10.731  1.6065 -1.2909  0.5853
  652TMC3    C7 9658   2.296   1.341  10.918 -0.5759 -0.4514 -0.3983
  652TMC3    C8 9659   2.403   1.123  10.497  0.1395 -0.4401 -0.6809
  652TMC3    O1 9660   2.281   1.234  10.978  0.0307  0.1753  0.5973
  652TMC3    O2 9661   2.488   1.102  10.417 -0.1017  0.1709  0.1033
  653MPD2     C 9662   0.247   1.324   0.219  0.1632  0.3747  0.3332
  653MPD2    C1 9663   0.334   1.329   0.116  0.1646 -0.3374 -0.1735
  653MPD2    C2 9664   0.335   1.223   0.025  0.0558 -0.4010 -0.4218
  653MPD2    C3 9665   0.227   1.133   0.026  0.4782  0.7686 -0.2980
  653MPD2    C4 9666   0.142   1.127   0.135  0.1538 -0.6011 -0.1885
  653MPD2    C5 9667   0.158   1.221   0.236 -0.2565 -0.1032 -0.6481
  653MPD2     H 9668   0.392   1.223  17.643  1.5371  0.2677  0.4959
  653MPD2    H1 9669   0.073   1.044   0.146  0.6727 -0.9265  0.6393
  653MPD2    H2 9670   0.249   1.396   0.300  1.7112  1.4949 -0.6965
  653MPD2    H3 9671   0.095   1.214   0.324  1.6512  2.4360  0.9116
  653MPD2     N 9672   0.193   1.055  17.618 -0.2841  0.1649  0.7812
  653MPD2    H5 9673   0.252   1.070  17.537 -2.2543  0.3553 -0.6155
  653MPD2    N1 9674   0.431   1.428   0.102 -0.2809  0.1239 -0.1365
  653MPD2    H7 9675   0.502   1.417   0.030 -2.6190 -0.7074 -2.3385
  654TMC3    C1 9676   0.096   0.880  17.485 -0.0686  0.1077 -0.4963
  654TMC3    C2 9677   0.116   0.961  17.374 -0.2300 -0.0422  0.0874
  654TMC3    C3 9678   0.084   0.909  17.252 -0.1028 -0.1406  0.3593
  654TMC3    C4 9679   0.061   0.747  17.477  0.3769  0.8580 -0.0287
  654TMC3    C5 9680   0.030   0.698  17.351 -0.5617 -0.9690  0.2640
  654TMC3    C6 9681   0.039   0.780  17.240 -0.0059 -0.3124 -0.3263
  654TMC3     C 9682   0.108   0.939  17.617 -0.0066  0.6947  0.8219
  654TMC3     O 9683   0.090   0.870   0.005  0.1662 -0.1114  0.0135
  654TMC3     H 9684   0.132   1.067  17.384 -1.3750  0.4314 -3.0337
  654TMC3    H1 9685   0.059   0.681  17.563  0.4752  0.3695 -0.3982
  654TMC3    H2 9686   0.012   0.737  17.145  0.1674 -0.3250 -0.3698
  654TMC3    C7 9687   0.003   0.560  17.313  0.2136  1.0210 -0.0878
  654TMC3    C8 9688   0.057   1.003  17.143  0.0889 -0.0131  0.3352
  654TMC3    O1 9689   4.666   0.554  17.211 -0.1307 -0.6329  0.2722
  654TMC3    O2 9690   0.036   1.122  17.165 -0.1288  0.0826 -0.1071
  655MPD2     C 9691   1.697   1.395  15.789  0.3085 -0.0012  0.3229
  655MPD2    C1 9692   1.603   1.466  15.706  0.0536  0.6369  0.6020
  655MPD2    C2 9693   1.606   1.451  15.573  0.0965 -0.4959 -0.3414
  655MPD2    C3 9694   1.707   1.378  15.506  0.7101 -0.6307  0.6540
  655MPD2    C4 9695   1.793   1.306  15.588 -0.2378  0.2458  0.3574
  655MPD2    C5 9696   1.787   1.308  15.728  0.5648  0.6384 -0.1056
  655MPD2     H 9697   1.524   1.500  15.522  0.9337  1.4537  0.1655
  655MPD2    H1 9698   1.867   1.245  15.538 -1.2668 -0.9824  0.3314
  655MPD2    H2 9699   1.715   1.419  15.893  0.5389  1.9110 -0.1534
  655MPD2    H3 9700   1.865   1.256  15.782 -0.9910 -0.4919  1.0381
  655MPD2     N 9701   1.706   1.358  15.364 -0.2292  0.1703 -0.0436
  655MPD2    H5 9702   1.768   1.288  15.325 -0.1274  0.4288 -0.3454
  655MPD2    N1 9703   1.507   1.558  15.764 -0.1538  0.0273  0.5721
  655MPD2    H7 9704   1.457   1.616  15.697 -0.0222 -0.2959  0.1939
  656TMC3    C1 9705   1.394   1.694  15.922 -1.0877 -0.3352 -0.2245
  656TMC3    C2 9706   1.318   1.684  16.034 -0.7951  0.9476  0.5608
  656TMC3    C3 9707   1.218   1.773  16.054 -0.6401  0.4746  0.5316
  656TMC3    C4 9708   1.367   1.800  15.836  0.3443  0.3628 -0.2184
  656TMC3    C5 9709   1.260   1.882  15.861  0.0888  0.1171 -0.0504
  656TMC3    C6 9710   1.183   1.878  15.972  0.5424 -0.4149  0.1590
  656TMC3     C 9711   1.480   1.581  15.893 -0.2296  0.0091  0.2076
  656TMC3     O 9712   1.513   1.519  15.995 -0.1208 -0.1094 -0.0559
  656TMC3     H 9713   1.343   1.609  16.108  0.5027  0.6454 -0.1865
  656TMC3    H1 9714   1.427   1.812  15.745 -1.0199 -0.5233 -1.2261
  656TMC3    H2 9715   1.100   1.944  15.995  1.9545  0.9931  1.2952
  656TMC3    C7 9716   1.226   1.980  15.759 -0.0001 -0.1360 -0.5252
  656TMC3    C8 9717   1.132   1.752  16.164  0.5332  0.6785 -0.3966
  656TMC3    O1 9718   1.254   1.953  15.647  0.1747  0.0750 -0.2087
  656TMC3    O2 9719   1.122   1.631  16.187  0.2229 -0.2289  0.2961
  657TMC3    C1 9720   0.619   1.055  14.876 -1.0646 -0.2881 -0.5877
  657TMC3    C2 9721   0.656   1.095  15.000  0.6086  0.2590  0.3397
  657TMC3    C3 9722   0.622   1.223  15.045  0.2049  0.6660 -0.1546
  657TMC3    C4 9723   0.542   1.140  14.799  0.5003  0.1780  0.1818
  657TMC3    C5 9724   0.512   1.264  14.842 -0.0646 -0.3720 -0.5266
  657TMC3    C6 9725   0.547   1.310  14.967 -0.3667  0.2690  1.2112
  657TMC3     C 9726   0.727   1.002  14.795  0.3600  0.6291 -0.1526
  657TMC3     O 9727   0.734   1.054  14.684 -0.3162 -0.2504 -0.2561
  657TMC3     H 9728   0.707   1.021  15.060  1.2191 -2.1249 -3.0844
  657TMC3    H1 9729   0.510   1.108  14.701 -1.6338 -1.9177  1.5804
  657TMC3    H2 9730   0.520   1.411  14.995  1.9692  1.3088 -0.2403
  657TMC3    C7 9731   0.452   1.356  14.742  0.3904  0.3032  0.0801
  657TMC3    C8 9732   0.670   1.255  15.176 -0.1781 -0.0898  0.7818
  657TMC3    O1 9733   0.457   1.313  14.630 -0.3301 -0.5526 -0.1392
  657TMC3    O2 9734   0.749   1.175  15.224 -0.1206 -0.2194  0.4067
  658MPD2     C 9735   2.198   1.308  14.871  0.0346 -0.2484  0.2271
  658MPD2    C1 9736   2.078   1.277  14.820 -0.1515 -0.3343 -0.0150
  658MPD2    C2 9737   2.064   1.272  14.683  0.1298 -0.2946  0.7632
  658MPD2    C3 9738   2.171   1.297  14.598 -0.0780 -0.9523  0.6070
  658MPD2    C4 9739   2.298   1.323  14.650 -0.2081  0.0442  0.0093
  658MPD2    C5 9740   2.307   1.325  14.787 -0.0586  0.1803 -0.3537
  658MPD2     H 9741   1.968   1.256  14.634 -0.3778  0.4884  1.5035
  658MPD2    H1 9742   2.387   1.342  14.591  1.5117 -0.4041  2.4297
  658MPD2    H2 9743   2.209   1.331  14.976 -2.4613 -3.0637  1.0788
  658MPD2    H3 9744   2.402   1.348  14.833 -0.1569 -0.7486  0.3288
  658MPD2     N 9745   2.146   1.287  14.457  0.0502 -0.2288  0.4505
  658MPD2    H5 9746   2.058   1.251  14.420 -0.0302 -0.3549  0.7588
  658MPD2    N1 9747   1.969   1.271  14.911 -0.4105  0.6497 -0.3782
  658MPD2    H7 9748   1.988   1.321  14.997  1.6610 -3.4317  1.5731
  659TMC3    C1 9749   1.728   1.275  14.952 -0.2669  0.1914 -0.6270
  659TMC3    C2 9750   1.740   1.312  15.081 -0.1077  0.3611  0.0680
  659TMC3    C3 9751   1.634   1.372  15.140 -0.3885 -0.5971 -0.0160
  659TMC3    C4 9752   1.616   1.293  14.880 -0.0746 -0.2140 -0.1169
  659TMC3    C5 9753   1.511   1.350  14.943  0.1446  0.3557 -0.0232
  659TMC3    C6 9754   1.514   1.385  15.074 -0.2025  0.5079 -0.3432
  659TMC3     C 9755   1.844   1.221  14.880 -0.1653 -0.7355 -0.7277
  659TMC3     O 9756   1.808   1.182  14.774 -0.2049 -0.4164 -0.3002
  659TMC3     H 9757   1.833   1.301  15.136  0.8196  4.1895 -0.7083
  659TMC3    H1 9758   1.606   1.287  14.773 -0.7843 -0.4750 -0.0375
  659TMC3    H2 9759   1.437   1.446  15.120  0.3554 -0.0050  1.2762
  659TMC3    C7 9760   1.375   1.345  14.887 -0.0530  0.1826  0.2455
  659TMC3    C8 9761   1.632   1.424  15.273 -0.0094  0.1448 -0.1362
  659TMC3    O1 9762   1.280   1.392  14.947 -0.6244 -0.2473  0.8329
  659TMC3    O2 9763   1.540   1.501  15.297  0.3399 -0.3076 -0.0311
  660MPD2     C 9764   0.446   4.678  13.079  0.6665 -0.1230  0.7392
  660MPD2    C1 9765   0.333   4.672  13.000  0.5238  0.0354  0.3197
  660MPD2    C2 9766   0.229   4.609  13.047 -0.4351  0.2879 -0.3654
  660MPD2    C3 9767   0.232   4.546  13.172 -0.7593  0.5390  0.1217
  660MPD2    C4 9768   0.345   4.538  13.247 -0.5786 -0.6103 -0.9352
  660MPD2    C5 9769   0.457   4.602  13.191 -0.2108  0.6097  0.1148
  660MPD2     H 9770   0.135   4.629  12.997 -0.6211 -0.6902 -0.4089
  660MPD2    H1 9771   0.351   4.484  13.341 -3.6838  0.6414 -0.0090
  660MPD2    H2 9772   0.526   0.014  13.043  1.0263 -1.3615 -0.6430
  660MPD2    H3 9773   0.548   4.595  13.250 -1.4998  1.6496  2.2138
  660MPD2     N 9774   0.109   4.493  13.225  0.4219 -0.0683  0.0329
  660MPD2    H5 9775   0.103   4.475  13.325  1.9372 -2.2487 -0.2625
  660MPD2    N1 9776   0.315   0.007  12.875  0.2091  0.1976  0.1955
  660MPD2    H7 9777   0.223   4.723  12.833  0.9918  0.5759 -1.5785
  661TMC3    C1 9778   0.342   0.141  12.691  0.0397 -0.0151 -0.1742
  661TMC3    C2 9779   0.393   0.268  12.662 -0.1625 -0.3622 -0.2649
  661TMC3    C3 9780   0.313   0.369  12.616  0.1524  0.2508  0.2251
  661TMC3    C4 9781   0.205   0.132  12.687 -0.7702 -0.3425  0.1163
  661TMC3    C5 9782   0.128   0.236  12.649  0.6293  0.4035  0.3023
  661TMC3    C6 9783   0.175   0.357  12.608  0.4649 -0.1634 -0.4536
  661TMC3     C 9784   0.408   0.083  12.810 -0.0147 -0.4418  0.1816
  661TMC3     O 9785   0.519   0.123  12.846  0.2842 -0.0888  0.3383
  661TMC3     H 9786   0.501   0.276  12.656  0.0110 -2.0230  0.3643
  661TMC3    H1 9787   0.153   0.039  12.707  0.7849 -0.9587  1.3135
  661TMC3    H2 9788   0.112   0.443  12.588  0.3200 -0.5469 -1.6653
  661TMC3    C7 9789   4.716   0.207  12.641 -0.4244 -0.6489 -0.4823
  661TMC3    C8 9790   0.377   0.446  12.510  0.6719 -0.2120 -0.0318
  661TMC3    O1 9791   4.670   0.120  12.712  0.6894  0.0628  0.2964
  661TMC3    O2 9792   0.486   0.400  12.474 -0.2943 -0.2015  0.0090
  662MPD2     C 9793   4.465   0.206  17.462  0.6556  0.4801 -0.4901
  662MPD2    C1 9794   4.552   0.158  17.552  0.6931 -0.4862  0.4016
  662MPD2    C2 9795   4.606   0.236  17.650  0.2084  0.4760  0.2601
  662MPD2    C3 9796   4.564   0.374  17.660  0.0444  0.1233  0.4360
  662MPD2    C4 9797   4.477   0.417  17.566 -0.5571 -0.0178 -0.0658
  662MPD2    C5 9798   4.434   0.335  17.465 -0.0783 -0.6400 -0.1959
  662MPD2     H 9799   4.670   0.184   0.010 -0.3157  0.2359  0.5654
  662MPD2    H1 9800   4.450   0.522  17.567  1.7056  0.5826 -2.3394
  662MPD2    H2 9801   4.420   0.145  17.386  1.4706 -0.9427  0.1759
  662MPD2    H3 9802   4.374   0.380  17.387  1.0089  0.7088 -0.2483
  662MPD2     N 9803   4.608   0.466   0.048 -0.4143  0.1137  0.3725
  662MPD2    H5 9804   4.552   0.551   0.054 -0.2080  0.1710  1.6217
  662MPD2    N1 9805   4.577   0.019  17.566  0.2717 -0.2966 -0.5134
  662MPD2    H7 9806   4.640   4.713  17.638  1.4478 -1.5708 -2.1382
  663TMC3    C1 9807   4.584   4.524  17.529  0.2191  1.0040  0.0294
  663TMC3    C2 9808   4.571   4.502  17.665  0.2257 -0.3325 -0.1736
  663TMC3    C3 9809   4.635   4.399   0.015 -0.6305  0.5727 -0.0655
  663TMC3    C4 9810   4.678   4.466  17.450 -0.1235 -0.2448  0.5544
  663TMC3    C5 9811   0.021   4.366  17.516  1.1505 -0.3551 -0.4184
  663TMC3    C6 9812   0.003   4.339  17.650  0.2864 -0.3385  0.2158
  663TMC3     C 9813   4.535   4.648  17.483  0.6838  1.0816 -0.0975
  663TMC3     O 9814   4.474   4.656  17.378  0.2056 -0.4140 -0.4886
  663TMC3     H 9815   4.488   4.553   0.003  3.1405  1.8429  2.5836
  663TMC3    H1 9816   4.690   4.482  17.344  2.5546  0.3496  0.9496
  663TMC3    H2 9817   0.046   4.257  17.706  0.9936 -0.0989  0.0250
  663TMC3    C7 9818   0.068   4.249  17.438  0.1047 -0.1571  0.4942
  663TMC3    C8 9819   4.536   4.294   0.043  0.2456  0.0453 -0.5586
  663TMC3    O1 9820   0.091   4.271  17.319  0.3235 -0.3073  0.0824
  663TMC3    O2 9821   4.523   4.210  17.661 -0.1930 -0.2055 -0.0084
  664MPD2     C 9822   2.813   2.782  17.262 -0.0124  0.3140  0.4047
  664MPD2    C1 9823   2.863   2.888  17.338 -0.9271  0.3183  1.3021
  664MPD2    C2 9824   2.801   2.920  17.458 -0.1076  0.0671  0.2919
  664MPD2    C3 9825   2.698   2.844  17.511  0.5436  0.3585 -0.1809
  664MPD2    C4 9826   2.654   2.746  17.428 -0.3567  0.8003 -0.2900
  664MPD2    C5 9827   2.713   2.707  17.309 -0.3210 -0.4043  0.5867
  664MPD2     H 9828   2.830   3.013  17.505  0.5876 -0.2016  0.3954
  664MPD2    H1 9829   2.569   2.691  17.465  0.4321  1.4373  2.4441
  664MPD2    H2 9830   2.843   2.753  17.162 -0.3360 -0.3406  0.4972
  664MPD2    H3 9831   2.679   2.623  17.250  0.0863 -1.1539  1.4231
  664MPD2     N 9832   2.637   2.880  17.632 -0.6214  0.3324  0.0472
  664MPD2    H5 9833   2.667   2.962  17.683 -1.3469  0.5323  0.1552
  664MPD2    N1 9834   2.966   2.971  17.301 -0.0321  0.4735 -0.0893
  664MPD2    H7 9835   2.990   3.054  17.355 -0.5923  0.4997  0.1185
  665TMC3    C1 9836   2.503   2.877   0.116 -0.4252  0.1522 -0.2179
  665TMC3    C2 9837   2.426   2.808   0.208  0.9601  0.1069  0.4812
  665TMC3    C3 9838   2.403   2.857   0.330 -0.3894  0.3388  0.2163
  665TMC3    C4 9839   2.546   3.006   0.145  0.3573 -0.3996 -0.1527
  665TMC3    C5 9840   2.513   3.058   0.273  0.4639  0.0715  0.1832
  665TMC3    C6 9841   2.449   2.979   0.368 -0.2467 -0.3011  0.2048
  665TMC3     C 9842   2.530   2.819  17.695 -0.0225 -0.3568 -0.1153
  665TMC3     O 9843   2.460   2.720  17.669 -1.1413  0.1520 -0.2638
  665TMC3     H 9844   2.400   2.705   0.184 -1.0309  0.9714 -1.0883
  665TMC3    H1 9845   2.580   3.071   0.064  0.0785 -0.0305  0.0288
  665TMC3    H2 9846   2.414   3.018   0.463 -0.6579  1.0268 -0.4916
  665TMC3    C7 9847   2.527   3.203   0.300 -0.1095 -0.1549  0.2605
  665TMC3    C8 9848   2.277   2.830   0.391 -0.4210 -0.3416  0.5224
  665TMC3    O1 9849   2.556   3.278   0.208 -0.5462  0.3934  0.2160
  665TMC3    O2 9850   2.238   2.898   0.489 -0.0326 -0.2935 -0.1571
  666TMC3    C1 9851   2.430   2.628  10.302 -0.0768 -0.2835  0.0419
  666TMC3    C2 9852   2.475   2.536  10.394  0.2635  0.0017 -0.0171
  666TMC3    C3 9853   2.587   2.571  10.467 -0.1328 -0.3565  0.0539
  666TMC3    C4 9854   2.471   2.759  10.297  0.2404 -0.2986 -0.4328
  666TMC3    C5 9855   2.581   2.790  10.381 -0.5087  0.3462  0.0877
  666TMC3    C6 9856   2.638   2.699  10.470 -0.0081 -0.0748 -0.7643
  666TMC3     C 9857   2.284   2.631  10.261  0.2146 -0.2591 -0.4604
  666TMC3     O 9858   2.249   2.696  10.164  0.2373  0.6024  0.1470
  666TMC3     H 9859   2.430   2.438  10.399  1.5611 -0.6204 -0.3998
  666TMC3    H1 9860   2.434   2.839  10.234 -0.1985 -0.0176  0.1874
  666TMC3    H2 9861   2.718   2.737  10.533 -0.6699 -1.0122  0.6561
  666TMC3    C7 9862   2.591   2.934  10.401 -0.1955  0.4152 -0.2217
  666TMC3    C8 9863   2.621   2.476  10.566 -0.4736 -0.3549  0.1968
  666TMC3    O1 9864   2.492   3.002  10.381 -0.3442 -0.4353 -0.1752
  666TMC3    O2 9865   2.544   2.381  10.578  0.1468 -0.1069 -0.0779
  667MPD2     C 9866   3.979   2.828  15.177 -0.3335  0.2111  0.2869
  667MPD2    C1 9867   3.845   2.877  15.192  0.2232 -0.5884  0.2261
  667MPD2    C2 9868   3.742   2.798  15.146 -0.1194 -0.9967 -0.6460
  667MPD2    C3 9869   3.766   2.675  15.084 -0.1770  0.2449 -0.0266
  667MPD2    C4 9870   3.900   2.628  15.078  0.3889  0.0349  0.1793
  667MPD2    C5 9871   4.005   2.700  15.128  0.0183  0.0628 -0.1708
  667MPD2     H 9872   3.641   2.828  15.172 -0.1183 -0.5444 -1.1603
  667MPD2    H1 9873   3.924   2.528  15.043 -1.0103 -0.5158  0.7735
  667MPD2    H2 9874   4.064   2.888  15.209  0.6490 -0.7781 -0.4758
  667MPD2    H3 9875   4.105   2.659  15.121  0.3348  1.0078 -1.2256
  667MPD2     N 9876   3.665   2.590  15.052 -0.2146  0.2639  0.1290
  667MPD2    H5 9877   3.687   2.494  15.026 -1.6236 -0.1458  0.4449
  667MPD2    N1 9878   3.813   2.986  15.275 -0.7527 -0.5592  0.4735
  667MPD2    H7 9879   3.714   3.000  15.291 -0.4170 -0.2197  2.2840
  668TMC3    C1 9880   3.847   3.142  15.441  0.8773 -0.0071 -0.2865
  668TMC3    C2 9881   3.924   3.251  15.481 -0.0237 -0.2960  1.0781
  668TMC3    C3 9882   3.906   3.304  15.608  0.2536 -0.1584 -0.3875
  668TMC3    C4 9883   3.752   3.090  15.526  0.2541  0.9912  0.6870
  668TMC3    C5 9884   3.731   3.148  15.646  0.9701 -0.0976 -0.1228
  668TMC3    C6 9885   3.807   3.251  15.693  0.6397  0.3599  0.1612
  668TMC3     C 9886   3.910   3.059  15.342 -0.3975  0.8475  0.1121
  668TMC3     O 9887   4.029   3.079  15.312  0.0263  0.5762  0.3521
  668TMC3     H 9888   4.001   3.282  15.411 -0.6776 -1.7004 -0.2653
  668TMC3    H1 9889   3.690   3.006  15.495 -0.1844  1.5931 -0.0840
  668TMC3    H2 9890   3.794   3.288  15.794 -0.1316  1.0513 -0.1949
  668TMC3    C7 9891   3.625   3.108  15.732  0.2020  0.1578  0.2512
  668TMC3    C8 9892   3.944   3.439  15.640  1.1908 -0.3180  0.7706
  668TMC3    O1 9893   3.629   3.139  15.852 -0.2354  0.3783  0.0011
  668TMC3    O2 9894   3.895   3.496  15.736  0.0927  0.4084 -0.0114
  669TMC3    C1 9895   1.975   3.026  14.404 -0.0161 -0.0612 -0.0373
  669TMC3    C2 9896   1.859   2.986  14.343  1.1752 -0.3710  0.2033
  669TMC3    C3 9897   1.833   3.028  14.217  0.1463  0.0237 -1.0391
  669TMC3    C4 9898   2.069   3.105  14.348  0.1756  0.0163  0.1606
  669TMC3    C5 9899   2.037   3.152  14.215 -0.3141 -0.4858  0.8628
  669TMC3    C6 9900   1.918   3.112  14.154 -0.5091  0.2893 -0.5276
  669TMC3     C 9901   1.972   3.016  14.543 -0.4910  0.3347  0.3422
  669TMC3     O 9902   1.861   3.027  14.596 -0.0704  0.0791 -0.2323
  669TMC3     H 9903   1.800   2.912  14.397  0.4153  0.4404  0.4758
  669TMC3    H1 9904   2.161   3.134  14.396  0.5927 -1.5463  0.3010
  669TMC3    H2 9905   1.890   3.143  14.054 -0.8286  0.4727 -0.3819
  669TMC3    C7 9906   2.118   3.260  14.158 -0.6051 -0.7677 -0.5308
  669TMC3    C8 9907   1.690   3.062  14.208 -0.5983  0.4244 -0.6674
  669TMC3    O1 9908   2.208   3.310  14.232  0.2203 -0.0741  0.5023
  669TMC3    O2 9909   1.640   3.042  14.098  0.2739 -0.1420  0.6723
  670MPD2     C 9910   0.472   0.885  13.535  0.0160 -0.3594  0.1066
  670MPD2    C1 9911   0.370   0.977  13.554  0.2953  0.0604  0.4449
  670MPD2    C2 9912   0.293   0.982  13.674 -0.0417  0.5148 -0.4634
  670MPD2    C3 9913   0.323   0.892  13.776 -0.0858 -0.5515 -0.3157
  670MPD2    C4 9914   0.431   0.802  13.753  0.0222  0.0475 -0.1881
  670MPD2    C5 9915   0.505   0.802  13.636 -0.2951  0.0184  0.2966
  670MPD2     H 9916   0.215   1.056  13.691  1.2949  1.3518  2.0163
  670MPD2    H1 9917   0.466   0.728  13.824  0.1204  1.0302  0.7875
  670MPD2    H2 9918   0.526   0.893  13.441 -0.2965 -0.7141 -0.1036
  670MPD2    H3 9919   0.587   0.733  13.622  0.7142  1.7445 -2.3765
  670MPD2     N 9920   0.243   0.895  13.886 -0.4389  0.1880 -0.3658
  670MPD2    H5 9921   0.162   0.957  13.883 -0.2711  0.4875  1.3257
  670MPD2    N1 9922   0.351   1.064  13.437  0.3152  0.3349 -0.2618
  670MPD2    H7 9923   0.414   1.049  13.359 -0.7667 -1.8163 -0.7243
  671TMC3    C1 9924   0.148   0.831  14.083  0.3340  0.0352  0.5338
  671TMC3    C2 9925   0.163   0.816  14.215 -0.1091 -0.3304 -0.6144
  671TMC3    C3 9926   0.072   0.746  14.282 -0.5549  0.5695  0.2845
  671TMC3    C4 9927   0.032   0.789  14.024 -0.8542  0.4718 -0.3072
  671TMC3    C5 9928   4.661   0.730  14.103  0.0775 -0.3161  0.0010
  671TMC3    C6 9929   4.677   0.705  14.233  0.8619  0.3313 -0.0878
  671TMC3     C 9930   0.266   0.835  14.002 -0.0320  0.2564 -0.1652
  671TMC3     O 9931   0.361   0.754  14.024  0.7800 -0.1975 -0.5431
  671TMC3     H 9932   0.269   0.818  14.238 -0.0530 -0.5963 -0.8578
  671TMC3    H1 9933   0.030   0.755  13.922  0.9489  0.9937 -0.5090
  671TMC3    H2 9934   4.602   0.650  14.288  1.7978 -2.0383 -1.1770
  671TMC3    C7 9935   4.571   0.644  14.031  0.3588  0.6010  0.4772
  671TMC3    C8 9936   0.126   0.668  14.388  0.2779  0.2793  0.0630
  671TMC3    O1 9937   4.584   0.619  13.911  0.2399  0.0189 -0.1587
  671TMC3    O2 9938   0.216   0.723  14.458  0.0570  0.1632  0.4133
  672MPD2     C 9939   0.316   1.695   1.474  0.6940 -1.5418  1.1604
  672MPD2    C1 9940   0.407   1.595   1.456 -0.1398  0.5426  0.7973
  672MPD2    C2 9941   0.536   1.620   1.493 -0.1058 -0.5980 -0.6154
  672MPD2    C3 9942   0.571   1.744   1.550  0.1286 -0.3184  0.0312
  672MPD2    C4 9943   0.477   1.842   1.563 -0.5577  0.3197  0.0184
  672MPD2    C5 9944   0.352   1.817   1.520  0.0902  0.1405  0.0556
  672MPD2     H 9945   0.608   1.541   1.480 -0.4910 -1.3264  1.6406
  672MPD2    H1 9946   0.500   1.937   1.611 -0.7671 -1.5072  3.7542
  672MPD2    H2 9947   0.212   1.683   1.449  0.7513 -1.4290  0.8697
  672MPD2    H3 9948   0.271   1.889   1.527 -1.9973 -2.1295 -0.3667
  672MPD2     N 9949   0.703   1.764   1.594 -0.1752 -0.5625 -0.0126
  672MPD2    H5 9950   0.715   1.858   1.630 -0.5789 -0.8011  0.7367
  672MPD2    N1 9951   0.389   1.467   1.396 -0.0384  0.5062  0.5385
  672MPD2    H7 9952   0.468   1.403   1.389 -1.9452 -1.7435 -0.7469
  673TMC3    C1 9953   0.282   1.309   1.244  0.5129 -0.4019  0.0123
  673TMC3    C2 9954   0.349   1.204   1.304  0.1483 -0.3052  0.1511
  673TMC3    C3 9955   0.357   1.092   1.235 -0.4446 -0.3986 -0.2592
  673TMC3    C4 9956   0.244   1.308   1.116 -0.5594 -0.0552 -0.6396
  673TMC3    C5 9957   0.272   1.196   1.046 -0.4952  0.0189 -0.0958
  673TMC3    C6 9958   0.323   1.084   1.105  0.0036  0.2519  0.5198
  673TMC3     C 9959   0.275   1.433   1.323 -0.4393 -0.1115 -0.4032
  673TMC3     O 9960   0.187   1.510   1.282  0.0382 -0.6036  0.0733
  673TMC3     H 9961   0.374   1.197   1.410  1.3262  1.7645  0.0021
  673TMC3    H1 9962   0.212   1.396   1.060  0.1234 -0.7886 -2.2009
  673TMC3    H2 9963   0.355   0.994   1.053 -1.1149 -1.5110  2.9057
  673TMC3    C7 9964   0.342   1.213   0.924 -0.1957  0.2759 -0.3192
  673TMC3    C8 9965   0.349   0.972   1.313 -0.0232  0.0376 -0.0852
  673TMC3    O1 9966   0.421   1.121   0.894 -0.0585  0.2013  0.3956
  673TMC3    O2 9967   0.288   0.881   1.259  0.2278 -0.1855 -0.2179
  674MPD2     C 9968   0.797   0.456  17.680  0.5043  0.3324 -0.6924
  674MPD2    C1 9969   0.803   0.434   0.105  0.6556  0.3809  0.4370
  674MPD2    C2 9970   0.798   0.554   0.178 -0.0054 -1.1505  0.1809
  674MPD2    C3 9971   0.791   0.680   0.132 -0.6744 -0.3816 -0.1679
  674MPD2    C4 9972   0.785   0.695   0.001  0.0864  0.4661  0.4923
  674MPD2    C5 9973   0.793   0.584  17.628  0.0353 -0.1790  0.7610
  674MPD2     H 9974   0.792   0.550   0.287  0.0443  0.0666  0.2278
  674MPD2    H1 9975   0.773   0.795  17.669 -1.0120  0.1061 -0.0554
  674MPD2    H2 9976   0.792   0.371  17.612  0.9192 -1.3411  1.3774
  674MPD2    H3 9977   0.775   0.604  17.523 -1.1868  0.6393  1.1274
  674MPD2     N 9978   0.771   0.783   0.230 -0.0429  0.2362  0.0587
  674MPD2    H5 9979   0.753   0.745   0.322  3.5871 -0.3125  0.5458
  674MPD2    N1 9980   0.809   0.306   0.166  0.0789 -0.0133 -0.4696
  674MPD2    H7 9981   0.788   0.224   0.110  0.8633 -0.7768  0.3558
  675TMC3    C1 9982   0.806   0.158   0.343 -0.1000  0.0178  0.4178
  675TMC3    C2 9983   0.675   0.125   0.312 -0.5580  0.2133 -0.5923
  675TMC3    C3 9984   0.588   0.100   0.415 -0.3338  0.2656  0.1361
  675TMC3    C4 9985   0.856   0.128   0.468 -0.2559 -0.5080 -0.2289
  675TMC3    C5 9986   0.766   0.093   0.565  0.3624 -0.4099 -0.5727
  675TMC3    C6 9987   0.629   0.093   0.546  0.6754  0.2764  0.1005
  675TMC3     C 9988   0.849   0.286   0.294  0.2587  0.6268 -0.4307
  675TMC3     O 9989   0.877   0.359   0.388  0.0223 -0.5101 -0.4494
  675TMC3     H 9990   0.635   0.133   0.212  0.4200  0.7053 -0.9509
  675TMC3    H1 9991   0.960   0.149   0.488 -0.5307 -2.3892  3.1284
  675TMC3    H2 9992   0.572   0.078   0.637  2.8951  1.7959  1.7476
  675TMC3    C7 9993   0.810   0.109   0.704 -0.6888 -0.3957  0.4626
  675TMC3    C8 9994   0.445   0.096   0.379  0.2604  0.2693  0.7081
  675TMC3    O1 9995   0.726   0.106   0.795 -0.4321  0.1001 -0.2433
  675TMC3    O2 9996   0.418   0.111   0.259  0.1118 -0.1039  0.6980
  676MPD2     C 9997   3.171   4.029  11.128  0.5803  0.3686  0.3592
  676MPD2    C1 9998   3.040   4.006  11.148 -0.0502  0.0275 -0.0771
  676MPD2    C2 9999   2.993   3.874  11.131 -0.1809  0.0302  0.2550
  676MPD2    C310000   3.076   3.775  11.089  0.6803  1.3573 -0.7464
  676MPD2    C410001   3.210   3.794  11.085  0.1122  0.2822 -0.6833
  676MPD2    C510002   3.249   3.926  11.098  0.3506  0.5833 -0.0672
  676MPD2     H10003   2.887   3.859  11.145  0.0844 -2.5730 -0.5823
  676MPD2    H110004   3.284   3.718  11.063 -2.2132 -2.1818 -0.0152
  676MPD2    H210005   3.216   4.127  11.128  0.3428  0.4767  0.2463
  676MPD2    H310006   3.353   3.952  11.086  0.5168 -0.8234 -1.7402
  676MPD2     N10007   3.026   3.646  11.073 -0.2366  1.0021 -0.1158
  676MPD2    H510008   3.098   3.578  11.052  1.2848  1.7981  2.4771
  676MPD2    N110009   2.959   4.111  11.195 -0.7961  0.2642 -0.1459
  676MPD2    H710010   3.008   4.200  11.199 -0.9902  0.2939  1.4328
  677TMC3    C110011   2.773   4.234  11.261 -0.1537 -0.0450 -1.0169
  677TMC3    C210012   2.675   4.215  11.353  0.0353 -0.4839  0.7092
  677TMC3    C310013   2.638   4.329  11.423 -0.4885 -0.2293  0.1727
  677TMC3    C410014   2.843   4.358  11.248  0.3276  0.4183  0.1839
  677TMC3    C510015   2.800   4.467  11.324 -0.6270  0.1506 -0.1639
  677TMC3    C610016   2.686   4.453  11.400 -0.3145  0.5607  0.2441
  677TMC3     C10017   2.824   4.111  11.210 -0.4415  0.1259  0.9638
  677TMC3     O10018   2.744   4.019  11.197 -0.5411 -0.0957  0.1258
  677TMC3     H10019   2.609   4.129  11.344 -1.0810  0.5844 -1.3156
  677TMC3    H110020   2.916   4.373  11.169  0.8907 -2.0226  0.2384
  677TMC3    H210021   2.633   4.536  11.446  0.1151 -0.1303  1.9980
  677TMC3    C710022   2.879   4.590  11.306  0.2184 -0.1533  0.0419
  677TMC3    C810023   2.653   4.304  11.562 -0.7722 -0.2987  0.8384
  677TMC3    O110024   2.811   4.688  11.339  0.4032  0.3046  0.2579
  677TMC3    O210025   2.700   4.390  11.637  0.2319  0.2826  0.0148
  678MPD2     C10026   3.136   3.639   1.683  1.1741 -0.1219  0.4072
  678MPD2    C110027   3.206   3.686   1.573  0.3611 -0.2658  0.3046
  678MPD2    C210028   3.145   3.783   1.498  0.0646 -0.3708 -0.5210
  678MPD2    C310029   3.009   3.808   1.512 -0.3388 -0.0368  0.6421
  678MPD2    C410030   2.937   3.749   1.614 -0.4400  0.2154  0.1190
  678MPD2    C510031   3.003   3.669   1.704  0.8101  0.2664  0.2882
  678MPD2     H10032   3.193   3.821   1.408  1.1146 -0.1091  0.1542
  678MPD2    H110033   2.830   3.759   1.626 -0.6436 -2.4818  0.4196
  678MPD2    H210034   3.180   3.568   1.752 -1.5894 -0.7106  1.5992
  678MPD2    H310035   2.951   3.620   1.785 -3.3285  0.7541 -2.0870
  678MPD2     N10036   2.941   3.873   1.403 -0.4579  0.4062  0.2270
  678MPD2    H510037   2.995   3.898   1.321  0.2855 -2.1081 -0.0507
  678MPD2    N110038   3.335   3.635   1.533  0.1844 -0.0233  0.4412
  678MPD2    H710039   3.380   3.683   1.456 -1.3904  1.3734  0.3748
  679TMC3    C110040   3.705   3.349   1.478  0.6344  0.0988 -0.2565
  679TMC3    C210041   3.603   3.390   1.553 -0.3194  0.2676  0.2753
  679TMC3    C310042   3.525   3.494   1.499  0.4467 -0.0586  0.9322
  679TMC3    C410043   3.751   3.423   1.375 -0.3018  0.1907 -1.2420
  679TMC3    C510044   3.673   3.516   1.322  0.1856  0.1094  0.0133
  679TMC3    C610045   3.561   3.558   1.386  0.5536 -0.0829  0.8547
  679TMC3     C10046   3.816   3.276   1.541  0.0012 -0.8201 -0.3553
  679TMC3     O10047   3.927   3.298   1.498 -0.0224  0.3152 -0.3003
  679TMC3     H10048   3.580   3.335   1.643  1.1315  1.0511  1.1313
  679TMC3    H110049   3.842   3.400   1.320 -0.8150 -2.0205 -1.1653
  679TMC3    H210050   3.500   3.641   1.352 -0.2111 -0.7866  0.4950
  679TMC3    C710051   3.724   3.605   1.214 -0.7312 -0.4765  0.0143
  679TMC3    C810052   3.410   3.537   1.582 -0.8633 -0.8616 -0.3838
  679TMC3    O110053   3.666   3.714   1.207 -0.0885 -0.2956  0.8569
  679TMC3    O210054   3.397   3.475   1.685  0.4500 -0.2559 -0.2656
  680MPD2     C10055   0.348   2.874  13.583  0.0579 -0.5115 -0.0699
  680MPD2    C110056   0.349   2.831  13.714  0.1578 -0.5827 -0.7588
  680MPD2    C210057   0.360   2.917  13.822  0.0077 -0.3155  0.4040
  680MPD2    C310058   0.360   3.057  13.804  0.4603 -0.0573 -0.4966
  680MPD2    C410059   0.354   3.104  13.667  0.3554 -0.0849  0.5946
  680MPD2    C510060   0.352   3.008  13.561  1.4718  0.4057 -0.4035
  680MPD2     H10061   0.350   2.879  13.923  2.4980 -0.0689  0.7356
  680MPD2    H110062   0.360   3.211  13.649  2.4952  0.0106  1.8109
  680MPD2    H210063   0.351   2.802  13.503  2.9367  1.8611 -2.1082
  680MPD2    H310064   0.359   3.045  13.459  1.2345  1.9122  0.1284
  680MPD2     N10065   0.356   3.156  13.902 -0.0313 -0.3349  0.2333
  680MPD2    H510066   0.342   3.253  13.876  1.3307 -0.4467 -0.8940
  680MPD2    N110067   0.339   2.692  13.759 -0.1390 -0.1041 -0.1466
  680MPD2    H710068   0.339   2.665  13.857  1.6536  0.8826  0.1213
  681TMC3    C110069   0.368   2.454  13.727  0.4115 -0.9364  0.0551
  681TMC3    C210070   0.299   2.412  13.835 -0.2538 -0.6373  0.1591
  681TMC3    C310071   0.296   2.274  13.862  0.4480  0.2972 -0.3751
  681TMC3    C410072   0.423   2.366  13.632  0.3957  0.2331  0.6983
  681TMC3    C510073   0.405   2.230  13.648  0.0919  0.1765  0.0785
  681TMC3    C610074   0.334   2.184  13.756  0.1093  0.0361  0.4166
  681TMC3     C10075   0.372   2.589  13.674  0.7270  0.1548  0.0933
  681TMC3     O10076   0.408   2.598  13.558  0.4873  0.6088 -0.0942
  681TMC3     H10077   0.266   2.485  13.909  0.4104  0.8349 -0.9913
  681TMC3    H110078   0.492   2.405  13.559  0.8453 -0.7429  0.6109
  681TMC3    H210079   0.308   2.079  13.764 -0.7135  0.1067 -1.1791
  681TMC3    C710080   0.451   2.135  13.550 -0.1633  0.1217  0.1492
  681TMC3    C810081   0.184   2.231  13.937  0.1526  0.0313  0.3251
  681TMC3    O110082   0.475   2.021  13.594 -0.3277 -0.4673  0.0220
  681TMC3    O210083   0.111   2.149  13.887  0.2055 -0.2607 -0.2683
  682MPD2     C10084   2.342   4.268  10.582 -0.1355  0.2135  0.0343
  682MPD2    C110085   2.271   4.156  10.596  0.7694 -0.3391 -0.7937
  682MPD2    C210086   2.184   4.153  10.699 -0.5384  0.1141 -0.1042
  682MPD2    C310087   2.159   4.258  10.783 -0.4231 -0.8231  0.0705
  682MPD2    C410088   2.233   4.378  10.763  0.7920  0.2950 -0.1636
  682MPD2    C510089   2.325   4.377  10.660 -0.5838 -0.2345 -0.6284
  682MPD2     H10090   2.125   4.063  10.712 -0.5949  0.1530 -0.0911
  682MPD2    H110091   2.219   4.470  10.819 -1.8178 -1.5244  2.2130
  682MPD2    H210092   2.414   4.281  10.502  2.0867 -2.1673  1.6660
  682MPD2    H310093   2.384   4.467  10.646  0.1379 -0.5075  0.6586
  682MPD2     N10094   2.059   4.252  10.884 -0.3412 -0.1478 -1.2183
  682MPD2    H510095   2.048   4.336  10.940  0.5515 -0.9930  0.2415
  682MPD2    N110096   2.290   4.032  10.529  0.0422 -0.0574  0.0395
  682MPD2    H710097   2.215   3.965  10.540 -0.4511  0.3092 -1.1029
  683TMC3    C110098   1.825   4.291  11.208 -0.2304 -0.0522 -0.0884
  683TMC3    C210099   1.689   4.290  11.192  0.1050  0.1247 -0.2050
  683TMC3    C310100   1.631   4.242  11.074  0.0291 -0.6852 -0.0849
  683TMC3    C410101   1.908   4.258  11.102 -0.4191 -0.7221 -0.3428
  683TMC3    C510102   1.851   4.203  10.989  0.4457  0.1950 -0.8771
  683TMC3    C610103   1.716   4.191  10.975 -0.5961  0.0534  0.1517
  683TMC3     C10104   1.885   4.329  11.334 -0.1643 -0.6149 -0.0552
  683TMC3     O10105   1.820   4.325  11.437  0.3419  0.3295  0.0522
  683TMC3     H10106   1.637   4.307  11.285  0.6056  4.1021 -0.6239
  683TMC3    H110107   2.015   4.251  11.113 -0.2791  1.2878 -0.4335
  683TMC3    H210108   1.679   4.147  10.883 -0.9715 -0.4961  0.5585
  683TMC3    C710109   1.950   4.164  10.881  0.4042 -0.6012  0.1784
  683TMC3    C810110   1.515   4.154  11.100 -0.4205  0.7530  0.2496
  683TMC3    O110111   1.912   4.079  10.798 -0.0130  0.0811  0.4648
  683TMC3    O210112   1.455   4.191  11.197  0.2772  0.2807 -0.1979
  684MPD2     C10113   4.680   3.175  16.712 -0.2289 -0.5219  0.1514
  684MPD2    C110114   4.707   3.240  16.600  0.0960  0.3243  0.0121
  684MPD2    C210115   0.014   3.375  16.596  0.1469 -0.4012 -0.5006
  684MPD2    C310116   0.009   3.452  16.715 -0.0057  0.2527  0.0702
  684MPD2    C410117   4.702   3.380  16.828  0.1170 -0.5941 -0.2733
  684MPD2    C510118   4.686   3.245  16.830 -0.0156 -0.0102 -0.0911
  684MPD2     H10119   0.048   3.421  16.503  1.0730 -0.5017 -0.2140
  684MPD2    H110120   4.688   3.434  16.920 -0.5366  1.4925 -1.5905
  684MPD2    H210121   4.658   3.070  16.703 -0.3915 -0.5776  1.1993
  684MPD2    H310122   4.671   3.196  16.925 -0.6523  1.1776  0.4287
  684MPD2     N10123   0.024   3.591  16.717 -0.3017  0.2112  0.2018
  684MPD2    H510124   0.003   3.635  16.806 -0.7274 -2.1670  1.2709
  684MPD2    N110125   4.697   3.171  16.468 -0.2672  0.3616 -0.0733
  684MPD2    H710126   4.695   3.233  16.388  0.9252 -1.4199 -1.4761
  685TMC3    C110127   4.708   3.020  16.294  0.0253 -0.0202  0.1854
  685TMC3    C210128   4.624   3.084  16.208 -0.1318  0.0285  0.2801
  685TMC3    C310129   4.665   3.127  16.082  0.6126 -0.2297 -0.4770
  685TMC3    C410130   0.114   3.008  16.253 -0.2659 -0.3241  0.2168
  685TMC3    C510131   0.159   3.065  16.137  0.5960  0.2929 -0.2246
  685TMC3    C610132   0.071   3.121  16.046  0.3652 -0.4259 -0.1801
  685TMC3     C10133   4.699   3.040  16.435  0.1191  0.2656 -0.1675
  685TMC3     O10134   0.001   2.942  16.501 -0.0531  1.1532  0.3557
  685TMC3     H10135   4.524   3.091  16.247  0.5346 -0.2451  2.0178
  685TMC3    H110136   0.188   2.958  16.315  0.9493  0.0285 -0.9500
  685TMC3    H210137   0.107   3.166  15.954 -1.6041 -0.3028 -0.9004
  685TMC3    C710138   0.299   3.109  16.129 -0.2019 -0.2294 -0.1539
  685TMC3    C810139   4.566   3.199  16.000 -0.9505 -0.2797 -0.5914
  685TMC3    O110140   0.329   3.158  16.022 -0.0183 -0.3443  0.3143
  685TMC3    O210141   4.597   3.210  15.883  0.2739 -0.3745  0.8626
  686MPD2     C10142   1.055   3.209  15.602 -0.2536 -0.8895 -0.5376
  686MPD2    C110143   1.043   3.104  15.695 -0.4996 -0.8255  0.7509
  686MPD2    C210144   1.074   2.980  15.663 -0.6935  1.2473  0.0884
  686MPD2    C310145   1.141   2.959  15.541  0.0547  0.2609  0.1565
  686MPD2    C410146   1.145   3.057  15.446  0.1648  0.6211 -0.1648
  686MPD2    C510147   1.101   3.182  15.472 -0.0809 -0.2969  0.1569
  686MPD2     H10148   1.060   2.893  15.726 -3.4261  1.4520 -0.2061
  686MPD2    H110149   1.181   3.034  15.346  1.4319 -1.1252  0.6888
  686MPD2    H210150   1.019   3.308  15.627  0.4636 -0.6571 -0.4303
  686MPD2    H310151   1.090   3.252  15.390 -0.7604  0.3371  0.7845
  686MPD2     N10152   1.194   2.838  15.497  0.3941 -0.4383  0.0969
  686MPD2    H510153   1.230   2.844  15.403 -0.3136  3.3236  0.0512
  686MPD2    N110154   0.996   3.141  15.828 -0.2982  0.3990  0.0431
  686MPD2    H710155   0.986   3.239  15.852 -0.7793  0.3473  0.0600
  687TMC3    C110156   1.184   2.692  15.691  0.2575 -0.3765 -0.4740
  687TMC3    C210157   1.096   2.602  15.744  0.4802 -0.2582  0.2967
  687TMC3    C310158   1.089   2.582  15.879  0.4172 -0.3777 -0.3949
  687TMC3    C410159   1.269   2.759  15.774  0.5969  0.8367  0.3731
  687TMC3    C510160   1.267   2.739  15.907 -1.0912  0.5970  0.2061
  687TMC3    C610161   1.184   2.647  15.964 -0.4801 -0.0760  0.0479
  687TMC3     C10162   1.186   2.707  15.545 -0.0023 -0.5283 -0.3641
  687TMC3     O10163   1.193   2.604  15.483 -0.3590  0.1471 -0.1567
  687TMC3     H10164   1.029   2.552  15.676 -1.8257  1.3497  1.3659
  687TMC3    H110165   1.340   2.824  15.723 -0.0568  1.2426 -0.0068
  687TMC3    H210166   1.175   2.637  16.071 -1.0944 -0.6078 -0.0506
  687TMC3    C710167   1.351   2.822  15.987  0.2454  0.1528 -0.2913
  687TMC3    C810168   0.958   2.608  15.932  0.6171 -0.4714 -0.3157
  687TMC3    O110169   1.426   2.899  15.932 -0.0195 -0.6140  0.4969
  687TMC3    O210170   0.957   2.607  16.055 -0.3475  0.3417 -0.0790
  688MPD2     C10171   0.614   2.145  17.417  0.2318  0.0097  0.4446
  688MPD2    C110172   0.667   2.016  17.416  0.1781 -0.0004 -0.2052
  688MPD2    C210173   0.746   1.985  17.308  0.4141  0.0151  0.4722
  688MPD2    C310174   0.777   2.076  17.206  0.0716 -0.0384  0.2915
  688MPD2    C410175   0.731   2.211  17.221 -0.0289 -1.0771 -0.2581
  688MPD2    C510176   0.644   2.241  17.324  0.0145 -0.0635 -0.8612
  688MPD2     H10177   0.798   1.890  17.305  2.2464  0.9786  1.6606
  688MPD2    H110178   0.751   2.290  17.149 -0.9984 -0.7151 -0.1344
  688MPD2    H210179   0.557   2.187  17.498  2.7093  2.4067  0.9597
  688MPD2    H310180   0.611   2.344  17.330  2.8131  0.9170 -2.6025
  688MPD2     N10181   0.857   2.056  17.094 -0.7408  0.0490  0.2833
  688MPD2    H510182   0.869   2.130  17.026  0.9350 -0.2161  0.2791
  688MPD2    N110183   0.652   1.921  17.521 -0.3377  0.0920  0.0093
  688MPD2    H710184   0.697   1.832  17.504  0.2707  0.5447 -0.7902
  689TMC3    C110185   0.612   1.823   0.016  0.6861  0.8465  0.4291
  689TMC3    C210186   0.742   1.772   0.015 -0.1210 -0.7641 -0.3653
  689TMC3    C310187   0.764   1.650   0.064  0.4167 -0.3114  0.7501
  689TMC3    C410188   0.501   1.762   0.073  0.6039  0.4509 -0.5766
  689TMC3    C510189   0.532   1.633   0.118 -0.9419 -0.7025  0.0080
  689TMC3    C610190   0.658   1.573   0.110  0.0093 -0.0867  0.1933
  689TMC3     C10191   0.581   1.933  17.636 -0.3160 -0.3030 -0.4153
  689TMC3     O10192   0.490   2.014  17.665  0.6159 -0.1885 -0.1645
  689TMC3     H10193   0.824   1.822  17.675 -0.0170  0.0810  0.6446
  689TMC3    H110194   0.400   1.800   0.071  0.2196 -0.7647 -3.9161
  689TMC3    H210195   0.670   1.478   0.161  0.9618 -0.0089  0.1229
  689TMC3    C710196   0.424   1.550   0.157  1.0770  0.3619  0.6281
  689TMC3    C810197   0.894   1.625   0.127 -0.5162 -0.0506 -0.3308
  689TMC3    O110198   0.345   1.606   0.230  0.6027 -0.5904 -0.3473
  689TMC3    O210199   0.919   1.508   0.139  0.4230  0.1740  0.1251
  690MPD2     C10200   3.038   3.849  15.752 -0.4009  0.9114  0.8393
  690MPD2    C110201   2.986   3.887  15.632 -0.1466  0.4791  0.4752
  690MPD2    C210202   3.065   3.957  15.540  0.2062 -0.1798  0.3858
  690MPD2    C310203   3.196   3.979  15.575 -0.3404  0.7885 -0.2134
  690MPD2    C410204   3.250   3.939  15.697 -0.0117  0.0456 -0.2075
  690MPD2    C510205   3.170   3.866  15.781  0.2911 -0.2890 -0.5300
  690MPD2     H10206   3.031   3.994  15.444 -0.1035  2.2734  1.4482
  690MPD2    H110207   3.347   3.967  15.736  0.0508  0.7564 -0.8539
  690MPD2    H210208   2.977   3.791  15.819 -2.6416  2.0301 -0.2328
  690MPD2    H310209   3.209   3.835  15.877  1.9820  1.4290 -0.6699
  690MPD2     N10210   3.275   4.049  15.483  0.0343 -0.6856 -0.0511
  690MPD2    H510211   3.219   4.083  15.406  0.7634 -0.1155 -0.3209
  690MPD2    N110212   2.853   3.865  15.602  0.6267 -0.4256 -0.5671
  690MPD2    H710213   2.815   3.886  15.511 -0.0503 -1.4007 -0.5166
  691TMC3    C110214   2.625   3.782  15.625 -0.1435  0.1601 -0.3685
  691TMC3    C210215   2.524   3.819  15.710  0.6038 -0.0251 -0.1516
  691TMC3    C310216   2.404   3.755  15.710  0.8845  0.7342  0.3215
  691TMC3    C410217   2.607   3.662  15.552 -0.0243  0.4821  0.5398
  691TMC3    C510218   2.487   3.592  15.562  0.5740 -0.4636 -0.4643
  691TMC3    C610219   2.384   3.648  15.628 -0.4369 -0.3839 -0.6665
  691TMC3     C10220   2.753   3.817  15.684  0.6799 -0.7319 -0.4696
  691TMC3     O10221   2.749   3.816  15.807  0.4566 -0.4075  0.2717
  691TMC3     H10222   2.542   3.902  15.777 -3.3059 -0.6801  1.7030
  691TMC3    H110223   2.692   3.624  15.496 -0.4188  1.6986 -0.8961
  691TMC3    H210224   2.291   3.596  15.649 -1.0211  0.4775 -1.1291
  691TMC3    C710225   2.501   3.452  15.572  0.0375 -0.2502 -0.0194
  691TMC3    C810226   2.319   3.762  15.821  0.3699  0.3133  0.1344
  691TMC3    O110227   2.617   3.420  15.559 -0.0018 -0.2897  0.5677
  691TMC3    O210228   2.371   3.762  15.927  0.4944 -0.1587 -0.1847
  692TMC3    C110229   4.612   0.240  16.197 -0.0300  0.2943  0.7050
  692TMC3    C210230   4.705   0.218  16.294 -0.8139 -0.2195  0.2411
  692TMC3    C310231   4.700   0.097  16.358  0.4958 -0.1239 -0.2148
  692TMC3    C410232   4.532   0.138  16.150 -0.4762 -0.1851  0.0385
  692TMC3    C510233   4.532   0.019  16.211 -0.2190 -0.2433 -0.5608
  692TMC3    C610234   4.616   4.723  16.314  0.6762  0.2797 -0.1619
  692TMC3     C10235   4.562   0.380  16.172 -0.2294 -0.6094 -0.1817
  692TMC3     O10236   4.457   0.397  16.114  0.5311 -0.4265 -0.0984
  692TMC3     H10237   0.066   0.279  16.310  1.1762 -2.7853 -0.8535
  692TMC3    H110238   4.459   0.148  16.071 -1.4481  0.1083  0.9709
  692TMC3    H210239   4.590   4.648  16.388 -0.6944  1.5468  0.6339
  692TMC3    C710240   4.467   4.626  16.166  0.7339  0.4260  0.1637
  692TMC3    C810241   4.711   0.120  16.500 -0.5934  0.7007 -0.3727
  692TMC3    O110242   4.348   4.635  16.138 -0.5603  0.0699  0.3671
  692TMC3    O210243   4.727   0.029  16.584 -0.2285  0.1858 -0.0424
  693MPD2     C10244   3.614   3.266  11.293  0.4030  0.1059  0.4509
  693MPD2    C110245   3.638   3.166  11.209 -0.0532  0.3714  1.1299
  693MPD2    C210246   3.705   3.196  11.090  0.0785 -0.9263 -0.0234
  693MPD2    C310247   3.755   3.319  11.062 -0.1263 -0.5568  0.1240
  693MPD2    C410248   3.729   3.419  11.149  0.5267  0.2549 -0.0233
  693MPD2    C510249   3.662   3.390  11.263  0.0356 -0.0862  0.5717
  693MPD2     H10250   3.737   3.107  11.037  2.6169 -0.7186  1.1542
  693MPD2    H110251   3.786   3.512  11.145  0.4947  0.3571  2.0222
  693MPD2    H210252   3.591   3.240  11.396  0.6503  0.6046  0.6327
  693MPD2    H310253   3.654   3.464  11.341  0.4354  1.5186 -0.9181
  693MPD2     N10254   3.837   3.348  10.952  0.0632  0.5877  0.1503
  693MPD2    H510255   3.887   3.437  10.958 -0.9233  0.9685  2.9298
  693MPD2    N110256   3.609   3.033  11.255 -0.2379 -0.0745  0.3553
  693MPD2    H710257   3.596   3.015  11.354 -2.2923 -3.3271 -0.5021
  694TMC3    C110258   3.560   2.798  11.231 -0.2657 -0.2726 -0.5307
  694TMC3    C210259   3.533   2.689  11.155  0.3661 -0.0707  0.3222
  694TMC3    C310260   3.465   2.582  11.211  0.6007 -0.3822  0.1560
  694TMC3    C410261   3.531   2.787  11.363  0.0282  0.0562 -0.6844
  694TMC3    C510262   3.463   2.685  11.425  0.4370  0.6119 -0.5682
  694TMC3    C610263   3.428   2.583  11.345 -0.0019  0.7614 -0.0162
  694TMC3     C10264   3.600   2.925  11.166 -0.8431 -0.0462 -0.3233
  694TMC3     O10265   3.616   2.921  11.043 -0.0855  0.7333  0.2128
  694TMC3     H10266   3.560   2.701  11.051 -2.1911 -0.3089 -0.3862
  694TMC3    H110267   3.559   2.869  11.428  0.2082  0.4985 -1.3165
  694TMC3    H210268   3.378   2.497  11.388 -0.4190  1.4468  0.8747
  694TMC3    C710269   3.433   2.699  11.571  0.1496  0.4132 -0.3551
  694TMC3    C810270   3.427   2.475  11.127  1.1786 -0.3621 -0.5486
  694TMC3    O110271   3.479   2.805  11.621  0.6428  0.3902  0.3400
  694TMC3    O210272   3.367   2.387  11.190 -0.1732  0.0061  0.0925
  695MPD2     C10273   0.183   4.598  13.649  0.0061 -0.1971 -0.2927
  695MPD2    C110274   0.084   4.603  13.751  0.5707  0.4054 -0.2901
  695MPD2    C210275   4.685   4.650  13.717 -0.1030 -0.0305  0.1010
  695MPD2    C310276   4.658   4.702  13.590  0.3519  0.0562 -1.1300
  695MPD2    C410277   0.022   4.684  13.492  0.4011  0.1379  0.2797
  695MPD2    C510278   0.147   4.636  13.522 -0.0293 -0.0764 -0.1906
  695MPD2     H10279   4.606   4.653  13.792 -1.1346 -0.1997 -0.9710
  695MPD2    H110280   4.724   4.707  13.390  1.0546  1.3487  0.3801
  695MPD2    H210281   0.281   4.556  13.666 -1.2761 -2.3828  1.6306
  695MPD2    H310282   0.228   4.633  13.450  0.4923 -1.1794  0.4362
  695MPD2     N10283   4.526   0.038  13.572  0.2554 -0.2799 -0.0384
  695MPD2    H510284   4.466   0.039  13.654  0.3535  0.6968  0.0182
  695MPD2    N110285   0.113   4.567  13.886 -0.0263  0.5010 -0.4151
  695MPD2    H710286   0.040   4.573  13.958 -1.0418  2.3094 -1.5838
  696TMC3    C110287   4.344   0.148  13.468  0.5592 -0.1815 -0.2885
  696TMC3    C210288   4.263   0.113  13.575  0.2794  0.1797  0.6778
  696TMC3    C310289   4.161   0.195  13.612  0.4888  0.7048 -0.2369
  696TMC3    C410290   4.320   0.260  13.397 -0.1298  0.3090 -0.2286
  696TMC3    C510291   4.230   0.348  13.446 -0.2749 -0.2050  0.2133
  696TMC3    C610292   4.145   0.317  13.548  0.0635 -0.0529  0.0684
  696TMC3     C10293   4.476   0.091  13.454  0.1128  0.7999  0.1709
  696TMC3     O10294   4.526   0.094  13.340 -0.8019  0.1582  0.3641
  696TMC3     H10295   4.259   0.016  13.624  1.7493  0.2441  0.9528
  696TMC3    H110296   4.376   0.297  13.312  0.9462 -0.7907 -0.0026
  696TMC3    H210297   4.066   0.384  13.580 -1.2480 -1.5524 -0.0090
  696TMC3    C710298   4.238   0.492  13.400  0.0242 -0.0939 -0.0072
  696TMC3    C810299   4.144   0.211  13.752 -1.1753 -0.1845  0.0962
  696TMC3    O110300   4.298   0.513  13.295  0.1741 -0.0823 -0.4978
  696TMC3    O210301   4.058   0.136  13.802  0.1955  0.0010  0.2646
  697MPD2     C10302   4.204   1.747  15.847  0.3663  0.3734  0.0205
  697MPD2    C110303   4.199   1.713  15.715  0.6342  0.2149  0.0441
  697MPD2    C210304   4.206   1.813  15.619  0.3478 -0.7199 -0.1829
  697MPD2    C310305   4.216   1.942  15.655  0.3080 -0.2575  0.3727
  697MPD2    C410306   4.234   1.973  15.792 -0.1738 -0.4976 -0.1602
  697MPD2    C510307   4.228   1.875  15.886  0.3854  0.0824  0.1630
  697MPD2     H10308   4.186   1.783  15.517  0.6702  2.7331 -1.2613
  697MPD2    H110309   4.259   2.074  15.823 -2.2077 -0.2243  0.6345
  697MPD2    H210310   4.210   1.672  15.925  0.1440 -1.3291 -1.5915
  697MPD2    H310311   4.237   1.894  15.992 -0.3461  1.7917 -0.0785
  697MPD2     N10312   4.203   2.040  15.554 -0.0497 -0.3644 -0.4601
  697MPD2    H510313   4.159   2.012  15.467 -1.6221 -1.9669  0.8493
  697MPD2    N110314   4.184   1.585  15.663  0.0520 -0.2056 -0.2064
  697MPD2    H710315   4.179   1.573  15.563 -1.6446 -0.2194 -0.1268
  698TMC3    C110316   4.235   2.244  15.444  0.4222 -0.9689 -0.1319
  698TMC3    C210317   4.267   2.380  15.450 -0.1657 -0.7168 -0.3908
  698TMC3    C310318   4.288   2.444  15.329 -0.1585  0.2083  0.2193
  698TMC3    C410319   4.228   2.178  15.325 -0.1581 -0.5268 -0.2362
  698TMC3    C510320   4.258   2.240  15.213  0.3605  1.0679  0.3152
  698TMC3    C610321   4.286   2.373  15.208  0.0424  0.4819  0.1477
  698TMC3     C10322   4.257   2.166  15.565 -0.1308 -0.2247  0.3490
  698TMC3     O10323   4.320   2.227  15.650  0.5387  0.0460  0.1769
  698TMC3     H10324   4.261   2.430  15.546 -1.0265 -0.2620 -0.6795
  698TMC3    H110325   4.208   2.071  15.327  0.8524 -0.6899  1.4316
  698TMC3    H210326   4.297   2.431  15.117  1.7892 -0.0493  0.0367
  698TMC3    C710327   4.261   2.162  15.092 -0.3284  0.3605 -0.1120
  698TMC3    C810328   4.312   2.587  15.334 -0.7622 -0.4658 -0.0552
  698TMC3    O110329   4.197   2.061  15.090 -0.3141  0.3801 -0.2596
  698TMC3    O210330   4.250   2.642  15.425  0.3312 -0.1477 -0.3006
  699TMC3    C110331   4.619   4.433  13.240  0.2257 -0.0436 -0.0821
  699TMC3    C210332   4.635   4.399  13.376  0.2853  1.1672 -0.5566
  699TMC3    C310333   4.525   4.404  13.459  0.2190 -0.6762 -0.3102
  699TMC3    C410334   4.511   4.510  13.205  0.3491  0.3281 -0.0468
  699TMC3    C510335   4.405   4.516  13.295  0.0082 -0.4024  0.4873
  699TMC3    C610336   4.409   4.456  13.417 -0.2839 -0.1496  0.2950
  699TMC3     C10337   4.726   4.469  13.148 -0.4594 -0.0291 -0.9362
  699TMC3     O10338   4.703   4.477  13.028  0.0949 -0.2018 -0.5053
  699TMC3     H10339   4.714   4.327  13.392  0.0552  0.9085 -0.5935
  699TMC3    H110340   4.501   4.553  13.106  0.6362  0.1788 -0.1413
  699TMC3    H210341   4.326   4.462  13.487  0.0704 -3.2491  0.9948
  699TMC3    C710342   4.292   4.600  13.264 -0.1259 -0.4674 -0.2700
  699TMC3    C810343   4.526   4.339  13.587  0.4732 -0.2621  0.2497
  699TMC3    O110344   4.190   4.592  13.327 -0.4618 -0.4094  0.3194
  699TMC3    O210345   4.411   4.300  13.626  0.2033  0.1723  0.0869
  700TMC3    C110346   3.764   2.077  17.439  0.1313 -0.0095  0.4474
  700TMC3    C210347   3.853   1.983  17.398  0.4386  0.1028 -0.6320
  700TMC3    C310348   3.977   1.985  17.461  0.4233 -0.8065 -0.4846
  700TMC3    C410349   3.783   2.166  17.549 -0.2121  0.2771 -0.4475
  700TMC3    C510350   3.898   2.150  17.613  0.3396 -0.4795 -0.3335
  700TMC3    C610351   3.999   2.063  17.571  0.3762 -0.0879 -1.0190
  700TMC3     C10352   3.645   2.100  17.361 -0.6857 -0.2711 -0.1652
  700TMC3     O10353   3.612   2.022  17.274 -0.1421 -0.0482 -0.0471
  700TMC3     H10354   3.838   1.924  17.308  0.8033 -0.4540 -0.3307
  700TMC3    H110355   3.697   2.208  17.600 -0.1787 -1.4989  1.0757
  700TMC3    H210356   4.099   2.064  17.612  0.1370  1.2921 -0.4682
  700TMC3    C710357   3.924   2.245   0.013 -0.0433 -0.0772 -0.5873
  700TMC3    C810358   4.084   1.926  17.382  0.5028  0.5635 -0.4757
  700TMC3    O110359   3.841   2.333   0.023  0.2047  0.1362 -0.0743
  700TMC3    O210360   4.071   1.900  17.264 -0.2306  0.3814 -0.4806
  701TMC3    C110361   3.423   1.084  15.485  0.4091  0.7047 -0.0142
  701TMC3    C210362   3.473   1.013  15.379  0.7633  0.2355  0.2413
  701TMC3    C310363   3.592   1.064  15.323  0.9052  0.3136  0.2273
  701TMC3    C410364   3.498   1.172  15.563 -0.4667  0.1882  0.1711
  701TMC3    C510365   3.623   1.203  15.515 -0.2727  0.5283  0.1014
  701TMC3    C610366   3.661   1.159  15.389  0.1477  0.1478 -0.4331
  701TMC3     C10367   3.290   1.039  15.536 -0.4561  0.0906 -0.5057
  701TMC3     O10368   3.242   0.931  15.499  0.7064 -1.0812  0.0729
  701TMC3     H10369   3.421   0.926  15.342  1.8211 -0.2406 -0.1390
  701TMC3    H110370   3.466   1.215  15.657  0.4564  1.2717 -0.0153
  701TMC3    H210371   3.756   1.191  15.348 -0.5957  1.6609 -0.9815
  701TMC3    C710372   3.711   1.294  15.582 -0.1956  0.0526 -0.5938
  701TMC3    C810373   3.656   0.997  15.210  0.2834 -0.1109 -0.1827
  701TMC3    O110374   3.799   1.346  15.514 -0.1324 -0.2560 -0.5484
  701TMC3    O210375   3.779   0.990  15.207 -0.0798 -0.3976  0.3255
  702MPD2     C10376   3.235   3.140  10.619 -0.1773 -0.3767 -0.0608
  702MPD2    C110377   3.190   3.268  10.629  0.4756  0.7265 -0.0577
  702MPD2    C210378   3.249   3.373  10.558 -0.1475  0.0122 -0.3894
  702MPD2    C310379   3.362   3.353  10.480 -0.1221  0.4693 -0.7483
  702MPD2    C410380   3.408   3.224  10.472  0.6517  0.5986  0.2793
  702MPD2    C510381   3.345   3.121  10.537  0.6230 -0.7053  0.4962
  702MPD2     H10382   3.222   3.477  10.564  0.3160  0.1310 -0.3949
  702MPD2    H110383   3.490   3.201  10.405 -1.4128 -2.0367 -1.3438
  702MPD2    H210384   3.193   3.053  10.669  0.9177  0.1128  1.7136
  702MPD2    H310385   3.394   3.025  10.525  0.6799 -0.5183 -0.7958
  702MPD2     N10386   3.427   3.445  10.400 -0.2617 -0.3863 -0.3885
  702MPD2    H510387   3.525   3.428  10.380 -0.3858 -1.8097  0.2336
  702MPD2    N110388   3.091   3.305  10.721  0.2861 -0.0777  0.7300
  702MPD2    H710389   3.083   3.403  10.743 -2.5783 -0.8146  3.0035
  703TMC3    C110390   3.456   3.679  10.405  0.1002  0.6388 -0.2550
  703TMC3    C210391   3.403   3.783  10.475 -0.5377 -0.0358  0.2965
  703TMC3    C310392   3.481   3.872  10.543  0.3011 -0.3771  0.5140
  703TMC3    C410393   3.594   3.672  10.392 -0.4786 -0.1255  0.3527
  703TMC3    C510394   3.663   3.768  10.463  0.1467  0.0752 -0.1412
  703TMC3    C610395   3.619   3.862  10.543  1.0368 -0.8597  0.3986
  703TMC3     C10396   3.371   3.566  10.375  0.7295 -0.1973  0.1485
  703TMC3     O10397   3.248   3.577  10.380  0.1031 -0.5988  0.2392
  703TMC3     H10398   3.296   3.774  10.489 -0.3662 -0.2087  1.5473
  703TMC3    H110399   3.644   3.583  10.356 -2.9190 -0.9801 -0.9038
  703TMC3    H210400   3.680   3.935  10.595  0.1302  1.8257 -2.3438
  703TMC3    C710401   3.799   3.798  10.417 -0.3832  0.4376  0.5123
  703TMC3    C810402   3.425   3.977  10.633  0.2519  0.7634  0.1154
  703TMC3    O110403   3.872   3.870  10.478 -0.2262  0.3034 -0.7765
  703TMC3    O210404   3.495   4.068  10.670 -0.2679 -0.4338  0.1855
  704TMC3    C110405   0.225   1.857  12.119  0.2910 -0.2250 -0.4726
  704TMC3    C210406   0.340   1.908  12.066 -0.6527  0.0137  0.0615
  704TMC3    C310407   0.422   1.979  12.142 -0.0758 -0.6886  0.3080
  704TMC3    C410408   0.197   1.881  12.252  0.0371  0.5667  0.0499
  704TMC3    C510409   0.294   1.931  12.335  0.0211 -0.5145  0.1052
  704TMC3    C610410   0.404   1.993  12.277  0.3316 -0.6539  0.1649
  704TMC3     C10411   0.211   1.718  12.088 -0.0041  0.1094  0.1298
  704TMC3     O10412   0.151   1.641  12.159  0.1879  0.4395  1.0730
  704TMC3     H10413   0.365   1.904  11.960 -1.3900  1.8984 -0.1738
  704TMC3    H110414   0.103   1.847  12.294  0.5481  0.5529  1.2021
  704TMC3    H210415   0.462   2.062  12.338 -1.2456 -1.3398  2.4216
  704TMC3    C710416   0.360   1.833  12.422 -0.1900 -0.2177 -0.1360
  704TMC3    C810417   0.555   1.975  12.098  0.5554  0.0469 -0.6446
  704TMC3    O110418   0.479   1.834  12.411 -0.0889  0.3575 -0.4178
  704TMC3    O210419   0.581   1.969  11.981 -0.0678  0.5765  0.2359
  705MPD2     C10420   0.067   4.419  16.938 -0.2927 -0.0689  0.3283
  705MPD2    C110421   0.041   4.533  16.864 -0.4149 -0.0422 -0.2960
  705MPD2    C210422   4.665   4.616  16.904 -1.0134  0.3899  0.3211
  705MPD2    C310423   4.588   4.592  17.014  0.2060 -0.0129  0.2349
  705MPD2    C410424   4.626   4.483  17.099  0.0494  0.3030  0.0744
  705MPD2    C510425   4.727   4.400  17.059  0.5592 -0.2695 -0.8069
  705MPD2     H10426   4.639   4.701  16.843  0.4663 -0.4312 -1.4607
  705MPD2    H110427   4.576   4.469  17.194 -0.3734 -0.3404 -0.2422
  705MPD2    H210428   0.150   4.350  16.930 -0.3914 -0.3183  1.4325
  705MPD2    H310429   0.013   4.303  17.105  0.9687 -0.6076 -1.6353
  705MPD2     N10430   4.494   4.678  17.066  0.4929 -0.0120 -0.1299
  705MPD2    H510431   4.462   4.651  17.158  1.8300  0.2156  0.4072
  705MPD2    N110432   0.115   4.562  16.743  0.3928 -0.2841 -0.2895
  705MPD2    H710433   0.080   4.635  16.681  0.7947  1.1710  1.2045
  706TMC3    C110434   0.379   4.493  16.358  0.5881  1.0255 -1.3063
  706TMC3    C210435   0.370   4.627  16.326 -0.5822  0.3237  0.2716
  706TMC3    C310436   0.323   4.712  16.418  0.5455  0.5928  0.0925
  706TMC3    C410437   0.324   4.444  16.477 -0.1778 -0.6929 -0.3121
  706TMC3    C510438   0.270   4.533  16.562  0.1782  0.0145  0.6028
  706TMC3    C610439   0.267   4.666  16.537  0.1325 -0.2862 -0.1906
  706TMC3     C10440   0.480   4.414  16.289 -0.1573 -0.1715 -0.2104
  706TMC3     O10441   0.538   4.346  16.370  0.0561 -0.3281 -0.6125
  706TMC3     H10442   0.421   4.654  16.234 -3.7125 -0.0404 -1.5638
  706TMC3    H110443   0.314   4.338  16.496  0.4969 -0.9639 -1.4766
  706TMC3    H210444   0.232   0.009  16.613 -0.9840  0.9149 -1.8116
  706TMC3    C710445   0.211   4.476  16.685 -0.0105 -0.5094 -0.3243
  706TMC3    C810446   0.324   0.128  16.375 -0.9111  0.6472 -0.0847
  706TMC3    O110447   0.265   4.370  16.726  0.1004  0.2652  0.0808
  706TMC3    O210448   0.324   0.153  16.258 -0.4961 -0.6912  0.1507
  707TMC3    C110449   0.987   3.612   1.192  0.0496 -0.2933  0.0393
  707TMC3    C210450   0.992   3.481   1.163  0.3530  0.0377  0.0182
  707TMC3    C310451   0.874   3.408   1.183 -0.1926 -0.2114  0.5031
  707TMC3    C410452   0.874   3.687   1.226  0.2612 -0.5254  0.0531
  707TMC3    C510453   0.760   3.612   1.247 -0.1965 -0.5839  0.0701
  707TMC3    C610454   0.758   3.472   1.223 -0.0208  0.9586  0.8409
  707TMC3     C10455   1.109   3.684   1.193  0.6979  0.3089  0.2041
  707TMC3     O10456   1.213   3.631   1.160 -0.2114 -0.0718  0.1218
  707TMC3     H10457   1.084   3.437   1.126 -0.1556  1.3080 -2.7468
  707TMC3    H110458   0.867   3.794   1.241 -1.4548 -0.3369 -2.1042
  707TMC3    H210459   0.675   3.406   1.247  0.4014  0.2218  0.2870
  707TMC3    C710460   0.656   3.654   1.335 -0.2756  0.4401 -0.2989
  707TMC3    C810461   0.886   3.273   1.244 -0.0813 -0.2415  0.8891
  707TMC3    O110462   0.576   3.566   1.355  0.5734  0.0093 -0.2457
  707TMC3    O210463   0.812   3.253   1.339 -0.0858  0.2062 -0.1741
  708MPD2     C10464   3.337   2.907  14.091  0.0602 -0.3889 -0.6061
  708MPD2    C110465   3.213   2.944  14.135  0.2186 -0.1509 -0.1866
  708MPD2    C210466   3.172   2.901  14.260  0.8879  0.9372  0.3161
  708MPD2    C310467   3.258   2.835  14.345  0.2982  0.7806  0.2433
  708MPD2    C410468   3.385   2.800  14.298 -0.9140 -0.3040 -0.3195
  708MPD2    C510469   3.418   2.826  14.171 -0.6300 -0.2152  0.1956
  708MPD2     H10470   3.077   2.938  14.296  1.1406 -0.2139  2.1350
  708MPD2    H110471   3.451   2.742  14.362 -0.6360  0.0551 -0.2836
  708MPD2    H210472   3.370   2.932  13.991  0.2009  1.7968 -0.0142
  708MPD2    H310473   3.514   2.804  14.127 -0.6659  1.4436 -0.7194
  708MPD2     N10474   3.219   2.813  14.481  0.4398  0.4580 -0.7173
  708MPD2    H510475   3.290   2.786  14.548 -1.0013 -1.8250 -0.1111
  708MPD2    N110476   3.126   3.018  14.063 -0.1212 -0.0900  0.8361
  708MPD2    H710477   3.035   3.023  14.107 -1.3364 -0.4103 -1.6247
  709TMC3    C110478   3.019   3.133  13.903 -0.0036 -0.4129  0.2221
  709TMC3    C210479   2.945   3.080  13.795  0.0094  0.3506  0.3467
  709TMC3    C310480   2.808   3.070  13.805 -0.2399  0.3543 -0.6334
  709TMC3    C410481   2.952   3.187  14.005  0.1927 -0.6239  0.3068
  709TMC3    C510482   2.811   3.179  14.003  0.7299 -0.1075  0.4780
  709TMC3    C610483   2.734   3.126  13.907 -0.1641 -0.3844 -0.1868
  709TMC3     C10484   3.140   3.057  13.936 -0.9210  0.5323  0.0294
  709TMC3     O10485   3.223   3.049  13.852  0.5164  0.6193 -0.0653
  709TMC3     H10486   3.003   3.015  13.730 -0.1254  1.8228 -1.2540
  709TMC3    H110487   3.001   3.226  14.094  0.3053 -3.2595  1.3998
  709TMC3    H210488   2.626   3.115  13.910 -0.3183  1.3521  0.2201
  709TMC3    C710489   2.769   3.130  14.128  0.3764  0.3981 -0.0481
  709TMC3    C810490   2.743   3.017  13.686  0.0992  0.1896  0.5940
  709TMC3    O110491   2.865   3.068  14.175  0.3196  0.4863  0.0940
  709TMC3    O210492   2.624   2.990  13.701  0.4606 -0.2607 -0.1192
  710TMC3    C110493   4.057   4.358   0.931 -0.4810  0.3501  0.0540
  710TMC3    C210494   4.114   4.375   0.808  0.2593  0.4624  1.2648
  710TMC3    C310495   4.098   4.268   0.717 -0.0616  0.2622  0.3837
  710TMC3    C410496   3.981   4.247   0.966  0.2706 -0.6959 -0.2140
  710TMC3    C510497   3.978   4.147   0.873  0.3141  0.2500 -0.1023
  710TMC3    C610498   4.033   4.155   0.748  0.6420 -0.2477  0.3051
  710TMC3     C10499   4.082   4.453   1.040 -0.0908 -0.2643  0.1594
  710TMC3     O10500   4.077   4.404   1.151 -0.6339  0.3373  0.1780
  710TMC3     H10501   4.170   4.465   0.787 -1.2601  0.7851 -1.4761
  710TMC3    H110502   3.920   4.244   1.055 -1.3652 -0.9362 -1.3449
  710TMC3    H210503   4.025   4.080   0.670 -0.5380 -0.4654  0.6275
  710TMC3    C710504   3.936   4.021   0.928  1.3482  0.3917  0.4687
  710TMC3    C810505   4.161   4.280   0.577 -0.1999 -0.1263  0.5982
  710TMC3    O110506   3.854   4.023   1.021 -0.3848 -0.0594 -0.4817
  710TMC3    O210507   4.231   4.380   0.559  0.5032  0.3681  0.7488
  711TMC3    C110508   4.376   0.704  14.944  0.3120 -0.1367  0.3229
  711TMC3    C210509   4.383   0.798  15.038 -0.8790 -0.1331 -0.0181
  711TMC3    C310510   4.472   0.778  15.145  0.1955 -0.2391  0.1034
  711TMC3    C410511   4.449   0.591  14.947 -0.1397 -0.5231  1.7109
  711TMC3    C510512   4.522   0.567  15.063  0.1005 -0.7394  1.4026
  711TMC3    C610513   4.542   0.659  15.156 -0.7750  0.1398  0.2240
  711TMC3     C10514   4.270   0.706  14.839  0.1322 -0.2213  0.0364
  711TMC3     O10515   4.278   0.621  14.752 -0.7485  0.1066  0.3762
  711TMC3     H10516   4.340   0.897  15.025  1.6269  0.8138 -1.0831
  711TMC3    H110517   4.444   0.520  14.865 -0.5895  2.5765 -0.9868
  711TMC3    H210518   4.590   0.635  15.249 -0.1942 -0.3334 -0.2000
  711TMC3    C710519   4.531   0.425  15.104 -0.4240  0.1466  0.3665
  711TMC3    C810520   4.459   0.860  15.263  0.8848  0.1988 -0.4919
  711TMC3    O110521   4.600   0.412  15.204  0.4144 -0.0378 -0.2420
  711TMC3    O210522   4.348   0.901  15.284 -0.5347  0.4817  0.1819
  712MPD2     C10523   0.862   1.767  13.805 -0.3830  0.0922 -0.1455
  712MPD2    C110524   0.762   1.848  13.756 -0.0546 -0.1209  0.6452
  712MPD2    C210525   0.801   1.961  13.691 -0.4250 -0.3981 -0.8847
  712MPD2    C310526   0.937   1.987  13.652 -0.5631  0.3124 -0.1154
  712MPD2    C410527   1.029   1.892  13.693 -0.3389  0.2476  0.2778
  712MPD2    C510528   0.990   1.792  13.777 -0.1437  0.4752  0.3125
  712MPD2     H10529   0.723   2.024  13.651 -0.4919  0.4315  0.5818
  712MPD2    H110530   1.136   1.896  13.677 -0.7252 -0.7053 -2.4264
  712MPD2    H210531   0.844   1.671  13.853  0.3527  0.4141  0.7643
  712MPD2    H310532   1.065   1.718  13.804 -1.3244 -2.3656 -4.0510
  712MPD2     N10533   0.983   2.092  13.567 -0.4335 -0.1331  0.0382
  712MPD2    H510534   1.082   2.092  13.543 -0.6510  0.0171 -0.8652
  712MPD2    N110535   0.622   1.827  13.763  0.9196  0.2196  0.0831
  712MPD2    H710536   0.556   1.895  13.729  0.3152 -0.8596 -0.9000
  713TMC3    C110537   0.974   2.298  13.455 -0.0904  0.1150  0.0762
  713TMC3    C210538   1.111   2.294  13.447 -0.5317  0.4603 -0.1313
  713TMC3    C310539   1.176   2.356  13.348  0.1453  0.2016  0.0852
  713TMC3    C410540   0.899   2.376  13.372  0.0072 -0.4418  0.3158
  713TMC3    C510541   0.966   2.448  13.278  0.4309 -0.2181  0.9508
  713TMC3    C610542   1.101   2.440  13.261  0.4648 -0.1146  0.0473
  713TMC3     C10543   0.910   2.201  13.534  0.2213  0.1071  0.0136
  713TMC3     O10544   0.798   2.231  13.574 -0.6139 -0.1040 -0.3840
  713TMC3     H10545   1.166   2.235  13.520  0.5733  2.6398  0.7666
  713TMC3    H110546   0.791   2.373  13.369 -0.0124 -1.0909  1.6804
  713TMC3    H210547   1.146   2.496  13.180  1.1121 -0.7724 -0.0470
  713TMC3    C710548   0.899   2.543  13.185 -0.4895  0.2868  0.2902
  713TMC3    C810549   1.308   2.395  13.362 -0.4040  0.2280  0.5930
  713TMC3    O110550   0.960   2.584  13.087  0.1472  0.1839 -0.3238
  713TMC3    O210551   1.341   2.478  13.281 -0.5952 -0.3856 -0.5244
  714MPD2     C10552   2.496   1.092   1.210 -0.6553 -0.2733 -0.6690
  714MPD2    C110553   2.481   0.975   1.143 -0.0410 -0.3953 -0.4185
  714MPD2    C210554   2.394   0.965   1.036 -0.4357  0.6162  0.2992
  714MPD2    C310555   2.306   1.068   1.003  1.2772 -0.2331 -0.3460
  714MPD2    C410556   2.326   1.188   1.075 -0.0968 -0.0083  0.5980
  714MPD2    C510557   2.418   1.197   1.171 -0.2685 -0.8475 -0.3471
  714MPD2     H10558   2.378   0.876   0.977  3.0635  0.4922 -0.4771
  714MPD2    H110559   2.266   1.278   1.067  0.5119  0.4122  0.7535
  714MPD2    H210560   2.569   1.115   1.287 -0.0552 -0.3868 -1.2023
  714MPD2    H310561   2.439   1.294   1.214 -0.4113 -0.2206 -1.6723
  714MPD2     N10562   2.213   1.046   0.901  0.6116 -0.1446  0.0599
  714MPD2    H510563   2.206   0.952   0.866 -1.3600  0.5067 -1.2652
  714MPD2    N110564   2.568   0.878   1.187  0.0549 -0.2791 -0.2063
  714MPD2    H710565   2.640   0.907   1.252  1.0688 -2.3115 -0.4246
  715TMC3    C110566   2.713   0.687   1.176  0.8051  0.4329  0.7785
  715TMC3    C210567   2.721   0.548   1.174 -0.9207 -0.3341 -0.1278
  715TMC3    C310568   2.849   0.497   1.175  0.1007  0.5099  0.0438
  715TMC3    C410569   2.818   0.767   1.189 -0.1155 -0.4184  0.1010
  715TMC3    C510570   2.945   0.706   1.204  0.2976 -0.5455 -0.0912
  715TMC3    C610571   2.961   0.571   1.197  0.5804  0.7015 -0.4022
  715TMC3     C10572   2.584   0.751   1.136  0.4293  0.1817 -0.1703
  715TMC3     O10573   2.495   0.684   1.084  0.1384 -0.6543  0.5202
  715TMC3     H10574   2.639   0.482   1.149 -1.3714 -0.1283  0.8026
  715TMC3    H110575   2.805   0.874   1.195  2.3175 -0.0937 -0.5002
  715TMC3    H210576   3.053   0.520   1.224  0.5108  1.1590  0.6928
  715TMC3    C710577   3.071   0.784   1.221 -0.4640  0.1308  0.0424
  715TMC3    C810578   2.863   0.356   1.193 -0.1435  0.0959  0.3844
  715TMC3    O110579   3.180   0.724   1.230 -0.3471  0.4813  0.2885
  715TMC3    O210580   2.974   0.309   1.178  0.0466  0.3116  0.6084
  716MPD2     C10581   3.184   3.018  10.216 -0.4764  1.2324  0.4123
  716MPD2    C110582   3.083   2.992  10.126  0.0969  0.5933 -0.4940
  716MPD2    C210583   3.074   2.864  10.077  0.0615 -0.6090  0.6851
  716MPD2    C310584   3.157   2.761  10.111  0.3760  0.0424  0.0345
  716MPD2    C410585   3.254   2.790  10.204  0.9951 -0.3620  1.1380
  716MPD2    C510586   3.270   2.924  10.254 -0.0954  0.4897 -0.3692
  716MPD2     H10587   2.985   2.837  10.020  0.6230  0.2871 -0.6102
  716MPD2    H110588   3.326   2.718  10.243  1.7043  0.2107  0.8865
  716MPD2    H210589   3.199   3.121  10.248  2.8493  1.4262 -1.7465
  716MPD2    H310590   3.344   2.952  10.328  0.4638 -1.6476 -0.1004
  716MPD2     N10591   3.140   2.636  10.054  0.0753 -0.4877  0.3187
  716MPD2    H510592   3.052   2.620  10.005  0.2453 -2.1832  0.5714
  716MPD2    N110593   2.977   3.084  10.101  0.1863  0.3057  0.4684
  716MPD2    H710594   2.972   3.172  10.150 -0.3056 -0.0870  1.1288
  717TMC3    C110595   3.179   2.408  10.013 -0.5050  0.2832 -0.0231
  717TMC3    C210596   3.044   2.401  10.002  0.0843 -0.5517 -0.0732
  717TMC3    C310597   2.995   2.316   9.898 -0.7254  0.4603 -0.2395
  717TMC3    C410598   3.266   2.336   9.946 -0.4625  0.7759  0.7102
  717TMC3    C510599   3.212   2.246   9.857 -0.2877  0.6728  0.3176
  717TMC3    C610600   3.078   2.238   9.827  0.5135 -0.5113  0.3107
  717TMC3     C10601   3.229   2.535  10.060 -0.0798  0.3608  0.1965
  717TMC3     O10602   3.343   2.527  10.098 -0.0367  0.0008 -0.4831
  717TMC3     H10603   2.975   2.459  10.062  0.3814  2.2776 -2.4746
  717TMC3    H110604   3.373   2.339   9.958 -0.1898 -2.5746 -0.9311
  717TMC3    H210605   3.053   2.179   9.739 -1.2134 -2.1186  1.8720
  717TMC3    C710606   3.311   2.146   9.812 -0.4898 -0.0430  0.3006
  717TMC3    C810607   2.856   2.321   9.864  0.1076  0.1735  0.2815
  717TMC3    O110608   3.431   2.176   9.808 -0.3155  0.1049  0.1009
  717TMC3    O210609   2.798   2.412   9.917  0.2263 -0.5246 -0.7127
  718MPD2     C10610   2.087   1.631  13.148 -0.3168 -0.1314  0.5582
  718MPD2    C110611   1.998   1.726  13.103 -0.0740  0.5557  0.2406
  718MPD2    C210612   1.869   1.675  13.074 -0.3278 -0.0818  0.0619
  718MPD2    C310613   1.832   1.542  13.096  1.0092  1.0524 -0.1160
  718MPD2    C410614   1.920   1.457  13.163 -0.1896 -0.4997 -0.3672
  718MPD2    C510615   2.045   1.509  13.195  0.0444 -0.4417 -0.2461
  718MPD2     H10616   1.802   1.738  13.017  0.2917  1.1595  0.6959
  718MPD2    H110617   1.905   1.353  13.186 -0.7262 -0.5510 -0.9519
  718MPD2    H210618   2.191   1.651  13.174 -0.5845  1.1336  0.6797
  718MPD2    H310619   2.130   1.444  13.215  1.7277  1.6066 -0.7447
  718MPD2     N10620   1.717   1.498  13.027 -0.3880  0.1990 -0.2529
  718MPD2    H510621   1.666   1.562  12.967  0.5583 -0.2275 -1.5199
  718MPD2    N110622   2.036   1.854  13.068 -0.5396 -0.1137  0.4036
  718MPD2    H710623   2.136   1.868  13.070 -0.5525  0.0209  0.0772
  719TMC3    C110624   1.998   2.050  12.949  0.2871  0.1964  0.1152
  719TMC3    C210625   1.910   2.069  12.847  0.1600 -2.1509 -0.2160
  719TMC3    C310626   1.950   2.051  12.719  0.0166 -0.2130  0.1900
  719TMC3    C410627   2.134   2.038  12.915  0.2573  0.0539  0.2630
  719TMC3    C510628   2.164   2.035  12.784 -0.4324  0.4039 -0.2717
  719TMC3    C610629   2.077   2.038  12.679 -0.5434  0.6934  1.2312
  719TMC3     C10630   1.943   1.952  13.045  0.3734 -0.7814 -0.5766
  719TMC3     O10631   1.825   1.969  13.068 -0.2706  0.0949  0.2969
  719TMC3     H10632   1.806   2.091  12.870  0.4078 -0.5659 -0.6253
  719TMC3    H110633   2.203   2.042  12.999 -0.9640 -0.1380  1.2742
  719TMC3    H210634   2.107   2.063  12.578  2.1789 -1.5604  1.5005
  719TMC3    C710635   2.297   2.083  12.751  0.1238 -0.3754  0.5644
  719TMC3    C810636   1.857   1.984  12.639 -0.4176 -0.7743  0.4751
  719TMC3    O110637   2.315   2.139  12.644 -0.0401  0.0612 -0.3572
  719TMC3    O210638   1.745   1.963  12.681 -0.0378  0.0110  0.7905
  720MPD2     C10639   0.533   3.630  14.528  0.1638  0.0285  0.2143
  720MPD2    C110640   0.617   3.683  14.435  0.0736 -0.3031 -0.2031
  720MPD2    C210641   0.750   3.660  14.450 -0.2913 -0.0049  0.1657
  720MPD2    C310642   0.800   3.572  14.544  0.4691  0.1821 -0.8005
  720MPD2    C410643   0.717   3.500  14.625  0.0682  0.1377 -0.0650
  720MPD2    C510644   0.583   3.531  14.615 -0.9872 -0.3705 -0.3204
  720MPD2     H10645   0.821   3.710  14.386  0.8318 -1.6087  0.1653
  720MPD2    H110646   0.744   3.434  14.706 -1.4145 -0.5416 -0.1199
  720MPD2    H210647   0.426   3.646  14.531  0.1737  0.0361  0.5109
  720MPD2    H310648   0.510   3.468  14.665 -0.2892  1.2447  2.7309
  720MPD2     N10649   0.942   3.570  14.562  0.0338  0.6714  0.3400
  720MPD2    H510650   0.999   3.642  14.518  1.2066 -1.2034 -1.1996
  720MPD2    N110651   0.568   3.782  14.341 -0.4796  0.5611  0.0319
  720MPD2    H710652   0.628   3.825  14.271 -0.0550  2.0481  1.2990
  721TMC3    C110653   1.142   3.560  14.694  0.3118  0.3922  0.0560
  721TMC3    C210654   1.175   3.548  14.825  0.4477  0.0721 -0.3273
  721TMC3    C310655   1.307   3.560  14.860 -0.0920  0.5427  0.1286
  721TMC3    C410656   1.236   3.585  14.598 -0.5840  0.0904 -0.1425
  721TMC3    C510657   1.368   3.589  14.643 -0.1662  0.1018 -0.3694
  721TMC3    C610658   1.409   3.572  14.771  0.5015 -0.3577 -0.3083
  721TMC3     C10659   1.006   3.517  14.668 -0.0761  0.1515  0.5202
  721TMC3     O10660   0.963   3.448  14.763  0.2153  0.0112 -0.7193
  721TMC3     H10661   1.092   3.536  14.893  1.3092 -0.7537  0.5863
  721TMC3    H110662   1.211   3.602  14.493 -1.1881 -0.5291 -0.1056
  721TMC3    H210663   1.512   3.575  14.805  0.0080 -2.9981  1.4261
  721TMC3    C710664   1.478   3.611  14.552  0.0876 -0.1968  0.2471
  721TMC3    C810665   1.342   3.552  15.001  0.3295  0.6040 -0.2113
  721TMC3    O110666   1.472   3.706  14.476 -0.3380 -0.1674  0.6166
  721TMC3    O210667   1.454   3.588  15.030 -0.2854  0.9433 -0.1401
  722MPD2     C10668   4.602   2.359  13.676  0.7882 -0.2862 -0.0179
  722MPD2    C110669   4.527   2.428  13.588  0.3287  0.2412 -0.1882
  722MPD2    C210670   4.395   2.468  13.620  0.0121  0.5222  0.2940
  722MPD2    C310671   4.342   2.435  13.741  0.1473 -0.0784  0.3082
  722MPD2    C410672   4.426   2.391  13.838  0.2197 -0.2084 -0.0892
  722MPD2    C510673   4.548   2.342  13.808 -0.0360 -0.1459 -0.9894
  722MPD2     H10674   4.342   2.528  13.547 -1.0041 -2.7135 -1.6330
  722MPD2    H110675   4.391   2.378  13.940  2.9629  1.9563  1.1699
  722MPD2    H210676   4.707   2.332  13.671  0.6631 -1.1036  1.6181
  722MPD2    H310677   4.607   2.286  13.879  0.0611  2.2614  0.8200
  722MPD2     N10678   4.203   2.429  13.755 -0.1950  0.3667  0.0987
  722MPD2    H510679   4.148   2.446  13.672  1.2601  1.7752 -0.5850
  722MPD2    N110680   4.569   2.456  13.458 -0.2483  0.2098 -1.0324
  722MPD2    H710681   4.496   2.503  13.405  1.1430  1.8668 -1.4787
  723TMC3    C110682   4.005   2.337  13.805 -0.3281  0.4032 -0.3670
  723TMC3    C210683   4.003   2.200  13.791 -0.2829  0.5453  0.3337
  723TMC3    C310684   3.952   2.142  13.677  0.0627 -0.7920 -0.3682
  723TMC3    C410685   3.956   2.422  13.717 -0.1560  0.6731 -0.0801
  723TMC3    C510686   3.904   2.365  13.602 -0.1973 -0.1348 -0.0932
  723TMC3    C610687   3.895   2.233  13.582 -0.7153 -0.4096  0.2370
  723TMC3     C10688   4.130   2.388  13.862 -0.0528 -0.3519  0.2234
  723TMC3     O10689   4.164   2.330  13.960 -1.0875 -0.5602 -0.3092
  723TMC3     H10690   4.030   2.145  13.880  1.7387  2.2768  0.7889
  723TMC3    H110691   3.966   2.528  13.735  0.8301  0.4430  0.7476
  723TMC3    H210692   3.838   2.195  13.499 -1.8723 -0.6956  1.1604
  723TMC3    C710693   3.856   2.443  13.493 -0.2983  0.6663 -0.2020
  723TMC3    C810694   3.901   2.010  13.689  0.2785 -0.4976 -0.2421
  723TMC3    O110695   3.853   2.387  13.386 -0.1622  0.0238  0.1741
  723TMC3    O210696   3.904   1.960  13.800  0.3396  0.5102 -0.0330
  724TMC3    C110697   4.685   0.883  10.591  0.1783 -1.1217  0.2771
  724TMC3    C210698   0.025   0.950  10.685  0.1469  0.3277  0.1440
  724TMC3    C310699   0.052   1.088  10.668 -0.3146  0.2780  0.7641
  724TMC3    C410700   4.658   0.945  10.472  0.3242  0.6150 -0.5981
  724TMC3    C510701   4.711   1.070  10.450 -0.0429 -0.2588  0.3613
  724TMC3    C610702   0.037   1.149  10.547  0.5296 -0.2816 -0.7211
  724TMC3     C10703   4.687   0.736  10.598 -0.2440  0.4900 -0.4768
  724TMC3     O10704   4.610   0.688  10.515 -0.1879 -0.2439  0.3238
  724TMC3     H10705   0.034   0.903  10.783 -1.3644  1.5610  0.8805
  724TMC3    H110706   4.637   0.882  10.387  0.3677  0.2286 -0.3212
  724TMC3    H210707   0.081   1.247  10.530  0.4744 -0.1130  0.1044
  724TMC3    C710708   0.036   1.095  10.317 -0.0337 -0.3419 -0.6208
  724TMC3    C810709   0.111   1.142  10.791  0.7004  0.0030  0.3629
  724TMC3    O110710   0.138   1.166  10.317 -0.4405 -0.8168  0.3970
  724TMC3    O210711   0.142   1.061  10.877  0.4284  0.1045  1.4285
  725TMC3    C110712   1.322   3.380  13.154 -1.1245 -0.4484  0.5455
  725TMC3    C210713   1.217   3.395  13.070  0.1191 -0.0493  0.3709
  725TMC3    C310714   1.165   3.291  13.002  0.1107  0.2314  0.4074
  725TMC3    C410715   1.388   3.263  13.160 -0.5983  0.1010  0.3818
  725TMC3    C510716   1.342   3.156  13.085  0.4642 -0.5140 -0.4033
  725TMC3    C610717   1.233   3.172  13.001 -0.2617 -0.0519 -0.3236
  725TMC3     C10718   1.366   3.507  13.218 -0.3496 -0.3230  0.3392
  725TMC3     O10719   1.363   3.612  13.162  0.3380 -0.0290  0.0636
  725TMC3     H10720   1.162   3.489  13.074  0.0145 -0.0897 -0.1782
  725TMC3    H110721   1.479   3.253  13.217 -0.0378  1.1028 -0.3519
  725TMC3    H210722   1.212   3.096  12.927  0.8391 -2.6650  2.0514
  725TMC3    C710723   1.438   3.058  13.040 -0.0846 -0.4597 -0.2417
  725TMC3    C810724   1.063   3.302  12.902  0.2395  0.3637 -0.9528
  725TMC3    O110725   1.518   3.013  13.120  0.4002 -0.0193  0.4233
  725TMC3    O210726   0.996   3.205  12.882 -0.2616  0.4250  0.4394
  726MPD2     C10727   3.973   1.458  10.714  0.4030  0.0633 -0.8045
  726MPD2    C110728   3.960   1.417  10.588 -0.3504  0.0283  0.4876
  726MPD2    C210729   3.950   1.278  10.563  0.2399 -0.2274  0.1962
  726MPD2    C310730   3.929   1.182  10.663  0.6146 -0.0260  0.3357
  726MPD2    C410731   3.948   1.228  10.792 -0.6119 -0.2554  0.3052
  726MPD2    C510732   3.965   1.366  10.817 -0.5241 -0.3689 -0.3444
  726MPD2     H10733   3.945   1.241  10.462  1.8213 -1.7524  0.6782
  726MPD2    H110734   3.952   1.157  10.874  0.9996  1.2597  1.5327
  726MPD2    H210735   3.991   1.561  10.743  2.2024 -0.4602 -0.0536
  726MPD2    H310736   3.985   1.392  10.920  1.2426 -1.5420 -0.4090
  726MPD2     N10737   3.904   1.048  10.643  0.3964 -0.3977  0.1432
  726MPD2    H510738   3.932   0.984  10.718  0.1067 -1.7026 -0.8602
  726MPD2    N110739   3.961   1.507  10.477  0.0301 -0.6141 -0.1542
  726MPD2    H710740   3.993   1.603  10.484  1.9538 -1.3976  1.6930
  727TMC3    C110741   4.014   1.540  10.253 -0.4036  0.2354  0.3089
  727TMC3    C210742   4.140   1.578  10.292  0.1409  0.0278  0.1486
  727TMC3    C310743   4.203   1.664  10.202 -0.4628 -0.1818  0.6600
  727TMC3    C410744   3.966   1.548  10.124 -0.1304 -0.4181 -0.7946
  727TMC3    C510745   4.032   1.632  10.040 -0.0832 -0.5852 -0.5367
  727TMC3    C610746   4.156   1.690  10.074 -0.1730 -0.7835  0.7049
  727TMC3     C10747   3.928   1.473  10.346  0.1095  0.6774 -0.6276
  727TMC3     O10748   3.857   1.385  10.298  0.1223 -0.3519  0.4099
  727TMC3     H10749   4.176   1.577  10.394  1.6864 -1.1728 -0.4169
  727TMC3    H110750   3.865   1.518  10.097  0.8558 -3.3294 -1.2407
  727TMC3    H210751   4.195   1.758  10.000 -0.6761 -1.1722  0.0808
  727TMC3    C710752   3.976   1.646   9.905 -0.3595  0.4396 -0.0678
  727TMC3    C810753   4.296   1.762  10.252  1.0227 -0.7895 -0.1939
  727TMC3    O110754   3.851   1.656   9.888  0.0627  0.2373  0.1844
  727TMC3    O210755   4.379   1.724  10.337 -0.4672 -0.0650 -0.2563
  728TMC3    C110756   3.435   4.209  15.415  0.0370  0.0390 -0.4195
  728TMC3    C210757   3.523   4.299  15.472 -0.0896 -0.6356  0.2373
  728TMC3    C310758   3.580   4.390  15.393  0.6810  0.7022  0.9217
  728TMC3    C410759   3.433   4.188  15.278 -0.4410 -0.7615  0.7409
  728TMC3    C510760   3.493   4.283  15.202 -0.9177  0.3436 -0.6086
  728TMC3    C610761   3.570   4.388  15.256 -0.6177 -0.1154  0.5422
  728TMC3     C10762   3.396   4.098  15.504 -0.4560  0.4352 -0.1773
  728TMC3     O10763   3.468   4.089  15.600 -0.2075 -0.6619  0.7365
  728TMC3     H10764   3.537   4.305  15.579 -1.4286  3.3919  0.1985
  728TMC3    H110765   3.381   4.102  15.237  2.0871 -1.4865 -0.9734
  728TMC3    H210766   3.607   4.477  15.207 -0.5579 -0.5100 -0.1295
  728TMC3    C710767   3.492   4.262  15.057 -0.6910  0.9973  0.4679
  728TMC3    C810768   3.662   4.491  15.460 -0.2632  0.5005 -0.4015
  728TMC3    O110769   3.398   4.192  15.024  0.2815  0.0162  0.4791
  728TMC3    O210770   3.629   4.529  15.570 -0.3839 -0.1377 -0.3515
  729MPD2     C10771   0.615   4.645  16.619  0.1053  0.0908  0.0784
  729MPD2    C110772   0.608   0.052  16.642  0.1779  0.8658 -0.5890
  729MPD2    C210773   0.546   0.093  16.764  0.0160 -0.1829 -0.5507
  729MPD2    C310774   0.481   0.002  16.847  0.4070  0.2055 -0.0284
  729MPD2    C410775   0.490   4.597  16.814 -0.9547  0.5648  0.0804
  729MPD2    C510776   0.553   4.558  16.707 -0.2938  0.1216 -0.2812
  729MPD2     H10777   0.549   0.197  16.795 -0.7720 -0.9115  1.9518
  729MPD2    H110778   0.452   4.522  16.883 -0.5652  0.3818  0.0972
  729MPD2    H210779   0.674   4.603  16.538  3.0063 -0.0764  2.2699
  729MPD2    H310780   0.553   4.453  16.678 -0.0166  0.1351 -0.3299
  729MPD2     N10781   0.420   0.037  16.971 -0.1664  0.5702 -0.0752
  729MPD2    H510782   0.398   4.691  17.038  0.4763  1.9284  1.6239
  729MPD2    N110783   0.654   0.136  16.542  0.3042  0.8163  0.1194
  729MPD2    H710784   0.695   0.093  16.460  0.0857 -0.1320  0.5027
  730TMC3    C110785   0.371   0.199  17.139 -0.3190 -0.4164  0.1887
  730TMC3    C210786   0.462   0.135  17.229  0.0574  0.4325  0.2183
  730TMC3    C310787   0.534   0.211  17.322 -0.3143  0.0742  0.0865
  730TMC3    C410788   0.340   0.332  17.157 -0.1245  0.7003  0.0020
  730TMC3    C510789   0.386   0.397  17.269 -0.0987 -0.6156  0.2354
  730TMC3    C610790   0.476   0.336  17.355  0.6874 -0.6802  0.3957
  730TMC3     C10791   0.384   0.170  16.999  1.1820 -0.4136 -0.2867
  730TMC3     O10792   0.375   0.264  16.922  0.0857  0.2251  0.5892
  730TMC3     H10793   0.495   0.037  17.197 -3.0237 -0.7476  0.7092
  730TMC3    H110794   0.274   0.385  17.089 -1.2235  0.1601  0.6532
  730TMC3    H210795   0.515   0.381  17.445 -0.1868  1.4242 -0.2672
  730TMC3    C710796   0.400   0.542  17.246  0.5006 -0.8007  0.7630
  730TMC3    C810797   0.669   0.236  17.281 -0.2494  1.0032 -0.3817
  730TMC3    O110798   0.343   0.585  17.149 -0.1227 -0.5352 -0.8046
  730TMC3    O210799   0.712   0.350  17.289 -0.1034  0.0439 -0.1433
  731MPD2     C10800   0.350   3.260  12.700 -0.6966 -0.0938  0.5943
  731MPD2    C110801   0.449   3.170  12.660 -0.2768  0.6531 -0.3219
  731MPD2    C210802   0.533   3.123  12.763  0.1629 -0.2868  0.1355
  731MPD2    C310803   0.518   3.175  12.892 -0.0672 -0.4843 -0.0167
  731MPD2    C410804   0.432   3.276  12.913 -0.9785  0.1650 -0.7164
  731MPD2    C510805   0.341   3.316  12.821 -0.2892 -0.6844 -0.1657
  731MPD2     H10806   0.604   3.041  12.752  0.1908  0.1088 -2.5827
  731MPD2    H110807   0.438   3.334  13.005 -1.1418 -2.3070  0.8652
  731MPD2    H210808   0.275   3.290  12.628 -1.8869  0.1434  1.9294
  731MPD2    H310809   0.272   3.397  12.840  0.1001 -0.9616  2.5321
  731MPD2     N10810   0.607   3.128  12.990  0.3698 -0.1423 -0.9334
  731MPD2    H510811   0.691   3.086  12.950  0.9653  0.8998 -0.7684
  731MPD2    N110812   0.445   3.125  12.527 -0.1357  0.0102 -0.4770
  731MPD2    H710813   0.397   3.191  12.467  0.1623  2.0765  1.5660
  732TMC3    C110814   0.483   3.032  12.321  0.0062  0.6587 -0.6517
  732TMC3    C210815   0.348   3.037  12.298  0.1522  0.3361 -0.2730
  732TMC3    C310816   0.315   3.065  12.170  0.0649 -0.0148  0.5425
  732TMC3    C410817   0.583   3.065  12.228  0.3199 -0.0168 -0.5650
  732TMC3    C510818   0.545   3.089  12.102 -0.7118 -0.5507 -0.0602
  732TMC3    C610819   0.410   3.093  12.073  0.2947 -0.6734  0.3829
  732TMC3     C10820   0.528   3.030  12.461  0.3298  0.1259  0.3343
  732TMC3     O10821   0.631   2.978  12.500  0.5416 -0.4511 -0.6883
  732TMC3     H10822   0.284   2.980  12.364  1.8917 -1.3666 -0.0687
  732TMC3    H110823   0.681   3.082  12.272  1.2168 -1.0785 -2.1714
  732TMC3    H210824   0.370   3.110  11.974 -0.9595 -0.8793  0.8448
  732TMC3    C710825   0.645   3.137  12.004 -0.5077  0.2283 -0.3549
  732TMC3    C810826   0.178   3.100  12.140 -0.3630  0.0629 -0.2062
  732TMC3    O110827   0.592   3.191  11.909 -0.8060 -0.6404 -0.1598
  732TMC3    O210828   0.145   3.123  12.025  0.7664 -0.3523  0.0803
  733TMC3    C110829   1.355   1.324  12.817 -0.4194  0.0307 -0.1261
  733TMC3    C210830   1.434   1.335  12.926  0.3509 -0.2503 -0.4045
  733TMC3    C310831   1.573   1.356  12.916 -0.0029 -0.2108  0.5287
  733TMC3    C410832   1.412   1.350  12.697  0.1735 -0.6500 -0.5799
  733TMC3    C510833   1.545   1.370  12.686 -0.7850  0.0006 -0.3016
  733TMC3    C610834   1.630   1.369  12.795  0.1434 -0.1201  0.1873
  733TMC3     C10835   1.216   1.362  12.831  0.3574  0.0302 -0.0017
  733TMC3     O10836   1.167   1.416  12.734  0.1786  0.2295 -0.0330
  733TMC3     H10837   1.392   1.322  13.025  2.1066  0.6706  0.4699
  733TMC3    H110838   1.354   1.351  12.605 -1.6474 -1.1496  0.5647
  733TMC3    H210839   1.738   1.377  12.786  0.2273 -0.2466  1.1431
  733TMC3    C710840   1.606   1.412  12.557 -0.1702  0.1813  0.1031
  733TMC3    C810841   1.660   1.372  13.029  0.6903  0.3823  0.0696
  733TMC3    O110842   1.552   1.390  12.449  0.2091 -0.2902 -0.0944
  733TMC3    O210843   1.680   1.281  13.105 -0.4197  0.2512  0.5027
  734MPD2     C10844   4.195   3.994  12.839 -0.3828  0.0530  0.0794
  734MPD2    C110845   4.090   4.077  12.795 -0.4298  0.4238 -0.3515
  734MPD2    C210846   4.114   4.159  12.688  1.2398  0.9716 -0.2925
  734MPD2    C310847   4.228   4.151  12.618 -0.7895  0.3498  0.3914
  734MPD2    C410848   4.334   4.073  12.656  0.9991 -0.5099  0.3081
  734MPD2    C510849   4.314   3.998  12.773  0.3209  0.5435  0.1481
  734MPD2     H10850   4.033   4.225  12.658  2.4969  1.6215 -2.2059
  734MPD2    H110851   4.429   4.067  12.605  0.9357 -0.3602  0.1709
  734MPD2    H210852   4.186   3.936  12.931  1.4706  1.0044  0.8592
  734MPD2    H310853   4.397   3.947  12.820 -1.2305 -2.4253 -0.3276
  734MPD2     N10854   4.233   4.221  12.497 -0.1438  0.1779  0.3113
  734MPD2    H510855   4.156   4.283  12.475  1.4797  2.4525  0.9791
  734MPD2    N110856   3.969   4.069  12.868 -0.1247 -0.3624  0.5887
  734MPD2    H710857   3.965   4.006  12.948  1.1335 -1.3694 -0.1375
  735TMC3    C110858   3.744   4.080  12.902  0.4314  0.4036  0.0987
  735TMC3    C210859   3.632   4.143  12.856  0.4118  0.1066  0.0775
  735TMC3    C310860   3.516   4.078  12.828 -0.2070  0.6598  0.5940
  735TMC3    C410861   3.738   3.937  12.905 -0.6246 -1.0115  0.1745
  735TMC3    C510862   3.621   3.871  12.867  0.1715 -0.0503  0.0650
  735TMC3    C610863   3.510   3.942  12.843  0.0913  0.5358  0.4414
  735TMC3     C10864   3.857   4.141  12.836  0.4802 -0.9113 -0.3694
  735TMC3     O10865   3.834   4.230  12.753  0.8035  0.1594  1.1346
  735TMC3     H10866   3.643   4.251  12.849 -1.9971  0.1555 -2.6143
  735TMC3    H110867   3.835   3.888  12.913  0.7529  1.7121  0.2288
  735TMC3    H210868   3.420   3.897  12.803  0.3911  1.2855 -1.0910
  735TMC3    C710869   3.662   3.761  12.782  0.5046 -0.8531  0.0529
  735TMC3    C810870   3.474   4.126  12.702 -0.1361  0.2174  0.4312
  735TMC3    O110871   3.778   3.760  12.744  0.7769  0.6608 -0.1381
  735TMC3    O210872   3.359   4.096  12.666  0.3537 -0.6769 -0.1975
  736MPD2     C10873   3.438   3.510  12.627 -1.0198 -0.2706 -0.1947
  736MPD2    C110874   3.557   3.579  12.652 -0.7980 -0.0373 -0.4157
  736MPD2    C210875   3.672   3.544  12.582  0.3744  0.1160  0.2590
  736MPD2    C310876   3.668   3.457  12.474 -0.0442  0.6361  0.0289
  736MPD2    C410877   3.550   3.388  12.455 -0.5626 -0.1416  0.3221
  736MPD2    C510878   3.433   3.418  12.524  0.0589 -0.0771  0.6259
  736MPD2     H10879   3.767   3.595  12.596  0.0098  0.1522  2.6212
  736MPD2    H110880   3.541   3.318  12.372 -2.4287 -0.6864  0.9787
  736MPD2    H210881   3.353   3.524  12.694 -1.4662 -0.1393 -0.7854
  736MPD2    H310882   3.340   3.366  12.502 -0.2821  1.1671 -0.7946
  736MPD2     N10883   3.775   3.446  12.390  0.2960 -0.0995  0.2548
  736MPD2    H510884   3.846   3.519  12.398  1.7489 -1.4273 -0.7193
  736MPD2    N110885   3.557   3.683  12.746  0.3491  0.1995  0.8137
  736MPD2    H710886   3.473   3.691  12.804 -2.5953 -1.3192 -3.2607
  737TMC3    C110887   3.891   3.403  12.196  0.4695 -0.1477  0.8048
  737TMC3    C210888   3.871   3.531  12.153  1.0308  0.7070  0.2742
  737TMC3    C310889   3.928   3.564  12.030  0.3612  0.1754  0.0114
  737TMC3    C410890   3.961   3.312  12.123 -0.0396 -0.5393 -1.7264
  737TMC3    C510891   4.022   3.351  12.012 -0.3128  0.5601  0.5572
  737TMC3    C610892   4.008   3.475  11.958 -0.5766 -0.5129  0.3086
  737TMC3     C10893   3.800   3.349  12.301  0.1496  0.3029 -0.1294
  737TMC3     O10894   3.767   3.229  12.300 -0.1673 -0.3290 -1.1940
  737TMC3     H10895   3.808   3.600  12.208 -2.4624  0.4663 -3.4471
  737TMC3    H110896   3.968   3.210  12.159  1.6643 -0.3280 -1.4671
  737TMC3    H210897   4.034   3.498  11.856 -1.4551 -2.1163 -0.2726
  737TMC3    C710898   4.144   3.269  11.979  0.1120 -0.1600 -0.0300
  737TMC3    C810899   3.905   3.695  11.981 -0.0922 -0.1696 -0.3691
  737TMC3    O110900   4.152   3.155  12.020  0.3496 -0.4879 -0.0903
  737TMC3    O210901   3.835   3.772  12.043 -0.0861 -0.1773  0.0694
  738MPD2     C10902   4.355   2.852  15.266 -0.3560 -0.0652  0.2810
  738MPD2    C110903   4.445   2.752  15.234 -0.4469  0.1574  0.4742
  738MPD2    C210904   4.571   2.787  15.198 -0.2812  0.3752  0.5462
  738MPD2    C310905   4.619   2.918  15.185 -0.5030  0.6278  0.2066
  738MPD2    C410906   4.519   3.017  15.198  0.1520  0.2764  0.1358
  738MPD2    C510907   4.392   2.983  15.241 -0.6551  0.2183 -0.0250
  738MPD2     H10908   4.635   2.704  15.172 -0.7644  0.4625 -0.8854
  738MPD2    H110909   4.534   3.123  15.186  0.2174  0.0565 -1.7255
  738MPD2    H210910   4.251   2.836  15.288 -0.3174 -1.1945 -0.3457
  738MPD2    H310911   4.318   3.063  15.239 -0.5875  0.2405 -1.3650
  738MPD2     N10912   0.030   2.958  15.176 -0.4557 -0.0472  0.2127
  738MPD2    H510913   0.058   3.055  15.187  0.0426 -0.1791  0.0964
  738MPD2    N110914   4.409   2.620  15.245 -0.3777  0.3595  0.1744
  738MPD2    H710915   4.471   2.548  15.209  0.8494  0.8329  1.3922
  739TMC3    C110916   0.262   2.945  15.167  0.3354  0.9750 -0.8160
  739TMC3    C210917   0.352   2.914  15.067 -0.5606 -0.2289 -0.4863
  739TMC3    C310918   0.469   2.991  15.060  0.1024  0.1449  0.3494
  739TMC3    C410919   0.286   3.046  15.254  0.1603  0.2974  0.4225
  739TMC3    C510920   0.407   3.114  15.244  0.5700 -0.5859  0.3610
  739TMC3    C610921   0.498   3.087  15.146 -0.2297  0.4018  0.4632
  739TMC3     C10922   0.134   2.871  15.171 -0.0101 -0.6961  0.0334
  739TMC3     O10923   0.142   2.752  15.167  0.1973 -0.4556  0.1051
  739TMC3     H10924   0.327   2.846  14.986  0.2701 -1.1577  0.0440
  739TMC3    H110925   0.203   3.073  15.318 -0.8072 -0.3016 -0.5819
  739TMC3    H210926   0.583   3.155  15.137 -0.2178  0.4495  0.9374
  739TMC3    C710927   0.410   3.245  15.319  0.1719  0.7341  0.0705
  739TMC3    C810928   0.489   3.022  14.924 -0.2181 -0.1954 -0.2888
  739TMC3    O110929   0.467   3.336  15.265 -0.5151  0.0165 -0.2445
  739TMC3    O210930   0.395   3.017  14.848  0.4641 -0.4111  0.4858
  740TMC3    C110931   0.534   4.089  14.801  0.0683 -0.8158 -0.3129
  740TMC3    C210932   0.587   4.127  14.925  0.5170  0.6245 -0.2567
  740TMC3    C310933   0.718   4.110  14.948  0.6624  0.5812  0.0744
  740TMC3    C410934   0.616   4.041  14.703  0.3704  0.5309 -0.5825
  740TMC3    C510935   0.747   4.019  14.737  0.2187 -0.4219  0.1091
  740TMC3    C610936   0.799   4.048  14.859  0.0262 -0.1225  0.3566
  740TMC3     C10937   0.394   4.137  14.781  0.0301 -0.7453 -0.1047
  740TMC3     O10938   0.345   4.135  14.671  0.2914 -0.6608  0.3579
  740TMC3     H10939   0.533   4.181  15.001 -0.3045  1.0821 -1.1690
  740TMC3    H110940   0.582   4.008  14.605 -0.7842 -0.4360  0.1518
  740TMC3    H210941   0.908   4.053  14.861  0.0327  0.8066 -2.1247
  740TMC3    C710942   0.841   3.965  14.643 -0.4349  0.1708  0.6493
  740TMC3    C810943   0.768   4.167  15.072 -0.1208  0.6499  0.5101
  740TMC3    O110944   0.942   3.917  14.692  0.4971  0.4210  0.3106
  740TMC3    O210945   0.727   4.277  15.106  0.2430 -0.2014  0.5104
  741TMC3    C110946   4.683   3.217  14.681 -0.5706 -0.2062 -0.3724
  741TMC3    C210947   4.630   3.133  14.782  0.1126  0.2485 -0.5980
  741TMC3    C310948   4.700   3.021  14.810 -0.3510  0.9243 -0.0254
  741TMC3    C410949   0.059   3.187  14.596  0.4927 -0.2268  0.3007
  741TMC3    C510950   0.130   3.073  14.636  0.3870  0.3830 -0.0445
  741TMC3    C610951   0.090   2.992  14.746  0.1266 -0.0052 -0.1963
  741TMC3     C10952   4.608   3.340  14.649 -0.0722  0.0681  0.2996
  741TMC3     O10953   4.483   3.338  14.657 -0.5394  0.0660  0.5939
  741TMC3     H10954   4.551   3.171  14.846  1.2416  1.2706  0.1884
  741TMC3    H110955   0.089   3.247  14.511  1.8641 -0.0460  0.9089
  741TMC3    H210956   0.140   2.901  14.775  0.2845  0.5415  1.2888
  741TMC3    C710957   0.209   3.001  14.541  0.1665 -0.1018 -0.0580
  741TMC3    C810958   4.625   2.909  14.865 -0.1259  0.0156  0.2291
  741TMC3    O110959   0.174   3.022  14.423 -0.1268  0.0457  0.6089
  741TMC3    O210960   4.692   2.810  14.893 -0.2608  0.2652 -0.7483
  742TMC3    C110961   0.195   1.925  15.405  0.6752 -0.0551 -0.0137
  742TMC3    C210962   0.102   1.948  15.304 -0.3329 -0.2927  0.5705
  742TMC3    C310963   0.145   2.004  15.184 -0.7169 -0.2216  0.6742
  742TMC3    C410964   0.325   1.964  15.389  1.1467  0.1291  0.6961
  742TMC3    C510965   0.359   2.014  15.272 -0.9858  0.0038 -0.4387
  742TMC3    C610966   0.276   2.036  15.163  0.0189 -0.2984 -0.0970
  742TMC3     C10967   0.143   1.945  15.541  0.3940  0.4549 -0.8458
  742TMC3     O10968   0.224   2.003  15.614 -0.1064 -0.2094  0.1686
  742TMC3     H10969   4.725   1.929  15.324 -0.4418  0.0165  0.2872
  742TMC3    H110970   0.403   1.943  15.461  0.3695 -2.1576  0.8902
  742TMC3    H210971   0.326   2.052  15.069  1.7903  0.2076  0.9243
  742TMC3    C710972   0.489   1.964  15.228 -0.1658  0.1828 -0.4610
  742TMC3    C810973   0.050   2.027  15.075 -0.0874 -0.4485 -0.1646
  742TMC3    O110974   0.479   1.896  15.126 -0.9257  0.4768  0.2116
  742TMC3    O210975   4.666   1.972  15.074 -0.1674 -1.1788  0.0996
  743MPD2     C10976   1.828   3.264   1.347  0.7195  0.1895  0.0463
  743MPD2    C110977   1.893   3.157   1.292 -0.1141 -0.4096 -0.0845
  743MPD2    C210978   2.018   3.122   1.340  0.3474  0.0248 -0.3504
  743MPD2    C310979   2.068   3.188   1.451 -0.3169 -0.3687  0.2363
  743MPD2    C410980   2.009   3.302   1.499  0.7626 -0.0077 -0.6910
  743MPD2    C510981   1.885   3.334   1.454 -0.3377  0.6554  0.0712
  743MPD2     H10982   2.083   3.052   1.289 -0.7926 -0.8920 -0.5425
  743MPD2    H110983   2.050   3.355   1.584 -1.5672 -2.0521  1.6749
  743MPD2    H210984   1.728   3.290   1.313  0.2875 -1.0159  0.4086
  743MPD2    H310985   1.830   3.416   1.499  0.4558  1.4960 -0.4866
  743MPD2     N10986   2.197   3.149   1.482 -0.2466 -0.0508  0.9225
  743MPD2    H510987   2.233   3.083   1.414 -1.5489  0.2374 -0.0382
  743MPD2    N110988   1.826   3.078   1.185 -0.7134  0.6597  0.1470
  743MPD2    H710989   1.731   3.109   1.168 -1.7958 -1.6902  1.9763
  744TMC3    C110990   1.757   2.922   1.032  0.0830  0.1105  0.2746
  744TMC3    C210991   1.633   2.931   1.078  0.4448 -0.5027  0.2215
  744TMC3    C310992   1.528   2.910   0.994  0.1157 -0.5078 -0.0508
  744TMC3    C410993   1.787   2.901   0.902  0.7969  0.7005  0.0155
  744TMC3    C510994   1.683   2.887   0.813 -0.1190 -0.2760  0.2739
  744TMC3    C610995   1.554   2.895   0.863 -0.1201 -0.0405 -0.1979
  744TMC3     C10996   1.866   2.964   1.118 -0.6354 -0.3340 -0.0879
  744TMC3     O10997   1.971   2.904   1.122 -0.2122  0.5312 -0.5824
  744TMC3     H10998   1.620   2.955   1.183 -0.4739 -3.3088  0.7609
  744TMC3    H110999   1.893   2.905   0.882  0.9436  2.2136  1.1652
  744TMC3    H211000   1.464   2.896   0.802  0.8620  1.0254 -1.6019
  744TMC3    C711001   1.698   2.848   0.673  0.0887 -0.0368 -0.2739
  744TMC3    C811002   1.395   2.940   1.038  0.1496  0.0064  0.0122
  744TMC3    O111003   1.593   2.856   0.605 -0.6607 -0.3037 -0.1441
  744TMC3    O211004   1.312   2.958   0.948  0.2533  0.6360  0.0751
  745TMC3    C111005   0.428   1.702  13.789  0.9744  0.1494 -0.5983
  745TMC3    C211006   0.364   1.676  13.905  0.4199 -0.2295 -0.3140
  745TMC3    C311007   0.241   1.721  13.919 -0.0070  0.0817 -1.1237
  745TMC3    C411008   0.365   1.762  13.686 -0.2316 -1.0667 -0.2581
  745TMC3    C511009   0.229   1.778  13.697  0.9037  0.6281 -0.1242
  745TMC3    C611010   0.164   1.761  13.812  0.6741 -0.1040 -0.1059
  745TMC3     C11011   0.569   1.703  13.802 -0.3836 -0.1346 -0.2256
  745TMC3     O11012   0.623   1.623  13.880  0.1615 -0.7260  0.3965
  745TMC3     H11013   0.410   1.625  13.989 -0.7432 -1.8105 -0.6424
  745TMC3    H111014   0.418   1.773  13.593 -1.1649  2.3695 -0.3861
  745TMC3    H211015   0.066   1.808  13.810  0.3491 -0.7843 -0.0403
  745TMC3    C711016   0.166   1.863  13.593  0.2545 -0.3648 -0.0086
  745TMC3    C811017   0.216   1.797  14.041 -0.4909  0.1427 -0.5853
  745TMC3    O111018   0.063   1.924  13.626  0.6397  0.7444 -0.1772
  745TMC3    O211019   0.099   1.838  14.060 -0.1596  0.3564  0.0788
  746TMC3    C111020   2.879   3.456  11.046  1.0607  0.1878 -0.7878
  746TMC3    C211021   2.968   3.400  10.952  0.4625 -0.2258 -0.2050
  746TMC3    C311022   2.932   3.279  10.899  0.0557 -0.2469 -0.2829
  746TMC3    C411023   2.765   3.393  11.089  0.0120 -0.2874  0.3126
  746TMC3    C511024   2.742   3.267  11.029 -0.2827  0.0277  0.3666
  746TMC3    C611025   2.820   3.215  10.931  0.0718 -0.8747 -0.2002
  746TMC3     C11026   2.894   3.600  11.083 -0.4033 -0.5302  0.3673
  746TMC3     O11027   2.796   3.651  11.133 -0.6153  0.5226  0.0861
  746TMC3     H11028   3.061   3.450  10.928 -0.2872  1.2345 -0.0171
  746TMC3    H111029   2.690   3.448  11.144  0.6471  1.7476 -0.8821
  746TMC3    H211030   2.792   3.117  10.893  1.4049 -1.6239  0.7636
  746TMC3    C711031   2.598   3.228  11.023  0.1819  0.4762 -0.8911
  746TMC3    C811032   3.008   3.219  10.787  0.1276 -0.3618  0.2685
  746TMC3    O111033   2.559   3.163  10.926  0.1577 -0.2474  0.0873
  746TMC3    O211034   2.994   3.096  10.778  0.1510  0.3185  0.0040
  747TMC3    C111035   0.167   3.651  11.405 -0.5268  0.1700  0.3791
  747TMC3    C211036   0.153   3.530  11.474 -0.0821 -0.1232 -0.2545
  747TMC3    C311037   0.113   3.533  11.604  0.5353  0.0099 -0.1901
  747TMC3    C411038   0.154   3.770  11.471  0.2821  0.2088  0.1527
  747TMC3    C511039   0.119   3.773  11.602  0.3933  0.5719  0.2948
  747TMC3    C611040   0.089   3.652  11.665  0.2094  0.2676 -0.4583
  747TMC3     C11041   0.244   3.653  11.280 -1.3077 -0.3368  0.2533
  747TMC3     O11042   0.259   3.761  11.228 -0.5374  0.2563 -0.0554
  747TMC3     H11043   0.164   3.433  11.427 -2.0304 -1.3816  1.8965
  747TMC3    H111044   0.185   3.859  11.418 -1.0840  0.3720 -0.3978
  747TMC3    H211045   0.047   3.664  11.764  0.7529 -4.2011  0.3284
  747TMC3    C711046   0.176   3.874  11.692  0.4202 -0.5300  0.8699
  747TMC3    C811047   0.063   3.411  11.662 -0.5413  0.6245  0.5029
  747TMC3    O111048   0.212   3.838  11.803 -0.3209 -0.2544 -0.1520
  747TMC3    O211049   0.099   3.307  11.618  0.3371 -0.0948  0.0055
  748MPD2     C11050   1.183   4.627   1.464 -0.5559 -0.1125  1.2457
  748MPD2    C111051   1.231   4.502   1.500 -0.1082  0.0684 -0.4503
  748MPD2    C211052   1.358   4.469   1.456  0.4750  0.8285  0.5416
  748MPD2    C311053   1.425   4.548   1.368  0.9257 -0.1843 -0.8090
  748MPD2    C411054   1.372   4.674   1.324 -1.0116 -0.0102 -0.3918
  748MPD2    C511055   1.254   4.713   1.380 -0.0979 -0.1265  0.1852
  748MPD2     H11056   1.395   4.369   1.477 -0.0253  0.8827  1.6603
  748MPD2    H111057   1.422   0.025   1.268 -1.3670 -1.1077 -2.2147
  748MPD2    H211058   1.090   4.661   1.507 -0.1240  0.1949  1.9384
  748MPD2    H311059   1.224   0.089   1.365  1.1441  0.5696  2.3948
  748MPD2     N11060   1.544   4.503   1.316  0.5094 -0.0203  0.6605
  748MPD2    H511061   1.581   4.413   1.347 -0.7889 -1.0668 -0.8544
  748MPD2    N111062   1.156   4.414   1.583 -0.6193 -0.1677  0.7196
  748MPD2    H711063   1.058   4.438   1.595  0.1471  2.2525  2.3070
  749TMC3    C111064   1.750   4.498   1.198  0.1741  0.3393 -0.0259
  749TMC3    C211065   1.807   4.420   1.300 -0.0665  0.2662  0.2028
  749TMC3    C311066   1.940   4.391   1.294  0.7205 -0.6230 -0.8166
  749TMC3    C411067   1.829   4.553   1.100  0.2511 -0.0054  0.3686
  749TMC3    C511068   1.960   4.519   1.090 -0.2446  0.4185  1.0685
  749TMC3    C611069   2.016   4.432   1.180  0.8547  0.3496  0.3096
  749TMC3     C11070   1.613   4.551   1.205  0.2511  0.6771 -0.7418
  749TMC3     O11071   1.585   4.648   1.142  0.1801 -0.6194  0.5462
  749TMC3     H11072   1.756   4.384   1.388  0.5668 -2.7199 -0.6540
  749TMC3    H111073   1.786   4.631   1.039 -1.7077 -0.7130  0.8540
  749TMC3    H211074   2.123   4.418   1.182  0.8889  0.3869 -1.4279
  749TMC3    C711075   2.049   4.604   1.014  0.3148  0.3075 -0.1373
  749TMC3    C811076   1.987   4.298   1.390 -0.1805 -1.0570 -0.7076
  749TMC3    O111077   2.001   4.713   0.983  0.6643 -0.2134 -0.4723
  749TMC3    O211078   1.925   4.287   1.494 -0.1183  0.4028 -0.0375
  750MPD2     C11079   3.201   0.769  11.332 -0.0285 -0.0503  0.0053
  750MPD2    C111080   3.087   0.735  11.255 -0.2014  0.4310  0.9432
  750MPD2    C211081   3.092   0.617  11.185  0.8638  0.4855 -0.2275
  750MPD2    C311082   3.203   0.532  11.179 -0.4413 -0.4376 -1.0270
  750MPD2    C411083   3.312   0.575  11.257  0.3717  0.1580 -0.2257
  750MPD2    C511084   3.315   0.692  11.323 -0.2253 -0.0693 -1.0597
  750MPD2     H11085   3.006   0.594  11.123  1.1924 -1.1670 -0.0843
  750MPD2    H111086   3.404   0.519  11.264  0.6258  0.7744  1.3858
  750MPD2    H211087   3.199   0.856  11.397  0.1406  2.8843 -3.9355
  750MPD2    H311088   3.404   0.714  11.380 -2.0451  0.1387  1.6761
  750MPD2     N11089   3.208   0.407  11.107 -0.6714  0.4768 -0.3435
  750MPD2    H511090   3.298   0.361  11.098 -0.5750  0.8066 -1.0271
  750MPD2    N111091   2.972   0.821  11.266  0.7089  0.7769 -0.1954
  750MPD2    H711092   2.975   0.900  11.330  3.5656  1.8571 -1.7149
  751TMC3    C111093   3.118   0.224  10.972 -0.1954  0.3977 -0.1719
  751TMC3    C211094   3.001   0.148  10.979  0.7608  0.1902 -0.1369
  751TMC3    C311095   3.017   0.016  10.963 -0.3572 -0.5085 -0.1263
  751TMC3    C411096   3.241   0.166  10.957 -0.0377  0.6581  0.7554
  751TMC3    C511097   3.249   0.039  10.924 -0.1047  0.1388  0.1493
  751TMC3    C611098   3.140   4.687  10.928  0.1194 -0.1577 -0.1720
  751TMC3     C11099   3.099   0.343  11.060  0.2158 -0.3560 -0.0541
  751TMC3     O11100   2.982   0.377  11.077 -0.1678  0.5533 -0.0886
  751TMC3     H11101   2.906   0.191  11.008  0.6180 -1.6146  2.0414
  751TMC3    H111102   3.330   0.228  10.957  0.9246 -0.7158  0.8311
  751TMC3    H211103   3.150   4.579  10.922 -1.2330 -0.3561  1.1507
  751TMC3    C711104   3.352   4.726  10.839 -0.7993 -0.3002  0.6411
  751TMC3    C811105   2.914   4.646  10.961 -0.4121  0.3983 -0.0200
  751TMC3    O111106   3.466   0.044  10.860 -0.4050 -0.2452  0.4567
  751TMC3    O211107   2.940   4.537  10.907  0.5405 -0.0513  0.7022
  752TMC3    C111108   1.644   0.534  16.790 -0.3298 -0.3222  0.2455
  752TMC3    C211109   1.536   0.491  16.863 -0.0486 -0.2207  0.3747
  752TMC3    C311110   1.458   0.587  16.920  0.4326 -0.3685  0.0590
  752TMC3    C411111   1.680   0.666  16.793 -0.2285  0.2097  0.3708
  752TMC3    C511112   1.607   0.753  16.869 -0.5429 -0.5094  0.1083
  752TMC3    C611113   1.486   0.721  16.923  0.3247  0.2164  0.0695
  752TMC3     C11114   1.636   0.475  16.664 -0.6354 -0.3844  0.2028
  752TMC3     O11115   1.730   0.498  16.591  0.1468  0.1171 -0.5446
  752TMC3     H11116   1.512   0.386  16.869 -1.2649  0.0386  0.0723
  752TMC3    H111117   1.761   0.701  16.730  0.7667  1.0909  2.1333
  752TMC3    H211118   1.422   0.792  16.974  1.0047 -0.2070  1.4979
  752TMC3    C711119   1.648   0.890  16.872  0.3004 -0.2839  0.4410
  752TMC3    C811120   1.333   0.535  16.967 -0.5246  0.1519 -0.5235
  752TMC3    O111121   1.713   0.930  16.777  0.2809  0.6255 -0.2017
  752TMC3    O211122   1.280   0.449  16.894  0.2899  0.5769 -0.0707
  753TMC3    C111123   3.481   1.277  13.567  0.3900  0.9829 -0.6207
  753TMC3    C211124   3.582   1.272  13.656  0.0685  0.2625 -0.1930
  753TMC3    C311125   3.637   1.156  13.687  0.3177  0.6703 -0.2822
  753TMC3    C411126   3.421   1.161  13.517 -1.0449  0.0095 -0.1023
  753TMC3    C511127   3.465   1.044  13.572  0.5532  0.0388 -0.1538
  753TMC3    C611128   3.574   1.039  13.649 -0.8933  0.9441 -0.7530
  753TMC3     C11129   3.456   1.400  13.500  0.1807 -0.4508  0.5406
  753TMC3     O11130   3.406   1.396  13.390 -0.3088  0.0849  0.1733
  753TMC3     H11131   3.628   1.362  13.695 -1.8350  1.8425 -1.6010
  753TMC3    H111132   3.342   1.158  13.443  0.7509 -1.8185 -1.9571
  753TMC3    H211133   3.630   0.947  13.666  0.0947  1.8164  0.6762
  753TMC3    C711134   3.396   0.915  13.553 -0.6162  0.1016 -0.3629
  753TMC3    C811135   3.745   1.143  13.789  0.2413 -0.6876  0.1778
  753TMC3    O111136   3.447   0.812  13.595  0.4774 -0.5536 -0.3987
  753TMC3    O211137   3.809   1.036  13.794 -0.3706  0.2848 -0.1322
  754MPD2     C11138   2.246   4.125  12.687 -0.1938 -0.4112  0.6500
  754MPD2    C111139   2.248   4.025  12.776 -0.0495  0.0381  0.5582
  754MPD2    C211140   2.157   4.027  12.882 -0.0826 -0.5622 -0.2020
  754MPD2    C311141   2.099   4.140  12.926  0.2082 -0.6267 -0.2874
  754MPD2    C411142   2.120   4.257  12.852  0.4564 -0.2740  0.4894
  754MPD2    C511143   2.182   4.244  12.726  0.0189  0.2821  0.2111
  754MPD2     H11144   2.145   3.933  12.933  1.0097 -0.4558  0.2399
  754MPD2    H111145   2.075   4.353  12.874 -2.0901 -1.5287  0.7965
  754MPD2    H211146   2.307   4.124  12.597  0.1315 -1.4891  0.8757
  754MPD2    H311147   2.192   4.334  12.666 -0.7821 -0.1718 -0.5952
  754MPD2     N11148   2.038   4.155  13.056 -0.4361 -0.0952  0.5355
  754MPD2    H511149   1.992   4.244  13.072  0.0920 -0.0481  1.7328
  754MPD2    N111150   2.342   3.920  12.756 -0.1176 -0.8143  0.0159
  754MPD2    H711151   2.390   3.906  12.668  2.0786 -0.3148  1.1401
  755MPD2     C11152   1.436   4.707  13.380  0.1137 -0.1569 -0.4641
  755MPD2    C111153   1.556   0.009  13.445  0.3458  0.1631 -0.0592
  755MPD2    C211154   1.643   4.629  13.445 -0.1092 -0.3981 -0.1327
  755MPD2    C311155   1.616   4.502  13.388  0.6605  0.0310 -0.4580
  755MPD2    C411156   1.491   4.473  13.340  0.2370  0.2206 -0.1324
  755MPD2    C511157   1.403   4.581  13.326  0.5106  0.6352 -0.0246
  755MPD2     H11158   1.738   4.638  13.496 -0.3655  0.8309  0.1352
  755MPD2    H111159   1.459   4.381  13.293 -0.4547  1.2502 -1.6687
  755MPD2    H211160   1.364   0.060  13.369 -1.2615 -1.3668 -0.2594
  755MPD2    H311161   1.310   4.570  13.272  1.7620  2.0916 -2.4734
  755MPD2     N11162   1.706   4.394  13.387  0.2072 -0.2716  0.0815
  755MPD2    H511163   1.665   4.315  13.339 -0.9893  1.5084 -1.8072
  755MPD2    N111164   1.600   0.132  13.506 -1.2537 -0.1931  0.0218
  755MPD2    H711165   1.689   0.133  13.556 -0.5031  0.1611 -1.3068
  756MPD2     C11166   2.664   0.870   9.409 -0.1024 -0.2412 -0.6851
  756MPD2    C111167   2.581   0.877   9.524  0.0846 -0.8758  0.6088
  756MPD2    C211168   2.451   0.830   9.519  0.8476  0.5320  0.7871
  756MPD2    C311169   2.392   0.796   9.397 -0.0137  0.8051  0.3680
  756MPD2    C411170   2.465   0.814   9.273 -0.7996 -0.3573 -0.6588
  756MPD2    C511171   2.600   0.843   9.287 -0.2776  0.0734  0.1888
  756MPD2     H11172   2.391   0.829   9.610 -1.7611 -1.1710 -0.9517
  756MPD2    H111173   2.417   0.801   9.177  0.3890 -0.1444 -1.2741
  756MPD2    H211174   2.768   0.902   9.409 -0.2168  0.1805 -2.9460
  756MPD2    H311175   2.665   0.846   9.201  0.1308 -1.0443  0.4564
  756MPD2     N11176   2.257   0.746   9.390  0.1524 -0.1900  0.3066
  756MPD2    H511177   2.215   0.733   9.299  0.6903  3.7405 -0.5255
  756MPD2    N111178   2.622   0.929   9.647  0.5495 -0.6697  0.9558
  756MPD2    H711179   2.555   0.930   9.723 -0.2174 -1.2372  0.2915
  757MPD2     C11180   1.720   4.711   9.862 -0.6342  0.3544  0.4162
  757MPD2    C111181   1.850   4.717   9.827 -0.6045  1.3246 -0.2394
  757MPD2    C211182   1.901   0.113   9.771  0.5902  0.0301 -0.8535
  757MPD2    C311183   1.826   0.218   9.733  0.2087  0.3278  0.1667
  757MPD2    C411184   1.692   0.213   9.767 -0.4344  0.1435 -0.1990
  757MPD2    C511185   1.645   0.096   9.830 -0.8194 -0.5815  0.6171
  757MPD2     H11186   2.007   0.124   9.751  0.6372 -1.3885 -1.3781
  757MPD2    H111187   1.618   0.291   9.755  1.3402  2.1247  1.6839
  757MPD2    H211188   1.669   4.620   9.890  0.5964 -0.5641 -0.3530
  757MPD2    H311189   1.543   0.090   9.865 -1.3992  4.2006 -0.3048
  757MPD2     N11190   1.880   0.331   9.670  0.0598  0.6096 -0.3758
  757MPD2    H511191   1.976   0.332   9.637 -0.1084  0.1197 -0.8780
  757MPD2    N111192   1.928   4.600   9.849 -0.1025  0.2105 -0.0635
  757MPD2    H711193   1.889   4.526   9.906  2.6979 -0.7958  0.5491
  758MPD2     C11194   2.453   4.327  16.910 -0.7866  0.3048  0.1732
  758MPD2    C111195   2.476   4.334  16.779 -0.1624  0.3716  0.0345
  758MPD2    C211196   2.369   4.374  16.696 -0.1372 -1.7107  0.2805
  758MPD2    C311197   2.239   4.408  16.749 -0.0287 -0.0022  0.8439
  758MPD2    C411198   2.217   4.388  16.884  0.2580 -0.2208  0.1882
  758MPD2    C511199   2.325   4.347  16.961  0.3464  0.5967 -0.4373
  758MPD2     H11200   2.388   4.390  16.590 -0.7019 -1.9672  0.1426
  758MPD2    H111201   2.124   4.412  16.933  1.0885  2.6602  0.4002
  758MPD2    H211202   2.532   4.300  16.979  0.2417  3.6546  0.3128
  758MPD2    H311203   2.323   4.342  17.069  0.1066 -0.9880 -0.5181
  758MPD2     N11204   2.143   4.467  16.672  0.1901  0.6177 -0.1517
  758MPD2    H511205   2.074   4.528  16.716 -1.3074 -1.1413 -0.0873
  758MPD2    N111206   2.613   4.312  16.745  0.5792 -0.0874 -0.9087
  758MPD2    H711207   2.670   4.278  16.822 -0.5360  1.5097  0.6296
  759MPD2     C11208   1.524   3.803  10.663 -0.1458  0.6328  0.4633
  759MPD2    C111209   1.499   3.674  10.613 -0.1337 -0.1621 -0.5083
  759MPD2    C211210   1.575   3.634  10.506 -0.0796  0.4276 -0.2810
  759MPD2    C311211   1.669   3.722  10.453 -0.3842  0.1880 -0.4204
  759MPD2    C411212   1.690   3.849  10.511  0.2136 -0.4572 -0.3426
  759MPD2    C511213   1.619   3.883  10.622  0.1565  0.8173 -0.1033
  759MPD2     H11214   1.554   3.537  10.461  0.7150 -0.1368  0.5657
  759MPD2    H111215   1.753   3.920  10.459 -1.0581  1.6053  0.9282
  759MPD2    H211216   1.466   3.844  10.745 -3.2233 -1.5021 -0.6213
  759MPD2    H311217   1.619   3.984  10.662 -3.1271  0.5368  0.5531
  759MPD2     N11218   1.729   3.690  10.330  0.1891 -0.0405  0.3550
  759MPD2    H511219   1.702   3.598  10.297 -1.0514 -0.2149  1.8186
  759MPD2    N111220   1.396   3.582  10.659 -0.4149 -0.6538  0.2632
  759MPD2    H711221   1.424   3.487  10.638 -0.9290 -1.0630  1.4815
  760MPD2     C11222   0.804   4.333  11.701 -0.0959 -0.3875  0.7515
  760MPD2    C111223   0.891   4.409  11.786  0.1707  0.6533  0.0572
  760MPD2    C211224   0.940   4.345  11.901 -0.4080 -0.0285 -0.0084
  760MPD2    C311225   0.902   4.217  11.933 -0.3151  0.3815  0.3580
  760MPD2    C411226   0.809   4.151  11.852  0.1342  0.1852 -0.0806
  760MPD2    C511227   0.764   4.208  11.737  0.6362  0.3238 -0.1269
  760MPD2     H11228   1.016   4.389  11.964 -0.3357 -1.8990  1.1967
  760MPD2    H111229   0.780   4.048  11.872  2.4969 -0.6161 -0.7627
  760MPD2    H211230   0.753   4.376  11.616  0.4410 -0.6512  0.2934
  760MPD2    H311231   0.700   4.151  11.672  0.2519  1.0401 -0.3755
  760MPD2     N11232   0.951   4.133  12.032 -0.0410 -0.7469 -0.0732
  760MPD2    H511233   0.915   4.038  12.026  0.8699 -1.1177  0.3474
  760MPD2    N111234   0.922   4.549  11.761 -1.0484  0.3701  0.0264
  760MPD2    H711235   0.982   4.599  11.825 -1.4327  3.4786 -2.0620
  761MPD2     C11236   2.435   4.493  11.058 -0.3320  0.4430  0.2501
  761MPD2    C111237   2.534   4.425  10.990 -0.2296 -0.8129 -0.8383
  761MPD2    C211238   2.652   4.493  10.973 -0.1079  0.5622 -0.3203
  761MPD2    C311239   2.670   4.623  11.017 -0.1019  0.6970 -0.2327
  761MPD2    C411240   2.562   4.694  11.073 -0.3202 -0.1801 -0.3328
  761MPD2    C511241   2.445   4.629  11.097  0.1266 -0.3387 -0.0512
  761MPD2     H11242   2.738   4.434  10.944 -0.3760 -0.0609  0.1573
  761MPD2    H111243   2.572   0.071  11.102  2.7546 -0.9439  1.2853
  761MPD2    H211244   2.349   4.439  11.095  0.0600 -0.4238 -0.1231
  761MPD2    H311245   2.358   4.671  11.147 -0.5254 -1.2326 -0.4331
  761MPD2     N11246   2.793   4.694  11.008 -0.3557  0.3244 -0.4517
  761MPD2    H511247   2.801   0.062  11.041 -0.1093  0.4199 -0.7773
  761MPD2    N111248   2.502   4.290  10.949  0.3775  0.2684  0.2010
  761MPD2    H711249   2.427   4.240  10.994 -0.2222 -0.7958 -1.9717
  762MPD2     C11250   3.016   4.201  10.848  0.5291  0.5085 -0.9403
  762MPD2    C111251   2.995   4.074  10.825 -1.0226  0.2025 -0.7830
  762MPD2    C211252   3.102   3.988  10.777 -0.5867 -0.5508 -0.6633
  762MPD2    C311253   3.217   4.040  10.743  0.1785 -0.0677 -0.4234
  762MPD2    C411254   3.235   4.179  10.762  0.2487 -0.0510 -0.1511
  762MPD2    C511255   3.140   4.256  10.829 -0.0806  0.0716 -0.7081
  762MPD2     H11256   3.070   3.887  10.752 -1.0821 -0.3660 -0.7884
  762MPD2    H111257   3.318   4.232  10.717 -0.5735 -0.3458 -2.0279
  762MPD2    H211258   2.932   4.262  10.879 -0.7650 -2.4568  1.4274
  762MPD2    H311259   3.150   4.364  10.833 -0.0200  0.1225 -2.5610
  762MPD2     N11260   3.302   3.947  10.674 -0.2466  0.5087  0.3987
  762MPD2    H511261   3.272   3.850  10.672  0.3791  0.3428 -1.0671
  762MPD2    N111262   2.866   4.032  10.853  0.6850  0.2681 -0.2865
  762MPD2    H711263   2.799   4.100  10.887  1.9561  0.2112  2.2713
  763MPD2     C11264   3.755   0.498  16.353 -0.0662  0.3844 -0.1316
  763MPD2    C111265   3.884   0.466  16.336 -0.0509 -0.0442  0.3186
  763MPD2    C211266   3.985   0.544  16.395  0.4718  0.2615  0.0431
  763MPD2    C311267   3.952   0.648  16.483 -0.4866  0.5475  0.0174
  763MPD2    C411268   3.817   0.684  16.496  0.6685 -0.0868 -0.5280
  763MPD2    C511269   3.725   0.598  16.439  0.1054 -0.1075 -0.1438
  763MPD2     H11270   4.089   0.522  16.375  0.6369 -0.3083  1.5828
  763MPD2    H111271   3.795   0.775  16.550  1.2571 -1.2963  1.7508
  763MPD2    H211272   3.668   0.450  16.309 -1.3335  0.8755  1.8693
  763MPD2    H311273   3.625   0.641  16.446  0.3977  0.3040  1.3852
  763MPD2     N11274   4.058   0.723  16.536  0.1736  0.0189 -0.0674
  763MPD2    H511275   4.144   0.675  16.510  1.3571  2.0500  0.1030
  763MPD2    N111276   3.932   0.350  16.263 -1.0318 -0.0492 -0.3332
  763MPD2    H711277   4.026   0.365  16.230 -1.0747 -2.4705 -1.5339
  764MPD2     C11278   1.455   1.859  16.871 -0.2761 -0.6984  0.6260
  764MPD2    C111279   1.460   1.726  16.835 -1.1179  0.0641 -0.3803
  764MPD2    C211280   1.448   1.637  16.939  0.8139  0.3359  0.6136
  764MPD2    C311281   1.416   1.682  17.064  0.2459  0.1713  0.5508
  764MPD2    C411282   1.389   1.811  17.093  0.8599  0.1978 -0.1073
  764MPD2    C511283   1.421   1.903  16.997  0.3751  0.0765  0.3814
  764MPD2     H11284   1.471   1.531  16.931  2.9494  0.7807  0.8518
  764MPD2    H111285   1.347   1.845  17.187 -0.1496  1.2114 -0.9315
  764MPD2    H211286   1.481   1.941  16.804 -3.0549 -0.4787 -0.1862
  764MPD2    H311287   1.408   2.009  17.015 -1.5281  0.1094 -1.1082
  764MPD2     N11288   1.412   1.587  17.166 -0.4122 -0.2207 -0.7316
  764MPD2    H511289   1.403   1.490  17.137 -3.0152 -0.6126  1.4543
  764MPD2    N111290   1.486   1.684  16.707  0.0194 -0.2071  0.1448
  764MPD2    H711291   1.516   1.587  16.696  0.8097  0.3019 -2.0275
  765MPD2     C11292   1.885   3.874  16.063  0.2631  0.3439  0.2328
  765MPD2    C111293   1.870   3.917  15.934  0.3469 -0.3337  0.1894
  765MPD2    C211294   1.962   3.876  15.836 -0.0342  0.5007  0.0409
  765MPD2    C311295   2.076   3.808  15.885  0.5102  0.7394 -0.1861
  765MPD2    C411296   2.086   3.764  16.022  0.1781  0.2768 -0.0487
  765MPD2    C511297   1.989   3.795  16.110  0.3935  0.2205  0.1191
  765MPD2     H11298   1.956   3.914  15.735 -1.2269  0.6537  0.1669
  765MPD2    H111299   2.173   3.706  16.051  2.4910  3.1131 -1.3280
  765MPD2    H211300   1.826   3.913  16.145 -1.7059  0.7436 -1.3683
  765MPD2    H311301   1.996   3.759  16.212 -0.6360  1.4341  0.6164
  765MPD2     N11302   2.184   3.784  15.790  0.0116  0.1690 -0.3578
  765MPD2    H511303   2.167   3.817  15.696  0.0953  0.2901 -0.3313
  765MPD2    N111304   1.782   4.022  15.892 -0.6426 -0.3666  0.1738
  765MPD2    H711305   1.762   4.031  15.793 -0.6150 -2.5333 -0.0310
  766MPD2     C11306   1.306   3.995  15.471  0.2695 -0.3200 -0.2669
  766MPD2    C111307   1.421   4.077  15.485  0.3315 -0.2830 -0.1529
  766MPD2    C211308   1.517   4.084  15.380 -0.7094  0.6265  0.3675
  766MPD2    C311309   1.499   4.014  15.261 -0.0972 -0.8264  0.2515
  766MPD2    C411310   1.387   3.939  15.252  0.5106 -1.0003 -0.3714
  766MPD2    C511311   1.288   3.934  15.345  0.3948  0.5384 -0.3122
  766MPD2     H11312   1.604   4.147  15.393  1.7512 -2.6619  0.0012
  766MPD2    H111313   1.355   3.895  15.158 -0.7176  0.2556 -0.5558
  766MPD2    H211314   1.225   3.987  15.543  0.1583 -0.2877 -0.3868
  766MPD2    H311315   1.199   3.873  15.333  0.9070 -0.3410  0.2714
  766MPD2     N11316   1.595   4.020  15.155  0.0914 -0.1111 -0.1621
  766MPD2    H511317   1.564   3.977  15.068 -0.0998  2.1943 -1.2198
  766MPD2    N111318   1.426   4.158  15.601  0.1666  0.9820 -0.2107
  766MPD2    H711319   1.355   4.139  15.671  0.9798 -2.1552 -0.2535
  767MPD2     C11320   1.343   4.360  15.250 -0.6330  0.3583 -0.8471
  767MPD2    C111321   1.452   4.387  15.170  0.3613  0.1298 -0.1568
  767MPD2    C211322   1.442   4.367  15.030 -0.1689  0.7629 -0.2264
  767MPD2    C311323   1.329   4.299  14.985  0.2467  0.3392  0.1772
  767MPD2    C411324   1.222   4.267  15.067  0.1740 -0.4134 -0.3305
  767MPD2    C511325   1.239   4.288  15.204 -0.2266 -0.1351 -0.3117
  767MPD2     H11326   1.528   4.390  14.969 -0.4867  2.6761  0.0438
  767MPD2    H111327   1.145   4.197  15.037 -0.5956 -0.8292  2.7202
  767MPD2    H211328   1.349   4.390  15.354 -0.6184  1.2893 -1.1164
  767MPD2    H311329   1.168   4.257  15.278 -1.0435 -2.2962 -2.0035
  767MPD2     N11330   1.327   4.260  14.852 -0.0674  0.0381  0.3791
  767MPD2    H511331   1.410   4.281  14.798  1.3033 -1.6438  1.8298
  767MPD2    N111332   1.564   4.439  15.238 -0.0855  0.3377  0.1150
  767MPD2    H711333   1.568   4.433  15.339 -0.3801 -3.0818 -0.1082
  768MPD2     C11334   2.550   2.841  10.790  0.2720 -0.4643 -0.1022
  768MPD2    C111335   2.465   2.778  10.876 -0.1887  0.7027 -0.2805
  768MPD2    C211336   2.521   2.729  10.997 -0.0323  0.3943  0.9645
  768MPD2    C311337   2.652   2.756  11.030 -0.0708  0.0230  0.0957
  768MPD2    C411338   2.733   2.833  10.949 -0.0878 -0.0721  0.2350
  768MPD2    C511339   2.676   2.875  10.823 -0.0354  0.5828 -0.0122
  768MPD2     H11340   2.454   2.672  11.060  0.2840 -1.3250 -0.2533
  768MPD2    H111341   2.834   2.855  10.984 -0.0741 -0.3498  0.3696
  768MPD2    H211342   2.523   2.887  10.695 -0.3980  1.0894  0.8434
  768MPD2    H311343   2.737   2.929  10.753  1.0585 -1.1184 -0.3643
  768MPD2     N11344   2.718   2.706  11.151  0.8520  0.0865 -0.0660
  768MPD2    H511345   2.812   2.739  11.170  1.2876  0.6731 -3.2277
  768MPD2    N111346   2.328   2.755  10.836 -0.8761 -0.2449 -0.0981
  768MPD2    H711347   2.267   2.704  10.900  0.1971 -1.2474  0.1247
  769MPD2     C11348   3.591   0.604  14.882 -0.1941 -0.1571  0.2667
  769MPD2    C111349   3.469   0.642  14.938 -0.6211 -1.0757  0.6606
  769MPD2    C211350   3.461   0.759  15.010  0.3593 -0.3390 -0.3538
  769MPD2    C311351   3.578   0.830  15.045  0.3851  0.0590 -0.0393
  769MPD2    C411352   3.698   0.780  15.006  0.2144 -0.3244  0.2635
  769MPD2    C511353   3.707   0.677  14.920  0.1574 -0.3782  0.3663
  769MPD2     H11354   3.366   0.797  15.046  0.3726 -1.6644  1.1054
  769MPD2    H111355   3.789   0.834  15.027  0.7971 -0.1713 -2.6208
  769MPD2    H211356   3.592   0.523  14.809 -0.2608  1.7803 -1.8828
  769MPD2    H311357   3.808   0.660  14.886 -0.3532 -1.4127 -0.6431
  769MPD2     N11358   3.559   0.931  15.141  0.4511 -0.1277 -0.4444
  769MPD2    H511359   3.463   0.949  15.168 -0.1181 -0.8490 -1.9515
  769MPD2    N111360   3.358   0.561  14.898  0.5944 -0.0715  0.6838
  769MPD2    H711361   3.382   0.482  14.839 -1.0103 -0.4660  0.5575
  770MPD2     C11362   2.647   0.131  15.481 -0.4207 -0.1140  0.0673
  770MPD2    C111363   2.735   0.057  15.407  0.2503 -0.2323 -1.0023
  770MPD2    C211364   2.797   0.107  15.298 -0.2252 -0.5952 -0.0623
  770MPD2    C311365   2.770   0.231  15.261 -0.9807 -0.2114  0.1902
  770MPD2    C411366   2.690   0.310  15.339 -0.6014  0.0418  0.3660
  770MPD2    C511367   2.623   0.256  15.446  0.4812  0.2251  0.0010
  770MPD2     H11368   2.862   0.041  15.242  0.7462  1.4678 -1.3605
  770MPD2    H111369   2.679   0.417  15.324  0.3864  0.0543 -0.3239
  770MPD2    H211370   2.599   0.089  15.569 -1.3595  0.2986 -0.2496
  770MPD2    H311371   2.551   0.326  15.489  0.9296  0.7889 -0.1644
  770MPD2     N11372   2.845   0.280  15.148  0.0367  0.4697  0.8039
  770MPD2    H511373   2.904   0.218  15.094 -0.2410  1.1494 -0.2718
  770MPD2    N111374   2.755   4.648  15.447  0.8830  0.2531  0.1348
  770MPD2    H711375   2.686   4.611  15.512  0.7483  1.2180  0.5494
  771MPD2     C11376   3.996   3.550  14.275  0.5189  0.3096  0.4254
  771MPD2    C111377   3.967   3.660  14.195 -0.3184  0.2160  0.3561
  771MPD2    C211378   3.902   3.633  14.078  0.4098  0.5446  0.0555
  771MPD2    C311379   3.876   3.503  14.037  0.2777 -0.5136 -0.2441
  771MPD2    C411380   3.909   3.395  14.118  0.1187  1.0380  0.4441
  771MPD2    C511381   3.954   3.422  14.242  0.1435 -0.1370 -0.1066
  771MPD2     H11382   3.869   3.722  14.026 -0.6506  0.6595  0.9119
  771MPD2    H111383   3.899   3.292  14.085 -0.7759  1.3575 -0.2611
  771MPD2    H211384   4.037   3.571  14.373 -0.9910 -0.1138  1.1540
  771MPD2    H311385   3.959   3.336  14.308 -0.7647 -1.0354 -1.1960
  771MPD2     N11386   3.819   3.483  13.905 -0.4539 -0.7354 -0.8601
  771MPD2    H511387   3.781   3.562  13.854  0.3783 -1.2501 -2.2723
  771MPD2    N111388   4.016   3.789  14.213 -0.1763  0.0013  0.2971
  771MPD2    H711389   3.990   3.851  14.137  0.5758 -1.1810 -0.9474
  772MPD2     C11390   3.798   4.379  13.983 -0.0709  0.3820 -0.0632
  772MPD2    C111391   3.782   4.294  14.094  0.1781  0.3828 -0.1827
  772MPD2    C211392   3.657   4.275  14.154  0.3549  0.1823 -0.0492
  772MPD2    C311393   3.544   4.341  14.113 -0.7644 -0.2969 -0.3230
  772MPD2    C411394   3.557   4.427  14.012 -0.3123  0.0709  0.4067
  772MPD2    C511395   3.677   4.444  13.951 -0.1107  0.5943 -0.3688
  772MPD2     H11396   3.647   4.194  14.225  2.9242 -1.0492 -1.0663
  772MPD2    H111397   3.469   4.476  13.972 -2.0743 -0.9788  3.0346
  772MPD2    H211398   3.891   4.406  13.933  0.2136 -2.3398 -1.0123
  772MPD2    H311399   3.682   4.510  13.866 -2.2056  3.8191  2.0086
  772MPD2     N11400   3.417   4.323  14.184 -0.0550 -0.5649 -0.3412
  772MPD2    H511401   3.341   4.378  14.146 -1.5394 -1.1397  1.7727
  772MPD2    N111402   3.895   4.224  14.145  0.1562  0.4064  0.7182
  772MPD2    H711403   3.879   4.184  14.237  0.7493 -0.0141  0.6430
  773MPD2     C11404   2.935   0.635  17.672 -0.0241 -0.4212  0.8057
  773MPD2    C111405   2.868   0.522  17.707  0.1657 -0.9136  0.1914
  773MPD2    C211406   2.935   0.415   0.058  0.3325 -0.7798  0.1406
  773MPD2    C311407   3.067   0.428   0.089 -0.2580  0.0391 -0.5353
  773MPD2    C411408   3.134   0.542   0.050  0.2178  0.2689 -0.4097
  773MPD2    C511409   3.071   0.643  17.696  0.0899  0.4217 -0.2882
  773MPD2     H11410   2.880   0.325   0.081  0.3156 -1.1625 -1.3580
  773MPD2    H111411   3.235   0.566   0.082 -0.0751  1.7076 -0.5262
  773MPD2    H211412   2.901   0.723  17.618  0.6735  0.1459  1.3002
  773MPD2    H311413   3.130   0.734  17.686  0.1798  0.3879 -0.0778
  773MPD2     N11414   3.137   0.326   0.160 -0.4887 -0.1828 -0.1639
  773MPD2    H511415   3.076   0.251   0.189  0.9541 -1.5082 -0.5856
  773MPD2    N111416   2.737   0.503  17.665 -0.1421 -0.3170 -0.2427
  773MPD2    H711417   2.697   0.416  17.698 -2.8168  0.8740 -0.3008
  774MPD2     C11418   1.913   3.626  13.682 -0.1326  0.0838  0.1335
  774MPD2    C111419   1.969   3.754  13.678 -0.0484  0.4683  0.1675
  774MPD2    C211420   2.043   3.791  13.569  0.2034 -0.2499  0.0841
  774MPD2    C311421   2.077   3.705  13.469  0.5378  0.3459  0.9134
  774MPD2    C411422   2.012   3.580  13.464  0.4206 -0.5728  0.5865
  774MPD2    C511423   1.929   3.542  13.572  0.2458  1.1667  0.1018
  774MPD2     H11424   2.087   3.890  13.568  1.4548 -0.8289 -1.1925
  774MPD2    H111425   2.018   3.521  13.373  1.8734 -0.9757  0.9447
  774MPD2    H211426   1.852   3.598  13.767  0.3281  0.5562  0.6257
  774MPD2    H311427   1.881   3.445  13.575  1.6944  0.4976  1.5249
  774MPD2     N11428   2.177   3.750  13.382  0.5077  0.5609 -0.5537
  774MPD2    H511429   2.200   3.849  13.383  0.8558  0.5010 -2.1121
  774MPD2    N111430   1.943   3.835  13.785  0.2098  0.2701  0.6944
  774MPD2    H711431   1.878   3.806  13.858  0.0446  0.9489  0.8132
  775MPD2     C11432   3.581   0.747  15.609 -0.4020 -0.5791  0.5147
  775MPD2    C111433   3.609   0.844  15.705  0.6474 -0.7532 -0.4626
  775MPD2    C211434   3.724   0.917  15.698  0.0907 -0.0564 -0.0736
  775MPD2    C311435   3.805   0.900  15.593  0.4316  0.0967 -0.1168
  775MPD2    C411436   3.770   0.808  15.495 -0.1117 -0.4070 -0.4467
  775MPD2    C511437   3.661   0.730  15.504 -0.1200 -0.6028  0.5674
  775MPD2     H11438   3.763   0.993  15.765  1.9936 -0.8756 -0.2658
  775MPD2    H111439   3.828   0.795  15.404  0.1776  2.2386 -0.6235
  775MPD2    H211440   3.487   0.691  15.611 -1.9258  1.9359 -0.9500
  775MPD2    H311441   3.629   0.661  15.427 -0.6874 -0.0427  0.2965
  775MPD2     N11442   3.925   0.975  15.568  0.6604  0.4581 -0.3289
  775MPD2    H511443   3.956   0.978  15.471 -0.0075 -1.6574 -0.5935
  775MPD2    N111444   3.506   0.862  15.803  0.3302 -0.0914  0.3384
  775MPD2    H711445   3.425   0.803  15.807 -0.3976  0.8250 -0.6578
  776MPD2     C11446   2.633   1.268  11.779  0.2520 -0.3219  0.8271
  776MPD2    C111447   2.697   1.285  11.652 -0.2253 -0.1497 -0.1032
  776MPD2    C211448   2.765   1.404  11.634 -0.6648  0.2923 -0.2569
  776MPD2    C311449   2.761   1.507  11.734 -0.1506  0.0966  0.7746
  776MPD2    C411450   2.687   1.489  11.848 -0.3786  0.3054 -0.3706
  776MPD2    C511451   2.635   1.365  11.878 -0.5816  0.1721  0.3401
  776MPD2     H11452   2.820   1.431  11.545  1.5943  0.6266  1.2333
  776MPD2    H111453   2.682   1.566  11.924 -0.2157  1.5556 -1.6140
  776MPD2    H211454   2.574   1.181  11.809 -1.7179  0.4763 -0.6597
  776MPD2    H311455   2.580   1.333  11.966  0.3914 -0.6237  0.6585
  776MPD2     N11456   2.842   1.621  11.714 -0.0420  0.6957  0.3180
  776MPD2    H511457   2.840   1.678  11.798 -0.1994  0.3552  0.5464
  776MPD2    N111458   2.676   1.183  11.553  0.1442 -0.1905  0.1967
  776MPD2    H711459   2.619   1.102  11.576  0.2354 -0.8396 -1.8630
  777MPD2     C11460   2.488   3.625   0.582  0.0397 -0.2114  0.6310
  777MPD2    C111461   2.493   3.515   0.664 -0.3678 -0.1015  0.4414
  777MPD2    C211462   2.507   3.389   0.611 -0.3499 -0.2914 -0.0987
  777MPD2    C311463   2.506   3.372   0.473 -0.4003  0.5965  0.4896
  777MPD2    C411464   2.508   3.485   0.393 -0.2783 -0.5721  0.1661
  777MPD2    C511465   2.491   3.613   0.444  0.7717  0.0067 -0.1172
  777MPD2     H11466   2.527   3.304   0.676  1.5219 -1.0236 -1.6346
  777MPD2    H111467   2.507   3.468   0.286  0.3335  1.1895 -0.1211
  777MPD2    H211468   2.491   3.728   0.616  0.6509 -0.2385  0.6632
  777MPD2    H311469   2.513   3.695   0.376 -1.9823  1.1380  0.3753
  777MPD2     N11470   2.505   3.240   0.427 -0.8411  0.3701 -0.3382
  777MPD2    H511471   2.481   3.169   0.496 -0.5042  0.2282 -0.3672
  777MPD2    N111472   2.497   3.541   0.804  0.3044 -0.2105 -0.0493
  777MPD2    H711473   2.499   3.641   0.819 -1.4463  0.0395 -1.5293
  778MPD2     C11474   3.988   3.728  15.573 -1.1307 -0.6456  0.0801
  778MPD2    C111475   4.049   3.620  15.512 -0.7939  0.6071  0.2648
  778MPD2    C211476   4.122   3.644  15.402 -0.1677  0.0982 -0.3735
  778MPD2    C311477   4.147   3.771  15.358 -0.3506  0.1272  0.2703
  778MPD2    C411478   4.077   3.872  15.421  0.6794  0.0367  0.0029
  778MPD2    C511479   4.005   3.850  15.530 -0.2847  0.0737  0.2148
  778MPD2     H11480   4.172   3.562  15.352  2.1801  1.5340 -0.3769
  778MPD2    H111481   4.080   3.976  15.394  1.1722  0.4672  1.6884
  778MPD2    H211482   3.918   3.714  15.655 -0.0483  1.1460  1.2969
  778MPD2    H311483   3.953   3.933  15.576  1.6100  1.0313  0.6354
  778MPD2     N11484   4.242   3.786  15.253 -0.2651 -0.2279  0.1000
  778MPD2    H511485   4.274   3.708  15.195 -0.0969 -1.1231  1.3882
  778MPD2    N111486   4.028   3.484  15.543 -0.1339 -0.4948  0.2065
  778MPD2    H711487   4.066   3.421  15.473  1.6327 -1.2571  1.8445
  779MPD2     C11488   3.480   2.206  14.537 -0.6719  0.4820 -0.0410
  779MPD2    C111489   3.618   2.226  14.561 -0.5282  0.7669 -0.1567
  779MPD2    C211490   3.652   2.350  14.614  0.1406  0.4510 -0.6633
  779MPD2    C311491   3.564   2.459  14.622 -0.3412 -0.3769 -0.4076
  779MPD2    C411492   3.431   2.434  14.587  0.9522  0.1513  0.0762
  779MPD2    C511493   3.390   2.307  14.556  0.1933 -0.0492 -0.6121
  779MPD2     H11494   3.758   2.360  14.633  0.0882  0.0447 -0.1616
  779MPD2    H111495   3.363   2.518  14.577  0.9711  0.2209  0.5527
  779MPD2    H211496   3.443   2.107  14.513  1.2686 -0.4311  0.7043
  779MPD2    H311497   3.286   2.297  14.530  0.0069  0.0136  0.1330
  779MPD2     N11498   3.617   2.588  14.659 -0.7928  0.1945 -0.2604
  779MPD2    H511499   3.716   2.582  14.683 -0.4948  1.4195 -1.2291
  779MPD2    N111500   3.715   2.123  14.544 -0.2847 -0.7338  0.0817
  779MPD2    H711501   3.815   2.139  14.559  0.1949 -2.1534 -1.6551
  780MPD2     C11502   2.753   2.573   0.923  0.2687  0.1857 -0.1825
  780MPD2    C111503   2.755   2.504   0.802 -0.6860 -0.4115  0.3340
  780MPD2    C211504   2.849   2.546   0.707 -0.4002  0.0350  0.1626
  780MPD2    C311505   2.937   2.649   0.726 -0.4729  0.9953 -0.0275
  780MPD2    C411506   2.934   2.720   0.840 -0.6216 -0.4262  0.1616
  780MPD2    C511507   2.843   2.674   0.935 -0.1612  0.8042 -0.0418
  780MPD2     H11508   2.846   2.502   0.608  0.2086 -1.0207  0.6148
  780MPD2    H111509   2.994   2.807   0.860 -4.1161  1.3354  2.9342
  780MPD2    H211510   2.699   2.542   1.011 -0.4589 -1.9404 -1.3678
  780MPD2    H311511   2.845   2.725   1.030  0.3116 -0.9683  0.9092
  780MPD2     N11512   3.023   2.690   0.620  0.1526 -0.0496  0.0795
  780MPD2    H511513   3.011   2.653   0.527  1.4595 -2.2895  0.8074
  780MPD2    N111514   2.665   2.396   0.787  0.4399 -0.0519  0.4900
  780MPD2    H711515   2.598   2.376   0.861 -1.5116  3.9049 -0.1793
  781MPD2     C11516   4.708   3.966  12.657 -0.4899  0.6337  0.1779
  781MPD2    C111517   0.086   4.028  12.721  0.1658  0.4608 -0.0331
  781MPD2    C211518   0.188   4.076  12.644  0.0502  0.4325 -0.3603
  781MPD2    C311519   0.190   4.063  12.508  0.5518 -0.2237 -0.0116
  781MPD2    C411520   0.085   4.005  12.445 -0.0340 -0.5635 -0.2251
  781MPD2    C511521   4.710   3.953  12.521 -0.1561  0.2065  0.7462
  781MPD2     H11522   0.267   4.127  12.698  0.2761 -3.0320  2.6328
  781MPD2    H111523   0.080   3.988  12.338 -1.8483  1.7024 -0.5033
  781MPD2    H211524   4.622   3.925  12.708 -0.5376 -1.4427 -1.6084
  781MPD2    H311525   4.638   3.894  12.466  3.5329 -2.6069 -1.0493
  781MPD2     N11526   0.305   4.113  12.436  0.3787 -0.2433 -0.1015
  781MPD2    H511527   0.298   4.102  12.335  0.6635  0.3075 -0.1859
  781MPD2    N111528   0.093   4.049  12.865 -0.4704  0.7495 -0.3070
  781MPD2    H711529   0.174   4.096  12.904  0.3856 -0.2054 -0.9301
  782MPD2     C11530   4.006   0.189   9.989 -0.4857 -0.6287  0.5629
  782MPD2    C111531   4.063   0.172  10.109  0.1580  0.0305 -0.5023
  782MPD2    C211532   4.074   0.279  10.194 -0.1377 -0.5818  0.3074
  782MPD2    C311533   4.042   0.405  10.158 -0.5068  0.2874 -0.1048
  782MPD2    C411534   4.008   0.423  10.022  0.3461 -0.2070  0.8036
  782MPD2    C511535   3.969   0.316   9.949  1.0780  0.0816 -0.3176
  782MPD2     H11536   4.097   0.258  10.298  0.0590 -0.3605  0.3105
  782MPD2    H111537   3.994   0.519   9.973  1.3316 -1.0163 -1.1003
  782MPD2    H211538   3.995   0.111   9.915 -1.2350 -1.0840  1.1491
  782MPD2    H311539   3.944   0.324   9.844 -1.2387  1.6503  0.3743
  782MPD2     N11540   4.049   0.507  10.255 -0.1405  0.0269 -0.2766
  782MPD2    H511541   4.074   0.466  10.345 -1.4601 -0.5271 -0.1641
  782MPD2    N111542   4.099   0.041  10.146 -0.4855 -0.0222 -0.8223
  782MPD2    H711543   4.066   4.692  10.088  0.2378  0.6458 -2.1063
  783MPD2     C11544   3.305   4.519  10.535  0.8697  0.1103 -0.4360
  783MPD2    C111545   3.380   4.589  10.635  0.0621  0.1714  0.3590
  783MPD2    C211546   3.513   4.614  10.613 -0.1192  0.3682 -0.4783
  783MPD2    C311547   3.579   4.538  10.512 -0.0758 -0.0979  0.5632
  783MPD2    C411548   3.504   4.465  10.417 -0.6312  0.8043  0.4354
  783MPD2    C511549   3.368   4.453  10.436  0.1723 -0.2102 -0.0179
  783MPD2     H11550   3.577   4.683  10.667  1.0717 -0.0542 -1.3528
  783MPD2    H111551   3.551   4.407  10.339  0.3941  0.6401  1.1817
  783MPD2    H211552   3.198   4.503  10.543  0.9818 -0.8324 -0.8489
  783MPD2    H311553   3.314   4.389  10.367 -0.5576 -1.1091  1.3682
  783MPD2     N11554   3.722   4.551  10.501 -0.1444  0.6727 -0.1264
  783MPD2    H511555   3.767   4.598  10.578 -0.7021  1.5023 -0.2994
  783MPD2    N111556   3.308   4.647  10.735  0.0170  0.2305  0.3343
  783MPD2    H711557   3.207   4.653  10.727  0.1331  0.1566 -1.1375
  784MPD2     C11558   0.528   0.621   1.641  0.0752 -0.1537  0.1461
  784MPD2    C111559   0.602   0.739   1.656 -0.6033 -0.2516 -0.0866
  784MPD2    C211560   0.561   0.856   1.584  0.5541 -0.3663  0.1400
  784MPD2    C311561   0.451   0.853   1.505  0.3179 -0.4720 -0.4823
  784MPD2    C411562   0.371   0.744   1.504 -0.8409 -0.3756 -0.0935
  784MPD2    C511563   0.411   0.630   1.569  0.1387 -0.1547  0.0748
  784MPD2     H11564   0.617   0.948   1.598 -0.3326  0.0712  0.7860
  784MPD2    H111565   0.287   0.739   1.436  0.2412  1.2002 -1.5484
  784MPD2    H211566   0.552   0.527   1.689  1.5006 -0.9532 -2.1110
  784MPD2    H311567   0.350   0.541   1.566 -1.2982  0.9869 -3.6647
  784MPD2     N11568   0.429   0.968   1.421 -0.4801  0.0208  0.0493
  784MPD2    H511569   0.495   1.044   1.436 -0.0763 -0.5141  0.9028
  784MPD2    N111570   0.718   0.741   1.736 -0.2773  0.6488 -0.7696
  784MPD2    H711571   0.768   0.830   1.743  0.8812 -0.0536 -0.1903
  785MPD2     C11572   1.274   3.933  11.545 -0.0517 -0.4957 -0.2086
  785MPD2    C111573   1.153   3.989  11.519  0.4966  0.5059  0.0861
  785MPD2    C211574   1.039   3.908  11.517 -0.0565  0.0793 -0.2970
  785MPD2    C311575   1.051   3.773  11.522  0.5335 -0.2222 -0.5672
  785MPD2    C411576   1.173   3.715  11.542 -0.2662 -0.4028 -0.2601
  785MPD2    C511577   1.283   3.799  11.558 -0.1008  0.2774 -0.5599
  785MPD2     H11578   0.940   3.952  11.520 -0.9384 -1.8151 -2.2816
  785MPD2    H111579   1.182   3.608  11.556  3.1995 -0.5273 -3.3012
  785MPD2    H211580   1.365   3.986  11.569 -0.4911  0.0564  0.2336
  785MPD2    H311581   1.382   3.759  11.576 -0.6842 -0.4166  1.0998
  785MPD2     N11582   0.937   3.692  11.494  0.2674 -0.0858 -0.5982
  785MPD2    H511583   0.854   3.751  11.489  0.2567 -0.0999 -0.5871
  785MPD2    N111584   1.141   4.128  11.496 -0.9093 -0.5254 -0.0279
  785MPD2    H711585   1.050   4.161  11.464  0.0020  2.4185  0.4376
  786MPD2     C11586   0.061   2.079  14.569  0.0265  0.5437 -0.4390
  786MPD2    C111587   0.005   1.972  14.654 -0.2952 -0.4524  0.0168
  786MPD2    C211588   0.020   1.986  14.793  0.5433 -0.4023  0.4858
  786MPD2    C311589   0.089   2.099  14.850  1.1334 -0.1316 -0.1400
  786MPD2    C411590   0.149   2.191  14.763  0.1102  0.7509  0.1522
  786MPD2    C511591   0.134   2.183  14.625 -0.1603 -0.2490  0.2138
  786MPD2     H11592   4.705   1.908  14.856 -1.7255  0.6380  0.2564
  786MPD2    H111593   0.198   2.279  14.802  0.6702  1.3187 -1.8427
  786MPD2    H211594   0.047   2.067  14.462 -2.5347 -0.8657  0.0483
  786MPD2    H311595   0.177   2.252  14.553 -0.5821 -0.1107  0.0959
  786MPD2     N11596   0.107   2.113  14.985  0.1985 -0.1640  0.0400
  786MPD2    H511597   0.171   2.183  15.020 -0.3785 -0.2723  1.3106
  786MPD2    N111598   4.671   1.858  14.597  0.3507  0.0294  0.4652
  786MPD2    H711599   4.663   1.781  14.663 -1.4911  0.3343  0.5832
  787MPD2     C11600   0.044   1.347  14.925  0.2867  1.3710  0.4409
  787MPD2    C111601   0.053   1.305  14.790 -0.0184  0.5649  0.4689
  787MPD2    C211602   0.122   1.190  14.766  0.4754  0.7717 -0.5212
  787MPD2    C311603   0.180   1.119  14.871 -0.3071  0.0996  0.3701
  787MPD2    C411604   0.168   1.167  15.001  0.5038  0.2485  0.1477
  787MPD2    C511605   0.103   1.283  15.033  0.7843  0.3990  0.4805
  787MPD2     H11606   0.143   1.157  14.665 -0.7665  1.7740 -1.1000
  787MPD2    H111607   0.205   1.108  15.084  1.6179  1.4915  0.5334
  787MPD2    H211608   4.710   1.433  14.948  0.0677  0.4464  3.2920
  787MPD2    H311609   0.082   1.324  15.131 -1.2369 -0.2115  0.2956
  787MPD2     N11610   0.241   0.996  14.838  0.6790 -0.2208 -0.4336
  787MPD2    H511611   0.257   0.972  14.740  0.7737  0.6024 -0.6214
  787MPD2    N111612   0.004   1.388  14.685  0.3183 -0.5028  0.4717
  787MPD2    H711613   4.701   1.482  14.710  1.3083  0.1343 -0.7029
  788MPD2     C11614   2.147   0.222   0.432  0.5545  0.2585 -0.8561
  788MPD2    C111615   2.034   0.149   0.476  0.7474 -0.3271  0.1435
  788MPD2    C211616   1.914   0.213   0.488  0.6327  0.3273 -0.4819
  788MPD2    C311617   1.901   0.346   0.468 -0.6052  0.2230 -0.4406
  788MPD2    C411618   2.007   0.419   0.435 -0.4289  0.4919  0.0566
  788MPD2    C511619   2.132   0.357   0.418  0.4217 -0.5393  0.3834
  788MPD2     H11620   1.830   0.155   0.524 -0.6643  0.1184 -3.8889
  788MPD2    H111621   2.003   0.525   0.410 -0.9007  0.6248  0.6820
  788MPD2    H211622   2.245   0.175   0.426  0.5560 -0.1219  1.9277
  788MPD2    H311623   2.213   0.422   0.387 -0.6714  0.6505  0.0339
  788MPD2     N11624   1.779   0.411   0.444 -0.2880 -0.2622  0.3348
  788MPD2    H511625   1.776   0.508   0.417  0.1994 -0.2692  0.2539
  788MPD2    N111626   2.034   0.013   0.515  0.0521 -0.0568  0.0226
  788MPD2    H711627   1.970   4.697   0.582  0.1938 -1.6511 -0.8756
  789MPD2     C11628   1.826   4.636  16.345 -0.1470 -0.2599 -0.1239
  789MPD2    C111629   1.775   4.532  16.419  0.3416  0.6676  0.2352
  789MPD2    C211630   1.702   4.552  16.531  0.1480  0.3820  0.0054
  789MPD2    C311631   1.667   4.676  16.574  0.4754  0.3854 -0.9900
  789MPD2    C411632   1.705   0.056  16.500 -0.6604  0.4131 -0.6246
  789MPD2    C511633   1.790   0.037  16.390  0.1651  0.1089  0.5342
  789MPD2     H11634   1.698   4.464  16.594 -0.1866  0.9643  0.7958
  789MPD2    H111635   1.673   0.157  16.526 -0.5736  0.1159  0.6139
  789MPD2    H211636   1.892   4.627  16.259 -2.6301  1.9491 -2.2412
  789MPD2    H311637   1.823   0.118  16.327 -0.2764 -0.0538  0.0879
  789MPD2     N11638   1.575   4.684  16.677 -0.5612 -0.1306  0.8323
  789MPD2    H511639   1.523   4.599  16.697 -0.2072 -0.5195  0.0865
  789MPD2    N111640   1.821   4.396  16.396 -0.0373  0.3675  0.2141
  789MPD2    H711641   1.800   4.328  16.469 -1.0058  0.8048  0.3488
  790MPD2     C11642   2.822   1.476  13.708 -0.5927 -0.6299  1.0539
  790MPD2    C111643   2.900   1.373  13.644 -0.4254  0.5404  0.2614
  790MPD2    C211644   2.936   1.382  13.511 -0.4351  0.0174 -0.3697
  790MPD2    C311645   2.880   1.481  13.430 -0.5531 -0.0362  0.7408
  790MPD2    C411646   2.797   1.581  13.492 -0.2591 -0.6341 -0.0194
  790MPD2    C511647   2.765   1.578  13.628  0.1349  0.9066 -0.0726
  790MPD2     H11648   3.004   1.311  13.465 -0.3416  0.8265 -1.4995
  790MPD2    H111649   2.756   1.662  13.433 -0.4409 -1.4120 -0.9718
  790MPD2    H211650   2.806   1.479  13.815 -1.3517  1.9406  0.8582
  790MPD2    H311651   2.703   1.653  13.676 -0.0034  0.3359  0.6556
  790MPD2     N11652   2.905   1.483  13.292 -0.2118  0.4632 -0.2044
  790MPD2    H511653   2.970   1.419  13.248  0.0116 -0.6675  1.7790
  790MPD2    N111654   2.946   1.267  13.721 -0.6848 -0.1092  0.2848
  790MPD2    H711655   2.910   1.263  13.816  1.5103  0.7564  1.1416
  791MPD2     C11656   2.285   1.631  12.801  0.5597 -0.2473 -0.2875
  791MPD2    C111657   2.354   1.515  12.816  0.0365  0.2841  0.1433
  791MPD2    C211658   2.285   1.392  12.804  0.3814 -0.3646  0.1040
  791MPD2    C311659   2.153   1.398  12.763  0.9573 -0.2225 -0.0685
  791MPD2    C411660   2.082   1.519  12.753 -0.3565  1.0906  0.0611
  791MPD2    C511661   2.149   1.636  12.776 -0.4193  0.0488 -0.1209
  791MPD2     H11662   2.334   1.297  12.819  0.7272  0.0286  1.4826
  791MPD2    H111663   1.975   1.512  12.734 -0.4446 -2.3679  1.8150
  791MPD2    H211664   2.349   1.718  12.806  1.2897 -0.7478 -0.9784
  791MPD2    H311665   2.100   1.733  12.773 -1.9948 -0.7616 -0.7967
  791MPD2     N11666   2.092   1.269  12.733 -0.2780 -0.4136 -0.0734
  791MPD2    H511667   2.135   1.181  12.756 -0.5909 -0.4126  0.5055
  791MPD2    N111668   2.495   1.520  12.835 -0.3060  0.2997  0.1408
  791MPD2    H711669   2.529   1.613  12.859 -1.1784  0.6719 -0.0735
  792MPD2     C11670   3.531   1.148  11.450 -0.8921  0.0096  0.0580
  792MPD2    C111671   3.417   1.198  11.386 -0.6979 -0.2430 -0.1577
  792MPD2    C211672   3.365   1.138  11.272 -0.5602 -0.8780  0.2746
  792MPD2    C311673   3.430   1.024  11.221 -0.3146  0.4560 -0.0802
  792MPD2    C411674   3.545   0.975  11.278  0.0164 -0.2924 -0.3967
  792MPD2    C511675   3.600   1.041  11.386 -0.3564  0.6912  0.4079
  792MPD2     H11676   3.278   1.173  11.217  0.3810  2.4113  0.9000
  792MPD2    H111677   3.590   0.879  11.254  0.3826  0.4556 -2.7046
  792MPD2    H211678   3.567   1.187  11.544  2.4832 -0.8757 -0.8511
  792MPD2    H311679   3.683   1.000  11.443 -0.6478  0.3092  0.5560
  792MPD2     N11680   3.388   0.949  11.111  0.3916 -0.7776  0.9261
  792MPD2    H511681   3.447   0.874  11.076 -1.0546 -0.7202 -1.6356
  792MPD2    N111682   3.346   1.301  11.455  0.9719 -0.4166  0.5574
  792MPD2    H711683   3.394   1.345  11.533 -0.1770 -1.9288  2.1271
  793MPD2     C11684   2.603   0.801  10.370  0.1099 -0.2077 -0.2169
  793MPD2    C111685   2.713   0.854  10.320  0.0367  0.2847 -0.2831
  793MPD2    C211686   2.822   0.856  10.392 -0.4008  0.0895 -0.0923
  793MPD2    C311687   2.828   0.789  10.515 -0.8074  0.1604  0.3253
  793MPD2    C411688   2.714   0.739  10.575 -0.4000 -0.5406  0.2864
  793MPD2    C511689   2.600   0.745  10.496  0.4808  0.0925 -0.3265
  793MPD2     H11690   2.909   0.910  10.356 -1.0043  0.2322 -1.3325
  793MPD2    H111691   2.711   0.706  10.678  0.4159  1.8240  1.0561
  793MPD2    H211692   2.509   0.791  10.315  0.2131 -1.7504 -0.1175
  793MPD2    H311693   2.503   0.719  10.537  0.4785  1.2013  0.3838
  793MPD2     N11694   2.947   0.816  10.585  0.6009 -0.0362  0.0298
  793MPD2    H511695   3.020   0.865  10.532  0.1314  1.6649  0.9417
  793MPD2    N111696   2.725   0.928  10.204  0.0647 -0.0998 -0.0831
  793MPD2    H711697   2.813   0.974  10.186 -0.9862  1.0983 -2.1314
  794MPD2     C11698   2.121   0.933  17.263  0.1350 -0.2486 -0.3059
  794MPD2    C111699   2.181   0.818  17.221  0.5747 -0.0554 -0.8956
  794MPD2    C211700   2.164   0.770  17.091 -0.2970 -0.4391 -0.6649
  794MPD2    C311701   2.093   0.848  17.001 -0.0211 -0.6926  0.7983
  794MPD2    C411702   2.036   0.969  17.038 -0.6150 -0.3600  0.1706
  794MPD2    C511703   2.051   1.006  17.169 -0.4064  0.6918  0.3670
  794MPD2     H11704   2.222   0.684  17.058  2.5909  1.4581 -0.5848
  794MPD2    H111705   1.988   1.035  16.966 -0.1152  0.8677  0.9609
  794MPD2    H211706   2.124   0.971  17.364 -1.4519  0.7874 -0.6395
  794MPD2    H311707   2.003   1.092  17.215  0.0838  0.7305  0.8091
  794MPD2     N11708   2.086   0.819  16.864 -0.0575  0.3093  0.0580
  794MPD2    H511709   2.016   0.867  16.808 -0.6546  0.6572  1.1017
  794MPD2    N111710   2.252   0.734  17.312  0.5304 -0.0616 -0.4001
  794MPD2    H711711   2.278   0.649  17.261  1.6678  2.1978 -3.6108
  795MPD2     C11712   0.472   2.785  13.017  0.2093 -0.0459 -0.4423
  795MPD2    C111713   0.443   2.710  13.127 -0.0596  0.1912  0.8239
  795MPD2    C211714   0.540   2.638  13.190 -0.1136  0.0437  0.7948
  795MPD2    C311715   0.674   2.653  13.155  0.0703 -0.3815  0.0007
  795MPD2    C411716   0.710   2.734  13.052 -0.7666  0.8023  0.5107
  795MPD2    C511717   0.609   2.801  12.979  0.1442  0.0030  0.5468
  795MPD2     H11718   0.517   2.592  13.286 -2.4205  1.0174  0.6924
  795MPD2    H111719   0.815   2.739  13.023 -0.6467 -0.9275  0.6464
  795MPD2    H211720   0.394   2.838  12.964  1.2764  0.4351 -1.5107
  795MPD2    H311721   0.627   2.860  12.890  0.1613 -0.6846  0.0978
  795MPD2     N11722   0.766   2.569  13.222 -0.0504  0.4557  0.5524
  795MPD2    H511723   0.729   2.511  13.296 -0.4308  3.0599  2.4027
  795MPD2    N111724   0.313   2.692  13.165 -0.2415  0.0018  0.2539
  795MPD2    H711725   0.298   2.614  13.228  0.2845 -0.0390  0.3229
  796MPD2     C11726   4.398   4.153  16.341  0.2326  0.6371 -0.2080
  796MPD2    C111727   4.531   4.186  16.366 -0.5806 -0.1699 -0.1940
  796MPD2    C211728   4.574   4.314  16.318 -0.1634  0.8893  0.1835
  796MPD2    C311729   4.484   4.397  16.256  0.0905  0.4218 -0.9653
  796MPD2    C411730   4.356   4.360  16.235  0.5077 -0.8629 -0.1842
  796MPD2    C511731   4.311   4.235  16.277  0.4118  0.0737 -0.0206
  796MPD2     H11732   4.680   4.338  16.322 -0.2191  1.3917 -1.3956
  796MPD2    H111733   4.285   4.425  16.185 -0.4413  0.3369  2.7170
  796MPD2    H211734   4.352   4.066  16.387 -2.0354  1.4628 -0.9167
  796MPD2    H311735   4.208   4.203  16.270  0.2475  0.2948  1.2740
  796MPD2     N11736   4.535   4.518  16.208 -0.5339  0.0997 -0.3737
  796MPD2    H511737   4.633   4.539  16.221 -0.2048 -1.8727  0.2337
  796MPD2    N111738   4.616   4.093  16.437  0.5946  0.1910  0.1009
  796MPD2    H711739   4.574   4.007  16.471  0.4826 -0.1424 -0.8886
  797MPD2     C11740   0.079   3.748   0.495 -0.5858 -0.2757  0.4308
  797MPD2    C111741   0.216   3.748   0.482 -0.5426  0.8665  0.2803
  797MPD2    C211742   0.275   3.798   0.367 -0.0892 -0.5004 -0.1450
  797MPD2    C311743   0.201   3.861   0.269  0.4120  0.4475  0.5390
  797MPD2    C411744   0.061   3.852   0.280 -0.1863  0.3729 -0.0779
  797MPD2    C511745   0.009   3.801   0.393  0.2836 -0.7192  0.0874
  797MPD2     H11746   0.383   3.792   0.362 -0.1981 -1.7077 -0.8390
  797MPD2    H111747   4.727   3.889   0.198 -1.7168 -1.1090  0.4008
  797MPD2    H211748   0.018   3.712   0.577 -2.2781 -0.4891 -0.9275
  797MPD2    H311749   4.629   3.801   0.405  0.3268 -1.1392  0.4687
  797MPD2     N11750   0.275   3.928   0.166 -0.5963  0.1542 -0.3118
  797MPD2    H511751   0.376   3.921   0.159 -0.6620 -2.0712  1.0571
  797MPD2    N111752   0.308   3.716   0.585  0.1423  1.0036 -0.1648
  797MPD2    H711753   0.406   3.706   0.559 -0.4860  1.4822 -2.7269
  798MPD2     C11754   0.947   3.937   0.247  0.2506  0.2648 -0.1192
  798MPD2    C111755   0.815   3.962   0.262  0.1737 -0.5007 -0.3610
  798MPD2    C211756   0.756   3.916   0.378  0.5044  0.2644 -0.6631
  798MPD2    C311757   0.819   3.833   0.474  0.6096  0.1166 -0.2980
  798MPD2    C411758   0.947   3.796   0.443  0.0833 -0.3892  0.3783
  798MPD2    C511759   1.013   3.849   0.325  0.2622 -0.8803 -0.0069
  798MPD2     H11760   0.654   3.943   0.402 -0.2697 -3.6148  0.4224
  798MPD2    H111761   1.000   3.718   0.496  2.5294  2.1213  1.6904
  798MPD2    H211762   1.012   3.987   0.176  1.6633  0.8672  1.6010
  798MPD2    H311763   1.119   3.831   0.312  0.3597  0.3100 -0.7863
  798MPD2     N11764   0.734   3.782   0.575  0.5200 -0.4943  0.3083
  798MPD2    H511765   0.638   3.815   0.573  1.2864  1.8551  1.8312
  798MPD2    N111766   0.744   4.048   0.170  0.6119 -0.8205  0.0867
  798MPD2    H711767   0.795   4.072   0.085 -1.4854  1.5193 -0.5518
  799MPD2     C11768   4.695   0.682  14.790 -0.4951 -0.5175 -0.4177
  799MPD2    C111769   4.632   0.614  14.691 -0.8207 -1.5392  0.3930
  799MPD2    C211770   4.571   0.687  14.590  0.4422  0.2260  0.4177
  799MPD2    C311771   4.561   0.828  14.593  0.3675 -0.4382 -0.3157
  799MPD2    C411772   4.622   0.891  14.697 -0.4337 -0.3564  0.1578
  799MPD2    C511773   4.687   0.817  14.795  0.2826 -0.0101  0.4912
  799MPD2     H11774   4.525   0.626  14.514  2.2219 -0.6658  0.0624
  799MPD2    H111775   4.629   0.997  14.718 -0.3848 -0.1711 -0.7913
  799MPD2    H211776   0.003   0.633  14.880 -3.4035 -0.8566  0.5298
  799MPD2    H311777   0.022   0.855  14.874 -1.3442 -2.1515  2.8041
  799MPD2     N11778   4.501   0.898  14.487 -0.3084  0.5237  0.3191
  799MPD2    H511779   4.487   0.998  14.500  1.8296  0.9804 -0.8459
  799MPD2    N111780   4.619   0.479  14.680  0.1611 -0.8248  0.1080
  799MPD2    H711781   4.574   0.449  14.595 -1.5762 -0.5240  0.9279
  800MPD2     C11782   0.425   2.130  14.359 -0.2388 -0.1958 -0.2587
  800MPD2    C111783   0.521   2.035  14.340  0.0589 -0.2237  0.2156
  800MPD2    C211784   0.480   1.923  14.261 -0.1413 -0.5059  0.1388
  800MPD2    C311785   0.355   1.919  14.204  0.2195  0.0319 -0.4827
  800MPD2    C411786   0.255   2.009  14.241 -0.0805  0.4853 -0.0273
  800MPD2    C511787   0.299   2.110  14.315  0.8893 -0.2885 -0.8041
  800MPD2     H11788   0.559   1.854  14.231 -0.6147 -0.9779 -0.0319
  800MPD2    H111789   0.158   2.000  14.193  0.7295  0.2245 -1.6068
  800MPD2    H211790   0.443   2.223  14.412 -0.8081 -1.4812  2.1994
  800MPD2    H311791   0.234   2.196  14.321 -1.0550 -1.9440  1.8909
  800MPD2     N11792   0.332   1.816  14.109 -0.7364  0.2240 -0.6029
  800MPD2    H511793   0.412   1.762  14.077  0.6933  1.5227  0.7992
  800MPD2    N111794   0.652   2.059  14.398 -0.5783 -0.0464  0.6176
  800MPD2    H711795   0.660   2.148  14.445  0.5671 -0.0056  0.3357
  801MPD2     C11796   0.813   2.524  14.899  0.9308 -0.8029 -0.2108
  801MPD2    C111797   0.745   2.458  14.792 -0.4495 -0.0429  0.4278
  801MPD2    C211798   0.615   2.498  14.765 -0.5137 -0.0187  0.8366
  801MPD2    C311799   0.543   2.583  14.853 -0.1849 -0.5475  0.2179
  801MPD2    C411800   0.601   2.632  14.965 -0.3103 -0.1245 -0.0243
  801MPD2    C511801   0.735   2.608  14.982  0.3769  0.5956 -0.4695
  801MPD2     H11802   0.555   2.454  14.686  0.7223 -0.5375  0.1870
  801MPD2    H111803   0.552   2.689  15.043  1.1335 -1.0668  1.5654
  801MPD2    H211804   0.918   2.508  14.921  0.9731  0.8194  0.7480
  801MPD2    H311805   0.773   2.654  15.072 -2.1617  1.4045  0.1858
  801MPD2     N11806   0.408   2.615  14.842 -0.0232  0.0472 -0.4087
  801MPD2    H511807   0.372   2.654  14.929 -0.7946  0.9297 -1.1298
  801MPD2    N111808   0.812   2.379  14.694  0.2794 -0.0892 -0.1418
  801MPD2    H711809   0.753   2.345  14.618  0.3768  2.1073 -1.1787
  802MPD2     C11810   4.041   3.411   0.097  0.0648  0.2558 -0.2920
  802MPD2    C111811   4.044   3.365   0.227  0.2646  0.0967 -0.5259
  802MPD2    C211812   4.096   3.237   0.249 -0.0916 -0.6199 -0.4363
  802MPD2    C311813   4.102   3.146   0.152 -0.1858  0.6473  0.8039
  802MPD2    C411814   4.056   3.182   0.025 -0.3854 -0.3101  0.5582
  802MPD2    C511815   4.040   3.316  17.705 -0.1875 -0.1598 -0.1511
  802MPD2     H11816   4.126   3.207   0.349 -0.6380 -3.0686 -0.9983
  802MPD2    H111817   4.044   3.114  17.651 -0.0022  4.2575 -3.2092
  802MPD2    H211818   4.017   3.513   0.069  0.9899  1.0284  1.7136
  802MPD2    H311819   3.995   3.343  17.611  1.2783  1.9322 -0.2417
  802MPD2     N11820   4.158   3.024   0.182  0.4114  0.6301  0.0431
  802MPD2    H511821   4.210   3.021   0.270 -0.1188  1.3719  0.3858
  802MPD2    N111822   4.027   3.451   0.336 -0.0294 -0.6744 -0.3378
  802MPD2    H711823   4.036   3.409   0.429 -0.1884 -0.7016 -0.3347
  803MPD2     C11824   1.208   1.251  11.772  1.0003 -0.5404  0.0931
  803MPD2    C111825   1.174   1.355  11.859  0.2336  0.0741 -0.2782
  803MPD2    C211826   1.104   1.316  11.967 -0.4550 -0.1263 -0.3171
  803MPD2    C311827   1.072   1.186  12.000 -0.1352  0.4322 -0.2089
  803MPD2    C411828   1.116   1.081  11.916  0.3259 -0.2561 -0.4667
  803MPD2    C511829   1.176   1.117  11.800 -0.1519  0.1741  0.5583
  803MPD2     H11830   1.084   1.396  12.038  0.7806  0.5095 -0.7002
  803MPD2    H111831   1.094   0.977  11.940  0.9042 -0.4297 -0.6893
  803MPD2    H211832   1.272   1.274  11.687 -1.9847  2.4301 -1.3350
  803MPD2    H311833   1.208   1.039  11.731 -0.8703  1.1896 -0.9096
  803MPD2     N11834   0.999   1.158  12.117 -0.0491 -0.1889  0.2130
  803MPD2    H511835   0.984   1.061  12.143  0.3156  0.2610  2.0758
  803MPD2    N111836   1.198   1.489  11.835 -0.1967 -0.4728  0.2326
  803MPD2    H711837   1.166   1.543  11.915 -0.9101 -1.6466  0.7387
  804MPD2     C11838   0.565   2.500  17.009 -0.5022 -0.5196 -0.1416
  804MPD2    C111839   0.475   2.503  17.109 -0.0740 -0.5263  1.0380
  804MPD2    C211840   0.500   2.584  17.220 -0.3494 -0.8662 -0.1226
  804MPD2    C311841   0.612   2.665  17.225 -0.3361 -0.3377  0.6569
  804MPD2    C411842   0.711   2.656  17.127 -0.3662 -0.0906  0.3940
  804MPD2    C511843   0.676   2.582  17.018  0.2000 -0.5713 -0.0851
  804MPD2     H11844   0.435   2.585  17.307 -0.8346  1.5959 -0.5424
  804MPD2    H111845   0.806   2.709  17.133 -1.3433  1.5232  1.2952
  804MPD2    H211846   0.571   2.436  16.921 -2.4731 -0.6330 -0.1852
  804MPD2    H311847   0.750   2.581  16.939 -0.0630  0.3912 -0.3467
  804MPD2     N11848   0.639   2.733  17.352 -0.2742 -0.4461 -0.1737
  804MPD2    H511849   0.559   2.724  17.413 -1.4433 -0.9416 -1.7772
  804MPD2    N111850   0.369   2.413  17.131  0.3068 -0.6635 -0.0848
  804MPD2    H711851   0.325   2.421  17.222  0.0214 -0.8566 -0.2087
  805MPD2     C11852   4.470   0.974  15.535 -0.0057 -0.0118 -0.0792
  805MPD2    C111853   4.577   0.910  15.481 -0.0672 -0.5632 -0.1990
  805MPD2    C211854   4.684   0.875  15.556 -0.0254  0.6719  1.0312
  805MPD2    C311855   4.690   0.910  15.687  0.2951 -0.4761 -0.1027
  805MPD2    C411856   4.589   0.996  15.740  0.0380 -0.8579  0.3395
  805MPD2    C511857   4.480   1.019  15.665 -0.1472  0.0336  0.2695
  805MPD2     H11858   0.031   0.815  15.503 -0.4541 -0.0862  1.2875
  805MPD2    H111859   4.598   1.038  15.839  1.9698  2.5471 -1.2912
  805MPD2    H211860   4.372   0.986  15.492 -0.6908 -0.7747  1.2573
  805MPD2    H311861   4.394   1.075  15.702 -0.4429 -0.8516  0.9290
  805MPD2     N11862   0.081   0.863  15.752  0.0535 -0.0963  0.1367
  805MPD2    H511863   0.146   0.813  15.691 -0.1295  0.1499 -0.2633
  805MPD2    N111864   4.573   0.864  15.347 -0.2530 -0.2714  0.1294
  805MPD2    H711865   4.664   0.838  15.312  0.2594  1.9173 -0.1326
  806MPD2     C11866   4.678   0.069   0.513  0.2477 -0.1422 -0.1783
  806MPD2    C111867   0.029   0.043   0.623 -0.1822 -0.0252  0.9259
  806MPD2    C211868   0.161   0.054   0.602  0.5022 -0.3046 -0.6563
  806MPD2    C311869   0.224   0.072   0.480  0.1174 -0.2885  0.4864
  806MPD2    C411870   0.143   0.110   0.369  0.5418  0.5244  0.5156
  806MPD2    C511871   0.010   0.098   0.387  0.0601 -0.5331 -0.8675
  806MPD2     H11872   0.219   0.027   0.689  0.4666  0.5023 -0.3865
  806MPD2    H111873   0.173   0.146   0.271  1.2371 -0.4581  0.3689
  806MPD2    H211874   4.571   0.060   0.529  0.1953 -0.1754 -0.5570
  806MPD2    H311875   4.674   0.110   0.299 -1.0721  1.6183  0.2262
  806MPD2     N11876   0.362   0.075   0.487 -0.6229  0.0834 -0.4278
  806MPD2    H511877   0.416   0.065   0.572  0.3914 -0.3843 -1.1283
  806MPD2    N111878   4.688   0.010   0.749 -0.0133  0.3067 -0.2654
  806MPD2    H711879   4.587   0.005   0.746  0.0314  0.1075 -1.6186
  807MPD2     C11880   4.411   4.070   0.967 -0.0443  0.6383 -0.0061
  807MPD2    C111881   4.380   4.145   1.076 -0.3219  0.2319 -0.8714
  807MPD2    C211882   4.297   4.098   1.177  0.4955  0.1243 -0.2754
  807MPD2    C311883   4.244   3.970   1.164  0.2367 -0.2650 -0.4801
  807MPD2    C411884   4.283   3.894   1.058  0.8116  0.1521 -0.5612
  807MPD2    C511885   4.365   3.942   0.958  0.2364  0.2441  0.2627
  807MPD2     H11886   4.270   4.161   1.260  1.7349  1.7288 -1.1026
  807MPD2    H111887   4.244   3.795   1.037 -0.0254  0.0978  1.2523
  807MPD2    H211888   4.471   4.115   0.888 -0.6322  1.1970 -0.1360
  807MPD2    H311889   4.389   3.880   0.873  0.2256  0.8725 -0.1970
  807MPD2     N11890   4.134   3.934   1.244  0.4507 -0.6098  0.2095
  807MPD2    H511891   4.092   3.996   1.312 -0.3789 -0.6206 -0.2959
  807MPD2    N111892   4.425   4.274   1.092  0.2388  0.7198  0.0272
  807MPD2    H711893   4.396   4.314   1.180 -0.1689 -1.0791  0.7134
  808MPD2     C11894   0.688   1.895  10.572 -0.2224  0.2292  0.1421
  808MPD2    C111895   0.636   2.016  10.612 -0.0300 -0.4406 -0.0487
  808MPD2    C211896   0.681   2.132  10.544 -0.6279  0.3354  0.7514
  808MPD2    C311897   0.801   2.129  10.473  0.3103 -0.5880  0.3309
  808MPD2    C411898   0.859   2.007  10.454 -0.2803  0.3524 -0.1532
  808MPD2    C511899   0.805   1.894  10.504  0.6082  0.2525  0.8460
  808MPD2     H11900   0.624   2.223  10.555 -0.9044  0.0256  1.8914
  808MPD2    H111901   0.953   2.003  10.400  0.4159  0.9740  1.0225
  808MPD2    H211902   0.660   1.800  10.616  2.8092 -0.5087  0.4953
  808MPD2    H311903   0.852   1.797  10.504  1.0334  0.4599 -0.3087
  808MPD2     N11904   0.850   2.236  10.400  0.2064 -0.0876 -0.5541
  808MPD2    H511905   0.927   2.211  10.339  0.9448 -1.0770  0.7847
  808MPD2    N111906   0.522   2.006  10.692  0.1314  0.5491 -0.5511
  808MPD2    H711907   0.504   1.912  10.727  1.2860  0.4620 -0.1826
  809MPD2     C11908   1.162   1.839   9.904 -0.3066  0.2285  0.1654
  809MPD2    C111909   1.234   1.929   9.974 -0.3802  0.1576  0.4648
  809MPD2    C211910   1.183   2.055   9.987  1.0857  0.1513 -0.9527
  809MPD2    C311911   1.056   2.084   9.949 -0.1224 -0.3836 -0.4077
  809MPD2    C411912   0.981   1.988   9.892 -1.0008  0.5638 -0.0244
  809MPD2    C511913   1.037   1.868   9.862 -0.2197 -0.5058 -0.0033
  809MPD2     H11914   1.240   2.136  10.031  0.7507 -0.2640  0.2625
  809MPD2    H111915   0.879   2.001   9.858 -1.1442 -0.5711 -0.0173
  809MPD2    H211916   1.205   1.744   9.872  0.7339  1.0897 -1.0316
  809MPD2    H311917   0.973   1.793   9.817  0.5183 -0.9567 -0.3006
  809MPD2     N11918   0.987   2.208   9.986  0.3255  0.1301  0.0681
  809MPD2    H511919   0.887   2.203   9.970  0.6335 -1.1083 -1.5189
  809MPD2    N111920   1.357   1.892  10.041  0.4286  0.0640  0.0264
  809MPD2    H711921   1.405   1.967  10.089  0.0841  0.8514 -0.8671
  810MPD2     C11922   4.616   1.549  11.248  0.3543  0.0767  0.3432
  810MPD2    C111923   4.571   1.558  11.118 -0.3410 -0.3734 -0.5709
  810MPD2    C211924   4.591   1.675  11.048 -0.0338  0.3515  0.3366
  810MPD2    C311925   4.642   1.783  11.117  0.6142  0.8176 -0.0311
  810MPD2    C411926   4.684   1.772  11.245 -0.5301 -0.0644 -0.6302
  810MPD2    C511927   4.672   1.657  11.309  0.2028  0.0909 -0.7496
  810MPD2     H11928   4.578   1.681  10.940  1.4393 -0.7972  0.0873
  810MPD2    H111929   0.005   1.855  11.295 -1.7349 -0.5594  1.3270
  810MPD2    H211930   4.609   1.455  11.302 -0.1009  1.2017  2.2407
  810MPD2    H311931   4.709   1.660  11.411  3.0101 -0.4660 -1.7460
  810MPD2     N11932   4.662   1.907  11.057 -0.3822 -0.7174 -0.1362
  810MPD2    H511933   4.705   1.980  11.113 -0.6134 -1.8493  1.4963
  810MPD2    N111934   4.515   1.447  11.055  0.1590 -0.4552  0.5912
  810MPD2    H711935   4.484   1.381  11.125  1.0036 -1.7728 -0.2648
  811MPD2     C11936   4.233   1.169  10.316  0.5485  0.1699 -0.1795
  811MPD2    C111937   4.306   1.258  10.393 -0.0817  0.3695  0.6082
  811MPD2    C211938   4.385   1.348  10.323 -0.5385  0.1349 -0.0439
  811MPD2    C311939   4.373   1.369  10.184 -0.5694 -0.0733 -0.3025
  811MPD2    C411940   4.292   1.286  10.108  0.2308 -0.3351 -0.3312
  811MPD2    C511941   4.227   1.183  10.175 -0.2317 -0.0346  0.0568
  811MPD2     H11942   4.449   1.422  10.370  0.6317 -2.1296  1.9335
  811MPD2    H111943   4.268   1.316  10.007  0.4240 -0.3363 -0.3772
  811MPD2    H211944   4.172   1.087  10.353 -3.8133  2.4957 -2.1091
  811MPD2    H311945   4.153   1.122  10.125  2.5207 -2.5959 -0.8848
  811MPD2     N11946   4.444   1.479  10.126  0.5581  0.1901  0.0535
  811MPD2    H511947   4.486   1.546  10.191 -0.3170 -0.4755  1.3050
  811MPD2    N111948   4.322   1.240  10.535 -0.2172 -0.4255  0.1980
  811MPD2    H711949   4.387   1.309  10.571  0.9737 -0.7666 -1.2856
  812MPD2     C11950   3.958   1.469  12.390 -0.1672  0.0187 -0.0164
  812MPD2    C111951   3.841   1.466  12.470  0.6252 -0.0155 -0.0477
  812MPD2    C211952   3.790   1.342  12.505 -0.6861  0.4201 -0.3873
  812MPD2    C311953   3.861   1.228  12.480  0.0943  0.1339  0.0626
  812MPD2    C411954   3.978   1.230  12.407 -0.0910  0.1768 -0.6047
  812MPD2    C511955   4.027   1.352  12.361  0.4475  0.6142 -0.2101
  812MPD2     H11956   3.695   1.334  12.555 -0.9470 -2.2498 -1.3198
  812MPD2    H111957   4.034   1.143  12.377  1.3351  0.8344  0.1251
  812MPD2    H211958   3.999   1.565  12.360 -0.8308  0.9343  1.9873
  812MPD2    H311959   4.117   1.360  12.300  0.2480  0.6244 -0.5050
  812MPD2     N11960   3.794   1.114  12.525 -0.7223  0.3088 -0.4845
  812MPD2    H511961   3.693   1.114  12.540 -0.5238 -0.5585  0.8014
  812MPD2    N111962   3.775   1.586  12.497  0.3176 -0.6145  0.6410
  812MPD2    H711963   3.825   1.671  12.475  1.9392 -2.2581 -1.9800
  813MPD2     C11964   2.712   2.818  12.716  0.2135 -0.3018  0.0464
  813MPD2    C111965   2.754   2.949  12.744  0.5158  0.0497 -0.3036
  813MPD2    C211966   2.683   3.019  12.848 -0.7448 -0.5649 -0.5885
  813MPD2    C311967   2.578   2.962  12.918  0.4255 -0.1803  0.2137
  813MPD2    C411968   2.549   2.831  12.891 -0.7408  0.0123  0.6454
  813MPD2    C511969   2.615   2.761  12.793  0.2532  0.1312  0.8860
  813MPD2     H11970   2.705   3.122  12.870 -0.4145 -0.5701 -0.8930
  813MPD2    H111971   2.483   2.776  12.957 -1.2317 -1.4457 -1.0532
  813MPD2    H211972   2.757   2.752  12.643 -2.7897  0.0023 -2.0486
  813MPD2    H311973   2.583   2.658  12.783  0.5673  0.1156  0.0219
  813MPD2     N11974   2.535   3.033  13.033  0.1343  0.3894 -0.5485
  813MPD2    H511975   2.594   3.113  13.052 -1.5969  2.0159 -2.0204
  813MPD2    N111976   2.844   3.007  12.654  0.5286 -0.3365  0.2141
  813MPD2    H711977   2.844   2.955  12.568 -2.3871 -0.2876  0.1874
  814MPD2     C11978   3.220   4.629  12.393 -0.2868 -0.6355 -0.2683
  814MPD2    C111979   3.285   4.631  12.268  0.2036  0.8382  0.3282
  814MPD2    C211980   3.340   0.016  12.210 -0.0607  0.4393  1.2857
  814MPD2    C311981   3.325   0.137  12.274 -0.7031 -0.3390 -0.1669
  814MPD2    C411982   3.251   0.135  12.394 -0.6245  0.6159 -0.4452
  814MPD2    C511983   3.199   0.023  12.449 -0.3752  0.3240 -0.1412
  814MPD2     H11984   3.378   0.014  12.108  1.1906 -0.2934  1.7686
  814MPD2    H111985   3.247   0.227  12.451  0.1936  0.5062 -0.2094
  814MPD2    H211986   3.178   4.542  12.442  0.3607 -1.1929 -0.6876
  814MPD2    H311987   3.146   0.034  12.543  0.3124  0.7874  0.1920
  814MPD2     N11988   3.363   0.260  12.220 -0.3035  0.2132  0.4590
  814MPD2    H511989   3.355   0.342  12.279  1.5528  1.1510 -0.5772
  814MPD2    N111990   3.317   4.518  12.189  0.6493 -0.1179  0.2749
  814MPD2    H711991   3.352   4.541  12.097  1.1961  0.6405  0.6779
  815MPD2     C11992   3.474   3.018  12.242 -0.0522  0.2654 -0.3854
  815MPD2    C111993   3.477   2.890  12.210  0.7380 -0.2582  0.1265
  815MPD2    C211994   3.380   2.803  12.258 -0.1305  0.1694  0.1280
  815MPD2    C311995   3.292   2.838  12.366 -0.4204  0.1697  0.0041
  815MPD2    C411996   3.297   2.972  12.410 -0.0297 -0.0651 -0.5191
  815MPD2    C511997   3.395   3.055  12.351 -0.0123 -0.1860 -0.5130
  815MPD2     H11998   3.362   2.710  12.205  5.3276  0.0192 -1.5234
  815MPD2    H111999   3.227   3.018  12.479  0.3376  0.7959 -0.7207
  815MPD2    H212000   3.545   3.088  12.199 -0.7638  1.9474  1.1784
  815MPD2    H312001   3.403   3.152  12.398 -0.5083  0.5590 -1.9538
  815MPD2     N12002   3.191   2.749  12.411 -0.8680 -0.7704  0.1754
  815MPD2    H512003   3.178   2.653  12.378  1.2126 -1.4509  1.3628
  815MPD2    N112004   3.575   2.852  12.121  0.0507  0.1195  0.1799
  815MPD2    H712005   3.626   2.926  12.073  2.7847 -1.1496  1.1383
  816MPD2     C12006   4.424   1.855  17.486  0.2864 -0.2935 -0.0589
  816MPD2    C112007   4.322   1.880  17.409 -0.5002 -0.4219 -0.4124
  816MPD2    C212008   4.347   1.859  17.276 -0.0600 -0.0120 -0.2411
  816MPD2    C312009   4.463   1.801  17.223  0.2604  0.3290  0.6003
  816MPD2    C412010   4.561   1.769  17.314 -0.2184 -0.6842 -0.3079
  816MPD2    C512011   4.535   1.795  17.446  1.0048 -0.3984  0.0467
  816MPD2     H12012   4.276   1.880  17.196 -0.3506  0.2705  0.0944
  816MPD2    H112013   4.652   1.715  17.293  1.3839  1.9665 -0.1437
  816MPD2    H212014   4.420   1.878  17.593 -1.7518 -0.3921 -0.1057
  816MPD2    H312015   4.613   1.770  17.517 -0.4126  1.0369  2.1018
  816MPD2     N12016   4.466   1.781  17.085  0.4043 -0.6111  0.9571
  816MPD2    H512017   4.380   1.799  17.035 -0.1501  0.9317  2.4694
  816MPD2    N112018   4.195   1.927  17.460  0.0806 -0.1736  0.4481
  816MPD2    H712019   4.182   1.946  17.559 -1.4460  0.3680  0.1527
  817MPD2     C12020   3.255   3.415   9.819 -0.5571 -0.2121  0.3603
  817MPD2    C112021   3.167   3.309   9.792  0.1659 -0.0324 -1.4150
  817MPD2    C212022   3.048   3.335   9.733 -0.0151 -0.2572 -0.2301
  817MPD2    C312023   2.999   3.464   9.717  0.4447  0.3948  0.5702
  817MPD2    C412024   3.086   3.565   9.750 -0.1685 -0.0249 -0.1043
  817MPD2    C512025   3.212   3.540   9.795  0.4265  0.3418 -0.0346
  817MPD2     H12026   2.998   3.252   9.685 -1.5260  0.0652  0.7774
  817MPD2    H112027   3.062   3.669   9.734  1.6094  0.4497  0.3138
  817MPD2    H212028   3.357   3.403   9.856  0.5394  0.5819 -2.4224
  817MPD2    H312029   3.278   3.625   9.809 -0.7517  0.9419  1.8661
  817MPD2     N12030   2.875   3.478   9.657 -0.5303  0.0548 -0.1119
  817MPD2    H512031   2.825   3.394   9.630  0.2066 -1.0352  1.9028
  817MPD2    N112032   3.209   3.171   9.810 -0.0975  1.0977  0.0956
  817MPD2    H712033   3.164   3.107   9.746  1.3447  0.4044 -0.2266
  818MPD2     C12034   2.864   3.370  10.394 -0.0194  0.1511  0.0291
  818MPD2    C112035   2.729   3.351  10.399 -0.8092 -1.2738 -0.0243
  818MPD2    C212036   2.688   3.219  10.412  0.1025  0.3767  0.1168
  818MPD2    C312037   2.771   3.110  10.425  0.1769 -0.3183 -0.1728
  818MPD2    C412038   2.905   3.133  10.405  0.7274  0.1872 -0.6019
  818MPD2    C512039   2.950   3.262  10.392 -0.1043  0.0703  0.1085
  818MPD2     H12040   2.581   3.203  10.414  0.1642  0.1341  1.2405
  818MPD2    H112041   2.974   3.051  10.423  0.7220  0.2209 -0.4321
  818MPD2    H212042   2.894   3.475  10.395 -1.3641  0.5311 -0.4198
  818MPD2    H312043   3.056   3.282  10.391 -0.2663  0.9324 -0.2212
  818MPD2     N12044   2.720   2.972  10.425  0.2938  0.1393 -0.1206
  818MPD2    H512045   2.788   2.898  10.417 -0.2537 -0.4140  0.4169
  818MPD2    N112046   2.631   3.459  10.386 -0.0331 -0.0975 -0.9248
  818MPD2    H712047   2.536   3.426  10.401  0.2382 -0.2559  0.4922
  819MPD2     C12048   0.016   0.386  15.834  0.1011  0.5197 -1.1516
  819MPD2    C112049   0.049   0.253  15.838  0.7025 -0.6781  0.4385
  819MPD2    C212050   0.175   0.223  15.887  0.4223 -0.7833  0.8875
  819MPD2    C312051   0.258   0.315  15.939 -0.0430 -0.2837 -0.2754
  819MPD2    C412052   0.217   0.451  15.942  0.4463 -0.2399 -0.1922
  819MPD2    C512053   0.100   0.482  15.893 -0.5541  0.4158  0.5046
  819MPD2     H12054   0.206   0.119  15.892 -0.5040 -1.0265  1.5499
  819MPD2    H112055   0.285   0.528  15.978 -1.0222  1.2602 -0.6033
  819MPD2    H212056   4.642   0.416  15.807  0.1898  1.2637 -0.6391
  819MPD2    H312057   0.074   0.587  15.889 -1.1848  0.2039 -1.0246
  819MPD2     N12058   0.384   0.265  15.982  0.5382  0.0062  0.3567
  819MPD2    H512059   0.400   0.166  15.966  0.6339 -0.2243  1.9206
  819MPD2    N112060   4.677   0.163  15.802  0.0612  0.5968  0.2262
  819MPD2    H712061   4.590   0.193  15.759  0.0456 -0.5137 -0.5273
  820MPD2     C12062   4.420   0.108  14.950  0.5093 -1.1254  0.7683
  820MPD2    C112063   4.459   0.194  15.050 -0.5255 -0.4677  0.4621
  820MPD2    C212064   4.467   0.148  15.186 -0.0130 -0.1131 -0.6417
  820MPD2    C312065   4.429   0.022  15.218  0.1658  0.5065  0.3401
  820MPD2    C412066   4.388   4.667  15.119  0.2729  0.4160  0.4469
  820MPD2    C512067   4.367   4.716  14.989  0.4576 -0.7984 -0.6940
  820MPD2     H12068   4.490   0.220  15.264 -0.5418  0.3132 -0.8768
  820MPD2    H112069   4.354   4.565  15.136 -2.6751  1.1695 -0.9431
  820MPD2    H212070   4.412   0.137  14.846  0.3841 -0.3132  1.0025
  820MPD2    H312071   4.334   4.644  14.916  0.1205  0.3454 -1.6626
  820MPD2     N12072   4.421   4.700  15.352 -0.0974  0.2554  0.4926
  820MPD2    H512073   4.388   4.607  15.376  0.6487 -0.3289 -0.7753
  820MPD2    N112074   4.465   0.333  15.024  0.1621  0.0124 -0.0522
  820MPD2    H712075   4.405   0.365  14.949 -1.6704 -1.1435  0.9222
  821MPD2     C12076   0.142   2.043  13.360 -0.6533 -0.6347  0.4553
  821MPD2    C112077   0.190   1.916  13.354  0.3093 -0.0893  0.2362
  821MPD2    C212078   0.242   1.869  13.240 -0.0890  0.2765 -0.1332
  821MPD2    C312079   0.231   1.947  13.126 -0.0365 -0.8380 -0.1384
  821MPD2    C412080   0.183   2.075  13.127  1.2415  0.2444 -0.0123
  821MPD2    C512081   0.132   2.124  13.246  0.0561 -0.2159  0.5681
  821MPD2     H12082   0.294   1.775  13.253 -0.4835  0.4090  2.4669
  821MPD2    H112083   0.192   2.134  13.036 -3.4515 -0.5574 -1.0332
  821MPD2    H212084   0.120   2.080  13.460  1.0228 -2.7165  1.5796
  821MPD2    H312085   0.098   2.226  13.264  1.5891  0.7815 -2.1772
  821MPD2     N12086   0.291   1.909  13.002  0.3504 -0.8537 -0.5235
  821MPD2    H512087   0.275   1.965  12.919 -0.2777 -0.8883 -0.4227
  821MPD2    N112088   0.225   1.848  13.470 -0.0739  0.1735 -0.6534
  821MPD2    H712089   0.289   1.770  13.455  0.1309 -0.0241  1.2866
  822MPD2     C12090   0.928   1.776  15.756  0.6863 -0.5487  0.1850
  822MPD2    C112091   0.907   1.698  15.865 -0.1766  0.0094 -0.7628
  822MPD2    C212092   0.829   1.743  15.964  0.1803  0.1388  0.0787
  822MPD2    C312093   0.761   1.866  15.965 -0.3905  0.0815  0.1818
  822MPD2    C412094   0.776   1.941  15.849 -0.8644  0.7059 -0.2071
  822MPD2    C512095   0.863   1.894  15.748 -0.1561  0.1632 -0.5450
  822MPD2     H12096   0.814   1.673  16.045 -0.6747 -0.0993 -0.2785
  822MPD2    H112097   0.732   2.038  15.830 -0.4167  1.2168  1.4054
  822MPD2    H212098   0.997   1.742  15.680  0.5086  2.4846 -1.3082
  822MPD2    H312099   0.886   1.962  15.667 -0.9324 -0.9318 -1.6943
  822MPD2     N12100   0.702   1.907  16.083  0.0174  0.3610 -0.6033
  822MPD2    H512101   0.699   1.844  16.163 -1.1923  0.8734 -0.2304
  822MPD2    N112102   0.963   1.571  15.880 -0.3714  0.3243 -0.2511
  822MPD2    H712103   0.926   1.511  15.953  1.8808  1.9875  2.2683
  823MPD2     C12104   0.455   1.988  16.891 -0.2630  0.2292 -0.4008
  823MPD2    C112105   0.464   1.906  16.783 -1.4891 -0.6552  0.6622
  823MPD2    C212106   0.505   1.777  16.802 -0.1290 -0.2048 -1.1943
  823MPD2    C312107   0.548   1.728  16.923  0.0231 -0.0843  0.2350
  823MPD2    C412108   0.546   1.819  17.030 -0.4649 -0.2330  0.2464
  823MPD2    C512109   0.503   1.946  17.014  0.6257 -0.3786  0.3352
  823MPD2     H12110   0.492   1.708  16.719  2.6510 -3.0338  0.7398
  823MPD2    H112111   0.592   1.790  17.124  0.1073  0.6658  0.2375
  823MPD2    H212112   0.435   2.093  16.870 -0.2681  0.0916 -1.0677
  823MPD2    H312113   0.513   2.018  17.094 -1.7498  0.7220 -0.3320
  823MPD2     N12114   0.594   1.598  16.945  1.2159 -0.1697 -0.2017
  823MPD2    H512115   0.623   1.569  17.037  2.1452 -0.9354 -0.7333
  823MPD2    N112116   0.427   1.963  16.659  0.2210 -0.0794 -0.0051
  823MPD2    H712117   0.398   2.060  16.651 -1.8233 -0.4677  2.7790
  824MPD2     C12118   1.343   0.830  15.629 -0.1843  0.1370  0.5214
  824MPD2    C112119   1.432   0.920  15.668  0.1477 -0.0080 -0.2104
  824MPD2    C212120   1.568   0.883  15.675  0.5625  0.0655  0.5837
  824MPD2    C312121   1.608   0.756  15.625  0.5005 -0.3851  0.0139
  824MPD2    C412122   1.509   0.677  15.570  0.7513 -0.3916  0.3510
  824MPD2    C512123   1.379   0.705  15.579  0.3997  0.0903  0.4575
  824MPD2     H12124   1.635   0.960  15.713  1.4806 -0.1570 -0.6022
  824MPD2    H112125   1.524   0.590  15.508 -1.5919 -0.4582 -0.1107
  824MPD2    H212126   1.236   0.849  15.631 -0.6372 -2.3882  0.8122
  824MPD2    H312127   1.304   0.639  15.537  0.3375  1.1207 -1.0451
  824MPD2     N12128   1.749   0.723  15.620 -0.1743 -0.4117 -0.2007
  824MPD2    H512129   1.814   0.791  15.659 -0.2893 -0.4482  0.0525
  824MPD2    N112130   1.402   1.049  15.711  0.5595 -0.4125 -0.2317
  824MPD2    H712131   1.476   1.111  15.740  0.0597 -0.6713  1.5889
  825MPD2     C12132   2.581   0.705  15.410  0.1282 -0.2095  0.6007
  825MPD2    C112133   2.484   0.782  15.468 -0.1416  0.6188 -0.2746
  825MPD2    C212134   2.510   0.912  15.492 -0.5770 -0.3585  0.0861
  825MPD2    C312135   2.624   0.970  15.436  0.1988  0.1361 -0.3313
  825MPD2    C412136   2.715   0.893  15.372  0.7901  0.6704  0.3442
  825MPD2    C512137   2.693   0.760  15.351  0.1534 -0.1194 -0.3760
  825MPD2     H12138   2.449   0.968  15.561  0.3538 -0.7149  1.2148
  825MPD2    H112139   2.798   0.943  15.323 -1.1119  2.8352 -0.6489
  825MPD2    H212140   2.557   0.602  15.391 -0.4571  0.4399 -2.1810
  825MPD2    H312141   2.761   0.694  15.297  1.4652 -0.1047  1.2467
  825MPD2     N12142   2.654   1.109  15.438  0.2306 -0.9226  0.0459
  825MPD2    H512143   2.741   1.142  15.396  0.2991 -0.3473  0.6467
  825MPD2    N112144   2.365   0.718  15.505 -0.4667 -0.2771  0.0437
  825MPD2    H712145   2.359   0.619  15.481  2.5494 -0.5632  0.4299
  826MPD2     C12146   1.964   0.418  13.386  0.5557  0.7959  0.1767
  826MPD2    C112147   1.845   0.400  13.313 -0.0280  0.7525 -0.2557
  826MPD2    C212148   1.753   0.505  13.317  0.1283 -0.3881 -0.2361
  826MPD2    C312149   1.772   0.623  13.399 -0.6516 -0.2248  0.6698
  826MPD2    C412150   1.896   0.644  13.457 -0.3949  0.1132 -0.0123
  826MPD2    C512151   1.990   0.546  13.442 -0.2490 -0.1457 -0.1839
  826MPD2     H12152   1.660   0.511  13.260 -0.8166 -0.5559  1.2903
  826MPD2    H112153   1.921   0.741  13.498  0.2337 -0.3330  0.6716
  826MPD2    H212154   2.040   0.341  13.382 -1.2808 -1.0232  0.6137
  826MPD2    H312155   2.088   0.566  13.484 -1.5616  0.2068  2.7048
  826MPD2     N12156   1.688   0.733  13.408  0.1173 -0.3683 -0.5156
  826MPD2    H512157   1.723   0.806  13.470 -0.3369 -1.6565  1.2690
  826MPD2    N112158   1.828   0.274  13.252 -0.2089  0.0206 -0.0277
  826MPD2    H712159   1.893   0.200  13.276  2.6736  1.8585 -2.0843
  827MPD2     C12160   2.396   1.926  10.483 -0.0210  1.0467 -0.5869
  827MPD2    C112161   2.533   1.912  10.492  0.4249 -0.2242 -0.5580
  827MPD2    C212162   2.592   1.808  10.421  0.0782  0.3099  0.6797
  827MPD2    C312163   2.522   1.733  10.328  0.3583  0.5615 -0.9692
  827MPD2    C412164   2.390   1.769  10.309  0.7849  0.3495  0.2385
  827MPD2    C512165   2.326   1.848  10.399 -0.1092 -0.7253  0.4649
  827MPD2     H12166   2.691   1.768  10.439  0.5547  0.8208 -0.8002
  827MPD2    H112167   2.334   1.726  10.227 -3.1427  1.2901  2.4310
  827MPD2    H212168   2.337   1.987  10.551 -0.5249  0.9970 -0.9825
  827MPD2    H312169   2.218   1.856  10.401  0.0842  1.4950  2.3229
  827MPD2     N12170   2.589   1.637  10.244 -0.2777 -0.3362  0.4801
  827MPD2    H512171   2.687   1.623  10.269  0.1202  0.5045 -0.6201
  827MPD2    N112172   2.604   1.979  10.592  0.0493 -0.6038  0.1037
  827MPD2    H712173   2.550   2.039  10.653  1.5055  1.1617 -0.3354
  828MPD2     C12174   0.883   2.302  12.143  0.2170  0.3252  0.3508
  828MPD2    C112175   0.804   2.361  12.055  0.2151  0.0125 -0.0804
  828MPD2    C212176   0.841   2.389  11.926 -0.4218  0.1134 -0.0339
  828MPD2    C312177   0.966   2.349  11.879 -0.3680  0.0104  0.1795
  828MPD2    C412178   1.045   2.279  11.965 -0.6401 -0.7462 -0.3280
  828MPD2    C512179   1.007   2.268  12.094 -0.3506  0.0705  0.1327
  828MPD2     H12180   0.759   2.420  11.863  2.1255 -0.0873 -3.4520
  828MPD2    H112181   1.142   2.237  11.941 -1.2299 -1.9169 -0.6620
  828MPD2    H212182   0.855   2.279  12.245  0.4641 -0.5056  0.2373
  828MPD2    H312183   1.077   2.219  12.161  1.1332 -1.6029 -2.6057
  828MPD2     N12184   1.000   2.368  11.740  0.3641  0.7938 -0.4450
  828MPD2    H512185   1.078   2.315  11.702  1.0659  0.8741  0.8817
  828MPD2    N112186   0.660   2.391  12.080  0.1171 -0.4716 -0.4231
  828MPD2    H712187   0.619   2.445  12.005 -0.0582  1.0744  0.7876
  829MPD2     C12188   0.118   2.749  11.552 -0.4095 -0.3395 -0.1238
  829MPD2    C112189   0.020   2.686  11.624 -0.4390  0.4457 -0.0935
  829MPD2    C212190   0.067   2.608  11.729 -0.6193  0.3427 -0.4787
  829MPD2    C312191   0.206   2.580  11.748 -0.1029  0.1727  0.2298
  829MPD2    C412192   0.303   2.649  11.677  0.8419  0.3048 -0.0421
  829MPD2    C512193   0.250   2.732  11.580  0.1100  0.7348 -0.3005
  829MPD2     H12194   4.725   2.571  11.804 -1.8771  0.5830 -1.5033
  829MPD2    H112195   0.410   2.640  11.688  0.7402 -0.9936 -0.0197
  829MPD2    H212196   0.096   2.834  11.489  0.6929 -0.1448 -0.2445
  829MPD2    H312197   0.320   2.791  11.523 -0.1205  1.0329 -0.2724
  829MPD2     N12198   0.259   2.504  11.859 -0.4432 -0.3769 -0.3595
  829MPD2    H512199   0.359   2.505  11.876 -0.9451  1.7910  2.5151
  829MPD2    N112200   4.614   2.718  11.594 -0.3439 -0.3585  0.5879
  829MPD2    H712201   4.605   2.785  11.518  2.5936  0.0193  0.5828
  830MPD2     C12202   1.279   0.183  15.875  0.5181  0.5550  0.2152
  830MPD2    C112203   1.166   0.215  15.806  0.0106 -1.0629  0.5585
  830MPD2    C212204   1.171   0.234  15.663  0.1351 -0.6391 -0.1561
  830MPD2    C312205   1.286   0.223  15.591  0.3316 -0.1631 -0.0718
  830MPD2    C412206   1.396   0.189  15.663  0.1441  0.2146 -0.1126
  830MPD2    C512207   1.395   0.171  15.797 -0.2578 -0.4128 -0.3109
  830MPD2     H12208   1.081   0.258  15.608  0.8277  0.5134 -0.7885
  830MPD2    H112209   1.492   0.198  15.614  1.1657  2.6284  2.2842
  830MPD2    H212210   1.288   0.168  15.982  0.3702 -0.4998  0.0803
  830MPD2    H312211   1.489   0.139  15.841  0.0753 -0.1935 -0.8789
  830MPD2     N12212   1.302   0.267  15.458 -0.2922  0.2355  0.4287
  830MPD2    H512213   1.391   0.245  15.415 -0.5566  0.3401 -0.1721
  830MPD2    N112214   1.045   0.228  15.877 -0.3449  0.0544  0.0055
  830MPD2    H712215   1.049   0.212  15.977  0.1830  1.2561  0.1785
  831MPD2     C12216   0.940   1.938  16.417  0.3646 -0.0354  0.0764
  831MPD2    C112217   0.979   1.839  16.335  0.1308 -0.4939 -0.3377
  831MPD2    C212218   0.905   1.720  16.352 -1.0549 -0.0642  0.1100
  831MPD2    C312219   0.811   1.703  16.453 -0.1976 -0.1726 -0.6309
  831MPD2    C412220   0.796   1.797  16.549 -0.2992 -0.1381 -0.1688
  831MPD2    C512221   0.861   1.918  16.527 -0.2892  0.2515  1.0128
  831MPD2     H12222   0.923   1.633  16.289  0.4254  0.4718 -0.2063
  831MPD2    H112223   0.727   1.780  16.631  0.7489 -0.8009  0.5780
  831MPD2    H212224   0.984   2.036  16.416  0.8387 -0.2323  1.5727
  831MPD2    H312225   0.848   1.997  16.601 -0.5239 -0.0810  1.3267
  831MPD2     N12226   0.731   1.590  16.470  0.0531 -0.0349  0.2530
  831MPD2    H512227   0.647   1.602  16.527  0.0941  0.6981  0.1655
  831MPD2    N112228   1.071   1.859  16.229  0.2859 -0.2777 -0.3220
  831MPD2    H712229   1.111   1.951  16.215  0.1282 -0.2766 -0.7626
  832MPD2     C12230   4.292   2.911  17.507 -1.0188 -0.0674  0.1460
  832MPD2    C112231   4.245   3.036  17.477  0.4388 -0.1281 -0.0320
  832MPD2    C212232   4.121   3.053  17.415 -0.3275 -0.3665  0.5370
  832MPD2    C312233   4.048   2.945  17.385 -0.1049  0.0609  0.5428
  832MPD2    C412234   4.096   2.822  17.414  0.2822 -0.1558  0.5234
  832MPD2    C512235   4.217   2.802  17.474 -0.8095  0.4695  0.1599
  832MPD2     H12236   4.077   3.152  17.415  1.1418  0.2861 -0.6049
  832MPD2    H112237   4.040   2.730  17.406  1.0600 -0.6595  0.8480
  832MPD2    H212238   4.382   2.886  17.562 -0.7800 -0.1778 -0.2929
  832MPD2    H312239   4.257   2.707  17.508  2.5334  0.9338 -2.4959
  832MPD2     N12240   3.919   2.949  17.340 -0.1629 -0.1605  0.2400
  832MPD2    H512241   3.870   2.863  17.317 -0.7106  0.3060 -0.3694
  832MPD2    N112242   4.332   3.135  17.532  0.6266 -0.0802 -0.6875
  832MPD2    H712243   4.418   3.104  17.575  0.3047 -0.6187 -0.4353
  833MPD2     C12244   1.958   3.668  12.500 -0.9141  0.3783 -0.1787
  833MPD2    C112245   1.955   3.799  12.535 -0.5116 -0.4471 -0.0169
  833MPD2    C212246   2.022   3.888  12.455 -0.1374 -0.0350  0.2553
  833MPD2    C312247   2.086   3.852  12.338  0.1899  0.2923  0.3298
  833MPD2    C412248   2.082   3.715  12.301 -0.0289  0.2347  0.3025
  833MPD2    C512249   2.019   3.628  12.386  0.1016 -0.1462 -0.1800
  833MPD2     H12250   2.035   3.992  12.482 -0.3388  0.6536 -2.3029
  833MPD2    H112251   2.129   3.679  12.210 -0.4493 -0.7838  0.4925
  833MPD2    H212252   1.908   3.602  12.571  0.7987 -0.4722  0.2329
  833MPD2    H312253   2.031   3.522  12.366 -0.1055 -0.1665 -0.2056
  833MPD2     N12254   2.160   3.951  12.263 -0.5444  0.7336  0.8041
  833MPD2    H512255   2.148   4.046  12.297 -2.6842  0.2988  1.2894
  833MPD2    N112256   1.867   3.836  12.648  0.1561  0.4190 -0.5236
  833MPD2    H712257   1.817   3.759  12.691  2.6892 -0.8698  0.1419
  834MPD2     C12258   2.231   4.468  11.372 -0.2960  0.5304 -0.4364
  834MPD2    C112259   2.112   4.399  11.409 -0.5530 -0.4581  0.1015
  834MPD2    C212260   2.110   4.345  11.541 -0.0103  0.4560  0.3654
  834MPD2    C312261   2.209   4.361  11.634  0.0746 -0.0965  0.1207
  834MPD2    C412262   2.315   4.437  11.592 -0.3259 -0.0154  0.2451
  834MPD2    C512263   2.328   4.487  11.462  0.3464 -1.0006 -0.4389
  834MPD2     H12264   2.022   4.287  11.567 -0.0547  0.5121  0.3409
  834MPD2    H112265   2.394   4.473  11.656 -1.6638  0.0924  1.8586
  834MPD2    H212266   2.237   4.501  11.269 -0.0863  3.2798  0.4613
  834MPD2    H312267   2.416   4.547  11.441 -0.8605  0.6013 -0.8633
  834MPD2     N12268   2.205   4.288  11.757  0.4085 -0.2941 -0.0963
  834MPD2    H512269   2.128   4.224  11.772  0.0998  0.0611 -0.1652
  834MPD2    N112270   2.012   4.372  11.313 -0.3870  0.1538  0.2617
  834MPD2    H712271   2.033   4.406  11.220 -2.5065  0.0816 -0.2411
  835MPD2     C12272   1.332   1.661  11.125 -0.3973 -0.2391  0.6157
  835MPD2    C112273   1.332   1.789  11.072  0.3184 -0.1925  0.2628
  835MPD2    C212274   1.370   1.887  11.160  0.4178  0.3834  0.4731
  835MPD2    C312275   1.418   1.871  11.296 -0.1666 -0.1486  0.2149
  835MPD2    C412276   1.407   1.744  11.340 -0.2148 -0.2885  0.3403
  835MPD2    C512277   1.362   1.641  11.263  0.1298 -0.0471  0.5243
  835MPD2     H12278   1.383   1.984  11.113  1.2635 -0.2259 -0.5680
  835MPD2    H112279   1.447   1.713  11.436 -0.5122  0.7726  0.8000
  835MPD2    H212280   1.290   1.575  11.073  1.7341 -2.1771  2.1193
  835MPD2    H312281   1.350   1.545  11.312  1.8149 -0.9700 -0.8573
  835MPD2     N12282   1.479   1.972  11.380 -0.7782 -0.0748  0.6293
  835MPD2    H512283   1.538   1.947  11.458 -0.3632 -1.3588 -0.1031
  835MPD2    N112284   1.290   1.815  10.944  0.0328  0.1584  0.7021
  835MPD2    H712285   1.315   1.906  10.908  1.2559 -0.7989 -0.8885
  836MPD2     C12286   1.253   2.706  11.517 -0.1449  0.3877 -0.5325
  836MPD2    C112287   1.330   2.628  11.606 -0.7355  0.1829 -0.2634
  836MPD2    C212288   1.308   2.619  11.741 -0.4782  0.1041  0.5822
  836MPD2    C312289   1.209   2.702  11.792 -0.3573 -0.1228 -0.1887
  836MPD2    C412290   1.135   2.779  11.708 -0.9049 -0.6085 -0.6390
  836MPD2    C512291   1.158   2.783  11.574 -0.6345 -0.2443 -0.4018
  836MPD2     H12292   1.361   2.551  11.806 -0.1245 -0.9545 -0.8183
  836MPD2    H112293   1.050   2.826  11.754  0.2478 -1.6486  2.5217
  836MPD2    H212294   1.264   2.692  11.410  0.5450  1.2474 -0.5679
  836MPD2    H312295   1.087   2.841  11.518 -1.4326 -0.9654 -0.1303
  836MPD2     N12296   1.160   2.695  11.925  0.2922  0.1413  0.0418
  836MPD2    H512297   1.061   2.711  11.934  0.4516  1.5569 -0.7844
  836MPD2    N112298   1.425   2.544  11.547 -0.4822  0.1640 -0.4179
  836MPD2    H712299   1.448   2.552  11.448  0.2951 -1.4139 -0.3560
  837MPD2     C12300   0.110   2.045  10.430  1.0389  0.3982  0.3683
  837MPD2    C112301   0.088   2.083  10.293  0.2972  0.2269 -0.4515
  837MPD2    C212302   0.102   2.218  10.258 -0.1553 -0.1528  1.0252
  837MPD2    C312303   0.114   2.312  10.356  0.2657 -0.1161 -0.0011
  837MPD2    C412304   0.135   2.287  10.490  0.5488 -0.5051  0.4752
  837MPD2    C512305   0.139   2.149  10.519  0.3247  0.0751  0.2876
  837MPD2     H12306   0.083   2.241  10.154  1.6079 -0.1028  0.7024
  837MPD2    H112307   0.164   2.359  10.564 -0.4510  0.0958  0.2869
  837MPD2    H212308   0.101   1.942  10.464  1.0322 -0.0957 -1.1313
  837MPD2    H312309   0.164   2.097  10.611  1.2548  0.4836  0.2716
  837MPD2     N12310   0.083   2.444  10.311 -0.1434  0.9168 -0.5222
  837MPD2    H512311   0.060   2.454  10.212 -0.2962 -0.0672 -0.5893
  837MPD2    N112312   0.054   1.993  10.190 -0.3671  0.4787 -0.0761
  837MPD2    H712313   0.053   2.021  10.093  0.2904 -0.7801 -0.4511
  838MPD2     C12314   3.635   0.286  11.620  0.4180 -0.2454 -0.2049
  838MPD2    C112315   3.582   0.161  11.598 -0.6972 -0.2631 -0.3853
  838MPD2    C212316   3.453   0.137  11.631 -0.3182 -0.1825  0.8374
  838MPD2    C312317   3.370   0.236  11.671  0.7255 -0.0778 -0.2276
  838MPD2    C412318   3.418   0.366  11.686  0.2471  1.0073 -0.3967
  838MPD2    C512319   3.552   0.391  11.661 -0.1363 -0.1908 -0.2568
  838MPD2     H12320   3.407   0.041  11.610 -0.7062  0.3069 -0.4782
  838MPD2    H112321   3.363   0.449  11.728  0.0260  1.4616 -1.5899
  838MPD2    H212322   3.741   0.305  11.605  0.4802 -0.8438 -0.5148
  838MPD2    H312323   3.602   0.485  11.682 -0.7751  0.2484 -0.6949
  838MPD2     N12324   3.237   0.201  11.712 -0.4596  0.7392  0.1125
  838MPD2    H512325   3.212   0.105  11.692 -0.9214  1.0850 -0.9876
  838MPD2    N112326   3.656   0.060  11.529  0.1540  0.0998  0.6680
  838MPD2    H712327   3.612   4.696  11.523  1.4582 -0.5201  0.5247
  839MPD2     C12328   3.075   0.092  11.325  0.0184 -0.1578  0.4435
  839MPD2    C112329   3.111   4.691  11.291 -0.6638  0.2194 -0.0002
  839MPD2    C212330   3.238   4.657  11.264  0.1197  0.5931  0.7193
  839MPD2    C312331   3.340   0.034  11.269  1.0461 -0.0216 -0.1839
  839MPD2    C412332   3.300   0.156  11.322 -0.0564 -0.4929  0.0556
  839MPD2    C512333   3.170   0.186  11.348 -0.3846  0.3742 -0.7696
  839MPD2     H12334   3.258   4.558  11.227  1.6564  1.0487  0.3381
  839MPD2    H112335   3.373   0.226  11.361 -1.9562  1.2939  0.4194
  839MPD2    H212336   2.978   0.116  11.367  0.1035 -1.3833  1.3566
  839MPD2    H312337   3.139   0.281  11.391 -0.4473  0.2511 -0.5403
  839MPD2     N12338   3.477   0.005  11.248 -0.2502  0.3960  0.7398
  839MPD2    H512339   3.550   0.072  11.267  0.6045  0.0181 -1.1990
  839MPD2    N112340   3.018   4.585  11.285 -0.4889 -0.1493 -0.1962
  839MPD2    H712341   3.059   4.494  11.273 -2.2100 -0.9120 -0.3570
  840MPD2     C12342   3.348   2.204  10.682 -0.2976 -0.4033  0.2159
  840MPD2    C112343   3.282   2.207  10.799 -0.0818  0.0978  0.2206
  840MPD2    C212344   3.325   2.289  10.899 -0.0602  0.1902  0.1089
  840MPD2    C312345   3.438   2.376  10.889 -0.0824  0.4076 -0.3602
  840MPD2    C412346   3.508   2.362  10.771  0.1930  0.4956  0.4008
  840MPD2    C512347   3.463   2.282  10.670 -0.8437  1.1494  0.1166
  840MPD2     H12348   3.273   2.295  10.994  0.1120 -0.7505  0.2553
  840MPD2    H112349   3.596   2.420  10.743  2.3668 -2.8211  0.3106
  840MPD2    H212350   3.329   2.127  10.607 -1.4278  0.7059 -0.6242
  840MPD2    H312351   3.522   2.272  10.579  0.5034  1.6892  0.9298
  840MPD2     N12352   3.477   2.471  10.993  0.0532  0.7224  0.2478
  840MPD2    H512353   3.547   2.535  10.958  1.3866  0.4629  2.4000
  840MPD2    N112354   3.175   2.122  10.796 -0.1807  0.6241  0.3337
  840MPD2    H712355   3.146   2.085  10.705 -0.3758  0.5747  0.4152
  841MPD2     C12356   2.726   2.287  14.591  0.2960  0.0202 -0.1990
  841MPD2    C112357   2.800   2.177  14.629  0.5846  0.6195 -0.5238
  841MPD2    C212358   2.910   2.200  14.714  1.0321  0.0972  0.4434
  841MPD2    C312359   2.943   2.322  14.760  0.2657  0.7579  0.7362
  841MPD2    C412360   2.863   2.433  14.729 -0.0425 -0.3771 -0.2602
  841MPD2    C512361   2.758   2.410  14.646  0.3632  0.8799 -1.2276
  841MPD2     H12362   2.970   2.114  14.744 -0.1520 -0.1940  1.9750
  841MPD2    H112363   2.880   2.537  14.754 -2.6305 -0.0968  0.3821
  841MPD2    H212364   2.649   2.274  14.516  2.2707  0.2860 -2.2873
  841MPD2    H312365   2.688   2.490  14.623 -0.0184  1.0605  0.5203
  841MPD2     N12366   3.060   2.326  14.841  0.2185  0.2772  0.4309
  841MPD2    H512367   3.115   2.241  14.850  0.5504  0.6371  1.7996
  841MPD2    N112368   2.772   2.044  14.586  0.4779  0.3202 -0.7332
  841MPD2    H712369   2.822   1.964  14.625 -0.4593  1.1451  2.1616
  842MPD2     C12370   3.114   3.599  16.501 -0.0633  0.3575 -0.2159
  842MPD2    C112371   3.134   3.464  16.484  0.2483 -0.6839  0.1670
  842MPD2    C212372   3.151   3.391  16.605  0.1288 -0.4425 -0.3622
  842MPD2    C312373   3.151   3.457  16.729  0.1750 -0.1763 -0.0387
  842MPD2    C412374   3.120   3.587  16.741 -0.3162  0.1897 -0.2582
  842MPD2    C512375   3.101   3.657  16.624 -0.7566 -0.3636 -0.0932
  842MPD2     H12376   3.190   3.291  16.590  2.6645  0.3717  0.7739
  842MPD2    H112377   3.118   3.643  16.834 -0.2702 -2.9607  1.6045
  842MPD2    H212378   3.113   3.654  16.408  1.7431  0.4719 -0.1723
  842MPD2    H312379   3.089   3.763  16.642  1.1217 -0.3124  0.8744
  842MPD2     N12380   3.181   3.390  16.851  0.0844  0.4960 -0.0301
  842MPD2    H512381   3.182   3.448  16.935  0.8393 -0.4422  0.6101
  842MPD2    N112382   3.145   3.404  16.357 -0.6619  0.1735 -0.0985
  842MPD2    H712383   3.124   3.465  16.279 -2.7570  0.6639  0.8538
  843MPD2     C12384   0.249   4.028   0.766  0.8377 -0.0493  0.3125
  843MPD2    C112385   0.351   4.002   0.857 -0.3334  0.1724 -0.6788
  843MPD2    C212386   0.487   4.025   0.814 -0.1236  0.5907  0.7485
  843MPD2    C312387   0.509   4.075   0.691 -0.2163 -0.1580  0.1910
  843MPD2    C412388   0.401   4.122   0.619  0.5546 -0.0191 -0.0379
  843MPD2    C512389   0.272   4.094   0.654 -0.5474  0.4801 -0.5713
  843MPD2     H12390   0.565   3.997   0.883  1.1566  1.4709 -0.3480
  843MPD2    H112391   0.421   4.157   0.518  0.3204  2.3124  0.7089
  843MPD2    H212392   0.150   4.011   0.806  1.2493 -3.3841 -0.0700
  843MPD2    H312393   0.192   4.121   0.586 -0.5727 -0.5122 -0.9330
  843MPD2     N12394   0.638   4.102   0.633 -0.0373 -0.0844 -0.3627
  843MPD2    H512395   0.638   4.141   0.539 -1.0223 -0.6686 -0.6097
  843MPD2    N112396   0.320   3.944   0.983  0.4917  0.2815  0.3671
  843MPD2    H712397   0.225   3.955   1.017 -0.4302 -0.8706 -1.7711
  844MPD2     C12398   3.896   2.731  16.833 -0.1666  0.1897 -0.2999
  844MPD2    C112399   4.017   2.742  16.766  0.0409 -0.6889 -0.7530
  844MPD2    C212400   4.100   2.843  16.818  0.2263  0.3445  0.4019
  844MPD2    C312401   4.062   2.925  16.924 -0.3837  0.6750 -0.5736
  844MPD2    C412402   3.939   2.917  16.976 -0.1934 -0.1157 -0.0808
  844MPD2    C512403   3.861   2.812  16.934  0.5027 -0.1100  0.0675
  844MPD2     H12404   4.199   2.851  16.774  0.5680 -1.4826  0.8057
  844MPD2    H112405   3.910   2.973  17.065 -0.0015 -0.7729  0.3961
  844MPD2    H212406   3.817   2.658  16.818  0.0032  0.1206 -0.8426
  844MPD2    H312407   3.757   2.808  16.964  0.6302  0.8552  0.6472
  844MPD2     N12408   4.163   3.012  16.968 -0.2040  0.0753  0.4208
  844MPD2    H512409   4.253   3.021  16.923 -0.5493  1.6556  0.0399
  844MPD2    N112410   4.045   2.668  16.652  0.0006 -0.2377 -0.0128
  844MPD2    H712411   4.138   2.683  16.615  0.7221  1.7504  2.6204
  845MPD2     C12412   4.321   3.950  17.401 -0.1585  0.8313 -0.2846
  845MPD2    C112413   4.220   3.858  17.426  0.0945  0.1462  0.0341
  845MPD2    C212414   4.212   3.732  17.364 -0.5736 -0.4877 -0.0108
  845MPD2    C312415   4.304   3.701  17.272  0.1701 -0.3201  0.3193
  845MPD2    C412416   4.399   3.797  17.235 -0.0910 -0.4722  0.0695
  845MPD2    C512417   4.406   3.916  17.295  0.2953 -0.5187 -0.4541
  845MPD2     H12418   4.127   3.667  17.385  0.7075 -2.0843  0.2122
  845MPD2    H112419   4.471   3.786  17.155  0.5009  0.9609  0.4033
  845MPD2    H212420   4.324   4.043  17.455 -0.7393  0.3224  0.6359
  845MPD2    H312421   4.486   3.982  17.262 -0.2573  0.5671  0.3900
  845MPD2     N12422   4.295   3.574  17.221  0.8877  0.0590  0.9907
  845MPD2    H512423   4.222   3.516  17.260  1.0120  0.1554  1.3646
  845MPD2    N112424   4.117   3.910  17.512 -0.5376 -0.7115  0.4737
  845MPD2    H712425   4.114   4.011  17.508 -2.1635 -0.8848 -2.4449
  846MPD2     C12426   1.078   3.858  14.204  0.2015 -0.3580  0.0436
  846MPD2    C112427   0.977   3.945  14.179 -0.4773 -0.5500 -0.0532
  846MPD2    C212428   0.892   3.997  14.284  0.1457 -0.5774  0.7666
  846MPD2    C312429   0.912   3.949  14.413  0.6151  0.2252  0.1844
  846MPD2    C412430   1.016   3.858  14.433  0.9041  0.5666  0.5365
  846MPD2    C512431   1.102   3.810  14.334  0.1167 -0.4188 -0.4004
  846MPD2     H12432   0.809   4.065  14.270  2.4837  1.8248 -1.5491
  846MPD2    H112433   1.056   3.830  14.530 -0.6295 -0.9807  0.7459
  846MPD2    H212434   1.149   3.826  14.128 -1.0197 -1.0374 -0.8046
  846MPD2    H312435   1.196   3.757  14.349  0.4991 -0.1172 -1.6895
  846MPD2     N12436   0.818   3.988  14.515  0.5329 -0.1082  0.2074
  846MPD2    H512437   0.746   4.051  14.482 -0.2683 -0.7372  0.7612
  846MPD2    N112438   0.958   3.993  14.049 -0.1652 -0.4259 -0.3865
  846MPD2    H712439   0.890   4.067  14.037 -0.2882 -0.3810  0.5712
  847MPD2     C12440   1.284   0.060  14.139 -0.2079  0.1334  0.4124
  847MPD2    C112441   1.274   0.131  14.258  0.2141  0.2421 -0.1558
  847MPD2    C212442   1.286   0.063  14.373  0.6448  0.3816  0.0316
  847MPD2    C312443   1.322   4.660  14.385 -0.2921  0.8175 -0.2887
  847MPD2    C412444   1.337   4.593  14.264  0.0497  0.2588  0.5460
  847MPD2    C512445   1.313   4.660  14.144 -0.2934  0.2601  0.5025
  847MPD2     H12446   1.263   0.115  14.465 -0.0712  0.9245 -0.4476
  847MPD2    H112447   1.362   4.488  14.262 -0.6250  0.1169 -0.4784
  847MPD2    H212448   1.265   0.105  14.042 -1.8639 -1.7415 -0.1155
  847MPD2    H312449   1.321   4.601  14.053  0.0827  1.4512 -0.2398
  847MPD2     N12450   1.357   4.594  14.507 -0.3426  0.2405 -0.7585
  847MPD2    H512451   1.427   4.520  14.509  1.1445  1.6158 -1.4973
  847MPD2    N112452   1.243   0.270  14.269  0.7104 -0.2544 -0.5175
  847MPD2    H712453   1.249   0.314  14.360  2.1297  0.2586 -0.8652
  848MPD2     C12454   3.497   3.183  16.685  0.2244  0.3222  0.4428
  848MPD2    C112455   3.524   3.260  16.798 -0.0778 -0.0564 -0.4846
  848MPD2    C212456   3.530   3.399  16.788  0.4195  0.1859 -0.9219
  848MPD2    C312457   3.501   3.465  16.670 -0.3237  0.2213 -0.2796
  848MPD2    C412458   3.471   3.389  16.562 -0.0206  0.8180  0.0974
  848MPD2    C512459   3.470   3.250  16.571 -0.3930 -0.3570  0.7470
  848MPD2     H12460   3.558   3.457  16.875 -2.0071 -2.1075  1.3918
  848MPD2    H112461   3.421   3.425  16.472  1.1765  1.5211 -0.2864
  848MPD2    H212462   3.480   3.077  16.673  0.7457  0.2504  0.3480
  848MPD2    H312463   3.445   3.208  16.474  0.2883  1.6032 -0.2899
  848MPD2     N12464   3.495   3.606  16.656 -0.3812 -0.0795  0.0816
  848MPD2    H512465   3.464   3.637  16.564  0.1048 -2.2654 -0.8368
  848MPD2    N112466   3.542   3.198  16.928 -0.0108  0.6522 -0.0971
  848MPD2    H712467   3.562   3.261  17.005  0.8519 -0.3789  0.5301
  849MPD2     C12468   2.489   3.191  14.352  0.0647 -0.2008 -0.6078
  849MPD2    C112469   2.600   3.123  14.304  0.5421 -0.4872  0.2796
  849MPD2    C212470   2.673   3.036  14.380 -0.2393 -0.2249  0.2969
  849MPD2    C312471   2.652   3.037  14.513 -0.0691  0.2622 -0.0779
  849MPD2    C412472   2.546   3.119  14.566 -0.7081 -0.1664  0.3390
  849MPD2    C512473   2.453   3.181  14.488  0.0044  0.2483  0.0598
  849MPD2     H12474   2.743   2.962  14.341 -1.6236 -2.5143  2.1384
  849MPD2    H112475   2.553   3.138  14.673  0.5021 -2.0549  0.5953
  849MPD2    H212476   2.433   3.258  14.287 -1.5958 -1.1686 -0.1900
  849MPD2    H312477   2.377   3.247  14.528 -1.3118 -1.6160  0.6386
  849MPD2     N12478   2.755   2.976  14.588 -0.1933  0.2531 -0.3186
  849MPD2    H512479   2.825   2.930  14.530  0.0161 -0.8811  0.8183
  849MPD2    N112480   2.641   3.153  14.171  0.2752 -0.3950  0.1777
  849MPD2    H712481   2.588   3.222  14.118  0.3647  1.0644  1.9832
  850MPD2     C12482   1.025   1.164  14.548 -0.5095 -0.3310  0.2612
  850MPD2    C112483   1.020   1.265  14.639  0.4752 -0.1584  0.4396
  850MPD2    C212484   1.140   1.301  14.708  0.2806 -0.0377  0.3142
  850MPD2    C312485   1.257   1.231  14.697 -0.1115 -0.3072  0.1444
  850MPD2    C412486   1.262   1.135  14.593  0.2723 -0.7843  0.5035
  850MPD2    C512487   1.141   1.109  14.533 -0.2251 -0.2033 -0.2188
  850MPD2     H12488   1.143   1.385  14.777 -0.5106  0.0578  0.2330
  850MPD2    H112489   1.346   1.071  14.566 -0.7331 -1.7769 -0.2977
  850MPD2    H212490   0.942   1.125  14.491 -1.2338  3.2127 -1.1288
  850MPD2    H312491   1.142   1.027  14.462 -1.1011  0.5086 -1.0471
  850MPD2     N12492   1.370   1.257  14.775 -0.0857  0.3171  0.1905
  850MPD2    H512493   1.452   1.202  14.756 -0.7743 -0.1620 -1.4138
  850MPD2    N112494   0.899   1.323  14.661 -0.1245 -0.0100  0.2110
  850MPD2    H712495   0.830   1.302  14.590  0.7238  1.4139 -1.0341
  851MPD2     C12496   1.437   1.086  15.256  0.3114 -0.1807 -0.3849
  851MPD2    C112497   1.333   1.036  15.184  0.2631  0.3496  0.5694
  851MPD2    C212498   1.332   0.903  15.164  0.4493  0.8169  0.0767
  851MPD2    C312499   1.441   0.820  15.187  0.1509 -0.8161  0.8253
  851MPD2    C412500   1.545   0.868  15.262 -0.1707 -0.0174  0.2854
  851MPD2    C512501   1.540   1.004  15.286  0.3793  0.0906 -0.2779
  851MPD2     H12502   1.247   0.862  15.110 -0.4485  1.0255  1.3160
  851MPD2    H112503   1.626   0.804  15.296 -0.5626 -1.7260 -2.0268
  851MPD2    H212504   1.448   1.192  15.277  1.3962 -0.1573 -1.0488
  851MPD2    H312505   1.623   1.048  15.340  0.7915 -0.6297 -0.3372
  851MPD2     N12506   1.413   0.693  15.153  0.1341 -0.0348  0.4223
  851MPD2    H512507   1.320   0.672  15.120 -0.0574  0.9379  0.3421
  851MPD2    N112508   1.223   1.122  15.164 -0.2425 -0.3842 -0.8749
  851MPD2    H712509   1.233   1.213  15.208 -0.6084 -1.9607  2.3830
  852MPD2     C12510   0.773   3.359  10.763 -0.5400  0.0791 -0.3425
  852MPD2    C112511   0.802   3.471  10.835 -0.2498  0.1554 -0.3317
  852MPD2    C212512   0.861   3.569  10.768  0.0312  0.7577 -0.3685
  852MPD2    C312513   0.907   3.557  10.638 -1.1217  0.7761 -0.8444
  852MPD2    C412514   0.878   3.444  10.571 -1.4984 -0.1380  0.3607
  852MPD2    C512515   0.811   3.343  10.634  0.0681  0.2376  0.4867
  852MPD2     H12516   0.889   3.662  10.816  1.6643  0.1362 -0.1104
  852MPD2    H112517   0.889   3.435  10.463 -0.1589 -0.6276  0.5431
  852MPD2    H212518   0.724   3.277  10.815  1.1811 -0.9411 -0.3144
  852MPD2    H312519   0.786   3.259  10.572  0.6333 -1.3932  2.4770
  852MPD2     N12520   0.986   3.656  10.595 -0.3395 -0.4440  0.5354
  852MPD2    H512521   0.995   3.733  10.660 -2.6750 -2.7411  3.5785
  852MPD2    N112522   0.764   3.481  10.975 -0.3617  0.0834 -0.8686
  852MPD2    H712523   0.724   3.395  11.010  1.0431  0.2513  1.1059
  853MPD2     C12524   2.652   3.324  12.555  0.2773  0.7240  0.1356
  853MPD2    C112525   2.692   3.452  12.515 -0.3555 -0.3976  0.2333
  853MPD2    C212526   2.729   3.473  12.380 -0.0288 -0.3345 -0.3789
  853MPD2    C312527   2.705   3.374  12.284  0.3569 -0.0337  0.0563
  853MPD2    C412528   2.654   3.251  12.325  0.1971  0.4724  0.1664
  853MPD2    C512529   2.631   3.223  12.460  0.2822 -0.1563 -0.1286
  853MPD2     H12530   2.776   3.566  12.351 -0.6368  0.3065  0.7080
  853MPD2    H112531   2.618   3.180  12.252 -0.5941 -0.2906  1.2904
  853MPD2    H212532   2.615   3.307  12.656 -1.7013 -1.3936 -0.9502
  853MPD2    H312533   2.574   3.137  12.494 -0.8449  1.1922  1.4189
  853MPD2     N12534   2.731   3.397  12.146  0.2094  0.0342  0.1396
  853MPD2    H512535   2.736   3.327  12.072  1.3323 -0.8066  1.0173
  853MPD2    N112536   2.695   3.557  12.611 -0.7473  0.6199 -0.6142
  853MPD2    H712537   2.657   3.524  12.699 -0.2575 -0.3023 -0.7438
  854MPD2     C12538   3.991   3.708  13.666  0.8273 -0.0886  0.4056
  854MPD2    C112539   3.979   3.608  13.573  0.7560  0.2084  0.0954
  854MPD2    C212540   4.034   3.485  13.602 -0.4694 -0.4049 -0.0018
  854MPD2    C312541   4.101   3.460  13.723 -0.2511 -0.0471  0.4909
  854MPD2    C412542   4.121   3.563  13.806 -0.4823 -0.1231  1.0637
  854MPD2    C512543   4.065   3.682  13.781 -0.2921  0.0356 -0.4470
  854MPD2     H12544   4.025   3.407  13.527  1.7291 -0.9748  0.3400
  854MPD2    H112545   4.183   3.541  13.892  1.8838 -1.6180 -1.0126
  854MPD2    H212546   3.946   3.805  13.646  0.1284 -0.8752 -1.7913
  854MPD2    H312547   4.082   3.761  13.853 -0.6240  0.7111 -1.1078
  854MPD2     N12548   4.146   3.333  13.763 -0.0182  0.0641 -0.3308
  854MPD2    H512549   4.203   3.324  13.846  1.7728  0.5913 -1.4992
  854MPD2    N112550   3.909   3.629  13.452  0.2109 -0.4153  0.7881
  854MPD2    H712551   3.876   3.725  13.438 -0.1087 -0.7658 -0.8900
  855MPD2     C12552   4.530   3.531  14.249  0.6296  0.1402  0.4872
  855MPD2    C112553   4.593   3.410  14.221  0.2591  0.6814  0.3402
  855MPD2    C212554   4.521   3.297  14.185 -0.7870 -0.4837  0.0371
  855MPD2    C312555   4.383   3.298  14.184  0.6660  0.4446  0.2898
  855MPD2    C412556   4.324   3.410  14.232 -0.1377  0.0476 -0.0032
  855MPD2    C512557   4.399   3.522  14.262 -0.0027  0.7589  0.3449
  855MPD2     H12558   4.577   3.208  14.157 -0.6206 -1.2925  2.9368
  855MPD2    H112559   4.219   3.418  14.256  0.4161  3.0507  1.3856
  855MPD2    H212560   4.579   3.617  14.291  1.5708  0.2187 -0.7503
  855MPD2    H312561   4.346   3.610  14.295 -3.9010 -0.6540 -2.1180
  855MPD2     N12562   4.300   3.197  14.123  0.6824 -0.0558  0.4748
  855MPD2    H512563   4.199   3.196  14.134  0.7579  0.7787  1.2789
  855MPD2    N112564   0.005   3.385  14.202  0.1847 -0.2896  0.4023
  855MPD2    H712565   0.033   3.291  14.176 -0.0010 -0.1116 -0.4089
  856MPD2     C12566   1.992   4.281  14.276  0.4672  0.4686  0.0262
  856MPD2    C112567   2.070   4.394  14.283  0.4726 -0.3516 -0.2054
  856MPD2    C212568   2.038   4.511  14.208 -0.0246  0.1922  0.1424
  856MPD2    C312569   1.927   4.512  14.131  0.3584 -0.3481 -0.6799
  856MPD2    C412570   1.849   4.401  14.127  0.0166  0.1188  0.0615
  856MPD2    C512571   1.881   4.288  14.198 -0.5787 -0.3261 -0.1883
  856MPD2     H12572   2.107   4.594  14.220 -0.3737  0.4402  0.4209
  856MPD2    H112573   1.753   4.398  14.077 -0.2160  1.0403  0.4397
  856MPD2    H212574   1.999   4.196  14.344  0.8172 -0.3189 -0.9980
  856MPD2    H312575   1.809   4.207  14.197 -0.1454 -0.7461  1.6307
  856MPD2     N12576   1.884   4.626  14.065  0.0303  0.1627  0.1506
  856MPD2    H512577   1.796   4.608  14.017 -0.2639  2.1372 -0.0634
  856MPD2    N112578   2.183   4.404  14.364  0.5482 -0.0986 -0.3827
  856MPD2    H712579   2.234   4.490  14.350  1.0729  0.0968  2.8981
  857MPD2     C12580   3.799   1.550  13.499 -0.2535 -0.2203 -0.7485
  857MPD2    C112581   3.849   1.628  13.391  0.2505  0.3288  0.4634
  857MPD2    C212582   3.867   1.766  13.413 -0.5426 -0.5717  0.1591
  857MPD2    C312583   3.848   1.812  13.543  0.2987  0.0422 -0.2423
  857MPD2    C412584   3.802   1.734  13.642  0.1605  0.8415 -0.3751
  857MPD2    C512585   3.785   1.601  13.623  0.7228  0.4214 -0.2700
  857MPD2     H12586   3.903   1.834  13.336  0.7310  2.0554  3.0435
  857MPD2    H112587   3.799   1.765  13.746  1.7500 -1.0098  0.2275
  857MPD2    H212588   3.782   1.444  13.482 -1.3205 -0.2758  0.6060
  857MPD2    H312589   3.764   1.536  13.707 -2.3730 -0.7573 -1.9462
  857MPD2     N12590   3.889   1.948  13.565 -0.7339 -0.0122 -0.2422
  857MPD2    H512591   3.915   2.009  13.488 -1.5047 -0.8488 -1.1633
  857MPD2    N112592   3.865   1.564  13.266 -0.0041  0.3592  0.2193
  857MPD2    H712593   3.850   1.464  13.272  1.5854  0.1927  1.4550
  858MPD2     C12594   4.442   0.839  17.318  0.5980  0.1295 -0.6505
  858MPD2    C112595   4.405   0.940  17.236 -0.0058  0.3685  0.1731
  858MPD2    C212596   4.393   1.065  17.287  0.6191  0.3527 -0.0723
  858MPD2    C312597   4.424   1.095  17.419 -0.3748 -0.3860 -0.1201
  858MPD2    C412598   4.458   0.989  17.499 -0.3980  0.1297 -0.1253
  858MPD2    C512599   4.458   0.862  17.453 -0.0020  0.3058  0.1367
  858MPD2     H12600   4.386   1.147  17.217 -1.7904  1.2077  1.1749
  858MPD2    H112601   4.475   0.997  17.606 -0.0024  1.8498 -0.3102
  858MPD2    H212602   4.452   0.738  17.278  0.5026 -0.7335  1.4892
  858MPD2    H312603   4.486   0.782  17.520  0.4745  2.0607  2.0181
  858MPD2     N12604   4.430   1.224  17.477 -0.2963  0.3669  0.1914
  858MPD2    H512605   4.457   1.217  17.575  0.4953 -0.2976 -0.0752
  858MPD2    N112606   4.377   0.913  17.104 -0.0055  0.2873  0.1873
  858MPD2    H712607   4.411   0.824  17.070  0.8508  0.7852 -0.2740
  859MPD2     C12608   2.574   3.008  15.427 -0.9240 -0.7486 -0.2986
  859MPD2    C112609   2.707   2.976  15.440 -0.1611  0.2842 -0.5330
  859MPD2    C212610   2.736   2.866  15.515 -0.0394  0.0296 -0.0079
  859MPD2    C312611   2.637   2.786  15.577  0.0878 -0.2407 -0.0971
  859MPD2    C412612   2.504   2.819  15.561 -0.5229 -0.6184 -0.3443
  859MPD2    C512613   2.474   2.940  15.491 -0.1198  0.1882 -0.6951
  859MPD2     H12614   2.842   2.850  15.529  0.6399  3.4838 -1.1301
  859MPD2    H112615   2.417   2.770  15.602  1.4030 -1.6999  2.4574
  859MPD2    H212616   2.541   3.099  15.377  0.3564 -0.1567 -0.0772
  859MPD2    H312617   2.372   2.974  15.474  0.3126  1.3944 -0.8835
  859MPD2     N12618   2.664   2.669  15.655  0.7441  0.2659  0.0501
  859MPD2    H512619   2.594   2.604  15.689  2.0066 -0.8456  0.4878
  859MPD2    N112620   2.801   3.055  15.374 -0.2624 -0.4710  0.0687
  859MPD2    H712621   2.761   3.128  15.317  2.6570  0.9438 -0.1343
  860MPD2     C12622   4.603   3.185  12.172  0.3484 -0.0227  0.3556
  860MPD2    C112623   4.694   3.158  12.271  0.1684 -0.8398  0.3070
  860MPD2    C212624   4.653   3.178  12.403  0.1733  0.4087  0.2734
  860MPD2    C312625   4.523   3.208  12.435 -0.4947  0.0827 -0.4236
  860MPD2    C412626   4.432   3.230  12.336 -0.2703  0.5312  0.4064
  860MPD2    C512627   4.473   3.219  12.206  0.3072  0.7616  0.7308
  860MPD2     H12628   4.719   3.156  12.486  0.8612 -2.0915 -0.9619
  860MPD2    H112629   4.332   3.269  12.355 -0.7286  0.9843 -3.0345
  860MPD2    H212630   4.633   3.171  12.068  0.5641 -0.2195  0.4446
  860MPD2    H312631   4.396   3.236  12.131 -1.9525  0.0974  2.9013
  860MPD2     N12632   4.491   3.214  12.569 -0.5473  0.2067  0.0526
  860MPD2    H512633   4.567   3.188  12.631 -0.9397  0.8233  0.7922
  860MPD2    N112634   0.101   3.118  12.252  0.1235  0.6278 -0.2058
  860MPD2    H712635   0.158   3.112  12.336  1.0871 -1.0074 -0.9661
  861MPD2     C12636   4.125   1.536  11.228  0.7153 -0.0749 -0.3490
  861MPD2    C112637   4.055   1.626  11.311 -0.6428 -0.0279 -0.3335
  861MPD2    C212638   3.992   1.735  11.254 -0.0885  0.6176  0.3294
  861MPD2    C312639   4.010   1.756  11.115  0.0232 -0.1767 -0.1477
  861MPD2    C412640   4.087   1.673  11.038  0.0122  0.4965  0.6328
  861MPD2    C512641   4.141   1.565  11.091  0.9560  0.1851  0.5784
  861MPD2     H12642   3.944   1.803  11.323 -0.5082 -0.6228  1.2608
  861MPD2    H112643   4.110   1.691  10.933  0.5874  1.1704  0.8750
  861MPD2    H212644   4.179   1.450  11.266 -0.2686  1.1957  3.8998
  861MPD2    H312645   4.195   1.498  11.026 -1.0976 -0.4668 -0.4751
  861MPD2     N12646   3.962   1.872  11.053 -0.1299 -0.2485  0.5363
  861MPD2    H512647   3.979   1.859  10.954 -0.3911 -2.7730  0.7985
  861MPD2    N112648   4.077   1.610  11.446  0.2413 -0.4683  0.1810
  861MPD2    H712649   4.157   1.552  11.469  1.1791  0.3048 -1.1602
  862MPD2     C12650   3.705   2.113  10.477  0.3136  0.8360  0.0662
  862MPD2    C112651   3.697   2.055  10.604  0.0727  0.0815  0.0242
  862MPD2    C212652   3.662   1.925  10.610  0.0743 -0.0486 -0.0409
  862MPD2    C312653   3.640   1.847  10.498  0.0529 -0.8623 -0.9093
  862MPD2    C412654   3.639   1.906  10.376  0.1854  0.3434 -0.3888
  862MPD2    C512655   3.667   2.040  10.367 -0.0354  0.1015  0.1370
  862MPD2     H12656   3.679   1.885  10.709  0.8614 -1.4486 -0.7403
  862MPD2    H112657   3.603   1.847  10.293  0.3725  0.7766 -0.7793
  862MPD2    H212658   3.729   2.218  10.464  1.1310  0.6840  0.3769
  862MPD2    H312659   3.652   2.090  10.273  3.2658  2.0211  0.6474
  862MPD2     N12660   3.642   1.706  10.503 -0.7944  0.2966 -0.4114
  862MPD2    H512661   3.601   1.650  10.429  1.0217  1.8129 -2.5965
  862MPD2    N112662   3.752   2.108  10.717 -0.4369 -1.3975 -0.6571
  862MPD2    H712663   3.732   2.065  10.807 -2.2205  0.6689 -0.0746
  863MPD2     C12664   2.743   0.029  16.339 -0.1259 -0.2130 -0.5188
  863MPD2    C112665   2.682   0.013  16.459 -0.7186  0.3890  0.5789
  863MPD2    C212666   2.756   4.714  16.571  0.5572  0.9575 -0.0956
  863MPD2    C312667   2.897   4.704  16.562  0.7278 -0.4110 -0.0271
  863MPD2    C412668   2.956   4.718  16.441 -0.0125  1.0134 -0.1862
  863MPD2    C512669   2.882   0.024  16.329 -0.9367 -0.1518 -0.3902
  863MPD2     H12670   2.715   4.722  16.672 -0.1926  1.6993 -0.4532
  863MPD2    H112671   3.060   4.703  16.416 -0.6418 -0.1837 -2.0741
  863MPD2    H212672   2.684   0.064  16.255 -0.8067 -0.4907 -0.1631
  863MPD2    H312673   2.921   0.051  16.232  0.0997  1.9661  0.6250
  863MPD2     N12674   2.971   4.649  16.673  0.3909  0.3332  0.8389
  863MPD2    H512675   3.072   4.646  16.662  0.2741  0.4309 -0.3182
  863MPD2    N112676   2.541   0.023  16.479  0.3891 -0.6556 -1.1628
  863MPD2    H712677   2.509   0.026  16.576  1.7245  1.3468 -0.7853
  864MPD2     C12678   3.231   0.611  16.742  0.3910 -0.2133  0.1989
  864MPD2    C112679   3.155   0.722  16.781 -0.3460 -0.0463  0.4310
  864MPD2    C212680   3.218   0.846  16.784  0.1095 -0.5049  0.3668
  864MPD2    C312681   3.354   0.865  16.743 -0.6136  0.2457  0.3286
  864MPD2    C412682   3.425   0.742  16.713  0.2327 -0.4121  0.0557
  864MPD2    C512683   3.364   0.617  16.714 -0.6366  0.1856 -0.5531
  864MPD2     H12684   3.151   0.928  16.810  0.7226  0.3797 -0.7992
  864MPD2    H112685   3.530   0.750  16.688  0.2563  1.8338  0.8625
  864MPD2    H212686   3.182   0.517  16.718 -2.1562  1.6990 -2.1379
  864MPD2    H312687   3.419   0.533  16.672 -1.0345 -0.1287 -0.4519
  864MPD2     N12688   3.422   0.985  16.751 -0.1348  0.8450 -0.1813
  864MPD2    H512689   3.523   0.985  16.738 -0.2023 -1.5066 -0.6604
  864MPD2    N112690   3.008   0.706  16.794  0.6140  0.1196 -0.1101
  864MPD2    H712691   2.978   0.610  16.780  0.6369  0.2186 -0.8263
  865MPD2     C12692   3.418   1.569  16.202 -0.3279  0.1737  0.4700
  865MPD2    C112693   3.357   1.455  16.246  0.5656 -0.7864 -0.2296
  865MPD2    C212694   3.334   1.441  16.387  0.4069 -0.4145 -0.2190
  865MPD2    C312695   3.380   1.540  16.477 -0.1512  0.4010 -0.3960
  865MPD2    C412696   3.442   1.648  16.421 -0.7702 -0.3230 -0.5947
  865MPD2    C512697   3.455   1.665  16.285  0.5051 -0.0290 -0.6441
  865MPD2     H12698   3.302   1.352  16.441 -1.0513  2.2325  3.3147
  865MPD2    H112699   3.490   1.721  16.484  0.9989 -1.3343 -0.7507
  865MPD2    H212700   3.438   1.585  16.097 -0.2187 -1.5920  0.2312
  865MPD2    H312701   3.500   1.755  16.245 -0.7275  0.2945 -1.2839
  865MPD2     N12702   3.373   1.509  16.614 -0.1686  0.0994  0.4122
  865MPD2    H512703   3.335   1.421  16.648  2.5919 -1.3627 -0.3269
  865MPD2    N112704   3.325   1.356  16.153 -0.1665 -0.9854 -0.4794
  865MPD2    H712705   3.350   1.369  16.056 -2.3246  1.3189 -0.7110
  866MPD2     C12706   0.153   1.781  11.702 -0.1336  1.5729 -0.1837
  866MPD2    C112707   0.170   1.858  11.589 -0.4871  0.4839 -0.5719
  866MPD2    C212708   0.055   1.921  11.534 -0.7395 -0.1456 -0.1995
  866MPD2    C312709   4.657   1.897  11.581  0.0432  0.4254 -0.5028
  866MPD2    C412710   4.641   1.817  11.693 -0.0608  0.2276 -0.8914
  866MPD2    C512711   0.027   1.749  11.743 -0.0106 -0.6653  0.2366
  866MPD2     H12712   0.068   1.969  11.437 -1.0546 -1.4267 -0.8783
  866MPD2    H112713   4.551   1.802  11.751 -0.0309 -0.9594 -1.1461
  866MPD2    H212714   0.228   1.708  11.731 -1.9681 -0.0551  0.4408
  866MPD2    H312715   0.016   1.671  11.817 -0.1086  0.8621  1.8453
  866MPD2     N12716   4.541   1.969  11.535 -0.4609  0.1502 -0.5575
  866MPD2    H512717   4.462   1.958  11.598  2.0336 -1.5675  2.2752
  866MPD2    N112718   0.303   1.866  11.539  0.4312  0.1402  0.0732
  866MPD2    H712719   0.375   1.827  11.598  1.3240 -0.2025 -1.2391
  867MPD2     C12720   1.751   0.946  16.111  0.0246  0.4637  0.2803
  867MPD2    C112721   1.773   0.982  16.237  0.2491 -0.0114  0.1495
  867MPD2    C212722   1.746   1.111  16.280  0.4058  0.6118  0.3249
  867MPD2    C312723   1.683   1.193  16.192  0.4643  0.0299 -0.0267
  867MPD2    C412724   1.653   1.155  16.061 -0.1350  0.3318  0.0530
  867MPD2    C512725   1.685   1.030  16.023 -0.4194 -0.4353 -0.4168
  867MPD2     H12726   1.766   1.141  16.383 -0.4416 -1.6718  1.1533
  867MPD2    H112727   1.597   1.217  15.993  0.7642 -0.7445 -1.6502
  867MPD2    H212728   1.784   0.851  16.072 -0.7156 -0.4554  1.8817
  867MPD2    H312729   1.661   0.984  15.928 -0.5244 -0.7210 -0.2523
  867MPD2     N12730   1.646   1.323  16.223 -0.4736 -0.0816  0.1212
  867MPD2    H512731   1.605   1.378  16.148 -2.1892 -2.4478 -0.6951
  867MPD2    N112732   1.841   0.890  16.315  0.5898 -0.2236  1.6666
  867MPD2    H712733   1.853   0.795  16.283 -1.9320  0.5247 -1.5653
  868MPD2     C12734   4.328   0.170  13.048  0.4337 -0.8575 -0.1439
  868MPD2    C112735   4.262   0.081  13.124 -0.0385 -0.5865 -0.1362
  868MPD2    C212736   4.131   0.113  13.169 -0.2645 -0.5596 -0.0634
  868MPD2    C312737   4.077   0.233  13.126 -0.4132  0.6787  0.2417
  868MPD2    C412738   4.149   0.322  13.047  0.1594  0.0580 -0.5239
  868MPD2    C512739   4.272   0.287  13.001  0.3124  0.7310 -1.3375
  868MPD2     H12740   4.068   0.046  13.226  2.6838 -2.4038  0.9946
  868MPD2    H112741   4.121   0.423  13.019  0.7836  0.8825  1.8037
  868MPD2    H212742   4.432   0.158  13.021  0.6070  1.2493 -0.4242
  868MPD2    H312743   4.335   0.350  12.939 -0.2767  1.7042 -0.9438
  868MPD2     N12744   3.950   0.263  13.179  0.2682 -0.0006  0.0038
  868MPD2    H512745   3.899   0.187  13.224 -0.0380 -0.1339 -0.5621
  868MPD2    N112746   4.327   4.693  13.170 -0.3420  0.3134  0.2212
  868MPD2    H712747   4.421   4.689  13.132  0.8595  0.3093  3.1864
  869MPD2     C12748   4.636   2.366   2.211 -0.2525  0.3375  0.7841
  869MPD2    C112749   0.008   2.444   2.172 -0.9752  0.6425  0.2525
  869MPD2    C212750   4.712   2.568   2.111  0.8154  0.2504  0.8379
  869MPD2    C312751   4.584   2.602   2.078  0.1882  0.2519  0.5659
  869MPD2    C412752   4.481   2.523   2.122  0.4217  0.3019  0.8386
  869MPD2    C512753   4.499   2.410   2.192  0.2187  0.3588  0.2047
  869MPD2     H12754   0.067   2.619   2.061  0.7824 -0.2792  0.2321
  869MPD2    H112755   4.381   2.551   2.090  1.4827  1.5042 -1.4357
  869MPD2    H212756   4.652   2.268   2.253  1.7098  0.3916  0.1754
  869MPD2    H312757   4.412   2.357   2.228 -0.0116  0.9158  0.4665
  869MPD2     N12758   4.556   2.713   1.991  0.1501 -0.3837  0.2782
  869MPD2    H512759   4.458   2.735   1.976  0.2264  0.0052  0.3543
  869MPD2    N112760   0.141   2.388   2.182 -0.4167 -0.0951 -0.7715
  869MPD2    H712761   0.142   2.293   2.217 -0.8428  0.6732  1.2822
  870MPD2     C12762   4.676   2.215   1.815 -0.7160 -0.2390  0.6228
  870MPD2    C112763   4.684   2.093   1.750 -0.0038 -0.1078  0.8814
  870MPD2    C212764   4.601   2.070   1.642  0.0119 -0.2808 -0.3563
  870MPD2    C312765   4.506   2.172   1.608  0.5343  0.3213 -0.0976
  870MPD2    C412766   4.505   2.295   1.675 -0.1435  0.2729  0.3208
  870MPD2    C512767   4.581   2.311   1.784 -0.4631  0.3670  0.4641
  870MPD2     H12768   4.588   1.978   1.587  0.8353 -0.7330  0.2051
  870MPD2    H112769   4.441   2.376   1.640  0.3372  0.8372  0.7462
  870MPD2    H212770   0.025   2.228   1.891  0.4316  0.5566 -0.6775
  870MPD2    H312771   4.598   2.408   1.831 -1.4922  1.2240 -0.9307
  870MPD2     N12772   4.422   2.143   1.499 -0.2950 -0.3509 -0.0072
  870MPD2    H512773   4.420   2.058   1.444  1.4132 -0.0355 -0.5493
  870MPD2    N112774   0.042   1.994   1.802 -0.0117  0.2581 -0.9222
  870MPD2    H712775   0.105   2.023   1.877  0.7259  0.1076 -1.4820
  871MPD2     C12776   0.900   1.094  16.460 -0.9178 -0.4723 -0.2707
  871MPD2    C112777   0.808   1.035  16.546  0.3632 -0.3893  0.3277
  871MPD2    C212778   0.757   0.909  16.516 -0.1207  0.0150  0.2614
  871MPD2    C312779   0.799   0.837  16.400 -0.0217  0.2791 -0.1270
  871MPD2    C412780   0.895   0.896  16.316 -0.4308 -0.2894  1.0918
  871MPD2    C512781   0.940   1.023  16.347  0.0309 -0.8071 -0.3531
  871MPD2     H12782   0.680   0.866  16.579 -0.7657 -0.6137 -0.9525
  871MPD2    H112783   0.934   0.850  16.226 -0.8334 -2.3920  1.9932
  871MPD2    H212784   0.934   1.195  16.478 -0.8012 -0.9625  2.2087
  871MPD2    H312785   0.999   1.078  16.275  0.6737 -2.3380 -0.9817
  871MPD2     N12786   0.757   0.704  16.380 -0.3829 -0.6453  0.1560
  871MPD2    H512787   0.708   0.666  16.461  0.6368 -1.0138  0.5996
  871MPD2    N112788   0.775   1.105  16.662 -0.6978  0.3242 -0.0009
  871MPD2    H712789   0.816   1.197  16.670 -1.0547  0.4777  0.0667
  872MPD2     C12790   1.960   3.509  14.389  0.0695  0.7181 -0.1715
  872MPD2    C112791   1.881   3.615  14.361 -0.2002  0.3639  0.2609
  872MPD2    C212792   1.753   3.612  14.413 -0.1050 -0.0833  0.2134
  872MPD2    C312793   1.705   3.515  14.496  0.3510 -0.4006  0.1454
  872MPD2    C412794   1.791   3.412  14.529  0.7439 -0.0487 -0.3349
  872MPD2    C512795   1.918   3.408  14.476  0.2390 -0.1239 -0.7192
  872MPD2     H12796   1.692   3.701  14.402 -0.9392 -0.9474 -2.1271
  872MPD2    H112797   1.767   3.340  14.606  2.3837 -2.4631 -2.0611
  872MPD2    H212798   2.060   3.494  14.351  0.7915  1.9235  1.2383
  872MPD2    H312799   1.987   3.336  14.517 -0.4016 -1.5777 -2.1838
  872MPD2     N12800   1.583   3.518  14.566 -0.3977 -0.0865 -0.1680
  872MPD2    H512801   1.567   3.443  14.633  0.8448 -2.8053 -2.9360
  872MPD2    N112802   1.912   3.727  14.282 -0.0436  0.3918 -0.2148
  872MPD2    H712803   1.840   3.795  14.259 -1.4269 -0.7923  0.6047
  873MPD2     C12804   2.755   3.897   0.587 -0.0289 -0.6938 -0.3417
  873MPD2    C112805   2.757   3.820   0.704 -0.6763  0.0630  0.2121
  873MPD2    C212806   2.822   3.699   0.683  0.1143  0.6947 -0.7222
  873MPD2    C312807   2.845   3.647   0.556  0.2840  0.2454 -0.2965
  873MPD2    C412808   2.811   3.713   0.439  0.9400  0.1005 -0.0553
  873MPD2    C512809   2.779   3.845   0.460  0.5443 -0.0078  0.3224
  873MPD2     H12810   2.840   3.638   0.770 -0.2855 -1.1868 -1.9644
  873MPD2    H112811   2.827   3.683   0.336 -1.0843 -1.2973  0.0411
  873MPD2    H212812   2.724   4.000   0.594  2.3883  0.0392 -0.6630
  873MPD2    H312813   2.780   3.913   0.376 -0.3694 -1.9500 -1.2757
  873MPD2     N12814   2.907   3.522   0.540 -0.8274 -0.8266  0.2899
  873MPD2    H512815   2.903   3.477   0.450 -2.4201 -0.3961  0.1557
  873MPD2    N112816   2.752   3.889   0.827 -0.5833  0.0522  0.3268
  873MPD2    H712817   2.740   3.989   0.827  0.8860  0.2254  1.1074
  874MPD2     C12818   2.909   3.840  16.175 -0.2440 -0.1965  0.1352
  874MPD2    C112819   3.022   3.770  16.138  0.2842 -0.0437 -0.0010
  874MPD2    C212820   3.135   3.803  16.206 -0.7816 -0.1380  1.0146
  874MPD2    C312821   3.142   3.907  16.301  0.1631  0.1988 -0.5079
  874MPD2    C412822   3.032   3.981  16.325  0.1733  0.3525 -0.3419
  874MPD2    C512823   2.917   3.949  16.259  0.0496  0.3948 -0.1303
  874MPD2     H12824   3.225   3.742  16.202  0.2408  1.5073 -1.0802
  874MPD2    H112825   3.022   4.059  16.399 -0.2428 -0.0222 -0.0015
  874MPD2    H212826   2.811   3.809  16.143  0.2279 -0.8960 -0.6346
  874MPD2    H312827   2.829   4.007  16.288  1.8639  2.3022  1.5745
  874MPD2     N12828   3.256   3.904  16.387  1.1738 -0.5191 -0.2962
  874MPD2    H512829   3.313   3.819  16.379 -1.1874 -2.2534  1.4270
  874MPD2    N112830   3.004   3.651  16.054 -0.2532  0.5186  0.1676
  874MPD2    H712831   2.911   3.622  16.026  0.7931 -0.1059 -2.6567
  875MPD2     C12832   4.385   2.082  14.596 -0.2977  0.3654  0.1087
  875MPD2    C112833   4.277   2.035  14.670  0.6660  0.0216  0.0638
  875MPD2    C212834   4.265   2.069  14.808 -0.0656 -0.1514 -0.0096
  875MPD2    C312835   4.360   2.151  14.864 -0.2223  0.1816 -0.0575
  875MPD2    C412836   4.455   2.204  14.788  0.6372 -0.2079  0.3163
  875MPD2    C512837   4.470   2.170  14.658  0.5270 -0.2470  0.7352
  875MPD2     H12838   4.179   2.025  14.857  1.5209 -0.8319  2.1847
  875MPD2    H112839   4.531   2.269  14.832 -0.3602  1.7039 -0.7656
  875MPD2    H212840   4.411   2.063  14.492  0.5279  3.1607 -0.1880
  875MPD2    H312841   4.557   2.210  14.606  0.7180  0.8656  1.8912
  875MPD2     N12842   4.351   2.200  14.998 -0.0089  0.1485  1.1033
  875MPD2    H512843   4.421   2.266  15.029  0.2143 -0.5664  2.1292
  875MPD2    N112844   4.170   1.964  14.608 -0.1289  0.3128  0.2763
  875MPD2    H712845   4.095   1.930  14.668 -1.0838  1.6799 -0.1393
  876MPD2     C12846   2.862   3.002  15.834 -0.5925 -0.8791  0.0853
  876MPD2    C112847   2.990   3.028  15.871  0.0487 -0.3751 -0.0472
  876MPD2    C212848   3.041   2.942  15.969 -0.2050  0.2362 -0.2802
  876MPD2    C312849   2.971   2.827  16.014 -0.3031 -0.1040  0.9544
  876MPD2    C412850   2.845   2.800  15.973  0.8033  0.0829  0.1650
  876MPD2    C512851   2.793   2.889  15.880  0.1751 -0.3459  0.3995
  876MPD2     H12852   3.146   2.947  15.995 -0.2593 -0.0135 -0.0053
  876MPD2    H112853   2.793   2.713  16.011  0.9307 -0.6020 -1.2282
  876MPD2    H212854   2.810   3.064  15.762 -0.3139  0.2475  0.8676
  876MPD2    H312855   2.700   2.865  15.830  0.1923  0.7612 -0.1686
  876MPD2     N12856   3.052   2.738  16.088 -0.3396  0.5251  0.1132
  876MPD2    H512857   3.146   2.770  16.110  0.4972 -0.4083 -2.0786
  876MPD2    N112858   3.059   3.131  15.803  0.1685  0.0072 -0.2783
  876MPD2    H712859   3.002   3.187  15.741  2.6018 -1.3711 -3.7380
  877MPD2     C12860   2.995   3.718  15.333 -0.4587 -0.2581  0.2489
  877MPD2    C112861   3.128   3.690  15.347  0.1867  0.1712 -0.5397
  877MPD2    C212862   3.218   3.728  15.247 -0.9594  0.1450  0.1445
  877MPD2    C312863   3.177   3.800  15.134  0.2433 -0.2416  0.4346
  877MPD2    C412864   3.044   3.831  15.123 -0.5795  0.2561  0.0648
  877MPD2    C512865   2.956   3.787  15.222 -0.0077 -0.1292  0.1225
  877MPD2     H12866   3.320   3.695  15.260 -1.2264 -0.9241 -0.4497
  877MPD2    H112867   3.006   3.898  15.048 -2.0402  0.6647  1.1794
  877MPD2    H212868   2.926   3.700  15.415  0.0673 -2.1126  0.2808
  877MPD2    H312869   2.849   3.790  15.201  0.4733  0.8771 -2.2106
  877MPD2     N12870   3.265   3.853  15.033 -0.2656  0.4417  0.0683
  877MPD2    H512871   3.211   3.894  14.958 -0.3876 -0.2583 -0.2222
  877MPD2    N112872   3.187   3.614  15.453  0.2255 -0.4093  0.2381
  877MPD2    H712873   3.288   3.606  15.462  0.2208  0.0351  0.7093
  878MPD2     C12874   2.774   2.860  13.204  0.7094  0.2255 -0.2275
  878MPD2    C112875   2.857   2.966  13.222 -0.0073  0.3379 -0.3786
  878MPD2    C212876   2.868   3.020  13.347  0.2361 -0.4340 -0.0287
  878MPD2    C312877   2.795   2.975  13.455  0.6779 -0.1725 -0.2925
  878MPD2    C412878   2.717   2.860  13.438  0.6474 -0.1186 -0.0013
  878MPD2    C512879   2.702   2.812  13.312 -0.2659  0.5342  0.7154
  878MPD2     H12880   2.937   3.098  13.376  0.4598 -0.1451 -1.3687
  878MPD2    H112881   2.644   2.824  13.510  1.0588  1.0870  1.0070
  878MPD2    H212882   2.744   2.823  13.107 -0.5616 -2.5964  1.2602
  878MPD2    H312883   2.618   2.747  13.289  1.4010 -1.5669  0.5917
  878MPD2     N12884   2.821   3.037  13.578  0.1651 -0.0559  0.0604
  878MPD2    H512885   2.904   3.092  13.597 -0.5114  0.9379  0.1093
  878MPD2    N112886   2.929   3.016  13.109  0.1971 -0.2257 -0.3085
  878MPD2    H712887   2.896   2.982  13.019 -1.6940  0.9814 -0.0711
  879MPD2     C12888   3.684   0.056   0.024 -0.2849  0.1321  0.6941
  879MPD2    C112889   3.728   4.670   0.084 -0.4164 -0.2871  0.3996
  879MPD2    C212890   3.640   4.560   0.088  0.3197 -0.3259  0.4302
  879MPD2    C312891   3.518   4.560   0.021 -0.4167 -0.0139  0.1975
  879MPD2    C412892   3.471   4.685  17.691  0.1246  0.2550 -0.3018
  879MPD2    C512893   3.557   0.067  17.685  0.2266  0.1217 -0.4847
  879MPD2     H12894   3.681   4.465   0.121  3.4003  0.8653  0.0930
  879MPD2    H112895   3.369   4.702  17.660  0.2657  4.3351  1.4492
  879MPD2    H212896   3.738   0.149   0.017 -0.4198  0.1477 -0.1957
  879MPD2    H312897   3.515   0.161  17.652  0.3502  1.0165  1.8816
  879MPD2     N12898   3.431   4.452  17.703  0.7934 -0.2759 -0.1670
  879MPD2    H512899   3.349   4.476  17.648  0.5699 -0.8263 -0.0740
  879MPD2    N112900   3.862   4.662   0.132 -0.6031  0.1640 -0.4876
  879MPD2    H712901   3.912   0.023   0.137 -0.5644  0.3006 -3.6942
  880MPD2     C12902   0.430   1.497   0.502 -0.3471  0.0056 -0.1080
  880MPD2    C112903   0.303   1.521   0.544 -1.1129  0.0983 -0.5697
  880MPD2    C212904   0.263   1.456   0.665  0.8117 -0.6598 -0.2245
  880MPD2    C312905   0.347   1.372   0.736  0.2408  0.2267 -0.0592
  880MPD2    C412906   0.476   1.349   0.690 -0.3418  0.0923 -0.7509
  880MPD2    C512907   0.520   1.416   0.572  0.7079 -0.0011  0.1293
  880MPD2     H12908   0.158   1.467   0.691  1.4165 -0.4422  2.0952
  880MPD2    H112909   0.552   1.298   0.748 -0.0514  0.5884 -0.6883
  880MPD2    H212910   0.472   1.530   0.408 -1.9001 -0.7018 -1.0707
  880MPD2    H312911   0.618   1.385   0.538  1.0567  0.3706  0.8021
  880MPD2     N12912   0.290   1.318   0.853  0.1287 -0.0284  0.1514
  880MPD2    H512913   0.193   1.332   0.881  0.0526  0.5833 -0.4114
  880MPD2    N112914   0.219   1.615   0.478 -0.0338 -0.1671 -0.1641
  880MPD2    H712915   0.253   1.654   0.390 -0.1535 -0.1556 -0.2053
  881MPD2     C12916   0.236   1.588  17.369 -0.2804 -0.0090  0.3202
  881MPD2    C112917   0.223   1.715  17.405  1.1470 -0.4027 -0.0827
  881MPD2    C212918   0.156   1.746  17.521 -0.2040 -0.0342  0.3853
  881MPD2    C312919   0.120   1.650  17.606 -0.6035  0.2100  0.1046
  881MPD2    C412920   0.141   1.520  17.578 -0.2338  0.0650 -0.4694
  881MPD2    C512921   0.198   1.487  17.455 -0.2940 -0.4429 -0.6913
  881MPD2     H12922   0.139   1.849  17.550  0.7335  0.4589 -0.7988
  881MPD2    H112923   0.124   1.445  17.655 -0.4439  0.9901  0.3795
  881MPD2    H212924   0.285   1.558  17.277 -1.8070  2.4898 -1.3012
  881MPD2    H312925   0.220   1.383  17.431  2.3370  0.4056 -1.9804
  881MPD2     N12926   0.062   1.677   0.021 -0.2442 -0.5905 -0.0226
  881MPD2    H512927   0.045   1.599   0.083 -1.5955  0.4315  0.9084
  881MPD2    N112928   0.241   1.812  17.299 -0.4014  0.2528 -0.0458
  881MPD2    H712929   0.262   1.775  17.206 -1.6893  2.9178 -1.3968
  882MPD2     C12930   3.324   3.865  14.225  0.7019 -0.2549  0.3052
  882MPD2    C112931   3.246   3.874  14.341  0.5049  0.5078  1.0239
  882MPD2    C212932   3.113   3.908  14.338 -0.6243 -0.1134  0.4253
  882MPD2    C312933   3.051   3.933  14.217  0.6823  0.6983 -0.0930
  882MPD2    C412934   3.128   3.941  14.105 -0.4854  0.7860 -0.2686
  882MPD2    C512935   3.257   3.895  14.100 -0.0862 -0.0638  0.8748
  882MPD2     H12936   3.057   3.919  14.429 -0.8348  0.6008  0.2076
  882MPD2    H112937   3.082   3.968  14.010  1.2578  0.5455 -1.1705
  882MPD2    H212938   3.427   3.832  14.218  1.4432  1.4231  3.1247
  882MPD2    H312939   3.300   3.866  14.005 -1.4585  0.1578  0.1770
  882MPD2     N12940   2.912   3.952  14.212  0.1042  0.3208 -0.6652
  882MPD2    H512941   2.869   3.921  14.299 -1.1696 -0.2964 -1.5267
  882MPD2    N112942   3.325   3.868  14.457 -0.7797  0.1361 -0.7039
  882MPD2    H712943   3.425   3.857  14.446 -0.4800  1.5806  0.5580
  883MPD2     C12944   0.715   4.253  16.722 -0.2906 -0.2529 -0.2682
  883MPD2    C112945   0.722   4.125  16.782 -0.1704 -0.1860 -0.1346
  883MPD2    C212946   0.824   4.112  16.879  0.6502 -0.0229  0.3368
  883MPD2    C312947   0.914   4.209  16.901  0.4848  0.0081  0.2554
  883MPD2    C412948   0.915   4.329  16.827 -0.2722 -0.5084 -0.3577
  883MPD2    C512949   0.814   4.350  16.739 -0.0281 -0.0732  0.6727
  883MPD2     H12950   0.824   4.028  16.947  1.3512  0.0463  0.4266
  883MPD2    H112951   0.996   4.400  16.836 -0.5081 -0.1669 -0.9951
  883MPD2    H212952   0.631   4.275  16.658 -0.0288 -0.1400 -0.5715
  883MPD2    H312953   0.808   4.446  16.688  1.0688 -1.2895 -1.7238
  883MPD2     N12954   1.025   4.185  16.991  0.6917  0.4134 -0.1514
  883MPD2    H512955   1.011   4.103  17.048  2.4502 -0.6048 -1.1966
  883MPD2    N112956   0.627   4.022  16.769  0.7016 -0.2780 -0.1098
  883MPD2    H712957   0.655   3.933  16.809 -0.7046 -1.6395 -2.1057
  884MPD2     C12958   2.350   4.199  15.798  0.3445  0.5360 -0.2260
  884MPD2    C112959   2.388   4.287  15.708 -0.2331 -0.5633 -0.5142
  884MPD2    C212960   2.293   4.360  15.649 -0.1430 -0.0907 -0.2691
  884MPD2    C312961   2.160   4.340  15.670 -0.0990  0.3513 -0.5912
  884MPD2    C412962   2.120   4.246  15.765 -0.0120  0.6405 -0.3040
  884MPD2    C512963   2.219   4.185  15.838 -0.2135  0.1533  0.5357
  884MPD2     H12964   2.315   4.445  15.586  2.1984 -1.6069 -1.4946
  884MPD2    H112965   2.016   4.237  15.794  0.5346  1.4308  1.9149
  884MPD2    H212966   2.427   4.140  15.846  0.4632  0.1720 -0.8691
  884MPD2    H312967   2.197   4.119  15.921 -1.5832 -1.0177 -0.7602
  884MPD2     N12968   2.068   4.426  15.596  0.2443 -0.0018 -0.2700
  884MPD2    H512969   2.108   4.492  15.530  1.9683 -1.4453 -0.6645
  884MPD2    N112970   2.519   4.313  15.670  0.4614  0.0157 -0.1925
  884MPD2    H712971   2.530   4.404  15.627 -0.0320 -0.5427 -1.5011
  885MPD2     C12972   0.537   4.452   0.652  1.4604  0.5278 -0.2151
  885MPD2    C112973   0.667   4.473   0.607  0.7010 -0.0455  0.2282
  885MPD2    C212974   0.686   4.500   0.468  0.0480  0.2214 -0.6638
  885MPD2    C312975   0.577   4.479   0.383 -0.1326 -0.5086 -0.0762
  885MPD2    C412976   0.452   4.448   0.437 -0.2815 -0.1140  0.3428
  885MPD2    C512977   0.434   4.443   0.567  0.3823  0.0670  0.6931
  885MPD2     H12978   0.777   4.517   0.412  1.1815 -0.6168  0.9430
  885MPD2    H112979   0.366   4.425   0.375  0.1258 -1.2959  0.2165
  885MPD2    H212980   0.514   4.429   0.755 -0.9559 -1.6289 -1.2240
  885MPD2    H312981   0.339   4.408   0.606 -0.6479  1.0569 -0.9315
  885MPD2     N12982   0.595   4.502   0.242 -0.2640  0.3622  0.8868
  885MPD2    H512983   0.685   4.533   0.207  0.2852 -0.1633  1.8071
  885MPD2    N112984   0.762   4.478   0.712 -0.5361 -0.1866 -0.7176
  885MPD2    H712985   0.731   4.461   0.807  2.0706 -0.4883  0.0843
  886MPD2     C12986   1.514   3.106  15.410  0.5808 -0.6039 -0.4689
  886MPD2    C112987   1.644   3.070  15.406 -0.0043 -0.0279 -0.4638
  886MPD2    C212988   1.734   3.130  15.318  0.4320  0.0956  0.2694
  886MPD2    C312989   1.685   3.205  15.211 -0.3589 -0.1103 -0.1597
  886MPD2    C412990   1.552   3.231  15.211 -0.2394  0.2401  0.1349
  886MPD2    C512991   1.466   3.187  15.307  0.1024  0.6256  0.1682
  886MPD2     H12992   1.834   3.093  15.336  1.2764  1.6712 -1.1550
  886MPD2    H112993   1.519   3.300  15.133  1.4272  0.4397 -0.3861
  886MPD2    H212994   1.444   3.064  15.481 -0.4688  0.0570 -1.1086
  886MPD2    H312995   1.361   3.213  15.305 -0.7108 -2.6123  0.5608
  886MPD2     N12996   1.759   3.264  15.111  0.4469  0.5178 -0.0125
  886MPD2    H512997   1.705   3.320  15.047  1.3746  0.7404 -0.6030
  886MPD2    N112998   1.709   2.994  15.503 -0.2616  0.0003 -0.7478
  886MPD2    H712999   1.810   2.988  15.498 -0.1852 -1.8101  2.9064
  887MPD2     C13000   2.369   3.026  15.790  0.5695  0.3998  0.9204
  887MPD2    C113001   2.254   3.075  15.731 -0.0388  0.0564  0.3017
  887MPD2    C213002   2.269   3.189  15.661  0.5978 -0.1924 -0.1416
  887MPD2    C313003   2.390   3.252  15.646  0.3568 -0.1824 -0.4007
  887MPD2    C413004   2.503   3.204  15.717  0.2002 -0.2940 -0.9215
  887MPD2    C513005   2.489   3.085  15.781 -0.3364 -0.2135  0.6468
  887MPD2     H13006   2.179   3.234  15.619 -0.3769 -2.6147 -0.7091
  887MPD2    H113007   2.592   3.264  15.728 -1.7828  2.5604 -0.3352
  887MPD2    H213008   2.358   2.937  15.851 -1.3051  0.4621  0.6701
  887MPD2    H313009   2.570   3.046  15.842  1.7258  1.1031 -1.2701
  887MPD2     N13010   2.389   3.379  15.593  0.0186 -0.3790 -0.3562
  887MPD2    H513011   2.299   3.416  15.566 -0.2383 -0.8196 -0.1199
  887MPD2    N113012   2.124   3.030  15.755 -0.5975 -0.1639 -0.7072
  887MPD2    H713013   2.053   3.069  15.694  1.0642  2.7104 -0.8233
  888MPD2     C13014   4.681   3.250  15.383  0.4525 -0.2307 -0.2257
  888MPD2    C113015   4.565   3.289  15.447  0.4996  0.6661  0.3632
  888MPD2    C213016   4.532   3.426  15.457 -0.4154  0.0431  0.1509
  888MPD2    C313017   4.615   3.520  15.401 -0.0400  0.4029 -0.6629
  888MPD2    C413018   4.718   3.480  15.310 -0.0670 -0.2354  0.1955
  888MPD2    C513019   0.018   3.345  15.299  0.3093  0.2909  0.8296
  888MPD2     H13020   4.448   3.454  15.520 -0.5917  2.5622 -1.2321
  888MPD2    H113021   0.068   3.541  15.266 -1.3680  1.8703  0.8328
  888MPD2    H213022   4.714   3.148  15.375 -0.2573 -0.5807  1.3635
  888MPD2    H313023   0.101   3.299  15.247  1.7002  0.8237  2.5975
  888MPD2     N13024   4.588   3.660  15.402  0.3613 -0.6675 -0.6893
  888MPD2    H513025   4.649   3.718  15.347 -0.7124  0.0569 -1.1209
  888MPD2    N113026   4.503   3.184  15.523  0.4768  0.1020 -0.2954
  888MPD2    H713027   4.542   3.090  15.534 -0.3619 -0.4422 -1.9100
  889MPD2     C13028   3.836   2.673  13.304 -0.1032 -0.5872 -0.3199
  889MPD2    C113029   3.800   2.679  13.439 -0.0561  0.2125  0.1373
  889MPD2    C213030   3.775   2.807  13.488 -0.0589 -0.3448 -0.6766
  889MPD2    C313031   3.789   2.925  13.421  0.5068  0.2722  0.7795
  889MPD2    C413032   3.835   2.918  13.293  0.9973  0.2841  0.3369
  889MPD2    C513033   3.839   2.793  13.230 -0.2295 -0.2834  0.2020
  889MPD2     H13034   3.757   2.812  13.595  1.5279  0.3520 -0.4347
  889MPD2    H113035   3.846   3.006  13.230 -0.6534  0.6819  0.6059
  889MPD2    H213036   3.880   2.582  13.264  0.1776  0.5527 -2.5811
  889MPD2    H313037   3.861   2.784  13.124 -1.4778 -0.8162 -0.0179
  889MPD2     N13038   3.740   3.047  13.480 -0.2934 -0.4561  0.4652
  889MPD2    H513039   3.721   3.047  13.580  0.2788  3.3899  0.5391
  889MPD2    N113040   3.834   2.580  13.528  0.0931  0.1899  0.0013
  889MPD2    H713041   3.861   2.610  13.621  0.1253  3.0659 -0.9109
  890MPD2     C13042   3.570   4.408  14.588 -0.6128  0.2799 -1.1674
  890MPD2    C113043   3.635   4.500  14.672 -0.2616 -0.6360 -0.1752
  890MPD2    C213044   3.650   4.462  14.809  0.4715 -0.4684 -1.0222
  890MPD2    C313045   3.573   4.365  14.857  0.0341  0.4766 -0.0968
  890MPD2    C413046   3.495   4.286  14.777  0.8164 -0.4176  0.5379
  890MPD2    C513047   3.502   4.309  14.642 -0.3879  0.2656 -0.4068
  890MPD2     H13048   3.717   4.498  14.887  1.3004  1.9924 -2.8762
  890MPD2    H113049   3.445   4.195  14.807 -0.9056  0.5233  0.5330
  890MPD2    H213050   3.561   4.418  14.480 -1.0592  0.4768 -1.1122
  890MPD2    H313051   3.455   4.244  14.569 -1.9017 -1.9939  2.5222
  890MPD2     N13052   3.584   4.347  14.994 -0.1611  0.3213 -0.6291
  890MPD2    H513053   3.649   4.400  15.050 -0.6195  0.4960 -0.2603
  890MPD2    N113054   3.709   4.607  14.620 -0.3618 -0.8137 -0.3345
  890MPD2    H713055   3.699   4.624  14.521  0.3402 -0.6979 -0.3860
  891MPD2     C13056   1.304   2.970  16.838 -0.8486 -0.8429 -0.2691
  891MPD2    C113057   1.254   3.011  16.963  0.6263  0.4976  0.1928
  891MPD2    C213058   1.324   2.994  17.080 -0.4080  0.5245  0.0908
  891MPD2    C313059   1.457   2.934  17.073 -0.1534  0.6062 -0.1050
  891MPD2    C413060   1.505   2.900  16.950 -0.2067  0.5411  0.6681
  891MPD2    C513061   1.431   2.915  16.839  0.5134  0.3805  0.0559
  891MPD2     H13062   1.297   3.050  17.169  0.1235  0.1887  0.4618
  891MPD2    H113063   1.596   2.844  16.930 -1.2175 -1.0080  0.4057
  891MPD2    H213064   1.246   2.980  16.747 -1.2724  1.1918  0.2364
  891MPD2    H313065   1.482   2.893  16.746  0.4293  0.7704 -0.0846
  891MPD2     N13066   1.532   2.926  17.194  0.4692  0.4504 -0.7360
  891MPD2    H513067   1.479   2.933  17.281  2.9604 -0.4961  0.8571
  891MPD2    N113068   1.129   3.079  16.942 -0.1360 -0.1260 -0.1055
  891MPD2    H713069   1.089   3.100  16.851 -3.7327  2.7126  2.1336
  892MPD2     C13070   2.431   4.131  14.891  0.2705 -1.0082  0.2069
  892MPD2    C113071   2.338   4.087  14.799  0.0369  0.1778  0.0962
  892MPD2    C213072   2.375   4.035  14.677  1.0603  0.3006  0.0810
  892MPD2    C313073   2.511   4.019  14.651  0.3244 -0.7378 -0.3026
  892MPD2    C413074   2.603   4.071  14.738 -0.2432 -0.1632 -0.9038
  892MPD2    C513075   2.564   4.121  14.864  0.2430  0.1659 -0.0829
  892MPD2     H13076   2.290   4.013  14.613 -0.5781 -2.2636  3.1510
  892MPD2    H113077   2.710   4.061  14.722 -0.1743 -0.8583  0.0045
  892MPD2    H213078   2.404   4.189  14.978  1.1887  0.3248 -0.4008
  892MPD2    H313079   2.632   4.152  14.942  0.4423 -1.9292  0.5880
  892MPD2     N13080   2.553   3.965  14.525  0.0038  0.2789 -0.9993
  892MPD2    H513081   2.654   3.970  14.516  0.1420  1.3023  1.0673
  892MPD2    N113082   2.199   4.101  14.820 -0.8225  0.2931  0.5144
  892MPD2    H713083   2.127   4.083  14.751 -1.8536 -0.1877  1.7116
  893MPD2     C13084   4.706   3.188   1.220  0.9638  0.5631  0.5168
  893MPD2    C113085   4.682   3.052   1.220 -0.4495  0.9986 -0.5150
  893MPD2    C213086   4.566   3.002   1.277 -0.3971  0.4554 -0.5174
  893MPD2    C313087   4.476   3.099   1.328 -0.4144  0.1870 -0.5091
  893MPD2    C413088   4.497   3.230   1.321  0.0984 -0.5225  0.1831
  893MPD2    C513089   4.613   3.275   1.270 -0.2354  0.1368 -0.2335
  893MPD2     H13090   4.546   2.896   1.270 -1.0562  0.6483 -1.6323
  893MPD2    H113091   4.420   3.304   1.338  1.2720  0.9783 -1.0220
  893MPD2    H213092   0.074   3.230   1.191  0.5931 -0.1181 -1.6867
  893MPD2    H313093   4.644   3.378   1.282 -1.4830  0.3662  1.0333
  893MPD2     N13094   4.348   3.060   1.384  0.6164  0.1283 -0.2122
  893MPD2    H513095   4.279   3.127   1.418  1.2665  0.7548 -0.1346
  893MPD2    N113096   0.064   2.971   1.187  0.3729  0.0814  0.2409
  893MPD2    H713097   0.150   3.021   1.165 -0.0223 -0.1805 -1.8839
  894MPD2     C13098   1.560   0.453   0.840  0.3502 -0.4994 -0.4334
  894MPD2    C113099   1.667   0.488   0.913  0.3844 -0.0525 -0.0170
  894MPD2    C213100   1.750   0.594   0.868 -0.2636 -0.9566 -0.5179
  894MPD2    C313101   1.713   0.673   0.761  0.5906  0.3104  0.6859
  894MPD2    C413102   1.608   0.633   0.686 -0.4036 -1.0553 -0.2151
  894MPD2    C513103   1.525   0.528   0.734 -0.3638  0.6281 -0.4276
  894MPD2     H13104   1.838   0.617   0.926  0.2623  0.8963 -2.0605
  894MPD2    H113105   1.568   0.697   0.608  0.5300  1.2532  1.2010
  894MPD2    H213106   1.491   0.374   0.868 -2.5109  1.4422 -1.8585
  894MPD2    H313107   1.428   0.506   0.692 -0.0419 -0.8468 -0.4011
  894MPD2     N13108   1.780   0.802   0.748  0.6492 -0.1004 -0.2500
  894MPD2    H513109   1.854   0.822   0.814  0.5577  0.9104 -0.4606
  894MPD2    N113110   1.705   0.421   1.029 -0.1203 -0.3041  0.1692
  894MPD2    H713111   1.795   0.452   1.065  0.3146  0.5227 -1.6735
  895MPD2     C13112   1.521   3.421  14.145 -0.5789 -0.2577  0.0602
  895MPD2    C113113   1.438   3.410  14.029  0.0141  0.0688 -0.1490
  895MPD2    C213114   1.486   3.368  13.906  0.0390  0.4936  0.3228
  895MPD2    C313115   1.616   3.339  13.891 -0.1747  0.3455 -0.3030
  895MPD2    C413116   1.697   3.368  13.999 -0.6913 -0.0238 -0.3993
  895MPD2    C513117   1.654   3.407  14.127  1.3966  0.2120  0.1384
  895MPD2     H13118   1.416   3.348  13.825  1.0542  0.5560 -0.5617
  895MPD2    H113119   1.806   3.369  13.996 -0.6682 -0.4887  0.3671
  895MPD2    H213120   1.482   3.459  14.239 -0.2838  1.7979 -0.6525
  895MPD2    H313121   1.727   3.443  14.198 -0.8470  4.7413  0.1550
  895MPD2     N13122   1.661   3.274  13.776  0.5005  0.7259 -0.1734
  895MPD2    H513123   1.595   3.259  13.701 -1.3961  3.5887  0.9379
  895MPD2    N113124   1.301   3.422  14.038  0.2371 -0.5188  0.6695
  895MPD2    H713125   1.251   3.408  13.951 -1.2137  1.1341  1.2479
  896MPD2     C13126   3.987   1.489   1.291  0.1285  0.4865  0.3118
  896MPD2    C113127   4.003   1.397   1.194  0.1598 -0.2726  1.1275
  896MPD2    C213128   3.895   1.346   1.120  0.0983  0.0413  0.2357
  896MPD2    C313129   3.769   1.368   1.173 -0.0836  0.1155  0.3168
  896MPD2    C413130   3.754   1.477   1.263  0.2277 -0.4484 -0.1942
  896MPD2    C513131   3.860   1.528   1.326  0.0671 -0.0128 -0.1786
  896MPD2     H13132   3.914   1.280   1.036 -0.5078 -0.2564  0.3341
  896MPD2    H113133   3.656   1.501   1.301 -0.1980  0.1008 -1.6139
  896MPD2    H213134   4.074   1.541   1.330 -0.0068 -1.0758  2.7221
  896MPD2    H313135   3.843   1.611   1.394 -1.2197  0.8785 -1.5995
  896MPD2     N13136   3.645   1.322   1.128 -0.6563 -0.0078  0.0157
  896MPD2    H513137   3.564   1.347   1.183 -0.8502 -0.5308 -0.0351
  896MPD2    N113138   4.140   1.368   1.170 -0.5950  0.0348  0.6649
  896MPD2    H713139   4.208   1.423   1.221  0.8424  0.8645 -2.1504
  897MPD2     C13140   4.560   2.686  10.608  0.1937  0.1616  0.3129
  897MPD2    C113141   4.622   2.789  10.680  0.0055 -0.3533 -0.1821
  897MPD2    C213142   4.552   2.910  10.708 -0.0922 -0.4646 -0.2589
  897MPD2    C313143   4.426   2.932  10.661 -0.4778  0.4684 -0.3786
  897MPD2    C413144   4.363   2.828  10.594 -0.1041  0.5015 -0.2016
  897MPD2    C513145   4.430   2.705  10.568 -0.2332 -0.2675 -0.4079
  897MPD2     H13146   4.610   2.997  10.735 -1.8543  1.2038 -1.8399
  897MPD2    H113147   4.263   2.834  10.553  0.3261 -2.6215 -1.6845
  897MPD2    H213148   4.596   2.585  10.595  0.2820  0.2349 -0.0096
  897MPD2    H313149   4.377   2.622  10.521 -0.8304  0.2433 -0.6296
  897MPD2     N13150   4.359   3.054  10.689  0.2857  0.4573 -0.8700
  897MPD2    H513151   4.403   3.119  10.752 -0.9304  0.4361 -0.0074
  897MPD2    N113152   0.029   2.769  10.728 -0.4968 -0.1942 -0.5499
  897MPD2    H713153   0.074   2.684  10.696  0.2350  0.3897 -1.0489
  898MPD2     C13154   1.459   3.287   0.213  0.2909  0.4296  0.0117
  898MPD2    C113155   1.596   3.332   0.217  0.2248  0.2311 -1.1822
  898MPD2    C213156   1.649   3.426   0.131  0.1493 -0.0025 -0.4149
  898MPD2    C313157   1.562   3.489   0.039  0.2870  0.3630  0.2436
  898MPD2    C413158   1.426   3.463   0.052  0.5113  0.0856  0.2316
  898MPD2    C513159   1.379   3.353   0.124  0.8758  0.1434 -0.3795
  898MPD2     H13160   1.753   3.455   0.134 -0.3305  1.5648  1.1691
  898MPD2    H113161   1.363   3.528  17.702  0.3121 -1.5557 -1.3423
  898MPD2    H213162   1.424   3.206   0.275  2.1917 -0.9791 -0.7337
  898MPD2    H313163   1.275   3.326   0.111  1.0209 -1.2756  1.4526
  898MPD2     N13164   1.627   3.589  17.668 -0.4645  0.5263 -0.2296
  898MPD2    H513165   1.729   3.584  17.666 -0.4503  0.3784  0.5361
  898MPD2    N113166   1.686   3.274   0.304 -0.1145  0.2444  0.3285
  898MPD2    H713167   1.786   3.292   0.295 -0.0548 -1.5332 -2.5497
  899MPD2     C13168   3.000   4.093  17.196 -0.2214 -0.1635 -0.2470
  899MPD2    C113169   2.975   4.209  17.267  0.7728 -0.1994  0.3926
  899MPD2    C213170   2.913   4.202  17.389  0.6226  0.2714  0.1945
  899MPD2    C313171   2.873   4.076  17.433  0.7206  0.3482  0.3496
  899MPD2    C413172   2.898   3.961  17.360 -0.4446  0.1510  0.1975
  899MPD2    C513173   2.971   3.973  17.248  0.0956 -0.5200 -0.1633
  899MPD2     H13174   2.884   4.287  17.450 -4.0153 -0.6971 -0.6311
  899MPD2    H113175   2.861   3.863  17.387 -0.3109 -0.1703 -0.7638
  899MPD2    H213176   3.045   4.099  17.097 -2.2674  3.9155 -0.9112
  899MPD2    H313177   3.004   3.889  17.187 -0.0756 -0.2160 -0.6791
  899MPD2     N13178   2.789   4.061  17.543 -0.3253 -0.2986 -0.2645
  899MPD2    H513179   2.732   3.978  17.551  0.2638 -0.9026 -2.2479
  899MPD2    N113180   2.991   4.326  17.192  0.0708  0.1410 -0.3568
  899MPD2    H713181   3.008   4.312  17.093  0.0081 -0.1020 -0.3348
  900MPD2     C13182   2.237   1.066  12.423  0.3846 -1.0052 -0.4830
  900MPD2    C113183   2.186   0.947  12.392  0.2198  0.3393  0.1725
  900MPD2    C213184   2.075   0.920  12.323  0.2247  0.3805  0.1951
  900MPD2    C313185   1.995   1.028  12.287 -0.3861 -0.2686 -0.1491
  900MPD2    C413186   2.033   1.152  12.332 -0.1708  0.8499  0.5840
  900MPD2    C513187   2.154   1.172  12.391 -0.3858  0.3149 -0.0419
  900MPD2     H13188   2.057   0.817  12.295  0.5264  0.0096  1.3621
  900MPD2    H113189   1.968   1.238  12.321  1.3619  1.6672 -2.0484
  900MPD2    H213190   2.332   1.092  12.467  0.2856  0.6125 -1.2316
  900MPD2    H313191   2.191   1.272  12.410  1.7758 -0.4789 -0.0144
  900MPD2     N13192   1.863   1.012  12.235 -0.1367  0.1832 -0.0891
  900MPD2    H513193   1.852   0.914  12.211 -3.2541 -0.0431  2.2260
  900MPD2    N113194   2.274   0.842  12.431  0.4177 -0.1913 -0.4818
  900MPD2    H713195   2.367   0.865  12.465  0.8629 -1.7519 -0.6317
  901MPD2     C13196   2.554   4.672  12.965 -0.3051 -0.7657  0.0053
  901MPD2    C113197   2.642   4.694  12.865 -0.1798  0.4348  0.4346
  901MPD2    C213198   2.612   0.064  12.767 -0.9102 -0.4854 -0.1582
  901MPD2    C313199   2.505   0.146  12.792  0.2393 -0.1667 -0.0916
  901MPD2    C413200   2.430   0.136  12.904  0.6560  0.6442 -0.2382
  901MPD2    C513201   2.451   0.033  12.990  0.2576 -0.1492 -0.2813
  901MPD2     H13202   2.663   0.066  12.671  2.4311 -2.1303  1.6058
  901MPD2    H113203   2.366   0.216  12.938  0.6238 -0.3851  2.1335
  901MPD2    H213204   2.557   4.582  13.025  3.5974 -0.4319  0.3071
  901MPD2    H313205   2.386   0.010  13.073  0.0077  1.0522 -0.1444
  901MPD2     N13206   2.493   0.245  12.697 -0.0219 -0.9030  0.4025
  901MPD2    H513207   2.556   0.244  12.617  1.3881 -1.6541  1.5286
  901MPD2    N113208   2.739   4.595  12.841 -0.0088  0.3190  0.0589
  901MPD2    H713209   2.751   4.522  12.911  0.0781 -0.1256 -0.4207
  902MPD2     C13210   1.589   2.866  12.881  0.1881 -0.1705  0.0999
  902MPD2    C113211   1.509   2.967  12.827 -0.0169  0.2279 -0.1617
  902MPD2    C213212   1.515   2.977  12.695  0.2616 -0.4080  0.1127
  902MPD2    C313213   1.598   2.897  12.613  0.5882  0.7440 -0.1126
  902MPD2    C413214   1.690   2.812  12.670  0.3286  0.1603  0.0704
  902MPD2    C513215   1.676   2.792  12.805 -0.6538 -0.3524 -0.7546
  902MPD2     H13216   1.453   3.058  12.659  1.1594  0.6776  1.0296
  902MPD2    H113217   1.758   2.749  12.614  2.4714  2.5747 -0.0760
  902MPD2    H213218   1.578   2.833  12.984 -2.4779  0.7295  0.0962
  902MPD2    H313219   1.728   2.711  12.856 -0.7413  0.5761  0.7988
  902MPD2     N13220   1.590   2.917  12.475 -0.4251 -0.5150 -0.0399
  902MPD2    H513221   1.525   2.988  12.442 -0.7795 -0.5764  0.5182
  902MPD2    N113222   1.444   3.059  12.908 -0.4084  0.0961 -0.3129
  902MPD2    H713223   1.402   3.135  12.855 -2.8640 -0.4259  0.8823
  903MPD2     C13224   1.133   3.149  11.807  0.3326  0.4015 -0.2091
  903MPD2    C113225   1.134   3.077  11.923  0.0314 -0.2651  0.2672
  903MPD2    C213226   1.012   3.062  11.995 -0.3467 -0.4066  0.2004
  903MPD2    C313227   0.889   3.115  11.953  0.6071  0.1155  0.3980
  903MPD2    C413228   0.898   3.195  11.841  1.3997 -0.1124 -0.0634
  903MPD2    C513229   1.017   3.220  11.780  0.0146 -0.1957  0.0801
  903MPD2     H13230   1.004   2.997  12.081 -0.0367  1.2265  1.4679
  903MPD2    H113231   0.810   3.241  11.799 -0.2412 -1.4675  1.9060
  903MPD2    H213232   1.228   3.179  11.762 -1.0570  1.7061 -2.2912
  903MPD2    H313233   1.012   3.287  11.695  1.8722  1.0470  0.9643
  903MPD2     N13234   0.774   3.091  12.031  0.0618  0.1829 -0.2332
  903MPD2    H513235   0.784   3.028  12.110 -0.1688 -2.2450 -2.1352
  903MPD2    N113236   1.258   3.041  11.978  0.2733 -0.8787  0.1054
  903MPD2    H713237   1.330   3.046  11.907  0.1246 -1.0667 -0.0583
  904MPD2     C13238   1.238   2.357  14.175  0.0201 -0.6412 -0.5412
  904MPD2    C113239   1.278   2.475  14.119 -0.1269  0.0305 -0.0292
  904MPD2    C213240   1.411   2.481  14.076 -0.6589  0.5077 -0.2233
  904MPD2    C313241   1.502   2.378  14.096  0.1410 -0.7089  0.3330
  904MPD2    C413242   1.455   2.260  14.150 -0.9049  0.3714  0.6157
  904MPD2    C513243   1.325   2.253  14.192 -0.1545  0.5139 -0.0085
  904MPD2     H13244   1.450   2.570  14.029  1.5644 -0.3556 -0.0199
  904MPD2    H113245   1.519   2.177  14.178  0.4794  1.6685  1.3403
  904MPD2    H213246   1.133   2.350  14.203  0.1712 -1.1885 -0.0942
  904MPD2    H313247   1.285   2.163  14.237 -0.7602  0.9250  0.2739
  904MPD2     N13248   1.634   2.397  14.050 -0.0060  1.0044 -0.0009
  904MPD2    H513249   1.655   2.487  14.008  0.9952  1.1482  0.8184
  904MPD2    N113250   1.192   2.580  14.086 -0.1108  0.6476 -0.4900
  904MPD2    H713251   1.228   2.667  14.047  2.1100  0.1505  0.4677
  905MPD2     C13252   1.106   2.773  13.478 -0.3603 -0.2081 -0.7940
  905MPD2    C113253   1.154   2.864  13.579 -0.4297 -0.2972 -0.0234
  905MPD2    C213254   1.262   2.950  13.549 -0.4858  0.1703 -0.4678
  905MPD2    C313255   1.330   2.944  13.423  0.2319 -0.7521 -0.5786
  905MPD2    C413256   1.288   2.851  13.326  0.2081 -0.7630  0.2165
  905MPD2    C513257   1.175   2.772  13.358  0.4061  0.8476 -0.1275
  905MPD2     H13258   1.306   3.015  13.624 -0.8796  0.1921 -0.2540
  905MPD2    H113259   1.334   2.840  13.229  0.4429 -0.4261  0.2918
  905MPD2    H213260   1.029   2.700  13.503 -0.0084 -0.1850  0.3542
  905MPD2    H313261   1.153   2.694  13.286 -0.8717  1.2226 -0.1503
  905MPD2     N13262   1.446   3.010  13.388  0.1820  0.5052 -0.4989
  905MPD2    H513263   1.479   2.993  13.293  0.9328  0.2905 -0.1963
  905MPD2    N113264   1.093   2.858  13.706 -0.2414  0.4075  0.0069
  905MPD2    H713265   1.020   2.789  13.718 -0.8426  0.9173 -0.7421
  906MPD2     C13266   3.281   2.721  11.828  0.4530  0.3799 -0.3743
  906MPD2    C113267   3.271   2.611  11.747  0.8203 -0.7665 -0.3708
  906MPD2    C213268   3.184   2.510  11.775  0.0489  0.0025  0.1111
  906MPD2    C313269   3.126   2.499  11.900  0.0068  0.9168  0.2769
  906MPD2    C413270   3.151   2.604  11.994  0.7024  0.6719 -0.0455
  906MPD2    C513271   3.225   2.714  11.952 -0.4751 -0.2695 -0.1317
  906MPD2     H13272   3.173   2.434  11.698 -0.4311 -1.8007  1.9542
  906MPD2    H113273   3.104   2.604  12.091  0.7242  1.5588 -0.0281
  906MPD2    H213274   3.343   2.808  11.807  0.1095  1.5270  3.5046
  906MPD2    H313275   3.234   2.799  12.018  0.6445  1.3886 -2.4603
  906MPD2     N13276   3.040   2.391  11.938  0.4261 -0.3367  0.2588
  906MPD2    H513277   2.996   2.409  12.027  1.3089  0.4135  0.5350
  906MPD2    N113278   3.346   2.604  11.621 -0.3428  0.7499 -0.1162
  906MPD2    H713279   3.341   2.514  11.575  0.8184  0.3596  0.5315
  907MPD2     C13280   2.554   1.928  15.707  0.0780  0.4543  0.0048
  907MPD2    C113281   2.559   1.792  15.734  0.4192 -0.0977 -0.0029
  907MPD2    C213282   2.560   1.748  15.865  0.0127 -0.4468 -0.0374
  907MPD2    C313283   2.559   1.837  15.971 -0.1973  0.1263  0.1741
  907MPD2    C413284   2.546   1.976  15.942  1.1560 -0.0956 -0.4119
  907MPD2    C513285   2.539   2.009  15.813 -0.8510  1.0527 -0.5746
  907MPD2     H13286   2.555   1.641  15.885  1.2007 -0.4818  0.1092
  907MPD2    H113287   2.533   2.061  16.009 -3.0357  0.4560 -1.9021
  907MPD2    H213288   2.551   1.971  15.607 -1.9529  0.4715  0.0726
  907MPD2    H313289   2.527   2.114  15.786  0.9141  1.4149  0.0488
  907MPD2     N13290   2.564   1.784  16.098 -0.2185 -0.2940  0.1942
  907MPD2    H513291   2.560   1.682  16.100 -1.4232 -0.2109  1.9693
  907MPD2    N113292   2.555   1.693  15.638 -0.3873  0.8303 -0.6208
  907MPD2    H713293   2.537   1.597  15.665  0.8681  0.8721  0.3930
  908MPD2     C13294   0.504   2.438  10.157 -0.1367 -0.5588 -0.1322
  908MPD2    C113295   0.450   2.369  10.260  0.8941 -0.1155  0.3877
  908MPD2    C213296   0.425   2.440  10.376  0.4059  0.3189 -0.1064
  908MPD2    C313297   0.450   2.578  10.383 -0.3000  0.1410 -0.0858
  908MPD2    C413298   0.501   2.644  10.275 -0.0217 -0.1198  0.1101
  908MPD2    C513299   0.528   2.569  10.165  0.2611 -1.0246 -0.9726
  908MPD2     H13300   0.384   2.388  10.461 -1.2777 -0.7027 -1.5492
  908MPD2    H113301   0.508   2.752  10.260 -3.5205  0.3500  1.7857
  908MPD2    H213302   0.508   2.387  10.062 -0.0573  0.4234 -0.6530
  908MPD2    H313303   0.554   2.620  10.073 -0.2637  0.0560 -0.5150
  908MPD2     N13304   0.421   2.646  10.503 -0.4865  0.4382 -0.3775
  908MPD2    H513305   0.395   2.583  10.578 -0.0041 -0.7181 -1.1769
  908MPD2    N113306   0.424   2.228  10.270 -0.4281  0.6609 -0.1394
  908MPD2    H713307   0.375   2.194  10.352 -1.0807 -2.2476 -1.7216
  909MPD2     C13308   0.965   0.747  12.026  0.1266  0.0234 -0.0552
  909MPD2    C113309   0.897   0.804  11.917 -0.3933  0.0695  0.5806
  909MPD2    C213310   0.768   0.847  11.943 -0.1740 -0.3884  1.2123
  909MPD2    C313311   0.725   0.858  12.076 -0.0605  0.7626  0.4754
  909MPD2    C413312   0.798   0.802  12.182  0.1681  0.5197  1.0663
  909MPD2    C513313   0.917   0.751  12.158  0.0719  0.5111 -0.0831
  909MPD2     H13314   0.716   0.901  11.865  1.0322  0.1832  0.7962
  909MPD2    H113315   0.774   0.816  12.286  0.1278  0.9130  1.0032
  909MPD2    H213316   1.069   0.718  12.017  0.6033  1.5367  0.5467
  909MPD2    H313317   0.988   0.716  12.233 -0.1699 -0.6510 -0.3908
  909MPD2     N13318   0.606   0.931  12.102 -0.2139 -0.8923 -0.1267
  909MPD2    H513319   0.560   0.959  12.015  0.2950  2.2894  0.6319
  909MPD2    N113320   0.950   0.790  11.778 -0.0886  0.0886 -0.6780
  909MPD2    H713321   0.892   0.808  11.697 -0.4586  2.9991  0.2134
  910MPD2     C13322   1.537   2.283  15.803  0.9045 -0.0468 -0.4982
  910MPD2    C113323   1.666   2.321  15.764  0.1240  0.5431  0.0987
  910MPD2    C213324   1.684   2.413  15.662  0.4579 -0.7058 -0.6094
  910MPD2    C313325   1.572   2.470  15.600  0.6705 -0.2857  0.6880
  910MPD2    C413326   1.448   2.429  15.642  0.5394 -0.2055 -0.6798
  910MPD2    C513327   1.432   2.347  15.745  0.2363  0.0418 -0.1844
  910MPD2     H13328   1.781   2.423  15.617  0.8800 -2.0462 -0.0064
  910MPD2    H113329   1.357   2.455  15.590  1.1060 -0.3704 -1.7570
  910MPD2    H213330   1.522   2.200  15.870  0.8851 -0.9802 -1.6587
  910MPD2    H313331   1.331   2.323  15.777  0.5614 -0.5468  0.4066
  910MPD2     N13332   1.580   2.549  15.484  0.5538  0.2693  0.7536
  910MPD2    H513333   1.491   2.578  15.445  0.7520  0.1294  0.1965
  910MPD2    N113334   1.777   2.270  15.829 -0.1238 -0.3057  0.3723
  910MPD2    H713335   1.867   2.289  15.786 -0.9362 -0.7550 -1.5289
  911MPD2     C13336   4.362   2.888  16.408 -0.4741 -0.6016 -0.8399
  911MPD2    C113337   4.362   2.938  16.534  0.2934 -0.1813  0.0613
  911MPD2    C213338   4.264   3.030  16.569  0.1383 -1.1335  0.0044
  911MPD2    C313339   4.179   3.082  16.471  0.2667 -0.9023 -0.7007
  911MPD2    C413340   4.196   3.038  16.338 -0.0779 -0.8790  0.1134
  911MPD2    C513341   4.280   2.938  16.307 -0.7168 -0.2572 -0.2721
  911MPD2     H13342   4.245   3.064  16.670  1.5285 -0.1233 -0.0759
  911MPD2    H113343   4.144   3.096  16.263 -0.3416 -4.3387 -2.3968
  911MPD2    H213344   4.435   2.815  16.373  0.1211 -0.5686  0.3584
  911MPD2    H313345   4.284   2.907  16.204 -1.7814 -2.3616  0.3269
  911MPD2     N13346   4.096   3.191  16.495  0.0137 -0.6398  0.6877
  911MPD2    H513347   4.036   3.210  16.416  1.4297 -0.3786 -0.3168
  911MPD2    N113348   4.452   2.867  16.619  0.0786 -0.3825 -0.2323
  911MPD2    H713349   4.504   2.793  16.573  1.8434  1.3842 -1.0688
  912MPD2     C13350   3.926   3.181  16.007  0.7916 -0.4381  0.1180
  912MPD2    C113351   3.874   3.165  16.129 -0.1418  0.2356  0.6468
  912MPD2    C213352   3.888   3.034  16.177 -0.4580 -0.8651 -0.3132
  912MPD2    C313353   3.954   2.937  16.118 -0.3629  0.8322 -0.2722
  912MPD2    C413354   4.023   2.959  16.002  0.4455 -0.3543  0.3006
  912MPD2    C513355   4.006   3.085  15.944  0.2278  0.1169 -0.0689
  912MPD2     H13356   3.849   3.005  16.274  0.8100 -1.8497 -0.0987
  912MPD2    H113357   4.082   2.892  15.941  2.2036  0.4036  1.1886
  912MPD2    H213358   3.921   3.279  15.961  1.3875 -0.7394 -0.5854
  912MPD2    H313359   4.058   3.114  15.854  3.2438  1.5351  2.1266
  912MPD2     N13360   3.980   2.815  16.194 -0.1021 -0.3939 -0.1609
  912MPD2    H513361   3.950   2.807  16.291  1.9376  0.6274  0.5521
  912MPD2    N113362   3.801   3.273  16.184  0.3241 -0.4526  0.1706
  912MPD2    H713363   3.809   3.367  16.147  2.0352 -0.9636 -0.7403
  913MPD2     C13364   0.053   4.433  11.444 -0.1926  0.4026 -0.6106
  913MPD2    C113365   0.108   4.559  11.425 -0.0320  0.0839  0.6918
  913MPD2    C213366   0.146   4.610  11.303 -0.5873  0.3444 -0.7027
  913MPD2    C313367   0.129   4.525  11.194  0.1691 -0.8663  0.0913
  913MPD2    C413368   0.059   4.410  11.211 -0.0777 -0.0039  0.0909
  913MPD2    C513369   0.029   4.358  11.335  0.4855  0.2776  0.0174
  913MPD2     H13370   0.193   4.707  11.301 -2.0631  1.1125  0.7979
  913MPD2    H113371   0.042   4.352  11.121 -0.2389 -1.4040  1.0258
  913MPD2    H213372   0.013   4.399  11.538 -1.0725 -0.9088 -1.4545
  913MPD2    H313373   4.705   4.264  11.352 -0.0064  0.3723 -0.9652
  913MPD2     N13374   0.167   4.560  11.062  0.1805 -0.0794 -0.0637
  913MPD2    H513375   0.155   4.491  10.988 -0.9192 -0.3051  0.3309
  913MPD2    N113376   0.134   4.635  11.548  0.3822 -0.1741  0.0976
  913MPD2    H713377   0.107   4.594  11.637 -0.5626  0.9814  0.3348
  914MPD2     C13378   2.686   4.380  12.018  0.1362  0.3351 -0.2774
  914MPD2    C113379   2.799   4.457  12.044  0.4695 -0.0896 -0.4242
  914MPD2    C213380   2.884   4.418  12.148 -0.2154  0.5159 -0.5464
  914MPD2    C313381   2.844   4.311  12.220 -0.0439 -0.1552 -0.4691
  914MPD2    C413382   2.734   4.232  12.196  0.1263  0.2263 -0.0165
  914MPD2    C513383   2.657   4.265  12.085  0.2259 -0.7759  0.5075
  914MPD2     H13384   2.965   4.483  12.179 -0.7266  1.2593 -0.7441
  914MPD2    H113385   2.723   4.137  12.247  0.5467  0.4660  0.5168
  914MPD2    H213386   2.628   4.406  11.931  0.7687 -1.3558 -1.1988
  914MPD2    H313387   2.581   4.194  12.055 -1.1999  0.8888  0.1707
  914MPD2     N13388   2.922   4.294  12.341  0.5176 -0.3382  0.5948
  914MPD2    H513389   3.003   4.352  12.361 -1.1697  1.1933  2.9329
  914MPD2    N113390   2.829   4.572  11.975  0.8864  0.0720 -0.3364
  914MPD2    H713391   2.757   4.615  11.918  0.2531 -0.2219  0.2422
  915MPD2     C13392   0.807   4.278  15.910  0.3535 -0.6099 -0.1289
  915MPD2    C113393   0.702   4.345  15.857 -0.0630  0.1854  0.4394
  915MPD2    C213394   0.607   4.403  15.940 -0.0032 -0.5290  0.0836
  915MPD2    C313395   0.596   4.380  16.071  0.2853  0.4314  0.1920
  915MPD2    C413396   0.700   4.309  16.122  0.2170  0.1865  0.0771
  915MPD2    C513397   0.807   4.263  16.044  0.4325 -0.1226 -0.4392
  915MPD2     H13398   0.532   4.462  15.887 -0.4398  1.9844  3.4623
  915MPD2    H113399   0.698   4.283  16.227 -0.4716  1.6197  0.4080
  915MPD2    H213400   0.888   4.232  15.856  0.1352 -1.3643  0.1843
  915MPD2    H313401   0.886   4.211  16.097  0.2563 -0.9605 -1.0022
  915MPD2     N13402   0.498   4.441  16.156  0.2288 -0.6129 -0.1522
  915MPD2    H513403   0.429   4.501  16.110  0.0186 -0.4903  0.3217
  915MPD2    N113404   0.699   4.357  15.717  0.4721 -1.2084  1.0346
  915MPD2    H713405   0.767   4.304  15.663  1.0462  0.4635  0.1306
  916MPD2     C13406   3.664   2.664  16.056 -0.5842  0.5066 -1.4443
  916MPD2    C113407   3.616   2.539  16.085  0.8040  0.5205 -0.9149
  916MPD2    C213408   3.678   2.426  16.034  0.5268 -0.5185 -0.0257
  916MPD2    C313409   3.785   2.445  15.940 -1.0396  1.0081  0.0250
  916MPD2    C413410   3.824   2.579  15.916 -0.3005 -0.3154 -0.1109
  916MPD2    C513411   3.761   2.687  15.972  0.2123  0.3470 -0.4420
  916MPD2     H13412   3.629   2.329  16.041  1.3968 -1.2061 -3.8726
  916MPD2    H113413   3.913   2.589  15.854  0.0220  1.3898  0.6387
  916MPD2    H213414   3.607   2.746  16.099  0.7432  0.8610 -0.3736
  916MPD2    H313415   3.797   2.786  15.948 -0.2206  0.7418  0.5500
  916MPD2     N13416   3.831   2.338  15.864 -0.3462  0.6252  0.1249
  916MPD2    H513417   3.792   2.248  15.892 -1.6357  0.9826 -0.5332
  916MPD2    N113418   3.501   2.533  16.166  0.0469  0.3632  0.0560
  916MPD2    H713419   3.464   2.621  16.202 -0.9965  0.2860 -0.8370
  917MPD2     C13420   4.246   0.201  11.322  0.0812  0.6957  0.1199
  917MPD2    C113421   4.244   0.290  11.432  0.4710 -0.6360  0.0611
  917MPD2    C213422   4.250   0.428  11.414  0.1463 -0.1719 -0.3110
  917MPD2    C313423   4.250   0.470  11.284  0.1746 -0.1932 -0.9486
  917MPD2    C413424   4.262   0.380  11.180  1.0724 -0.3447  0.2301
  917MPD2    C513425   4.263   0.249  11.195 -0.0831  0.0805 -0.3946
  917MPD2     H13426   4.232   0.500  11.494 -0.2526 -0.2276 -0.3524
  917MPD2    H113427   4.263   0.410  11.076 -0.4923  0.6105  0.4891
  917MPD2    H213428   4.242   0.096  11.347 -2.4146  1.3443  2.4183
  917MPD2    H313429   4.267   0.174  11.117 -1.1072 -1.4952  1.0903
  917MPD2     N13430   4.246   0.609  11.255  0.0662  0.1959 -0.3633
  917MPD2    H513431   4.231   0.640  11.159 -2.0257 -1.4102 -0.5592
  917MPD2    N113432   4.220   0.228  11.557 -0.0915 -0.1082  0.0243
  917MPD2    H713433   4.215   0.127  11.561 -1.1458 -0.0108  1.2663
  918MPD2     C13434   4.427   0.255  12.594  0.5224  0.3888 -0.1734
  918MPD2    C113435   4.523   0.271  12.494 -0.0032  0.0884  0.2560
  918MPD2    C213436   4.480   0.272  12.363 -0.0088 -0.0494  0.4787
  918MPD2    C313437   4.346   0.252  12.323 -0.3128 -1.1306  0.0821
  918MPD2    C413438   4.254   0.234  12.423  0.3140  0.2335 -0.3002
  918MPD2    C513439   4.300   0.233  12.554  0.0903  1.1015 -0.0642
  918MPD2     H13440   4.561   0.285  12.293 -0.5004 -0.7634 -0.2323
  918MPD2    H113441   4.147   0.223  12.410 -0.1216  1.7168  1.9567
  918MPD2    H213442   4.444   0.257  12.701 -2.8267 -2.2204  0.4138
  918MPD2    H313443   4.228   0.226  12.635 -1.7241 -0.4401 -1.8391
  918MPD2     N13444   4.316   0.236  12.192  0.7204 -0.1249 -0.1232
  918MPD2    H513445   4.385   0.268  12.124 -0.0726  1.5546 -0.1431
  918MPD2    N113446   4.664   0.264  12.523 -0.0459 -0.3377 -0.3675
  918MPD2    H713447   0.010   0.293  12.460 -0.4861  1.0899 -0.2225
  919MPD2     C13448   3.933   3.964  11.827 -0.4018  0.1866  0.4724
  919MPD2    C113449   3.983   3.837  11.788  0.9683  0.3989  0.2915
  919MPD2    C213450   4.057   3.837  11.671  0.3785 -0.2646  0.6591
  919MPD2    C313451   4.071   3.950  11.591 -0.6385  0.2280  0.4027
  919MPD2    C413452   4.009   4.072  11.628  0.3154  0.1553 -0.9671
  919MPD2    C513453   3.958   4.081  11.757  0.3345  0.0931  0.2370
  919MPD2     H13454   4.099   3.743  11.637 -1.6764 -1.6173  1.8796
  919MPD2    H113455   4.005   4.161  11.567  2.7193  0.2923 -0.9207
  919MPD2    H213456   3.878   3.979  11.919 -0.9742  0.3434  0.0981
  919MPD2    H313457   3.913   4.173  11.791 -0.5717 -0.3136  0.1463
  919MPD2     N13458   4.154   3.950  11.482  0.2734  0.0474  0.9312
  919MPD2    H513459   4.139   4.020  11.409 -0.4037 -1.1393 -0.0674
  919MPD2    N113460   3.972   3.722  11.861 -0.0598 -0.4379 -0.2952
  919MPD2    H713461   4.021   3.643  11.819 -0.2762  0.3000 -1.9234
  920MPD2     C13462   4.552   4.451  10.735 -0.2975  0.2697  0.3071
  920MPD2    C113463   4.492   4.339  10.692  0.4799 -0.6678  0.2084
  920MPD2    C213464   4.452   4.247  10.782  0.0166 -0.6079 -0.3859
  920MPD2    C313465   4.483   4.257  10.915  0.1062 -1.2472  0.6092
  920MPD2    C413466   4.535   4.373  10.956  0.3872  0.9906 -0.1265
  920MPD2    C513467   4.578   4.466  10.866 -0.1970 -0.2226  0.2209
  920MPD2     H13468   4.403   4.161  10.738  1.6364 -1.7991  0.1317
  920MPD2    H113469   4.557   4.394  11.060 -0.7529 -0.1169  0.3427
  920MPD2    H213470   4.601   4.524  10.672 -0.8501 -2.9261 -3.7456
  920MPD2    H313471   4.624   4.555  10.908 -1.1207 -0.1760  1.1232
  920MPD2     N13472   4.456   4.150  10.993  0.1067  0.0980  0.7367
  920MPD2    H513473   4.434   4.062  10.947  0.7990 -0.4556  1.4463
  920MPD2    N113474   4.466   4.315  10.557 -0.5405 -0.1405  0.0293
  920MPD2    H713475   4.413   4.231  10.535  0.5639 -0.2339 -2.2863
  921MPD2     C13476   0.386   3.028  17.353 -0.3933  0.7275 -0.8921
  921MPD2    C113477   0.406   2.988  17.225 -0.0712  0.5243  0.6186
  921MPD2    C213478   0.304   2.925  17.163 -0.4617  0.3135 -0.3021
  921MPD2    C313479   0.184   2.896  17.222  0.6484  0.2356 -0.9739
  921MPD2    C413480   0.168   2.932  17.357 -0.2657  0.2322 -0.7243
  921MPD2    C513481   0.270   3.005  17.415 -0.6370  0.9933  0.6249
  921MPD2     H13482   0.323   2.898  17.060  2.9799 -0.9781  0.6856
  921MPD2    H113483   0.081   2.916  17.421  0.2793  1.5161  0.3410
  921MPD2    H213484   0.467   3.074  17.407 -1.0846  0.7139  0.1379
  921MPD2    H313485   0.262   3.036  17.518  1.2887 -0.6883  1.2850
  921MPD2     N13486   0.072   2.835  17.151  0.4122  0.7082  0.6078
  921MPD2    H513487   4.711   2.836  17.200  0.7729 -3.0776  1.3235
  921MPD2    N113488   0.536   3.007  17.173  0.2637  0.3196  0.8584
  921MPD2    H713489   0.601   3.052  17.236  0.3526  1.8283 -0.3181
  922MPD2     C13490   0.892   0.131  16.837 -0.7146  0.0334  0.2333
  922MPD2    C113491   0.878   0.244  16.904  0.2297 -0.1500  0.1754
  922MPD2    C213492   0.824   0.250  17.029 -0.1062  0.2116 -0.3330
  922MPD2    C313493   0.784   0.134  17.087  0.8806 -0.0714  0.1600
  922MPD2    C413494   0.800   0.020  17.016 -0.1095  0.0706  0.2444
  922MPD2    C513495   0.846   0.017  16.889  0.6053 -0.3285  0.6712
  922MPD2     H13496   0.834   0.347  17.076  0.4330 -0.0044  0.0032
  922MPD2    H113497   0.768   4.651  17.054 -1.0962  0.4674  0.4109
  922MPD2    H213498   0.928   0.128  16.735 -1.7737 -1.3435 -0.1070
  922MPD2    H313499   0.858   4.653  16.831  0.0771  1.9957 -3.0864
  922MPD2     N13500   0.709   0.130  17.206  0.1444 -0.3207  0.2904
  922MPD2    H513501   0.679   0.044  17.251  1.0022 -0.5344  0.4527
  922MPD2    N113502   0.916   0.371  16.849  0.3514 -0.3618  0.2104
  922MPD2    H713503   0.890   0.455  16.901  1.8440 -0.1301  0.5820
  923MPD2     C13504   2.418   2.156   9.669 -0.2200  0.2474  0.0590
  923MPD2    C113505   2.445   2.273   9.736 -0.4142  0.2715  0.3866
  923MPD2    C213506   2.577   2.292   9.775  0.4395  0.4240 -0.6309
  923MPD2    C313507   2.677   2.194   9.758  0.1196 -0.4712 -0.2060
  923MPD2    C413508   2.647   2.078   9.690  0.3567 -0.2683 -0.5632
  923MPD2    C513509   2.517   2.063   9.643  0.3654  0.3594 -0.2433
  923MPD2     H13510   2.598   2.386   9.826 -1.6695 -0.0148  1.0667
  923MPD2    H113511   2.713   1.995   9.666  2.4972  1.3447 -0.2614
  923MPD2    H213512   2.316   2.130   9.643 -0.0730 -0.8530  0.6036
  923MPD2    H313513   2.481   1.976   9.590  2.4784 -0.6556 -0.0078
  923MPD2     N13514   2.806   2.206   9.806 -0.9192  0.2392 -0.3597
  923MPD2    H513515   2.862   2.124   9.786 -2.2689 -0.4471 -1.3239
  923MPD2    N113516   2.340   2.369   9.746 -0.0284 -0.0895  0.2288
  923MPD2    H713517   2.256   2.356   9.690 -0.9270 -1.4872  1.8822
  924MPD2     C13518   2.677   1.077  16.093  0.0509  0.4212 -0.8592
  924MPD2    C113519   2.580   1.089  16.189  0.0243 -1.1446  0.0425
  924MPD2    C213520   2.592   1.194  16.282  0.1333 -0.3444 -0.6711
  924MPD2    C313521   2.697   1.282  16.266 -0.2890  0.3722  0.1961
  924MPD2    C413522   2.796   1.263  16.174  0.2364 -0.6220 -0.5719
  924MPD2    C513523   2.785   1.156  16.085 -0.5007 -0.6603  0.5999
  924MPD2     H13524   2.513   1.223  16.349  1.8763  0.8750  0.8650
  924MPD2    H113525   2.878   1.333  16.164 -0.8541  0.3289 -2.8463
  924MPD2    H213526   2.668   1.000  16.017  2.5292  0.4042 -1.1463
  924MPD2    H313527   2.864   1.149  16.011 -1.3346 -0.1166 -0.3395
  924MPD2     N13528   2.712   1.399  16.343  0.4893 -0.3139 -0.2692
  924MPD2    H513529   2.783   1.466  16.314  0.1806  0.6302  1.1431
  924MPD2    N113530   2.470   1.004  16.197  0.5389 -0.2751 -0.3528
  924MPD2    H713531   2.452   0.941  16.119 -1.7182  1.4052 -1.2039
  925MPD2     C13532   1.314   3.587  15.298  0.0990 -0.0179 -0.0637
  925MPD2    C113533   1.225   3.526  15.216 -0.3370  0.0681 -0.5586
  925MPD2    C213534   1.096   3.505  15.267  0.8060 -0.1821 -0.1669
  925MPD2    C313535   1.067   3.543  15.399 -0.2497 -0.4905  1.0986
  925MPD2    C413536   1.168   3.600  15.482 -0.4394 -0.2153 -0.2369
  925MPD2    C513537   1.287   3.619  15.425 -0.2503  0.9285 -0.0298
  925MPD2     H13538   1.024   3.454  15.204 -0.7735  2.9224 -0.8769
  925MPD2    H113539   1.152   3.630  15.585  1.0397  0.9295 -0.3553
  925MPD2    H213540   1.414   3.610  15.261 -0.8511  2.6646 -0.9995
  925MPD2    H313541   1.360   3.671  15.486  1.0917 -1.0384  0.0486
  925MPD2     N13542   0.943   3.514  15.462 -1.0375 -0.7330 -0.0125
  925MPD2    H513543   0.930   3.550  15.556  1.9184  1.5716 -0.4544
  925MPD2    N113544   1.239   3.507  15.078 -0.4821 -0.5023  0.7070
  925MPD2    H713545   1.157   3.471  15.031  0.3141 -0.6501 -0.5648
  926MPD2     C13546   0.568   2.020  13.299 -0.1654  0.0006 -0.1477
  926MPD2    C113547   0.503   2.142  13.303 -0.7082  0.3040  0.6995
  926MPD2    C213548   0.483   2.217  13.191  0.6922 -0.0152 -0.5599
  926MPD2    C313549   0.544   2.181  13.072 -1.0369  0.8517 -0.5528
  926MPD2    C413550   0.613   2.061  13.065  0.8221  0.5783 -0.2242
  926MPD2    C513551   0.621   1.982  13.180  0.0805  0.0549 -0.0569
  926MPD2     H13552   0.421   2.305  13.200 -0.4990 -0.9118  0.0948
  926MPD2    H113553   0.657   2.023  12.974 -1.2125  0.0042 -0.9611
  926MPD2    H213554   0.577   1.966  13.393  0.7185 -1.1779 -0.9212
  926MPD2    H313555   0.678   1.890  13.186  1.5295  0.9817  0.3066
  926MPD2     N13556   0.541   2.262  12.955  0.3607 -0.9624  0.0840
  926MPD2    H513557   0.594   2.237  12.872 -0.6377  1.2167 -1.2242
  926MPD2    N113558   0.453   2.191  13.423 -0.0892 -0.2600  0.3393
  926MPD2    H713559   0.391   2.270  13.404  0.2003 -0.2257 -0.4782
  927MPD2     C13560   4.155   4.053   0.289  0.7551 -0.1730  0.2796
  927MPD2    C113561   4.203   4.158   0.369 -0.5434  0.5716 -0.3199
  927MPD2    C213562   4.313   4.238   0.327  0.0330 -0.5286 -0.0884
  927MPD2    C313563   4.376   4.205   0.208 -0.0624 -0.4230 -0.3848
  927MPD2    C413564   4.321   4.114   0.129 -0.3032 -0.0192 -0.6837
  927MPD2    C513565   4.214   4.037   0.165 -0.4227  0.1897 -0.2337
  927MPD2     H13566   4.342   4.326   0.383 -2.0411  0.7351 -1.0050
  927MPD2    H113567   4.366   4.076   0.038 -1.1251  1.2858 -1.6330
  927MPD2    H213568   4.078   3.983   0.318  0.9600 -0.4039  0.2662
  927MPD2    H313569   4.177   3.959   0.099  0.7963 -0.8548  0.3123
  927MPD2     N13570   4.471   4.305   0.161 -0.2581 -0.3346 -0.0195
  927MPD2    H513571   4.494   4.378   0.227 -0.8930  0.6167 -0.8419
  927MPD2    N113572   4.140   4.174   0.495  0.3952  0.7902 -0.0805
  927MPD2    H713573   4.065   4.110   0.518  0.2967  1.1426  0.5850
  928MPD2     C13574   1.777   2.749   0.409 -0.5863  0.1063  0.2273
  928MPD2    C113575   1.864   2.768   0.518  0.1311  0.3627  0.3218
  928MPD2    C213576   2.001   2.756   0.498  0.2615  0.8677  0.2092
  928MPD2    C313577   2.052   2.724   0.371 -0.3445  0.1203 -0.2307
  928MPD2    C413578   1.967   2.714   0.267 -0.2807 -0.1456 -0.6299
  928MPD2    C513579   1.834   2.732   0.286  0.0250  0.2298  0.2580
  928MPD2     H13580   2.065   2.766   0.585 -0.1345 -1.6295  0.7909
  928MPD2    H113581   2.004   2.709   0.165  1.2022  0.6976 -0.1265
  928MPD2    H213582   1.672   2.734   0.431 -0.6697 -0.5416 -0.6091
  928MPD2    H313583   1.770   2.728   0.199 -1.8414  3.1164  1.5066
  928MPD2     N13584   2.193   2.737   0.335 -0.3869  0.5469 -0.3620
  928MPD2    H513585   2.217   2.689   0.249  0.9987  0.5784  0.0104
  928MPD2    N113586   1.823   2.803   0.650 -0.0197  0.5405  0.0608
  928MPD2    H713587   1.892   2.811   0.723  1.8865  0.1107 -1.6904
  929MPD2     C13588   2.870   2.362  10.992  0.3504  0.2923  0.5104
  929MPD2    C113589   2.739   2.353  10.958 -0.1834 -0.5309  0.2460
  929MPD2    C213590   2.698   2.385  10.830 -0.3606  0.3583 -0.1890
  929MPD2    C313591   2.785   2.449  10.745  0.6115  0.2353 -0.1302
  929MPD2    C413592   2.915   2.467  10.784 -0.0384 -0.3062  0.1043
  929MPD2    C513593   2.963   2.413  10.908 -0.5583  0.3342  0.8006
  929MPD2     H13594   2.591   2.394  10.814 -0.8218 -3.3933  0.7408
  929MPD2    H113595   2.983   2.529  10.727 -0.2493 -1.1058 -1.0013
  929MPD2    H213596   2.896   2.343  11.095  0.5362 -0.5240  0.3074
  929MPD2    H313597   3.064   2.442  10.935 -1.2627  2.4197  1.2011
  929MPD2     N13598   2.748   2.503  10.617  0.7521 -0.0432  0.3487
  929MPD2    H513599   2.810   2.564  10.565  1.0931 -0.6488  0.0414
  929MPD2    N113600   2.655   2.303  11.054 -0.5473 -0.2965 -0.6683
  929MPD2    H713601   2.703   2.285  11.142  0.0757 -0.2003 -0.9954
  930MPD2     C13602   4.304   0.444  14.186  0.6552  0.5275 -0.0531
  930MPD2    C113603   4.378   0.486  14.079 -0.0895 -0.1641 -0.1903
  930MPD2    C213604   4.359   0.435  13.950  0.2677 -0.8098 -0.1709
  930MPD2    C313605   4.257   0.347  13.930  0.5932  0.2039  1.0465
  930MPD2    C413606   4.191   0.293  14.042 -0.2757 -0.0244 -0.1587
  930MPD2    C513607   4.221   0.340  14.167  0.4183 -0.2815  0.3321
  930MPD2     H13608   4.412   0.465  13.861  0.0033  0.3270  0.0619
  930MPD2    H113609   4.116   0.216  14.036  0.6623 -0.9361 -0.1996
  930MPD2    H213610   4.313   0.486  14.285 -0.0935 -0.4727  0.4320
  930MPD2    H313611   4.161   0.311  14.252 -0.3396  0.6985  0.1289
  930MPD2     N13612   4.229   0.305  13.800 -0.3880 -0.2371  0.5149
  930MPD2    H513613   4.287   0.350  13.729 -0.4756 -0.6337  0.1883
  930MPD2    N113614   4.471   0.593  14.109 -0.5442  0.2423 -0.1192
  930MPD2    H713615   4.463   0.621  14.206  0.1980  0.4201 -0.1152
  931MPD2     C13616   4.041   3.688   0.800  0.0885  0.1978  0.2546
  931MPD2    C113617   3.972   3.781   0.878  0.5426  0.0241  0.5665
  931MPD2    C213618   3.888   3.731   0.974 -0.6045  0.0921 -0.8322
  931MPD2    C313619   3.889   3.600   1.010  0.4018  0.3935  0.6949
  931MPD2    C413620   3.957   3.509   0.938  0.0878 -0.3389  0.4643
  931MPD2    C513621   4.042   3.552   0.835 -0.2720  0.2125 -0.1094
  931MPD2     H13622   3.854   3.799   1.051  0.3396  0.1852 -0.5002
  931MPD2    H113623   3.955   3.404   0.966  0.4534 -0.4310  0.1469
  931MPD2    H213624   4.116   3.725   0.731  0.3813 -2.9565 -1.1371
  931MPD2    H313625   4.096   3.489   0.766 -2.3846 -1.2628 -0.4170
  931MPD2     N13626   3.820   3.549   1.125 -0.4370 -0.4484  0.2433
  931MPD2    H513627   3.847   3.453   1.148  0.1974 -0.0491  1.1532
  931MPD2    N113628   3.992   3.919   0.856 -0.0593 -0.1558 -0.3325
  931MPD2    H713629   4.062   3.932   0.783 -0.2813  0.7975 -0.3721
  932MPD2     C13630   1.306   3.941  11.141  0.2373  0.7927  0.1920
  932MPD2    C113631   1.437   3.919  11.100 -0.0113  0.1990 -0.0708
  932MPD2    C213632   1.473   3.787  11.095  0.4703 -0.0687 -0.3637
  932MPD2    C313633   1.394   3.684  11.147  0.2616  0.2000 -0.3186
  932MPD2    C413634   1.270   3.713  11.190 -0.2412  0.1928 -0.0767
  932MPD2    C513635   1.222   3.840  11.184  0.4212  0.5379 -0.5928
  932MPD2     H13636   1.574   3.765  11.062  1.1515 -0.9175  2.2397
  932MPD2    H113637   1.210   3.634  11.235 -1.2106  0.5776 -0.7152
  932MPD2    H213638   1.268   4.043  11.135  1.6459  1.3907  1.3461
  932MPD2    H313639   1.116   3.848  11.203  0.5203 -1.0429  0.6782
  932MPD2     N13640   1.437   3.550  11.166  0.5232 -0.3930  0.2788
  932MPD2    H513641   1.367   3.482  11.195 -0.3005 -0.0962 -1.0488
  932MPD2    N113642   1.530   4.023  11.052 -0.0741  0.1997  0.6005
  932MPD2    H713643   1.618   3.991  11.015 -0.3806  2.2600 -1.8760
  933MPD2     C13644   1.218   2.892   1.354  0.0363 -0.4024  0.3960
  933MPD2    C113645   1.254   2.962   1.240  0.4344  0.2342  0.0215
  933MPD2    C213646   1.176   3.062   1.185  0.1199  0.4173  0.3762
  933MPD2    C313647   1.059   3.095   1.248  0.5151 -0.1501  0.6995
  933MPD2    C413648   1.029   3.048   1.368  0.2827  1.1314  0.0213
  933MPD2    C513649   1.108   2.941   1.419 -0.0475  0.3334 -0.4041
  933MPD2     H13650   1.207   3.112   1.093  1.2168 -2.6997 -0.9800
  933MPD2    H113651   0.945   3.081   1.429  0.1232 -1.3264  1.1331
  933MPD2    H213652   1.276   2.808   1.389 -1.2152 -0.0851  3.2334
  933MPD2    H313653   1.082   2.907   1.518 -1.5836  2.7336  0.0071
  933MPD2     N13654   0.993   3.207   1.195  0.1144 -0.5088  0.5686
  933MPD2    H513655   1.045   3.245   1.116 -1.9167 -1.1066 -1.0215
  933MPD2    N113656   1.374   2.923   1.173 -0.5609  0.0013 -0.5916
  933MPD2    H713657   1.443   2.880   1.232 -0.6718  2.6849  1.4717
  934MPD2     C13658   3.281   1.245   1.368 -0.4864 -0.7567  0.6039
  934MPD2    C113659   3.334   1.118   1.357 -0.5196  0.1839  0.4140
  934MPD2    C213660   3.262   1.014   1.301 -0.3384  0.4000 -0.0993
  934MPD2    C313661   3.126   1.030   1.279  0.0601  0.7876 -0.0748
  934MPD2    C413662   3.066   1.154   1.298  0.2967 -0.3962 -0.0393
  934MPD2    C513663   3.144   1.259   1.339  0.3838 -1.2435 -0.0433
  934MPD2     H13664   3.313   0.920   1.291  1.9001  1.6601 -0.4553
  934MPD2    H113665   2.963   1.186   1.284  0.4805  0.4553  0.5841
  934MPD2    H213666   3.326   1.337   1.402  0.0363  0.0074 -2.1569
  934MPD2    H313667   3.096   1.352   1.367  0.0609 -1.4117 -0.0455
  934MPD2     N13668   3.039   0.917   1.243  0.2689 -0.5486  0.1621
  934MPD2    H513669   2.941   0.942   1.232  0.0646 -1.8133 -0.8794
  934MPD2    N113670   3.461   1.091   1.413  0.1505  0.0789 -0.0906
  934MPD2    H713671   3.500   0.998   1.426 -1.6241 -0.6568 -0.0664
  935MPD2     C13672   2.718   4.643   1.401 -0.0273  0.4934  0.2866
  935MPD2    C113673   2.792   4.657   1.288 -0.0012  0.2040  0.0801
  935MPD2    C213674   2.811   0.061   1.239 -0.5760 -1.2727  0.5998
  935MPD2    C313675   2.750   0.171   1.303  0.3082  0.4457 -0.8881
  935MPD2    C413676   2.674   0.144   1.410 -0.4649  0.1369  0.4456
  935MPD2    C513677   2.666   0.024   1.464  0.1753  0.0633 -0.0116
  935MPD2     H13678   2.878   0.081   1.157  0.4228  2.0587  2.2355
  935MPD2    H113679   2.647   0.224   1.478  1.2191  0.0919  1.1488
  935MPD2    H213680   2.701   4.543   1.441  0.6710  1.5494  3.2501
  935MPD2    H313681   2.617   4.725   1.557 -0.9649  1.4257 -0.2364
  935MPD2     N13682   2.759   0.307   1.264 -0.1466  0.4071 -0.0154
  935MPD2    H513683   2.692   0.369   1.309 -0.7706 -1.1638  1.2361
  935MPD2    N113684   2.854   4.549   1.216  0.3554  0.2257 -0.5418
  935MPD2    H713685   2.887   4.562   1.121  1.6802 -2.1283 -0.3960
  936MPD2     C13686   1.743   1.585  12.346  0.7137  1.1510  0.0959
  936MPD2    C113687   1.744   1.608  12.483  0.3886 -0.1053  0.3248
  936MPD2    C213688   1.794   1.726  12.538  0.0222 -0.2480  0.2229
  936MPD2    C313689   1.850   1.822  12.461  0.5728 -0.2860  0.3817
  936MPD2    C413690   1.859   1.796  12.327 -0.1376  0.6302 -0.4801
  936MPD2    C513691   1.794   1.687  12.273 -1.0726 -0.1721 -0.9538
  936MPD2     H13692   1.780   1.740  12.644  1.2618  0.1622  0.3326
  936MPD2    H113693   1.920   1.856  12.260  1.3123 -1.0788 -0.7024
  936MPD2    H213694   1.705   1.492  12.305 -0.1238  0.9774  1.2508
  936MPD2    H313695   1.779   1.683  12.166 -3.9971 -3.4465 -0.4449
  936MPD2     N13696   1.911   1.935  12.524 -0.2218  0.1173  0.5310
  936MPD2    H513697   1.977   1.989  12.470  0.4629 -0.5243  0.7259
  936MPD2    N113698   1.681   1.524  12.581  0.1050 -0.1254  0.0826
  936MPD2    H713699   1.686   1.559  12.676 -0.5663 -0.1837  0.1369
  937MPD2     C13700   4.385   3.165  11.856 -0.5073 -0.4684 -0.0206
  937MPD2    C113701   4.362   3.298  11.873  0.1418 -0.1801 -0.8765
  937MPD2    C213702   4.457   3.380  11.813  0.2858 -0.1193  0.1708
  937MPD2    C313703   4.578   3.336  11.756  0.2403 -0.3310  0.5977
  937MPD2    C413704   4.597   3.204  11.754 -0.1887  0.2554 -0.3994
  937MPD2    C513705   4.503   3.115  11.802  0.4127 -0.1600  0.6139
  937MPD2     H13706   4.431   3.485  11.813 -1.4434 -0.5451  0.8390
  937MPD2    H113707   4.685   3.155  11.715  0.7950  1.4387  0.3278
  937MPD2    H213708   4.318   3.085  11.886 -1.0843  0.2381  0.5718
  937MPD2    H313709   4.521   3.009  11.797  3.7421  0.5246 -1.6849
  937MPD2     N13710   4.669   3.434  11.717  1.1362  0.1323  0.1878
  937MPD2    H513711   4.638   3.530  11.716 -0.2883 -0.3213  1.4703
  937MPD2    N113712   4.238   3.350  11.915 -0.2412  0.2683 -0.1416
  937MPD2    H713713   4.232   3.451  11.915  1.1864  0.3483  0.7230
  938MPD2     C13714   2.400   4.701   0.672  0.1303 -0.0367 -0.3645
  938MPD2    C113715   2.341   0.065   0.757  0.4912 -0.0173  0.0065
  938MPD2    C213716   2.262   0.012   0.863 -0.5322  0.6962 -0.2011
  938MPD2    C313717   2.252   4.599   0.883 -0.2781  0.3758  0.2020
  938MPD2    C413718   2.327   4.515   0.805 -0.4965 -0.4192 -0.3765
  938MPD2    C513719   2.405   4.565   0.701  1.0611  0.3308 -0.4655
  938MPD2     H13720   2.217   0.076   0.938 -2.0921 -0.9439  0.2756
  938MPD2    H113721   2.317   4.410   0.830  1.1361 -0.3342  0.6406
  938MPD2    H213722   2.469   0.006   0.594 -2.2687  2.4124 -1.4443
  938MPD2    H313723   2.462   4.496   0.640 -0.9028 -1.1649 -0.6246
  938MPD2     N13724   2.160   4.537   0.968  0.9010 -0.4914  0.6553
  938MPD2    H513725   2.190   4.447   1.005  0.7538 -0.4291  0.9261
  938MPD2    N113726   2.358   0.210   0.741 -0.1964  0.7102 -0.1720
  938MPD2    H713727   2.305   0.267   0.806 -0.8251  1.1187 -1.0473
  939MPD2     C13728   3.383   1.599   0.917  0.1212 -0.4560 -0.1551
  939MPD2    C113729   3.431   1.637   1.040  0.1218 -0.5533  0.0775
  939MPD2    C213730   3.564   1.666   1.056 -0.4504  0.2745  0.6192
  939MPD2    C313731   3.650   1.645   0.953 -0.4845 -0.4334 -0.4747
  939MPD2    C413732   3.598   1.604   0.825  0.0998 -0.1189 -0.3883
  939MPD2    C513733   3.466   1.576   0.812 -0.7628 -0.3102 -1.1932
  939MPD2     H13734   3.607   1.703   1.148 -0.6047  0.9031  0.4420
  939MPD2    H113735   3.664   1.589   0.740 -0.7894 -0.3864 -1.0374
  939MPD2    H213736   3.276   1.586   0.906  0.0295 -1.7569  2.1781
  939MPD2    H313737   3.436   1.541   0.714  1.0627 -1.4221 -1.3681
  939MPD2     N13738   3.786   1.655   0.975  0.2120  0.2148  0.8300
  939MPD2    H513739   3.814   1.693   1.065 -0.2682 -0.9396  1.4685
  939MPD2    N113740   3.343   1.623   1.153  0.0648  0.1254 -0.0558
  939MPD2    H713741   3.253   1.591   1.118  0.6738  0.3718 -1.8360
  940MPD2     C13742   3.265   1.583  12.895  0.3920 -0.6973 -0.6112
  940MPD2    C113743   3.142   1.640  12.910 -0.8753  0.0170  0.6109
  940MPD2    C213744   3.051   1.641  12.804 -0.4169  0.6160 -0.2671
  940MPD2    C313745   3.090   1.590  12.685  0.9300 -0.1402 -0.3433
  940MPD2    C413746   3.218   1.529  12.674  0.0280 -0.0067 -0.0188
  940MPD2    C513747   3.304   1.531  12.779 -0.1925 -0.9121 -0.1701
  940MPD2     H13748   2.953   1.681  12.824 -0.2797 -0.0134  1.6405
  940MPD2    H113749   3.254   1.492  12.579  0.6125 -1.3758  0.7436
  940MPD2    H213750   3.328   1.579  12.983  0.4301  0.3334 -0.5893
  940MPD2    H313751   3.401   1.483  12.766 -0.5047 -0.6528 -3.5515
  940MPD2     N13752   3.014   1.613  12.564  0.2883  0.7439 -0.1255
  940MPD2    H513753   3.055   1.594  12.473  0.8203  3.7356 -0.5016
  940MPD2    N113754   3.093   1.708  13.027  0.4232 -0.2385 -0.2300
  940MPD2    H713755   3.007   1.762  13.026  0.3919 -0.2813  0.0904
  941MPD2     C13756   1.590   1.216   9.391  0.4421  0.2608 -0.7385
  941MPD2    C113757   1.727   1.214   9.426  0.0693  0.4883 -0.5233
  941MPD2    C213758   1.765   1.122   9.521 -0.5434  0.0910  0.0202
  941MPD2    C313759   1.681   1.024   9.567 -0.0166 -0.4326  0.4336
  941MPD2    C413760   1.545   1.027   9.526  0.5417 -0.1626 -0.3147
  941MPD2    C513761   1.498   1.124   9.445 -0.0168  0.3899 -0.3276
  941MPD2     H13762   1.870   1.119   9.551 -0.7481 -1.3631  0.6059
  941MPD2    H113763   1.471   0.960   9.567  0.7923 -0.3313 -0.1346
  941MPD2    H213764   1.550   1.282   9.316  0.1061  0.8227 -0.0625
  941MPD2    H313765   1.395   1.134   9.413 -0.7462 -0.3839  1.7599
  941MPD2     N13766   1.718   0.928   9.657 -0.1837 -0.4159  0.4724
  941MPD2    H513767   1.640   0.865   9.675 -1.7553  1.3012 -0.2398
  941MPD2    N113768   1.819   1.314   9.386 -0.2362  0.1067 -0.3568
  941MPD2    H713769   1.917   1.307   9.412 -0.6392 -2.0307  0.5600
  942MPD2     C13770   0.880   2.322   9.565 -0.0472 -0.9113 -0.5452
  942MPD2    C113771   0.894   2.188   9.534 -0.9729 -0.3830 -0.1358
  942MPD2    C213772   1.009   2.125   9.565 -0.0781 -0.8846  0.3935
  942MPD2    C313773   1.122   2.188   9.624  0.0070 -0.1980  0.5318
  942MPD2    C413774   1.099   2.324   9.667  0.2874 -0.6241 -0.1229
  942MPD2    C513775   0.982   2.383   9.632 -0.1497 -0.4362 -0.1184
  942MPD2     H13776   1.025   2.018   9.552 -1.3206 -1.2450  1.8862
  942MPD2    H113777   1.179   2.388   9.701 -0.1243 -0.5229  0.6591
  942MPD2    H213778   0.788   2.376   9.548 -0.9627 -1.6501  2.0365
  942MPD2    H313779   0.983   2.491   9.643 -0.8031 -0.4931  0.4811
  942MPD2     N13780   1.251   2.131   9.650  0.8453  0.2487 -0.5075
  942MPD2    H513781   1.315   2.182   9.710 -0.5066  2.2818 -0.8085
  942MPD2    N113782   0.793   2.106   9.477 -0.2469 -0.0407  0.2307
  942MPD2    H713783   0.806   2.006   9.473 -1.2066 -0.0844 -1.7948
  943MPD2     C13784   0.959   1.112  10.380  0.0006  0.3295  0.1921
  943MPD2    C113785   0.939   1.040  10.267 -0.1139  0.4327 -0.6179
  943MPD2    C213786   0.890   1.104  10.157 -0.0193  0.3223  0.7388
  943MPD2    C313787   0.848   1.235  10.164 -0.1395  0.3945 -0.4505
  943MPD2    C413788   0.859   1.302  10.280  0.6185  0.0360 -1.1676
  943MPD2    C513789   0.915   1.242  10.383 -0.0063  0.1038  0.3756
  943MPD2     H13790   0.873   1.042  10.069 -0.3316  0.2207  0.8706
  943MPD2    H113791   0.832   1.407  10.276 -3.8702 -1.0680  0.3126
  943MPD2    H213792   1.007   1.073  10.469  1.5611 -0.3737 -0.9517
  943MPD2    H313793   0.927   1.303  10.472  2.2116  2.8721 -1.8467
  943MPD2     N13794   0.770   1.300  10.058 -0.7531  0.4068  0.1621
  943MPD2    H513795   0.737   1.394  10.077  3.4546  1.6934  0.9612
  943MPD2    N113796   0.965   0.902  10.273 -0.0977  0.2273 -0.4678
  943MPD2    H713797   0.993   0.869  10.364  0.3385 -1.9365 -1.3908
  944MPD2     C13798   0.636   4.614  11.183 -0.3858  0.5463 -1.0903
  944MPD2    C113799   0.733   4.710  11.198  0.2543  0.5102 -0.0460
  944MPD2    C213800   0.734   0.081  11.292 -0.0879 -0.0909  0.1461
  944MPD2    C313801   0.640   0.072  11.395  0.5638 -0.3280 -0.2051
  944MPD2    C413802   0.548   4.698  11.387 -0.0622  1.5084  0.2092
  944MPD2    C513803   0.543   4.608  11.285  0.2516 -0.1704 -0.6232
  944MPD2     H13804   0.805   0.162  11.290  1.2663 -1.3395 -1.8066
  944MPD2    H113805   0.477   4.680  11.467  2.9946 -0.1970  2.5168
  944MPD2    H213806   0.622   4.544  11.102  0.6055  0.3768 -1.1153
  944MPD2    H313807   0.470   4.528  11.291  0.2052 -0.0450  0.4085
  944MPD2     N13808   0.642   0.179  11.494  0.0531  0.2358 -0.0856
  944MPD2    H513809   0.712   0.252  11.485  0.6129 -0.1799  0.9387
  944MPD2    N113810   0.839   4.715  11.105  0.2027  0.4508  0.1526
  944MPD2    H713811   0.905   0.064  11.115  1.5418 -0.3321 -2.5795
    1TCq1    O113812   3.087   0.452  14.057 -0.7335  0.3577  0.0427
    1TCq1    C113813   3.111   0.389  14.177  0.0673  0.5526  0.0469
    1TCq1    O213814   3.196   0.302  14.191 -0.1020 -0.4171  0.5799
    1TCq1    C213815   3.063   0.489  14.273  0.1513  0.1047  0.4145
    1TCq1    C313816   2.946   0.555  14.249 -0.1568 -0.1781  0.1728
    1TCq1    C413817   2.917   0.668  14.322 -0.2304  0.2498 -0.6989
    1TCq1    C513818   3.009   0.728  14.397 -0.0932  0.4981 -0.0842
    1TCq1    C613819   3.128   0.657  14.422  0.6722  1.0528  0.2262
    1TCq1    C713820   3.159   0.544  14.352 -0.5410 -0.0464 -0.0901
    1TCq1    C813821   3.228   0.709  14.513  0.3900 -0.5916  0.6572
    1TCq1    O413822   3.308   0.635  14.567 -0.2136  0.0354 -0.6921
    1TCq1    C913823   2.800   0.745  14.294  0.2385  0.7083  0.6555
    1TCq1    O513824   2.744   0.715  14.187 -0.7020  0.0203 -0.4106
    1TCq1    O613825   2.800   0.856  14.350  0.0457 -0.1548 -0.0044
    1TCq1    H113826   3.047   0.541  14.066 -0.9613  0.5484 -2.9209
    1TCq1    H213827   2.872   0.518  14.179 -0.0728 -2.7997  1.4922
    1TCq1    H313828   2.983   0.822  14.445  2.0862 -0.2455  2.5732
    1TCq1    H413829   3.244   0.481  14.370  0.2717  0.4366 -2.1918
    2MPD2     C13830   3.553   1.080  14.595  0.2777  0.2727  0.1876
    2MPD2    C113831   3.469   1.120  14.493 -0.1671  0.4988 -0.2726
    2MPD2    C213832   3.367   1.031  14.455  0.0136 -0.1138  0.3055
    2MPD2    C313833   3.352   0.914  14.525 -0.6449 -0.2065  0.1446
    2MPD2    C413834   3.434   0.878  14.626 -0.3341  0.4394 -0.1653
    2MPD2    C513835   3.532   0.964  14.659  0.3767 -0.1624 -0.1513
    2MPD2     H13836   3.303   1.063  14.373 -1.2812 -0.2860  1.2485
    2MPD2    H113837   3.410   0.802  14.700 -1.4045  0.7866 -0.1549
    2MPD2    H213838   3.635   1.140  14.634  1.9399 -1.8130 -0.0914
    2MPD2    H313839   3.602   0.932  14.735 -0.9476 -0.0871  1.1001
    2MPD2     N13840   3.241   0.840  14.491 -0.5363 -0.7076  0.2206
    2MPD2    H513841   3.177   0.876  14.420 -0.9213  0.7586  1.3110
    2MPD2    N113842   3.489   1.244  14.431  0.0826 -0.2949 -0.5309
    2MPD2    H713843   3.565   1.295  14.477 -0.4517  0.5261 -0.5460
    3TMC2    C113844   3.470   1.422  14.277  0.3816 -0.6508  0.3207
    3TMC2    C213845   3.472   1.423  14.146 -0.2116  0.6769 -0.3580
    3TMC2    C313846   3.468   1.551  14.091  0.1348 -0.6074  0.6306
    3TMC2    C413847   3.431   1.532  14.349  0.0521  0.7012  0.5223
    3TMC2    C513848   3.424   1.654  14.293  0.3531  0.7065  0.2956
    3TMC2    C613849   3.446   1.666  14.160  0.7079  0.8061 -0.3902
    3TMC2     C13850   3.421   1.294  14.324  0.1830  0.7664  0.1515
    3TMC2     O13851   3.330   1.250  14.252 -0.4258 -0.6015  0.0076
    3TMC2     H13852   3.477   1.331  14.089  0.5934  1.6803 -1.8943
    3TMC2    H113853   3.414   1.528  14.456  0.8156 -0.0568  0.6099
    3TMC2    H213854   3.428   1.754  14.099 -2.6107  1.5141  1.5945
    3TMC2    C713855   3.336   1.756  14.350  0.2703  0.3212 -0.1227
    3TMC2    C813856   3.529   1.556  13.960 -0.4646  0.5204  0.3140
    3TMC2    O113857   3.275   1.731  14.452 -0.3208 -0.5354 -0.3450
    3TMC2    O213858   3.505   1.477  13.866 -0.3100 -0.5226 -0.2458
    3TMC2    O513859   3.612   1.655  13.953 -1.1458 -0.1985 -0.4080
    3TMC2    H513860   3.614   1.699  14.041 -1.7740 -1.6057  0.3120
    4MPD2     C13861   2.565   2.758  13.940 -0.6543 -0.4510  0.7019
    4MPD2    C113862   2.634   2.703  13.831 -0.8934 -0.3349 -0.2981
    4MPD2    C213863   2.773   2.693  13.823 -0.1476 -0.7740 -0.4418
    4MPD2    C313864   2.838   2.708  13.941  0.8307 -0.1608 -1.1589
    4MPD2    C413865   2.775   2.753  14.053 -0.1918  0.1125 -0.7011
    4MPD2    C513866   2.640   2.778  14.056  0.1446 -0.5005 -1.0969
    4MPD2     H13867   2.821   2.663  13.731  0.6283  0.4072 -0.4143
    4MPD2    H113868   2.835   2.781  14.139 -0.5066  0.1507 -0.4946
    4MPD2    H213869   2.457   2.754  13.948 -0.7821 -0.4209 -0.9667
    4MPD2    H313870   2.594   2.814  14.147  1.7959 -0.8802 -0.1030
    4MPD2     N13871   2.972   2.673  13.946  0.2546  0.2895  0.5026
    4MPD2    H513872   3.010   2.635  14.032  0.9185 -0.2094 -0.0081
    4MPD2    N113873   2.555   2.672  13.719 -0.0744  0.5089 -0.1194
    4MPD2    H713874   2.459   2.703  13.730 -0.3770 -0.6560  0.4723
    5TCq2    C113875   3.056   2.680  13.844  0.2692  0.4045 -0.0087
    5TCq2    O213876   3.050   2.752  13.745 -0.2342  0.0417 -0.3441
    5TCq2    C213877   3.183   2.613  13.860  0.4433 -0.2321  0.2642
    5TCq2    C313878   3.291   2.668  13.799 -0.3741  0.4698  0.3999
    5TCq2    C413879   3.419   2.624  13.843  0.2960  0.1804 -0.3834
    5TCq2    C513880   3.425   2.531  13.942 -0.5067 -0.2910  0.6434
    5TCq2    C613881   3.310   2.488  14.002 -0.6317 -0.2225  0.1278
    5TCq2    C713882   3.184   2.521  13.964  0.1561  0.2114  0.5550
    5TCq2    C813883   3.325   2.358  14.070  0.2590 -0.2851  0.3401
    5TCq2    O413884   3.437   2.313  14.063  0.2465  0.6686  0.2141
    5TCq2    C913885   3.544   2.677  13.797  0.1990 -0.1678  0.4833
    5TCq2    O513886   3.658   2.635  13.846  0.3860  0.2553  0.2150
    5TCq2    O613887   3.535   2.760  13.705  0.0677  0.2813  0.4851
    5TCq2    H213888   3.283   2.753  13.733  2.2164 -0.4004 -1.0027
    5TCq2    H313889   3.519   2.499  13.984 -1.1863 -0.5692  1.9491
    5TCq2    H413890   3.094   2.469  13.996  1.6337 -2.2777  0.6395
    6MPD1     C13891   1.655   3.498  12.329 -0.0686 -0.1892  0.0204
    6MPD1    C113892   1.607   3.530  12.457  0.3490 -0.7268 -0.1683
    6MPD1    C213893   1.640   3.442  12.561  0.3304  0.3674  0.1596
    6MPD1    C313894   1.733   3.343  12.544 -0.4220 -0.4173 -0.4614
    6MPD1    C413895   1.791   3.323  12.424 -0.4182 -0.0327  0.5382
    6MPD1    C513896   1.746   3.397  12.316  0.3955  0.1370 -0.1279
    6MPD1     H13897   1.596   3.447  12.660  1.4554 -0.2258  0.6936
    6MPD1    H113898   1.875   3.254  12.420 -0.1041  0.4361 -0.9532
    6MPD1    H213899   1.643   3.560  12.241 -0.8166 -0.6623 -0.2191
    6MPD1    H313900   1.795   3.375  12.222  0.3398  1.9080 -0.5707
    6MPD1     N13901   1.777   3.253  12.641  0.5310  0.0080 -0.1403
    6MPD1    H513902   1.846   3.188  12.604  0.1911 -0.4448  0.0217
    6MPD1    N113903   1.509   3.623  12.469 -0.2194 -0.5250 -0.0815
    6MPD1    H613904   1.489   3.647  12.566 -0.2509 -1.8557  0.2447
    6MPD1    H713905   1.521   3.713  12.423 -0.6755  0.1120  1.0426
    7MPD2     C13906   1.855   2.827  13.154 -0.2137 -0.5051 -0.3962
    7MPD2    C113907   1.942   2.877  13.257  0.6972  0.6677  0.4717
    7MPD2    C213908   2.012   2.789  13.330  0.1726 -0.0535  0.4453
    7MPD2    C313909   1.987   2.650  13.314  0.3084  0.7663 -0.8990
    7MPD2    C413910   1.896   2.607  13.228 -0.4737  0.0192  0.7237
    7MPD2    C513911   1.838   2.692  13.137 -0.1434 -0.4080 -0.3374
    7MPD2     H13912   2.083   2.835  13.398 -0.6269 -0.6782  1.7100
    7MPD2    H113913   1.891   2.505  13.192  1.6661  0.1096  0.1598
    7MPD2    H213914   1.799   2.891  13.087  2.3925  0.7763 -1.3756
    7MPD2    H313915   1.782   2.655  13.052  0.6900  0.6615 -1.3433
    7MPD2     N13916   2.067   2.556  13.381  0.6738 -0.6455 -0.3378
    7MPD2    H513917   2.072   2.463  13.341 -1.4700 -0.6512 -0.5884
    7MPD2    N113918   1.950   3.015  13.276  0.2679 -0.6145 -0.0634
    7MPD2    H713919   1.982   3.046  13.367 -1.4025  0.6073  0.1123
    8TMC3    C113920   2.255   2.506  13.510 -0.5291  0.1423 -0.3043
    8TMC3    C213921   2.361   2.575  13.561  0.0080  0.0176  0.0077
    8TMC3    C313922   2.487   2.559  13.515 -0.8805  0.1519 -0.5392
    8TMC3    C413923   2.287   2.417  13.414 -0.0376  0.0373  0.1610
    8TMC3    C513924   2.406   2.424  13.341  0.4424  0.5502  0.3795
    8TMC3    C613925   2.512   2.482  13.405 -0.2762  0.0116 -0.9362
    8TMC3     C13926   2.134   2.582  13.499 -0.0770 -0.1226  0.3592
    8TMC3     O13927   2.112   2.667  13.584 -0.6376  0.4216  0.2586
    8TMC3     H13928   2.328   2.642  13.639  0.9575 -0.2714  0.6625
    8TMC3    H113929   2.206   2.361  13.367  0.7887 -1.1213  0.1178
    8TMC3    H213930   2.609   2.469  13.358  1.3385  1.9854  1.8249
    8TMC3    C713931   2.399   2.483  13.207  0.1788  0.3922 -0.2839
    8TMC3    C813932   2.597   2.601  13.605  0.1408  0.5016 -0.4411
    8TMC3    O113933   2.482   2.563  13.165 -0.3108  0.3703  1.0684
    8TMC3    O213934   2.706   2.555  13.568  0.0468 -0.2656  0.6479
    9TMC3    C113935   1.861   3.193  12.843  0.2354 -0.5223 -0.0201
    9TMC3    C213936   1.940   3.097  12.776  0.2815 -0.3366 -0.1330
    9TMC3    C313937   2.017   3.017  12.858  0.2234  0.0163 -0.5333
    9TMC3    C413938   1.843   3.199  12.976 -0.4970 -0.1218 -0.0360
    9TMC3    C513939   1.914   3.108  13.049 -0.3918  0.9651  0.2778
    9TMC3    C613940   2.009   3.028  12.993 -0.5384 -0.3906 -0.0903
    9TMC3     C13941   1.763   3.270  12.770  0.8475  0.2270 -0.1249
    9TMC3     O13942   1.682   3.326  12.839  0.0810  0.4864 -0.4512
    9TMC3     H13943   1.952   3.086  12.669 -0.1749  0.9239 -0.3175
    9TMC3    H113944   1.785   3.273  13.030 -0.7363 -1.8749  2.1014
    9TMC3    H213945   2.072   2.966  13.056  0.7753 -0.9720 -2.0014
    9TMC3    C713946   1.902   3.118  13.196 -0.4885  0.3240  0.4050
    9TMC3    C813947   2.062   2.878  12.817 -0.5907  0.2797 -0.4235
    9TMC3    O113948   1.851   3.227  13.243  0.6549 -0.7097 -0.0677
    9TMC3    O213949   2.040   2.835  12.706  0.1282 -0.1243 -0.2554
   10MPD2     C13950   2.128   2.402  12.974 -0.0051 -0.5574  0.0683
   10MPD2    C113951   2.218   2.486  13.034 -0.3535 -0.3336 -0.1060
   10MPD2    C213952   2.221   2.619  13.025 -0.0352 -0.3596  0.0661
   10MPD2    C313953   2.139   2.678  12.928 -0.0896  0.2301  0.4020
   10MPD2    C413954   2.055   2.593  12.852  0.0554  0.1166 -0.2932
   10MPD2    C513955   2.038   2.460  12.881  0.0949  0.3116  0.1252
   10MPD2     H13956   2.293   2.674  13.086 -1.8244  1.1745  0.7887
   10MPD2    H113957   1.996   2.628  12.767 -0.3729 -1.6054 -0.7075
   10MPD2    H213958   2.137   2.294  12.983 -2.1037 -0.7143  0.2823
   10MPD2    H313959   1.970   2.397  12.825 -0.3127 -0.2380  1.2622
   10MPD2     N13960   2.146   2.819  12.904  0.2917 -0.0430 -0.5219
   10MPD2    H513961   2.187   2.870  12.982 -0.5707 -1.5800  0.9365
   10MPD2    N113962   2.289   2.431  13.145  0.6386  0.2569  0.1368
   10MPD2    H713963   2.264   2.335  13.167 -0.4486  0.3088 -0.8740
   11MPD2     C13964   3.171   1.999  14.412  0.9950  0.4780  0.1509
   11MPD2    C113965   3.261   1.997  14.310  0.7898 -0.0257  0.2976
   11MPD2    C213966   3.283   2.107  14.223  0.3777 -0.2047 -0.2117
   11MPD2    C313967   3.202   2.221  14.237  0.0744 -0.1068  0.3802
   11MPD2    C413968   3.114   2.223  14.349 -0.1683 -0.6212 -0.1624
   11MPD2    C513969   3.102   2.115  14.430  0.8509 -0.2823  0.7315
   11MPD2     H13970   3.350   2.093  14.139  1.0346  0.9780  0.1134
   11MPD2    H113971   3.050   2.309  14.363 -1.0393 -0.9147 -2.3560
   11MPD2    H213972   3.154   1.918  14.483  2.4141 -0.5609 -0.6837
   11MPD2    H313973   3.036   2.117  14.516  1.4594 -0.3546  1.2005
   11MPD2     N13974   3.207   2.332  14.147  0.2063 -0.5533  0.0859
   11MPD2    H513975   3.143   2.408  14.165  0.7386  0.0492 -0.5975
   11MPD2    N113976   3.340   1.881  14.286  0.1528  0.4207  0.7693
   11MPD2    H713977   3.406   1.896  14.210  0.1967  0.8025  0.8821
    1MPD1     C13978   0.384   3.145   0.715  0.8295  0.0507 -0.2800
    1MPD1    C113979   0.339   3.272   0.688  0.1324  0.9961 -0.1893
    1MPD1    C213980   0.409   3.348   0.600 -0.2967 -0.4355 -0.0615
    1MPD1    C313981   0.524   3.300   0.537 -0.1293 -0.3090 -0.1542
    1MPD1    C413982   0.561   3.168   0.567 -0.7580 -0.6869  0.5705
    1MPD1    C513983   0.493   3.093   0.656  0.3454  0.0593 -0.9667
    1MPD1     H13984   0.370   3.445   0.572 -0.3507 -0.6852 -0.8707
    1MPD1    H113985   0.647   3.126   0.517 -0.3850  0.2646  0.4278
    1MPD1    H213986   0.339   3.078   0.786  0.3779  0.1082 -0.5124
    1MPD1    H313987   0.525   2.992   0.678 -0.3093  0.2675  0.8979
    1MPD1     N13988   0.609   3.371   0.448 -0.4164  0.0406  0.4220
    1MPD1    H513989   0.687   3.322   0.405  0.0398  0.8213  0.3429
    1MPD1    N113990   0.215   3.312   0.734 -0.6424 -0.9876 -0.6737
    1MPD1    H613991   0.136   3.272   0.684  1.6289 -2.3771 -3.1447
    1MPD1    H713992   0.215   3.414   0.730  0.1771 -0.9760 -0.3019
    2MPD1     C13993   0.532   3.846  17.223  0.9560  0.3441  0.0245
    2MPD1    C113994   0.671   3.847  17.236 -0.2703 -0.2319 -0.0426
    2MPD1    C213995   0.722   3.827  17.367 -0.2452 -0.7387 -0.2008
    2MPD1    C313996   0.638   3.805  17.476  0.0300  0.7118  0.2891
    2MPD1    C413997   0.501   3.779  17.455  0.6110  0.7309  0.0512
    2MPD1    C513998   0.451   3.804  17.326 -0.1948 -0.1852  0.6833
    2MPD1     H13999   0.829   3.841  17.376 -0.1835 -1.4354  0.2427
    2MPD1    H114000   0.431   3.740  17.528  0.0842  1.2734 -0.1709
    2MPD1    H214001   0.491   3.874  17.127  0.5384 -1.0477 -0.1948
    2MPD1    H314002   0.346   3.786  17.306 -0.1250 -0.2777  0.4063
    2MPD1     N14003   0.701   3.763  17.597  0.1556  0.6034  0.0261
    2MPD1    H514004   0.802   3.756  17.586  0.1114  0.0950 -0.0867
    2MPD1    N114005   0.761   3.885  17.143 -0.0881 -0.0743  0.3683
    2MPD1    H614006   0.842   3.823  17.152 -0.9980 -1.1944  0.8397
    2MPD1    H714007   0.731   3.873  17.047  0.8012 -0.0475  0.0873
    3TMC3    C114008   0.708   3.655   0.092 -0.2847  0.3298 -0.3292
    3TMC3    C214009   0.798   3.567   0.044 -0.1327  0.1373  0.6302
    3TMC3    C314010   0.820   3.458   0.117  0.3197 -0.4393 -0.0479
    3TMC3    C414011   0.646   3.637   0.216  0.2528  0.1234 -0.1412
    3TMC3    C514012   0.678   3.520   0.278  0.3661 -1.0712  0.1308
    3TMC3    C614013   0.766   3.420   0.236  0.7311  0.4738 -0.2264
    3TMC3     C14014   0.637   3.746   0.003  0.3947 -0.7040 -0.5127
    3TMC3     O14015   0.525   3.785   0.035  0.0629  0.6035 -0.3139
    3TMC3     H14016   0.833   3.575  17.651 -1.0350 -2.2827  0.1477
    3TMC3    H114017   0.562   3.699   0.245  0.5596  0.7215 -0.5067
    3TMC3    H214018   0.783   3.324   0.283  0.5158 -0.4497 -2.0532
    3TMC3    C714019   0.594   3.499   0.398 -0.3977 -0.6561  0.1334
    3TMC3    C814020   0.932   3.374   0.073 -0.8693 -0.5931 -0.0524
    3TMC3    O114021   0.513   3.580   0.442 -0.5280  0.4217 -0.5069
    3TMC3    O214022   0.940   3.262   0.118 -0.3731  0.6189 -0.1773
    4MPD1     C14023   1.291   3.224  17.430  0.1406  0.7361  0.2454
    4MPD1    C114024   1.269   3.358  17.418 -0.1241 -0.3664  0.0676
    4MPD1    C214025   1.167   3.418  17.489 -0.0069  0.5812  0.0827
    4MPD1    C314026   1.092   3.351  17.589  0.5325 -0.2058  0.4183
    4MPD1    C414027   1.131   3.223  17.610  0.1121  0.6285 -0.4868
    4MPD1    C514028   1.224   3.162  17.532 -0.2829  0.3665  0.1130
    4MPD1     H14029   1.143   3.524  17.489  1.1229  0.8421 -2.7023
    4MPD1    H114030   1.097   3.159  17.691  1.6897 -0.3828 -0.6308
    4MPD1    H214031   1.363   3.167  17.372  0.2616  0.6355  0.4937
    4MPD1    H314032   1.233   3.055  17.546  0.1602  0.6484  1.8417
    4MPD1     N14033   0.995   3.423  17.670  0.8486  0.3253 -0.4131
    4MPD1    H514034   0.990   3.522  17.647 -2.3581  0.4540  0.7851
    4MPD1    N114035   1.325   3.431  17.311  0.2841 -0.1323  0.0513
    4MPD1    H614036   1.347   3.522  17.349 -0.1027 -0.9454  2.2339
    4MPD1    H714037   1.419   3.397  17.288  1.0847  1.1627  1.3773
    1TCq1    O114038   2.564   3.807  12.308  0.0876  0.1834 -0.3555
    1TCq1    C114039   2.469   3.791  12.401 -0.1307 -0.0910 -0.5262
    1TCq1    O214040   2.435   3.861  12.497 -0.4095 -0.2086  0.2340
    1TCq1    C214041   2.422   3.657  12.391  0.3093  0.1393  0.4611
    1TCq1    C314042   2.427   3.588  12.275 -0.4649  0.5769 -0.4057
    1TCq1    C414043   2.387   3.458  12.286 -0.5291 -0.4422  1.5830
    1TCq1    C514044   2.307   3.414  12.388  0.6255  0.1994  0.3697
    1TCq1    C614045   2.313   3.482  12.503 -0.0816 -0.1126  0.0970
    1TCq1    C714046   2.381   3.600  12.512  0.4289 -0.2755 -0.5315
    1TCq1    C814047   2.258   3.428  12.621  0.1616  0.4410 -0.3081
    1TCq1    O414048   2.268   3.308  12.633 -0.2222 -0.5364 -0.2413
    1TCq1    C914049   2.342   3.397  12.158 -0.2735 -0.1017 -0.0343
    1TCq1    O514050   2.370   3.461  12.052  0.9940  0.1351 -0.2499
    1TCq1    O614051   2.303   3.277  12.167  0.6401 -0.3328 -0.2577
    1TCq1    H114052   2.577   3.726  12.255 -0.6263 -1.1149  1.4718
    1TCq1    H214053   2.418   3.636  12.178 -0.2489  0.1738 -0.6260
    1TCq1    H314054   2.255   3.319  12.383 -1.6329  1.5056 -1.2419
    1TCq1    H414055   2.373   3.661  12.601 -0.2809 -0.9840 -0.1100
    2MPD1     C14056   2.013   3.497  13.068  0.3387  0.5498  0.0183
    2MPD1    C114057   2.002   3.609  12.996  1.0336 -0.5549 -0.2809
    2MPD1    C214058   2.056   3.610  12.869  0.1038  0.8447  0.0782
    2MPD1    C314059   2.131   3.507  12.818 -0.2739 -0.8054 -0.1225
    2MPD1    C414060   2.151   3.398  12.898 -0.0282 -0.1896 -0.4255
    2MPD1    C514061   2.088   3.392  13.019  0.4562  0.3759  0.3563
    2MPD1     H14062   2.038   3.699  12.810 -1.5412  1.6707  1.8416
    2MPD1    H114063   2.205   3.310  12.865  0.6235 -0.0577  0.2821
    2MPD1    H214064   1.959   3.473  13.160 -2.5787  0.2827 -1.7614
    2MPD1    H314065   2.097   3.301  13.077 -0.5890  1.4461  2.2276
    2MPD1     N14066   2.187   3.524  12.686 -0.3938 -0.0945 -0.0321
    2MPD1    H514067   2.174   3.616  12.645 -0.6805  0.2231  0.7646
    2MPD1    N114068   1.902   3.703  13.031 -0.2994 -0.1763  0.1018
    2MPD1    H614069   1.935   3.797  13.015  0.7023 -1.0743 -3.0024
    2MPD1    H714070   1.877   3.708  13.130  0.2764 -0.7168  0.2724
    1TCq1    O114071   2.582   1.966   1.553  0.0117 -0.4332  0.4180
    1TCq1    C114072   2.497   1.976   1.448  0.5463  0.6921 -0.1847
    1TCq1    O214073   2.384   1.925   1.446  0.5092  0.1891 -0.2271
    1TCq1    C214074   2.547   2.061   1.348 -0.6566 -0.1384  0.8378
    1TCq1    C314075   2.461   2.147   1.287 -0.3700 -0.2963  0.7466
    1TCq1    C414076   2.514   2.216   1.185 -0.3904  0.8078 -0.4307
    1TCq1    C514077   2.652   2.236   1.169 -0.0014  0.0359 -0.3261
    1TCq1    C614078   2.731   2.144   1.234 -0.0137  1.0834  0.3220
    1TCq1    C714079   2.682   2.057   1.332  0.1250 -0.6707  0.3058
    1TCq1    C814080   2.874   2.147   1.198 -0.1782 -0.0117 -0.6753
    1TCq1    O414081   2.901   2.231   1.114 -0.0510  0.2071 -0.1197
    1TCq1    C914082   2.428   2.312   1.118  0.1880 -0.1102 -0.2955
    1TCq1    O514083   2.321   2.340   1.180  0.3750 -0.2881  0.1776
    1TCq1    O614084   2.490   2.375   1.027 -0.0539  0.9825 -0.4467
    1TCq1    H114085   2.640   2.045   1.558  3.2428 -2.9496  2.3854
    1TCq1    H214086   2.354   2.127   1.288 -0.6825  1.4342  1.4495
    1TCq1    H314087   2.692   2.303   1.094 -0.2568 -0.2837 -0.7490
    1TCq1    H414088   2.738   1.975   1.375  1.2305  0.8779  1.8259
    2MPD1     C14089   3.356   2.005   1.198 -0.0659 -0.9574 -0.1434
    2MPD1    C114090   3.316   1.980   1.329  0.1938  0.4349 -0.2283
    2MPD1    C214091   3.183   2.002   1.362  0.1692 -0.2182  0.0702
    2MPD1    C314092   3.095   2.058   1.265 -0.0962  0.7871  0.2906
    2MPD1    C414093   3.144   2.091   1.142 -0.0175 -0.6192 -0.7096
    2MPD1    C514094   3.272   2.049   1.106 -0.4413 -0.3711 -0.3758
    2MPD1     H14095   3.146   1.975   1.461 -0.4211 -2.2231 -0.6903
    2MPD1    H114096   3.083   2.123   1.058 -0.3005 -0.5885 -0.4893
    2MPD1    H214097   3.460   1.992   1.171 -0.5430 -2.3244 -1.3135
    2MPD1    H314098   3.306   2.070   1.005 -0.5382  0.4746 -0.2376
    2MPD1     N14099   2.959   2.085   1.290 -0.3541 -0.1589  0.0224
    2MPD1    H514100   2.931   2.040   1.376  0.9552  2.8200  1.9868
    2MPD1    N114101   3.411   1.948   1.425  0.2848  0.6544  0.6310
    2MPD1    H614102   3.483   1.886   1.387 -1.9391 -2.4978  1.6173
    2MPD1    H714103   3.362   1.905   1.503  0.0295  0.7653  0.5290
    1MPD1     C14104   2.864   2.859  12.116 -0.4773 -0.1395  0.1265
    1MPD1    C114105   2.858   2.954  12.218 -0.0905  0.3131  0.1040
    1MPD1    C214106   2.960   3.049  12.204 -0.0084  0.0917  0.2826
    1MPD1    C314107   3.046   3.064  12.102  0.2446  0.2920 -0.1966
    1MPD1    C414108   3.030   2.971  11.993 -0.0196  0.9077  0.0738
    1MPD1    C514109   2.928   2.885  11.998  0.0943  0.3066 -0.7593
    1MPD1     H14110   2.967   3.123  12.284  0.6491 -1.0209  1.2522
    1MPD1    H114111   3.082   2.979  11.898  0.6125  1.0565  0.4348
    1MPD1    H214112   2.793   2.776  12.119  1.5575 -1.8666  0.8045
    1MPD1    H314113   2.911   2.818  11.914  1.0883  0.3881 -1.0216
    1MPD1     N14114   3.135   3.177  12.109  0.0902 -0.4085  0.7136
    1MPD1    H514115   3.127   3.227  12.197 -0.1427  1.9300 -0.6442
    1MPD1    N114116   2.784   2.936  12.335 -0.5520  0.8811  0.1575
    1MPD1    H614117   2.705   2.872  12.329 -0.9207  1.0817  2.8863
    1MPD1    H714118   2.762   3.027  12.376  2.3715  1.8004 -0.3672
    2MPD1     C14119   2.604   3.150  11.490 -0.5789  0.9940  0.1405
    2MPD1    C114120   2.617   3.056  11.398  0.7646  0.7012  0.1958
    2MPD1    C214121   2.729   3.052  11.317  0.9580 -0.1730 -0.3094
    2MPD1    C314122   2.835   3.139  11.346 -0.2227  0.4440 -0.5251
    2MPD1    C414123   2.815   3.241  11.444  0.4183 -0.5208 -0.0011
    2MPD1    C514124   2.698   3.247  11.511 -0.4935  0.7302 -0.3976
    2MPD1     H14125   2.730   2.985  11.231 -1.8526  1.5408 -1.6758
    2MPD1    H114126   2.896   3.311  11.464  1.0965 -1.1353 -0.5761
    2MPD1    H214127   2.515   3.155  11.552 -1.2582 -3.1007 -0.4563
    2MPD1    H314128   2.668   3.331  11.573 -0.5330 -1.0323  1.9938
    2MPD1     N14129   2.946   3.134  11.264  0.3047 -0.2993 -0.2010
    2MPD1    H514130   3.012   3.211  11.264 -0.4576  0.3581 -0.4756
    2MPD1    N114131   2.520   2.956  11.373  0.1276 -0.1907 -0.2825
    2MPD1    H614132   2.531   2.918  11.279 -0.3958 -2.2925  0.5201
    2MPD1    H714133   2.425   2.991  11.386  0.0235  0.2923 -2.2901
    3MPD1     C14134   3.127   2.622  10.454 -0.2530  1.1815 -0.2285
    3MPD1    C114135   3.044   2.723  10.488  0.4770  0.4206  0.6070
    3MPD1    C214136   3.064   2.795  10.607  0.4554 -0.4009 -0.1430
    3MPD1    C314137   3.163   2.756  10.698 -0.8138 -0.5963 -0.1048
    3MPD1    C414138   3.250   2.652  10.665 -0.7934 -0.4688  0.2393
    3MPD1    C514139   3.223   2.584  10.547 -0.8323 -1.1443  1.1002
    3MPD1     H14140   3.002   2.880  10.630  1.0060  0.0213 -0.2376
    3MPD1    H114141   3.335   2.629  10.727 -0.9684 -0.2185  0.5712
    3MPD1    H214142   3.122   2.580  10.354 -1.4343 -0.8388  0.6788
    3MPD1    H314143   3.304   2.526  10.503 -0.0486  0.0551  0.9728
    3MPD1     N14144   3.171   2.831  10.813 -0.0246 -0.2976 -0.3698
    3MPD1    H514145   3.101   2.902  10.828  0.3117  0.5753 -2.8597
    3MPD1    N114146   2.952   2.769  10.390 -0.2406  0.5018  0.4301
    3MPD1    H614147   2.911   2.686  10.347  1.3202 -0.5620  1.0120
    3MPD1    H714148   3.000   2.807  10.309  1.1038  2.2423  2.0610
    4MPD2     C14149   3.131   3.762  11.822 -0.9384  0.5492 -0.5293
    4MPD2    C114150   3.265   3.732  11.836  1.3749  0.7853 -0.5350
    4MPD2    C214151   3.358   3.768  11.739  0.2177  0.5953  0.5072
    4MPD2    C314152   3.318   3.835  11.621  0.4503 -0.3301  0.6947
    4MPD2    C414153   3.183   3.861  11.605 -0.2320  0.0818 -0.3130
    4MPD2    C514154   3.093   3.830  11.706 -0.1673  0.4010 -0.0040
    4MPD2     H14155   3.462   3.745  11.758 -0.2439 -1.2089  0.8234
    4MPD2    H114156   3.145   3.911  11.517 -0.1183  0.7804  0.0352
    4MPD2    H214157   3.057   3.745  11.899  2.1493 -0.1735  2.2555
    4MPD2    H314158   2.988   3.850  11.685 -0.3280 -1.1141 -0.6665
    4MPD2     N14159   3.409   3.897  11.524  0.0163 -0.1526 -0.2248
    4MPD2    H514160   3.380   3.960  11.449 -1.1519 -0.2377  0.1560
    4MPD2    N114161   3.312   3.668  11.948  0.2811  0.2725 -0.4913
    4MPD2    H714162   3.412   3.653  11.947  0.4683  1.4808 -0.0076
    5TMC3    C114163   3.333   3.516  12.119 -0.6341 -0.1443 -0.2532
    5TMC3    C214164   3.278   3.400  12.137 -0.2366 -0.3784 -0.6083
    5TMC3    C314165   3.333   3.294  12.070 -0.1161 -0.5163 -0.3564
    5TMC3    C414166   3.464   3.530  12.080  0.6228 -0.0273  0.2642
    5TMC3    C514167   3.520   3.427  12.015 -0.4600  0.6819  0.5630
    5TMC3    C614168   3.447   3.312  11.992 -0.0448 -0.4158  0.0276
    5TMC3     C14169   3.236   3.600  12.044  0.2286 -0.7447  0.1525
    5TMC3     O14170   3.112   3.593  12.063  0.5927  0.3138  0.0137
    5TMC3     H14171   3.180   3.408  12.182 -0.3497  1.1439 -1.1033
    5TMC3    H114172   3.527   3.616  12.102 -1.5708  1.6630 -0.1395
    5TMC3    H214173   3.474   3.225  11.932 -0.4080 -0.4443 -0.0951
    5TMC3    C714174   3.597   3.475  11.900 -0.6589 -0.5567 -0.2900
    5TMC3    C814175   3.251   3.179  12.036  0.5154 -0.3340  0.4895
    5TMC3    O114176   3.592   3.598  11.886  0.4435 -0.1727  0.0854
    5TMC3    O214177   3.296   3.105  11.949  0.1903 -0.2294  0.4111
    6TMC3    C114178   3.112   3.033  11.133 -0.2464 -0.0387 -0.0226
    6TMC3    C214179   3.147   2.924  11.059 -0.3927 -0.4035  0.6425
    6TMC3    C314180   3.266   2.938  10.988  0.0252 -0.4009 -0.1366
    6TMC3    C414181   3.182   3.149  11.137  0.0357  0.3543  0.2989
    6TMC3    C514182   3.287   3.159  11.050 -0.5558 -0.3922 -0.4761
    6TMC3    C614183   3.335   3.050  10.977  0.0021  0.5003 -0.5952
    6TMC3     C14184   2.983   3.022  11.198 -0.2594 -0.0238  1.0762
    6TMC3     O14185   2.938   2.909  11.190  0.6960 -0.6105 -0.2765
    6TMC3     H14186   3.097   2.829  11.067  0.3796 -0.9497 -1.1164
    6TMC3    H114187   3.143   3.244  11.171  1.0531  0.6675  0.6066
    6TMC3    H214188   3.431   3.044  10.928 -0.1532 -1.0042 -0.7434
    6TMC3    C714189   3.332   3.289  11.012 -0.2992 -0.4687  0.3365
    6TMC3    C814190   3.287   2.833  10.886 -0.0829  0.4508  0.1940
    6TMC3    O114191   3.291   3.386  11.073 -0.2388 -0.1354 -0.6122
    6TMC3    O214192   3.403   2.803  10.855 -0.1176 -0.1966 -0.0626
    7MPD2     C14193   3.939   3.431  11.510 -0.7862  0.1858  0.3762
    7MPD2    C114194   3.859   3.539  11.554  0.5257  0.3042 -0.2267
    7MPD2    C214195   3.775   3.517  11.668  0.2382  0.5361 -0.5753
    7MPD2    C314196   3.778   3.406  11.745  0.0148  0.0522 -0.0355
    7MPD2    C414197   3.875   3.308  11.719  0.0340 -0.0163 -0.0227
    7MPD2    C514198   3.945   3.323  11.600  0.6243  0.2393 -0.5060
    7MPD2     H14199   3.701   3.596  11.684  0.0474  0.5994 -1.7464
    7MPD2    H114200   3.880   3.208  11.761  1.9189 -0.2054 -0.6974
    7MPD2    H214201   3.987   3.436  11.413  1.4962 -0.9986  1.4400
    7MPD2    H314202   4.015   3.245  11.570  1.2294 -0.1169  1.8526
    7MPD2     N14203   3.691   3.383  11.851 -0.5028 -0.0986 -0.2784
    7MPD2    H514204   3.698   3.294  11.899 -0.5746 -0.1167 -0.3014
    7MPD2    N114205   3.838   3.664  11.486  0.0923 -0.3195  0.0015
    7MPD2    H714206   3.764   3.723  11.523  1.0949  1.4452 -0.7852
    8TMC3    C114207   3.831   3.835  11.328  0.1132  0.0067  0.3738
    8TMC3    C214208   3.780   3.828  11.202 -0.5082  0.3781 -0.2893
    8TMC3    C314209   3.639   3.841  11.192 -1.1588 -0.1246  0.0271
    8TMC3    C414210   3.751   3.887  11.430  0.3005 -0.1512 -0.0715
    8TMC3    C514211   3.624   3.925  11.415 -0.3809  0.3675 -0.0291
    8TMC3    C614212   3.563   3.890  11.294  0.0750 -0.4468 -1.2755
    8TMC3     C14213   3.909   3.719  11.376  0.2256 -0.6454  0.2421
    8TMC3     O14214   3.999   3.674  11.300 -0.3047 -0.3039  0.1481
    8TMC3     H14215   3.829   3.770  11.125  0.2989 -0.3986  0.8160
    8TMC3    H114216   3.801   3.914  11.523  1.4479 -1.2188 -0.3751
    8TMC3    H214217   3.455   3.892  11.283 -0.1887 -1.5008  1.1520
    8TMC3    C714218   3.549   3.880  11.531 -0.3814 -0.1512 -0.4418
    8TMC3    C814219   3.577   3.742  11.115  0.6426  0.3713 -0.7794
    8TMC3    O114220   3.616   3.834  11.624 -0.1058  0.5332 -0.0700
    8TMC3    O214221   3.491   3.682  11.180  0.3155 -0.3893 -0.0402
    9MPD2     C14222   3.654   3.611  10.775 -0.0282  0.4315  0.0042
    9MPD2    C114223   3.597   3.613  10.898 -0.6720 -0.2557 -0.1025
    9MPD2    C214224   3.506   3.514  10.937 -1.0816  0.3262  0.0118
    9MPD2    C314225   3.490   3.402  10.862 -0.7203  0.4577 -1.0683
    9MPD2    C414226   3.569   3.399  10.749  0.7528 -0.6094  0.1396
    9MPD2    C514227   3.636   3.506  10.692 -0.0696 -0.9287 -0.3083
    9MPD2     H14228   3.453   3.519  11.032  1.3514  1.2095  1.3229
    9MPD2    H114229   3.547   3.325  10.673  0.1010  0.3436 -0.5977
    9MPD2    H214230   3.706   3.695  10.730  0.0301  0.0709 -0.5905
    9MPD2    H314231   3.693   3.500  10.600 -0.2261 -0.2913 -0.4438
    9MPD2     N14232   3.411   3.292  10.896 -0.3237  0.2087 -0.0187
    9MPD2    H514233   3.428   3.209  10.840  0.5173 -0.2067  0.8456
    9MPD2    N114234   3.632   3.720  10.991  0.6722 -0.3670  0.7721
    9MPD2    H714235   3.702   3.787  10.963 -1.2060  2.0268  1.8492
    1MPD1     C14236   4.617   2.572  17.305 -0.0639 -0.1062  0.5596
    1MPD1    C114237   4.595   2.454  17.233  0.2714  0.7060 -0.1375
    1MPD1    C214238   4.484   2.460  17.152  0.8537  0.4279 -0.7127
    1MPD1    C314239   4.397   2.567  17.155  0.0610 -0.0516 -0.1858
    1MPD1    C414240   4.410   2.678  17.233  0.0640 -0.0888 -1.0152
    1MPD1    C514241   4.528   2.677  17.310  0.3290 -0.3576  0.0303
    1MPD1     H14242   4.468   2.383  17.078  2.9727  0.2722 -1.0260
    1MPD1    H114243   4.340   2.759  17.249  2.6080  1.4353  2.2777
    1MPD1    H214244   4.711   2.590  17.354  2.4862 -2.5119 -3.4276
    1MPD1    H314245   4.557   2.760  17.374  2.1276  0.1537 -1.4533
    1MPD1     N14246   4.276   2.555  17.081  0.2422 -0.1763 -0.0110
    1MPD1    H514247   4.219   2.637  17.095  3.3823  1.6980  1.9971
    1MPD1    N114248   4.696   2.362  17.200  0.1258 -0.1414  0.3836
    1MPD1    H614249   0.029   2.343  17.280 -0.1346  1.5590  0.9835
    1MPD1    H714250   4.663   2.274  17.162  0.9132 -0.2974  0.0630
    2MPD1     C14251   3.667   1.952  16.482  0.4660  1.3634 -0.4804
    2MPD1    C114252   3.800   1.938  16.513 -0.3497  0.2653 -0.3942
    2MPD1    C214253   3.860   2.018  16.609 -0.2902  0.5425 -0.1598
    2MPD1    C314254   3.788   2.133  16.659 -0.1990 -0.1130  0.6133
    2MPD1    C414255   3.660   2.151  16.618  0.0573  0.5173 -0.3758
    2MPD1    C514256   3.605   2.062  16.537 -0.1508 -0.0402  0.3323
    2MPD1     H14257   3.966   2.006  16.632 -0.7289 -1.9310  0.5947
    2MPD1    H114258   3.594   2.224  16.663 -2.6872 -4.0201  3.0163
    2MPD1    H214259   3.600   1.891  16.423  0.1561 -0.4705  1.7544
    2MPD1    H314260   3.501   2.079  16.513  0.2438  1.3983 -0.3536
    2MPD1     N14261   3.852   2.209  16.764 -0.5060  0.2075 -0.2976
    2MPD1    H514262   3.948   2.179  16.778 -0.4913 -0.3540 -1.5803
    2MPD1    N114263   3.855   1.833  16.446  0.0590 -0.2358  0.1267
    2MPD1    H614264   3.825   1.825  16.349 -0.7276  0.4486  0.3163
    2MPD1    H714265   3.955   1.852  16.439  0.1050 -0.4579  0.1571
    3TCq2    C114266   3.797   2.311  16.834  0.3420 -0.5597  0.7106
    3TCq2    O214267   3.681   2.347  16.826 -0.3408  0.3634  0.7520
    3TCq2    C214268   3.880   2.369  16.935  0.1359  0.5131 -0.6105
    3TCq2    C314269   3.815   2.438  17.031  0.0907  0.2177 -0.1918
    3TCq2    C414270   3.882   2.521  17.117 -0.5458 -0.6925 -0.6185
    3TCq2    C514271   4.011   2.546  17.098 -0.1133  0.1745  0.0538
    3TCq2    C614272   4.082   2.484  16.990 -0.1600  0.2876 -0.2940
    3TCq2    C714273   4.018   2.391  16.913  0.4873 -0.6588  0.1581
    3TCq2    C814274   4.223   2.457  17.009  0.0823 -0.8905 -0.4172
    3TCq2    O414275   4.263   2.346  16.970 -0.0351 -0.0232 -0.6620
    3TCq2    C914276   3.825   2.592  17.230  0.0085  0.1254  0.0113
    3TCq2    O514277   3.845   2.712  17.252  0.4849 -0.5484 -0.6788
    3TCq2    O614278   3.809   2.518  17.331 -0.5466 -0.1212  0.4174
    3TCq2    H214279   3.712   2.419  17.062  0.6067 -0.0712  1.3588
    3TCq2    H314280   4.059   2.608  17.173  0.8582  1.4444 -1.6008
    3TCq2    H414281   4.071   2.331  16.840  0.4292 -2.4265  1.5890
    1TCq1    O114282   0.805   0.374  12.766  0.4283  0.5555  0.0093
    1TCq1    C114283   0.923   0.417  12.822 -0.6042 -0.2986 -0.4410
    1TCq1    O214284   1.013   0.348  12.863 -0.0995  1.0233 -0.5239
    1TCq1    C214285   0.905   0.556  12.857 -0.1782  0.4725  0.7615
    1TCq1    C314286   0.782   0.600  12.892  0.3126  0.4176  0.4103
    1TCq1    C414287   0.768   0.737  12.915  0.2653  0.3704  0.4645
    1TCq1    C514288   0.878   0.817  12.915 -0.2124 -0.3705 -0.8461
    1TCq1    C614289   0.997   0.766  12.905  0.3721  1.0382 -0.1572
    1TCq1    C714290   1.016   0.635  12.874  0.1852 -0.4421 -0.3894
    1TCq1    C814291   1.119   0.856  12.889  0.8859 -0.1302  0.1365
    1TCq1    O414292   1.104   0.975  12.873  0.4091  0.1289 -0.0266
    1TCq1    C914293   0.648   0.809  12.921 -0.1613 -0.3083  0.5854
    1TCq1    O514294   0.644   0.934  12.937 -0.5427  0.1077  0.0794
    1TCq1    O614295   0.549   0.738  12.931 -0.1772  0.5265 -0.1025
    1TCq1    H114296   0.753   0.448  12.726 -1.4393 -0.3834  0.6788
    1TCq1    H214297   0.701   0.529  12.893 -0.5835  1.4420  0.0441
    1TCq1    H314298   0.872   0.922  12.942  0.4711 -0.1244 -1.6448
    1TCq1    H414299   1.109   0.584  12.856  0.1102 -0.4228 -0.8288
    2MPD2     C14300   1.388   0.974  12.852 -0.2301  0.5208 -1.0565
    2MPD2    C114301   1.364   0.851  12.915 -0.8474 -0.0142 -0.5269
    2MPD2    C214302   1.472   0.786  12.973  1.0052  0.2077 -0.0768
    2MPD2    C314303   1.600   0.842  12.975  0.2432 -0.0045 -0.7222
    2MPD2    C414304   1.617   0.966  12.914 -0.0864  0.4138 -0.6825
    2MPD2    C514305   1.517   1.035  12.859  1.0891 -0.5743  0.5210
    2MPD2     H14306   1.455   0.690  13.020 -0.2763 -0.4988 -2.0253
    2MPD2    H114307   1.714   1.013  12.913 -0.2813  0.8915  1.4618
    2MPD2    H214308   1.315   1.025  12.790 -1.4206  0.0118 -0.0793
    2MPD2    H314309   1.530   1.125  12.800 -0.9695 -0.3619  0.4054
    2MPD2     N14310   1.708   0.763  13.025  0.9170  0.4199  0.6207
    2MPD2    H514311   1.693   0.663  13.032  0.8056  0.2759 -1.7297
    2MPD2    N114312   1.231   0.792  12.933  0.0619  0.0367 -0.2714
    2MPD2    H714313   1.216   0.702  12.979 -1.3728  1.1259  1.3641
    3TCq1    O114314   2.002   0.415  12.825 -0.4083  0.3177 -0.1431
    3TCq1    C114315   2.003   0.372  12.951 -0.0566 -0.4503  0.3418
    3TCq1    O214316   2.051   0.263  12.991  0.1145 -0.4250 -0.1618
    3TCq1    C214317   1.999   0.491  13.028 -0.2930 -0.0105 -0.5666
    3TCq1    C314318   2.118   0.510  13.102 -0.2803 -0.0754  0.1057
    3TCq1    C414319   2.131   0.630  13.168 -0.1229  0.0605 -0.4269
    3TCq1    C514320   2.033   0.722  13.155 -0.0243 -0.5220  0.0694
    3TCq1    C614321   1.920   0.694  13.086  0.3033 -0.0542 -0.2847
    3TCq1    C714322   1.899   0.581  13.015  0.7843 -0.3793  0.0290
    3TCq1    C814323   1.835   0.810  13.051 -0.2358  0.2502 -0.1997
    3TCq1    O414324   1.884   0.922  13.060 -0.2811  0.1015 -0.0733
    3TCq1    C914325   2.241   0.663  13.259  0.2821  0.4916 -0.5628
    3TCq1    O514326   2.345   0.591  13.246  0.0156  0.2571  0.3324
    3TCq1    O614327   2.235   0.748  13.351  0.0086 -0.3845  0.0385
    3TCq1    H114328   1.999   0.513  12.819 -1.2527  0.2305 -1.1902
    3TCq1    H214329   2.200   0.440  13.111 -0.6414 -0.4152  0.7331
    3TCq1    H314330   2.040   0.814  13.211  1.4105 -1.3181  1.1746
    3TCq1    H414331   1.811   0.555  12.956  0.7296  0.1567 -0.1234
    1MPD2     C14332   1.293   2.163  15.246  0.4795 -0.9131 -0.4865
    1MPD2    C114333   1.324   2.033  15.198 -0.0060  0.0936 -0.4606
    1MPD2    C214334   1.455   1.997  15.195  0.6196 -0.3782 -0.1103
    1MPD2    C314335   1.554   2.076  15.249 -0.2747 -0.1992  0.2915
    1MPD2    C414336   1.525   2.202  15.291  0.0463  0.1122 -0.1123
    1MPD2    C514337   1.394   2.239  15.297  0.1017 -0.1707 -0.5334
    1MPD2     H14338   1.489   1.915  15.132 -0.1727 -1.2475  0.5987
    1MPD2    H114339   1.606   2.261  15.334  0.8818 -1.2403  0.1551
    1MPD2    H214340   1.191   2.185  15.273  1.1704  0.4486  0.9777
    1MPD2    H314341   1.359   2.332  15.340  0.2290 -0.3839  0.0297
    1MPD2     N14342   1.695   2.036  15.253  0.4825 -0.5024 -0.2081
    1MPD2    H514343   1.769   2.104  15.270  0.0404  0.0257 -0.3915
    1MPD2    N114344   1.225   1.967  15.124 -0.1428 -0.5800 -0.3542
    1MPD2    H714345   1.145   2.021  15.093  0.3216  0.2043 -0.1845
    2TMC3    C114346   1.146   1.779  14.985 -0.4176  0.7592  0.4155
    2TMC3    C214347   1.216   1.700  14.902  0.4146  0.3696 -0.0026
    2TMC3    C314348   1.157   1.682  14.773  0.8870 -0.6193  0.3129
    2TMC3    C414349   1.028   1.836  14.957 -0.0527  0.6911 -0.1093
    2TMC3    C514350   0.968   1.802  14.840  0.3148  0.3030  0.5109
    2TMC3    C614351   1.036   1.738  14.739  0.1330 -0.1559  0.2877
    2TMC3     C14352   1.230   1.829  15.092 -0.0090  0.2941  0.0273
    2TMC3     O14353   1.304   1.743  15.147  0.0396 -0.3199  0.2514
    2TMC3     H14354   1.318   1.674  14.929  0.2542 -0.2452  0.0242
    2TMC3    H114355   0.978   1.889  15.038 -1.9164  0.7182 -1.2767
    2TMC3    H214356   0.989   1.710  14.645 -0.7066 -0.8873  0.9196
    2TMC3    C714357   0.841   1.870  14.803  0.0958 -0.0003  0.2501
    2TMC3    C814358   1.245   1.653  14.668 -0.5215 -0.1857  0.1816
    2TMC3    O114359   0.789   1.843  14.695 -0.6123 -0.2353 -0.1626
    2TMC3    O214360   1.199   1.567  14.593 -0.1434  0.3755  0.3600
    3TCq1    O114361   0.430   2.677  15.600 -0.2053 -0.2582 -0.1411
    3TCq1    C114362   0.399   2.740  15.479  0.0385 -0.4614 -0.7337
    3TCq1    O214363   0.290   2.779  15.441 -0.4587 -0.1690 -0.0793
    3TCq1    C214364   0.488   2.669  15.397  0.6010  0.7551 -0.1909
    3TCq1    C314365   0.618   2.667  15.425 -0.6287  0.3833  0.0120
    3TCq1    C414366   0.700   2.578  15.370 -0.0508 -0.2477 -0.8279
    3TCq1    C514367   0.651   2.483  15.286  0.4904  0.2195  0.0641
    3TCq1    C614368   0.516   2.478  15.267 -0.7475  1.1400 -0.9610
    3TCq1    C714369   0.432   2.576  15.315  0.1161 -0.6359 -0.3371
    3TCq1    C814370   0.464   2.394  15.160 -0.1944 -0.0469 -0.4453
    3TCq1    O414371   0.354   2.417  15.111  0.2830 -0.3612  0.0267
    3TCq1    C914372   0.839   2.584  15.399 -0.4610  0.0334 -0.6490
    3TCq1    O514373   0.886   2.691  15.447 -0.6442 -0.3148  0.1235
    3TCq1    O614374   0.909   2.515  15.322  0.1533  0.3214  0.0457
    3TCq1    H114375   0.513   2.624  15.596  1.5748  2.3969  1.1855
    3TCq1    H214376   0.675   2.738  15.483 -2.7843  1.4897  0.7713
    3TCq1    H314377   0.722   2.415  15.240  2.5924  2.2992  0.2564
    3TCq1    H414378   0.332   2.596  15.278 -1.1024 -0.7959  2.8469
    4MPD2     C14379   0.464   2.210  14.918 -0.3587 -0.1685  0.1362
    4MPD2    C114380   0.557   2.212  15.021  0.7596  0.3911 -0.3462
    4MPD2    C214381   0.665   2.132  15.011 -0.6432  0.3219  0.5215
    4MPD2    C314382   0.684   2.040  14.905  0.2888 -0.1878  0.8124
    4MPD2    C414383   0.591   2.039  14.803 -0.2375  0.3559  0.6995
    4MPD2    C514384   0.482   2.123  14.810  0.2883  0.8847  0.6755
    4MPD2     H14385   0.730   2.121  15.096  0.2536  3.6664  0.2278
    4MPD2    H114386   0.596   1.975  14.715  1.7366  0.3431  0.8218
    4MPD2    H214387   0.376   2.273  14.912  0.1568  0.5683  0.1686
    4MPD2    H314388   0.404   2.110  14.736  0.2324  1.7639  0.5781
    4MPD2     N14389   0.809   1.964  14.902  0.3164 -0.2591  0.2459
    4MPD2    H514390   0.879   1.997  14.967 -1.9717  2.1772  1.5143
    4MPD2    N114391   0.554   2.291  15.130 -0.8104  0.1585  0.3915
    4MPD2    H714392   0.633   2.271  15.191  0.6961 -3.6749 -2.8116
    5TMC2    C114393   1.920   1.827  14.978  0.1149  0.6205 -0.2020
    5TMC2    C214394   1.967   1.706  15.016  0.2787 -0.5094 -0.3175
    5TMC2    C314395   1.963   1.680  15.150 -0.2912  0.0931 -0.0261
    5TMC2    C414396   1.875   1.918  15.074  0.8341 -0.2783  0.3967
    5TMC2    C514397   1.857   1.881  15.195 -0.3200  0.0293 -0.0066
    5TMC2    C614398   1.908   1.770  15.239  0.5089 -0.4845  0.4621
    5TMC2     C14399   1.828   1.825  14.864 -0.0018  0.0014 -0.4527
    5TMC2     O14400   1.748   1.917  14.861 -0.0197 -0.2510  0.6816
    5TMC2     H14401   2.020   1.636  14.952 -0.5067 -0.7483 -0.6970
    5TMC2    H114402   1.832   2.015  15.049  0.3138 -1.0179 -1.5220
    5TMC2    H214403   1.864   1.720  15.324 -0.0390 -0.1574  0.3685
    5TMC2    C714404   1.733   1.904  15.259 -0.2388 -0.4643 -0.6426
    5TMC2    C814405   2.021   1.550  15.188 -0.1532 -0.1654 -0.1775
    5TMC2    O114406   1.662   1.804  15.270  0.0759  0.3001  0.1048
    5TMC2    O214407   2.039   1.457  15.108 -0.2724  0.2652  0.4298
    5TMC2    O514408   2.088   1.587  15.296 -0.7974  0.0816  0.6996
    5TMC2    H514409   2.060   1.666  15.347  0.8118  0.9270  0.2844
    6MPD2     C14410   1.514   1.574  14.553  0.1199  0.3985  0.1446
    6MPD2    C114411   1.491   1.668  14.655 -0.2478  0.3394 -0.1402
    6MPD2    C214412   1.601   1.718  14.732 -0.3754  0.3256  0.6618
    6MPD2    C314413   1.727   1.683  14.702  0.2419  0.2063  0.3366
    6MPD2    C414414   1.752   1.576  14.608 -0.4597 -0.5049  0.0831
    6MPD2    C514415   1.648   1.544  14.524  0.0427 -0.0808 -0.2164
    6MPD2     H14416   1.559   1.780  14.810 -0.2335  0.4773  0.6188
    6MPD2    H114417   1.854   1.541  14.593 -0.1855  0.9030 -1.3244
    6MPD2    H214418   1.438   1.539  14.485 -1.0481  0.5391  1.3637
    6MPD2    H314419   1.664   1.463  14.454 -1.3478 -0.1228 -0.4805
    6MPD2     N14420   1.841   1.721  14.776  0.5650  0.0854  0.2071
    6MPD2    H514421   1.922   1.662  14.764  2.1143  2.2180  0.0228
    6MPD2    N114422   1.365   1.700  14.709 -0.0137 -0.1102  0.0270
    6MPD2    H714423   1.365   1.766  14.786  0.0649 -0.0794  0.0007
  945NH4     N114424   3.802   0.202  15.222  0.2256  0.5423  0.9283
  945NH4     H214425   3.759   0.226  15.313  0.4151  2.6295  0.4801
  945NH4     H314426   3.729   0.152  15.168  0.1337 -0.6042  2.1104
  945NH4     H414427   3.872   0.126  15.233 -0.1716 -0.0984 -0.8640
  945NH4     H514428   3.836   0.272  15.153  1.9843 -0.2919  0.9571
  946SOD     NA14429   0.059   2.470  11.213  0.6066  0.0571 -0.4891
  947SOD     NA14430   4.135   1.040  12.042 -0.9084  0.1950 -0.3056
  948SOD     NA14431   3.214   3.805   1.065  0.8843  0.0679  0.0061
  949SOD     NA14432   1.380   3.472  16.508  0.1767  0.0843  0.2759
  950SOD     NA14433   2.317   3.067  10.525 -0.1547 -0.4155  0.0397
  951SOD     NA14434   1.467   0.400  10.076 -0.2972 -0.1944  0.1742
  952SOD     NA14435   4.447   3.543   1.844 -0.6686 -0.2097  0.8724
  953SOD     NA14436   3.066   1.627   2.118 -0.2718  0.0334  0.2169
  954SOD     NA14437   1.426   4.268  11.765  0.1049 -0.3478 -0.4974
  955SOD     NA14438   0.578   4.228   2.139  0.4186  0.1684  0.2116
  956SOD     NA14439   0.555   0.655  14.089 -0.2802 -0.2352  0.3650
  957SOD     NA14440   3.105   2.705  13.389  0.1484  0.1520 -0.2022
  958SOD     NA14441   2.677   1.164  14.924  0.4985  0.2491 -0.3016
  959SOD     NA14442   1.929   0.552  12.546  0.1134  0.1556  0.1021
  960SOD     NA14443   1.613   0.871  11.615  0.0585  0.3848 -0.2283
  961SOD     NA14444   4.048   2.485   4.473 -0.4418  0.4325 -0.1575
  962SOD     NA14445   3.032   0.196   7.486  0.1794 -0.0354 -0.2478
  963SOD     NA14446   0.265   2.692   1.916  0.0671 -0.6082  0.6141
  964SOD     NA14447   1.530   0.178  11.044  0.3251 -0.3594  0.4573
  965SOD     NA14448   1.795   3.069   9.922 -0.9544 -0.0565  0.2161
  966SOD     NA14449   1.765   0.401  10.215  0.7916 -0.2017  0.1076
  967SOD     NA14450   1.708   2.461  11.948 -0.5371  0.3136 -0.2357
  968SOD     NA14451   2.564   1.855   7.531 -0.0526 -0.3366 -0.4263
  969SOD     NA14452   0.705   1.716  10.061 -0.3091  0.5334 -0.3091
  970SOD     NA14453   3.776   2.645  17.487 -0.3816 -0.0875  0.1082
  971SOD     NA14454   3.872   1.473   1.892 -0.0876  0.1227  0.2527
  972SOD     NA14455   0.159   1.895  16.072  0.2297 -0.5455  0.6800
  973SOD     NA14456   0.824   2.227  10.973  0.5677 -0.3291 -0.4988
  974SOD     NA14457   1.862   1.355   9.928  0.0485  0.1363 -0.0815
  975SOD     NA14458   3.545   2.665  13.031 -0.0606  0.0535  0.0821
  976SOD     NA14459   3.451   3.626  17.232  0.2800  0.2418  0.5632
  977SOD     NA14460   2.743   0.639  13.985 -0.3924  0.4367 -0.0713
  978SOD     NA14461   1.550   1.354  11.655  0.0336 -0.1969  0.1096
  979SOD     NA14462   4.519   4.563   3.820 -0.3709  0.2436  0.1424
  980SOD     NA14463   2.294   0.378  13.985  0.4974  0.0697 -0.3753
  981SOD     NA14464   2.480   2.633  16.237  0.1807  0.2277 -0.1726
  982SOD     NA14465   0.553   0.207  10.309 -0.4840  0.1184  0.3864
  983SOD     NA14466   0.648   3.219   9.601 -0.4440  0.4656 -0.0126
  984SOD     NA14467   2.947   3.564   8.633  0.1137  0.4512 -0.2352
  985SOD     NA14468   4.393   1.988  13.706  0.1982  0.0797  0.2135
  986SOD     NA14469   0.221   0.005  15.320  0.2842 -0.6669  0.5630
  987SOD     NA14470   2.773   0.941  14.132 -0.3172 -0.6373 -0.3347
  988SOD     NA14471   1.447   1.719  15.322 -0.5324  0.0908  0.0600
  989SOD     NA14472   0.861   3.909  10.941  0.0810 -0.2320  0.2210
  990SOD     NA14473   3.725   1.135   0.712 -0.0862  0.5483  0.6246
  991SOD     NA14474   3.699   4.676  12.318  0.0088 -0.5646  0.2485
  992SOD     NA14475   0.655   1.132  12.873  0.0784  0.0723 -0.1859
  993SOD     NA14476   1.340   4.554  12.413 -0.2140 -0.1850  0.1099
  994SOD     NA14477   2.514   1.057  13.672  0.4590 -0.3496  0.1915
  995SOD     NA14478   2.710   3.257   2.335  0.0675 -0.1375  0.5267
  996SOD     NA14479   0.408   0.948  12.941  0.0103  0.1593  0.1786
  997SOD     NA14480   2.772   2.951  16.618  0.0584 -0.1233 -0.3082
  998SOD     NA14481   3.348   4.117   1.931  0.1631 -0.0460  0.1559
  999SOD     NA14482   3.935   1.445  17.158 -0.1594  0.2310 -0.4021
 1000SOD     NA14483   2.170   3.725   8.387  0.2940 -0.3962 -0.7242
 1001SOD     NA14484   0.794   1.627  14.317 -0.3439  0.2652  0.0021
 1002SOD     NA14485   0.956   2.866   3.467  0.3953 -0.2768  0.3549
 1003SOD     NA14486   3.641   2.387   1.272 -0.0387  0.0945 -0.4700
 1004SOD     NA14487   1.080   2.652  15.300 -0.2921 -0.4122 -0.0194
 1005SOD     NA14488   0.226   2.290  11.445 -0.8561  0.1699 -0.0812
 1006SOD     NA14489   2.491   0.120   9.778 -0.1004 -0.2075  0.0100
 1007SOD     NA14490   3.356   0.908   9.149 -0.9077 -0.3338 -0.1318
 1008SOD     NA14491   1.408   0.937  16.528  0.1156 -0.3301  0.1426
 1009SOD     NA14492   3.257   2.100  11.178 -0.2276 -0.1227  0.1947
 1010SOD     NA14493   2.870   1.102  16.976  0.4714 -0.5262 -0.2699
 1011SOL     OW14494   4.680   0.081   5.481 -0.4126  0.4728 -0.0562
 1011SOL    HW114495   4.595   0.065   5.523  0.2768 -2.0983  0.3526
 1011SOL    HW214496   4.652   0.039   5.399 -0.4820 -2.9415  1.6856
 1012SOL     OW14497   1.188   3.155   3.828 -0.6638  0.7111 -0.3275
 1012SOL    HW114498   1.154   3.074   3.866  0.7991  2.1381  3.9599
 1012SOL    HW214499   1.103   3.194   3.806 -0.7216  0.5932 -0.3093
 1013SOL     OW14500   4.475   3.585  16.396 -0.8663 -0.1173  0.0522
 1013SOL    HW114501   4.441   3.635  16.470  0.9017  0.5417  0.4066
 1013SOL    HW214502   4.391   3.547  16.367  0.0096 -1.5521 -0.5983
 1014SOL     OW14503   2.060   3.775   8.190  1.0149  0.2602 -0.2548
 1014SOL    HW114504   1.972   3.736   8.187  0.2140  2.1700 -1.6182
 1014SOL    HW214505   2.070   3.816   8.104  1.5515  0.1549 -0.2372
 1015SOL     OW14506   3.899   1.824   2.878  0.3089 -0.1624 -0.2137
 1015SOL    HW114507   3.850   1.757   2.927 -0.4009  0.9301  0.5949
 1015SOL    HW214508   3.893   1.810   2.784  0.5097 -3.0650  0.2118
 1016SOL     OW14509   3.598   0.532  16.930  0.2634  0.3938  0.5234
 1016SOL    HW114510   3.616   0.459  16.871 -1.2326  0.7397 -0.3446
 1016SOL    HW214511   3.514   0.561  16.896 -0.2387 -0.1905  1.2541
 1017SOL     OW14512   1.264   1.483   8.225 -0.1197 -0.4171  0.5328
 1017SOL    HW114513   1.180   1.443   8.249 -1.1140 -0.0466 -2.3116
 1017SOL    HW214514   1.304   1.414   8.172 -0.1129  1.0242 -1.3606
 1018SOL     OW14515   4.681   1.673   4.974 -0.3373 -0.1095  0.8937
 1018SOL    HW114516   4.592   1.699   4.950  0.1944  0.3025 -0.6117
 1018SOL    HW214517   4.699   1.743   5.037 -2.6682  1.2071  0.0565
 1019SOL     OW14518   1.828   0.808  13.726  0.4002 -0.6229 -0.5691
 1019SOL    HW114519   1.830   0.874  13.658  1.6096 -1.7474 -1.6272
 1019SOL    HW214520   1.848   0.857  13.806  1.2805  1.4273 -2.0640
 1020SOL     OW14521   3.388   3.252   3.452 -0.2203 -0.4294  0.1101
 1020SOL    HW114522   3.451   3.241   3.524 -0.2268  1.4541  0.4084
 1020SOL    HW214523   3.310   3.204   3.481 -0.7216 -0.0343 -0.5959
 1021SOL     OW14524   0.698   4.053   5.218  0.8066  0.2011  0.2517
 1021SOL    HW114525   0.768   4.049   5.283  0.1650 -0.7825  0.8743
 1021SOL    HW214526   0.721   3.981   5.160  0.8009  0.2898  0.1391
 1022SOL     OW14527   3.370   4.295   2.816 -0.3576  0.0074 -0.7040
 1022SOL    HW114528   3.314   4.338   2.751  0.4745  0.9908 -0.7656
 1022SOL    HW214529   3.379   4.208   2.777  0.4692 -0.4709  0.5379
 1023SOL     OW14530   3.705   1.344   8.337 -0.0208 -0.5858  0.1066
 1023SOL    HW114531   3.616   1.322   8.366  0.2525 -0.2058  1.2096
 1023SOL    HW214532   3.688   1.401   8.261  1.2647  0.6851  0.7755
 1024SOL     OW14533   2.536   2.531   2.255 -0.0779 -0.1263 -0.4484
 1024SOL    HW114534   2.491   2.486   2.184 -1.0208 -3.5155  2.3048
 1024SOL    HW214535   2.466   2.545   2.318 -0.4320 -1.8552 -0.4415
 1025SOL     OW14536   0.097   0.702   9.952 -0.0168  0.2424  0.1921
 1025SOL    HW114537   0.112   0.754   9.873  0.1182  0.3106  0.2627
 1025SOL    HW214538   0.060   0.622   9.914 -0.3226 -0.1350  1.2836
 1026SOL     OW14539   3.549   1.487  15.342 -0.1386 -0.6455 -0.0560
 1026SOL    HW114540   3.507   1.524  15.265 -2.5579 -1.6080  0.8041
 1026SOL    HW214541   3.623   1.457  15.289 -0.5245 -1.3544 -0.1989
 1027SOL     OW14542   0.220   2.499   0.989 -0.6129 -0.3442 -0.0949
 1027SOL    HW114543   0.153   2.437   0.960  1.4574 -2.3094 -0.6822
 1027SOL    HW214544   0.212   2.568   0.923  1.2367  0.1846  0.2481
 1028SOL     OW14545   4.626   3.877   9.230  0.5870  0.3462 -0.3216
 1028SOL    HW114546   4.560   3.915   9.288 -0.6666 -3.5471  0.8747
 1028SOL    HW214547   4.622   3.923   9.147  0.3979  0.1457 -0.4238
 1029SOL     OW14548   1.777   2.166  17.052 -0.0007 -0.5004 -0.1297
 1029SOL    HW114549   1.796   2.237  16.991  0.4704  0.6291  1.3356
 1029SOL    HW214550   1.689   2.189  17.081  0.4763  0.0307  0.8728
 1030SOL     OW14551   1.209   2.335   9.309  0.3410 -0.1036 -0.3031
 1030SOL    HW114552   1.162   2.418   9.320  1.4037  0.3374  0.9550
 1030SOL    HW214553   1.271   2.358   9.240 -1.0897 -3.1686 -2.6095
 1031SOL     OW14554   2.362   3.201   2.065  0.1218 -0.4588  0.5209
 1031SOL    HW114555   2.451   3.219   2.034  0.3470 -2.0906  0.2107
 1031SOL    HW214556   2.360   3.109   2.092  0.8349  0.2059  2.8360
 1032SOL     OW14557   4.705   4.173   0.304 -0.2358  0.3423  0.1964
 1032SOL    HW114558   4.610   4.177   0.291 -0.2597 -0.4680  0.1502
 1032SOL    HW214559   4.724   4.112   0.233  1.3286  2.5454 -1.2955
 1033SOL     OW14560   1.608   2.613  10.038  0.3017 -0.1993  0.1556
 1033SOL    HW114561   1.672   2.643   9.973 -2.3639  3.5470 -0.7040
 1033SOL    HW214562   1.639   2.526  10.065 -0.7606 -1.1205 -1.5578
 1034SOL     OW14563   4.158   2.419   1.763 -0.1719 -0.0183 -0.1080
 1034SOL    HW114564   4.193   2.405   1.675  1.8178  1.8622  0.4055
 1034SOL    HW214565   4.127   2.508   1.750 -1.1196 -0.4153 -0.5881
 1035SOL     OW14566   4.318   3.102   9.770 -0.0990 -0.1145  0.0369
 1035SOL    HW114567   4.276   3.132   9.850 -3.2501  2.6888 -2.6536
 1035SOL    HW214568   4.292   3.011   9.760  1.1379 -0.3594 -0.9685
 1036SOL     OW14569   2.953   3.910  12.382  0.1178  0.1038  0.3497
 1036SOL    HW114570   2.905   3.992  12.386 -1.3740 -0.7632  0.3528
 1036SOL    HW214571   2.901   3.850  12.436 -0.2656 -0.4439 -0.6128
 1037SOL     OW14572   3.725   3.306  10.359  0.0745 -0.1041  0.5636
 1037SOL    HW114573   3.817   3.328  10.374  0.0920  0.3642 -0.2420
 1037SOL    HW214574   3.718   3.237  10.425 -1.8933 -2.2109 -1.8602
 1038SOL     OW14575   0.820   3.911   7.684 -0.1976  0.3637  0.0651
 1038SOL    HW114576   0.891   3.855   7.651 -0.6745 -0.0324 -0.2919
 1038SOL    HW214577   0.792   3.865   7.763 -0.1250 -2.2323 -1.4099
 1039SOL     OW14578   0.800   0.354   3.131 -0.0053  0.4306 -0.0620
 1039SOL    HW114579   0.859   0.326   3.061 -1.1854  0.3063 -1.0112
 1039SOL    HW214580   0.735   0.283   3.126  0.7996 -0.5203  3.3818
 1040SOL     OW14581   4.312   4.610   8.927 -0.2195 -0.4231 -0.1233
 1040SOL    HW114582   4.258   4.677   8.970  1.9064 -0.7473  3.0338
 1040SOL    HW214583   4.261   4.529   8.926  1.6405 -1.6170  1.4832
 1041SOL     OW14584   4.076   1.851   8.255  0.7656 -0.4315  1.1284
 1041SOL    HW114585   4.092   1.875   8.164 -2.3944 -2.0650  0.1471
 1041SOL    HW214586   4.042   1.764   8.237 -1.7417  1.3795 -2.8658
 1042SOL     OW14587   3.961   1.843   4.876 -0.3348  0.2516  0.3444
 1042SOL    HW114588   3.985   1.870   4.788 -0.4605 -0.8275 -0.0200
 1042SOL    HW214589   3.914   1.760   4.872  2.2826 -1.0935 -2.5250
 1043SOL     OW14590   1.013   1.647  14.355  0.4975  0.3588  0.1545
 1043SOL    HW114591   1.058   1.623  14.274 -0.5630  1.1062 -0.6672
 1043SOL    HW214592   1.071   1.610  14.422  1.5085 -0.6688 -1.2908
 1044SOL     OW14593   2.360   2.578   8.072  0.0741  0.0372 -0.5637
 1044SOL    HW114594   2.370   2.667   8.038 -0.0559  0.0866 -0.4708
 1044SOL    HW214595   2.431   2.584   8.136  1.4387 -1.3902 -1.9595
 1045SOL     OW14596   4.032   2.765  10.287 -0.3852 -0.5448  0.2499
 1045SOL    HW114597   3.996   2.690  10.240  0.3770 -2.6021  3.0161
 1045SOL    HW214598   4.068   2.726  10.366 -1.4738 -1.0574  0.4884
 1046SOL     OW14599   2.021   3.716  11.950 -0.3463  0.4418 -0.1863
 1046SOL    HW114600   2.075   3.636  11.945 -0.2154  0.5617 -0.7238
 1046SOL    HW214601   2.070   3.763  12.017  0.0639 -0.0440 -0.1374
 1047SOL     OW14602   3.639   1.290   5.235 -0.8605  0.2715  0.3142
 1047SOL    HW114603   3.609   1.259   5.149 -0.1302 -1.6945  0.7671
 1047SOL    HW214604   3.698   1.362   5.213 -2.5467  1.7647  0.6850
 1048SOL     OW14605   3.497   3.652   8.421 -0.4012  0.2984 -0.2841
 1048SOL    HW114606   3.512   3.745   8.404  0.5874  0.0550 -0.7749
 1048SOL    HW214607   3.542   3.634   8.504  0.4864  1.5641 -0.5002
 1049SOL     OW14608   2.488   0.647  14.295  0.4436 -0.2232 -0.4670
 1049SOL    HW114609   2.481   0.656  14.390 -2.7984 -0.9091 -0.6431
 1049SOL    HW214610   2.574   0.688  14.287  0.0316  0.4236 -1.4821
 1050SOL     OW14611   1.021   2.333   6.403 -0.0027  0.5673  0.2312
 1050SOL    HW114612   1.105   2.293   6.425  0.1251  0.8214  0.2147
 1050SOL    HW214613   1.047   2.425   6.394  0.2306  0.3682 -1.1301
 1051SOL     OW14614   2.260   2.860   3.316 -0.6533 -0.9208  0.6487
 1051SOL    HW114615   2.328   2.864   3.383  1.2030 -1.5501 -1.1992
 1051SOL    HW214616   2.226   2.772   3.335 -1.5302 -0.1437  2.6799
 1052SOL     OW14617   3.161   0.097  17.561 -0.0608 -0.2431  0.1967
 1052SOL    HW114618   3.076   0.121  17.599 -0.3096  0.9410 -1.1156
 1052SOL    HW214619   3.162   0.001  17.565 -1.0448 -0.3042 -1.3070
 1053SOL     OW14620   2.278   3.611  10.892  0.3383 -0.2731  0.0149
 1053SOL    HW114621   2.231   3.536  10.928 -2.8852  0.8037 -1.9124
 1053SOL    HW214622   2.253   3.667  10.965 -0.2090  0.7596 -0.9768
 1054SOL     OW14623   0.997   2.519   7.672 -0.0359 -0.0756 -0.2306
 1054SOL    HW114624   1.078   2.571   7.674  0.3713 -0.7161 -0.0989
 1054SOL    HW214625   1.030   2.434   7.643  2.4024  0.5690  0.6500
 1055SOL     OW14626   0.348   2.503   3.492 -0.4036 -0.2282 -0.5089
 1055SOL    HW114627   0.255   2.501   3.469 -0.8671  0.2693  1.3187
 1055SOL    HW214628   0.369   2.410   3.506 -1.3391 -0.3062  0.4235
 1056SOL     OW14629   1.284   1.687   3.688 -0.2374 -0.1986  0.0444
 1056SOL    HW114630   1.340   1.659   3.615 -1.2896 -1.1727 -0.3876
 1056SOL    HW214631   1.333   1.763   3.719 -3.0471  1.7268 -0.3147
 1057SOL     OW14632   3.459   3.294   8.292  0.3364  0.0396 -0.0473
 1057SOL    HW114633   3.499   3.328   8.212 -2.7637  1.6537 -0.8807
 1057SOL    HW214634   3.403   3.361   8.331  1.1772  1.6995 -1.6907
 1058SOL     OW14635   0.120   0.704   6.113  0.1331  0.3838  0.0236
 1058SOL    HW114636   0.134   0.657   6.030 -0.2340  0.4660 -0.0821
 1058SOL    HW214637   0.052   0.658   6.162 -1.6367  1.1540 -1.7347
 1059SOL     OW14638   4.173   2.248  14.212  0.1125 -0.1352 -0.1093
 1059SOL    HW114639   4.193   2.155  14.219  2.1607  0.3571  0.4737
 1059SOL    HW214640   4.158   2.256  14.117  1.9589  1.7944 -0.2477
 1060SOL     OW14641   0.292   3.655  17.078  0.3264  0.6466  0.5025
 1060SOL    HW114642   0.280   3.742  17.041  0.2925  0.4647  0.0849
 1060SOL    HW214643   0.348   3.612  17.013 -0.7532 -1.5766  1.0363
 1061SOL     OW14644   2.017   3.425  17.072 -0.0183  0.1089  0.3734
 1061SOL    HW114645   2.079   3.493  17.048  0.9927  0.0407  2.9116
 1061SOL    HW214646   2.069   3.352  17.037 -0.1574  0.4481 -0.5359
 1062SOL     OW14647   2.149   1.916  17.080  0.9128  0.3242 -0.3473
 1062SOL    HW114648   2.164   1.937  17.172  0.1437  0.4851 -0.2574
 1062SOL    HW214649   2.235   1.937  17.043  0.6682  0.9833 -0.5353
 1063SOL     OW14650   1.698   3.426   4.485 -0.6834 -0.4467  0.1305
 1063SOL    HW114651   1.706   3.351   4.425  0.3515 -1.1448  1.1504
 1063SOL    HW214652   1.700   3.374   4.565 -0.1574  0.7608  0.8920
 1064SOL     OW14653   0.799   2.085   5.705 -0.1439 -0.0187 -0.5597
 1064SOL    HW114654   0.831   2.167   5.742 -2.6315  0.7140 -0.0341
 1064SOL    HW214655   0.873   2.025   5.710  0.0346  0.2390 -0.1325
 1065SOL     OW14656   1.763   4.160   6.582 -0.1191 -0.1724  0.6472
 1065SOL    HW114657   1.825   4.228   6.559 -0.7968  1.0019  2.3199
 1065SOL    HW214658   1.824   4.098   6.621  0.1391 -0.1380  0.2939
 1066SOL     OW14659   4.030   1.168   3.332  0.4585 -0.8248 -0.1134
 1066SOL    HW114660   4.038   1.259   3.302  0.0154  0.2925  3.0548
 1066SOL    HW214661   3.945   1.159   3.376 -0.5772  2.5648 -1.4424
 1067SOL     OW14662   1.597   2.475   0.429 -0.0181 -0.3376 -0.6106
 1067SOL    HW114663   1.574   2.509   0.515  0.8855  0.0857 -0.5355
 1067SOL    HW214664   1.530   2.507   0.368 -2.8831 -2.1392  1.6333
 1068SOL     OW14665   0.279   3.534   7.227  0.0885  0.4932  0.1618
 1068SOL    HW114666   0.246   3.553   7.139 -0.6951 -0.8575  0.1716
 1068SOL    HW214667   0.214   3.577   7.282 -0.0311  1.1653 -0.4933
 1069SOL     OW14668   2.684   3.510  14.078 -0.6462 -0.0696  0.6970
 1069SOL    HW114669   2.738   3.490  14.002  1.9601  1.2092  2.1928
 1069SOL    HW214670   2.757   3.498  14.139 -0.4565  0.2512  0.5339
 1070SOL     OW14671   2.538   2.864   7.191 -0.6949 -0.3045  0.2312
 1070SOL    HW114672   2.575   2.784   7.152 -0.2722  0.3212 -0.6524
 1070SOL    HW214673   2.586   2.868   7.274 -1.3903 -0.2988  0.6272
 1071SOL     OW14674   1.439   1.833   9.292 -0.3757 -0.7022 -0.5726
 1071SOL    HW114675   1.377   1.810   9.361  0.5666 -0.3164  0.4131
 1071SOL    HW214676   1.465   1.748   9.257  2.2836 -1.0115  2.1451
 1072SOL     OW14677   2.812   2.323   2.096  0.0691 -0.5786  0.1113
 1072SOL    HW114678   2.718   2.313   2.076 -0.1874  0.4360  0.8177
 1072SOL    HW214679   2.839   2.338   2.006  0.2449 -1.9283 -0.0662
 1073SOL     OW14680   1.425   4.357   7.275 -0.1777 -0.2287  0.2380
 1073SOL    HW114681   1.428   4.441   7.322  2.2425  0.1935 -0.6695
 1073SOL    HW214682   1.427   4.293   7.347  0.0683  1.2909  1.5817
 1074SOL     OW14683   0.724   2.149   9.949 -0.6346  0.2640  0.4322
 1074SOL    HW114684   0.691   2.103   9.871 -0.4333  1.2720 -0.2536
 1074SOL    HW214685   0.646   2.165  10.002 -0.5279 -1.4339  1.0982
 1075SOL     OW14686   4.680   2.662   8.829  0.6226  0.0946 -0.6225
 1075SOL    HW114687   4.683   2.730   8.897  0.1729 -0.7974  0.3037
 1075SOL    HW214688   4.721   2.583   8.864  0.5675  0.6589  0.7236
 1076SOL     OW14689   1.651   1.598   7.381 -0.4159  0.1267  0.5895
 1076SOL    HW114690   1.592   1.537   7.425 -0.7905  0.1848  0.1714
 1076SOL    HW214691   1.605   1.601   7.297  1.9621 -1.5801 -0.7784
 1077SOL     OW14692   2.856   4.667   6.638  1.0639 -0.4860 -0.2399
 1077SOL    HW114693   2.910   4.593   6.612  0.7445 -0.7284 -0.2098
 1077SOL    HW214694   2.820   4.696   6.555  0.3514  1.5389  0.7723
 1078SOL     OW14695   2.823   0.957  12.826  0.2424 -0.2023  0.2929
 1078SOL    HW114696   2.878   1.027  12.790  1.1297 -1.4101 -0.6979
 1078SOL    HW214697   2.842   0.893  12.757 -1.0355 -0.4832  0.2060
 1079SOL     OW14698   0.841   1.027   1.632 -0.3741 -0.0126 -0.1473
 1079SOL    HW114699   0.888   1.045   1.713  1.0149 -0.5969 -0.8170
 1079SOL    HW214700   0.908   0.982   1.580 -1.1504 -2.0312  0.5815
 1080SOL     OW14701   4.344   2.111   4.592  0.2454 -0.2342  0.0674
 1080SOL    HW114702   4.429   2.153   4.576  0.5928 -1.2314 -0.7135
 1080SOL    HW214703   4.357   2.066   4.676 -2.4348  1.4267  1.3590
 1081SOL     OW14704   0.980   3.476   9.386  0.2830 -0.7007  0.4417
 1081SOL    HW114705   1.005   3.430   9.306  2.6964 -1.5845  1.7235
 1081SOL    HW214706   0.997   3.569   9.371 -0.5241 -0.4052  1.3309
 1082SOL     OW14707   2.666   2.772  16.286 -0.1521  0.4466 -0.2883
 1082SOL    HW114708   2.742   2.775  16.344 -1.0466  1.1684  0.8221
 1082SOL    HW214709   2.716   2.811  16.214 -1.7525  1.5442 -0.7903
 1083SOL     OW14710   0.335   3.383   6.358  0.0021 -0.5460  0.2813
 1083SOL    HW114711   0.315   3.388   6.452  1.0095 -1.4215  0.5385
 1083SOL    HW214712   0.273   3.450   6.327  2.2104  0.7676 -1.2574
 1084SOL     OW14713   3.748   0.639  17.709  0.0414  0.2101  0.1145
 1084SOL    HW114714   3.797   0.700  17.653  1.3944 -0.9927 -0.0016
 1084SOL    HW214715   3.756   0.560  17.656  4.0595 -0.7578  2.2661
 1085SOL     OW14716   2.528   2.758  11.972 -0.0448  0.2074 -0.2639
 1085SOL    HW114717   2.481   2.770  11.890 -1.7192  1.9837  0.9384
 1085SOL    HW214718   2.623   2.748  11.959 -0.1009  2.4086 -2.3873
 1086SOL     OW14719   3.332   0.177   1.280 -0.3327 -0.2859  0.0688
 1086SOL    HW114720   3.399   0.245   1.274 -0.7111  0.1711  0.9733
 1086SOL    HW214721   3.265   0.225   1.329 -0.0452 -0.1853  0.3570
 1087SOL     OW14722   2.276   3.562   6.346 -0.0378 -0.0606 -0.7267
 1087SOL    HW114723   2.361   3.553   6.391 -0.4076 -1.9962 -0.4179
 1087SOL    HW214724   2.280   3.471   6.317 -0.1822  0.5401 -2.6453
 1088SOL     OW14725   3.913   1.183   7.697 -0.1940  0.0875  0.4809
 1088SOL    HW114726   3.954   1.099   7.680 -0.6761 -0.0597  0.0642
 1088SOL    HW214727   3.948   1.238   7.627 -0.9839 -2.6372 -2.0165
 1089SOL     OW14728   1.592   3.633   2.292  0.1827  0.1133  0.1170
 1089SOL    HW114729   1.652   3.559   2.288  0.3007  0.2802 -1.3532
 1089SOL    HW214730   1.513   3.589   2.322  0.0270 -0.2911 -0.8788
 1090SOL     OW14731   3.262   3.537  14.439  0.2704 -0.2456  0.6728
 1090SOL    HW114732   3.183   3.587  14.417 -1.0506 -3.1134 -1.0952
 1090SOL    HW214733   3.258   3.544  14.535  0.2303  3.8692  0.3530
 1091SOL     OW14734   2.047   0.666   1.805 -0.2274  0.4629 -0.4485
 1091SOL    HW114735   1.977   0.600   1.809  0.5120 -0.1991  1.5012
 1091SOL    HW214736   1.992   0.739   1.776 -1.7292 -0.3128  0.4136
 1092SOL     OW14737   0.731   3.270   7.277 -0.0130  0.2207  0.7474
 1092SOL    HW114738   0.718   3.177   7.260  1.3764  0.1129  0.2235
 1092SOL    HW214739   0.740   3.268   7.372  1.3282  0.3494  0.6242
 1093SOL     OW14740   1.457   2.438   4.352 -0.2770 -0.0218  0.3085
 1093SOL    HW114741   1.373   2.397   4.330  0.1613 -1.4547  1.3455
 1093SOL    HW214742   1.469   2.393   4.435  1.1602 -1.5716 -0.7502
 1094SOL     OW14743   3.494   0.367  11.049 -0.4998 -0.7309  0.2622
 1094SOL    HW114744   3.565   0.321  11.004  1.9920  2.7836  0.6687
 1094SOL    HW214745   3.514   0.458  11.029  2.1564 -1.7732 -1.8473
 1095SOL     OW14746   3.223   3.664   9.407 -0.3975 -0.5000  0.0043
 1095SOL    HW114747   3.314   3.680   9.382  0.7490 -2.1309  3.2395
 1095SOL    HW214748   3.224   3.726   9.479 -1.1857  0.6873 -0.9972
 1096SOL     OW14749   1.288   4.158  15.856 -0.1297  0.1196 -0.3025
 1096SOL    HW114750   1.233   4.079  15.863  0.2495 -0.0407  0.9077
 1096SOL    HW214751   1.341   4.152  15.936 -1.7487  0.7100  0.8082
 1097SOL     OW14752   0.381   2.252  16.670  0.2819  0.3241  0.0058
 1097SOL    HW114753   0.388   2.264  16.765 -2.3201  0.8688  0.1321
 1097SOL    HW214754   0.408   2.335  16.633  0.2268  0.6261  0.6444
 1098SOL     OW14755   0.264   0.726   2.902 -0.5653 -0.4189  0.3804
 1098SOL    HW114756   0.302   0.653   2.854  1.6707  0.9422  0.1131
 1098SOL    HW214757   0.248   0.788   2.831 -2.0705 -1.8110 -0.4951
 1099SOL     OW14758   3.957   3.923  13.124  0.6561 -0.3928  0.0209
 1099SOL    HW114759   3.969   3.950  13.215 -1.2595  0.8019 -0.0796
 1099SOL    HW214760   3.992   3.835  13.116  1.2470 -0.3046  1.6070
 1100SOL     OW14761   1.862   3.974   7.846  0.5731 -0.1929  0.1366
 1100SOL    HW114762   1.885   4.026   7.923 -1.5687  1.3145 -0.2266
 1100SOL    HW214763   1.938   3.993   7.791 -0.9906  1.6520 -1.4294
 1101SOL     OW14764   0.875   0.890   2.721  0.3418  0.2286  0.1223
 1101SOL    HW114765   0.826   0.958   2.676  1.2742 -0.1243 -1.4239
 1101SOL    HW214766   0.959   0.875   2.678  0.2482 -0.1902  0.0850
 1102SOL     OW14767   3.004   1.914   9.532  0.0946  0.1210  0.7059
 1102SOL    HW114768   2.981   1.981   9.468  1.9474  0.2653  0.1692
 1102SOL    HW214769   3.042   1.842   9.481  0.0867  0.4011  0.3106
 1103SOL     OW14770   0.926   4.689   8.099 -0.0095  0.2719  0.4074
 1103SOL    HW114771   0.979   0.027   8.145  1.9277 -0.7860 -0.3208
 1103SOL    HW214772   0.981   4.676   8.023 -0.6942  0.0793 -0.0583
 1104SOL     OW14773   4.365   1.387   4.621 -0.2923  0.2457  0.3803
 1104SOL    HW114774   4.390   1.480   4.615 -1.6060  0.5606 -0.1492
 1104SOL    HW214775   4.274   1.399   4.648 -0.4391 -1.0905  0.4690
 1105SOL     OW14776   2.245   2.015   8.719 -0.2910 -0.1725 -0.3733
 1105SOL    HW114777   2.231   1.920   8.724 -0.0784 -0.1669  0.2785
 1105SOL    HW214778   2.244   2.040   8.811 -1.0415  0.0834 -0.4552
 1106SOL     OW14779   2.618   2.590   8.998 -0.3094  0.5458 -0.1173
 1106SOL    HW114780   2.537   2.545   9.019  1.8795 -1.9182  2.9821
 1106SOL    HW214781   2.678   2.516   9.005  0.7821  1.2512 -1.8800
 1107SOL     OW14782   3.276   4.039   1.341  0.1437 -0.4093 -0.1297
 1107SOL    HW114783   3.194   4.016   1.298 -0.9395  2.3045  0.4424
 1107SOL    HW214784   3.323   4.096   1.280 -1.5910  1.1764  0.0019
 1108SOL     OW14785   1.538   4.569   2.867 -0.3011  0.1131  0.2405
 1108SOL    HW114786   1.622   4.541   2.831 -0.3235  3.3586 -2.2769
 1108SOL    HW214787   1.509   4.630   2.799  0.9919 -0.6269 -0.9440
 1109SOL     OW14788   2.598   1.002  10.698  0.3685  0.1561  0.5143
 1109SOL    HW114789   2.535   0.976  10.766 -0.9460  1.5743 -0.1517
 1109SOL    HW214790   2.614   0.923  10.646 -0.0489 -0.6371  1.5856
 1110SOL     OW14791   2.545   0.892  12.537  0.3721 -0.4042 -0.0797
 1110SOL    HW114792   2.498   0.893  12.621  2.0269 -1.1539  0.8621
 1110SOL    HW214793   2.572   0.984  12.535 -0.5725 -0.1544 -1.0182
 1111SOL     OW14794   2.038   4.665   8.997 -0.3162 -0.0176  0.1461
 1111SOL    HW114795   1.995   4.605   9.057 -0.3389 -1.6416 -1.4792
 1111SOL    HW214796   1.966   4.727   8.982  0.4871  0.8341 -0.2374
 1112SOL     OW14797   3.131   0.849   8.370 -0.0791  0.2474  0.1917
 1112SOL    HW114798   3.188   0.852   8.293  0.1870  0.1526  0.3843
 1112SOL    HW214799   3.158   0.928   8.417  0.5492  0.9256 -1.3195
 1113SOL     OW14800   1.211   3.698   5.685 -0.0011  0.5061 -0.1304
 1113SOL    HW114801   1.148   3.750   5.634 -1.0461  0.4681  1.1260
 1113SOL    HW214802   1.158   3.628   5.724  0.9317 -0.1163  0.0187
 1114SOL     OW14803   3.264   4.520  14.695 -0.4890 -0.1151 -0.2470
 1114SOL    HW114804   3.235   4.429  14.682  0.8884 -0.5552 -0.2610
 1114SOL    HW214805   3.305   4.547  14.613 -1.7807  4.8374  0.7745
 1115SOL     OW14806   2.415   2.763  17.191  0.7921  0.0971 -0.2033
 1115SOL    HW114807   2.463   2.736  17.113 -1.0034 -1.5254 -0.7457
 1115SOL    HW214808   2.426   2.687  17.248  0.4976  1.0259  1.0967
 1116SOL     OW14809   1.855   2.081   3.921 -0.0696 -0.4105  0.2004
 1116SOL    HW114810   1.780   2.119   3.967 -0.2672  1.7200 -1.8901
 1116SOL    HW214811   1.840   1.987   3.916  0.6716 -0.4464 -1.1518
 1117SOL     OW14812   4.167   3.345   2.086 -0.7470  0.6378 -0.7923
 1117SOL    HW114813   4.218   3.264   2.085 -0.0614  1.0722 -1.0968
 1117SOL    HW214814   4.197   3.380   2.001  0.0768  1.0830 -0.3168
 1118SOL     OW14815   3.616   3.263   3.581  0.2560 -0.4493  0.3732
 1118SOL    HW114816   3.632   3.277   3.488  0.7897  1.0412  0.6949
 1118SOL    HW214817   3.628   3.353   3.611  1.2732 -0.9956  1.6494
 1119SOL     OW14818   1.444   3.138   6.396  0.4172 -0.8433  0.0031
 1119SOL    HW114819   1.413   3.053   6.428 -2.3400  0.2905  0.3286
 1119SOL    HW214820   1.436   3.199   6.469  3.0086  0.1200 -0.5101
 1120SOL     OW14821   1.011   2.148  15.013  0.0165  0.0693  0.7942
 1120SOL    HW114822   1.051   2.203  14.945 -1.5772  1.2841  0.8549
 1120SOL    HW214823   0.991   2.219  15.074 -0.9976  1.4628 -1.1551
 1121SOL     OW14824   0.316   4.524  17.106 -0.5192  0.3691 -0.4392
 1121SOL    HW114825   0.262   4.527  17.184  0.8595 -0.8415  0.5644
 1121SOL    HW214826   0.355   4.439  17.127 -0.7167  0.8459  1.8181
 1122SOL     OW14827   0.652   3.264  11.140  0.2358 -0.2775 -0.2444
 1122SOL    HW114828   0.686   3.221  11.219 -0.3670 -0.6347 -0.1775
 1122SOL    HW214829   0.671   3.198  11.073 -0.7497 -0.2864 -0.5206
 1123SOL     OW14830   0.570   0.313  13.019  0.0183  0.0462 -0.1732
 1123SOL    HW114831   0.541   0.255  12.950 -2.2931  0.2019  0.6632
 1123SOL    HW214832   0.529   0.398  13.003 -0.1801  0.0986  0.5804
 1124SOL     OW14833   4.382   1.006   8.759  0.6275 -0.1521  0.3258
 1124SOL    HW114834   4.325   1.078   8.784 -0.4220 -0.8528 -0.0730
 1124SOL    HW214835   4.401   0.951   8.835 -1.8894 -1.6423 -0.1371
 1125SOL     OW14836   4.134   2.402   4.677  0.3657  0.2955 -0.0833
 1125SOL    HW114837   4.141   2.416   4.772  1.1983  1.2076 -0.2741
 1125SOL    HW214838   4.203   2.340   4.653 -0.1464 -1.1596  2.2280
 1126SOL     OW14839   3.644   1.894  14.125  0.0837  0.1545  0.7411
 1126SOL    HW114840   3.730   1.913  14.163 -0.2520  0.3198  1.4079
 1126SOL    HW214841   3.627   1.972  14.071 -0.2400 -2.1011 -2.4035
 1127SOL     OW14842   4.556   3.592   9.981  0.6353 -0.3014 -0.0648
 1127SOL    HW114843   4.606   3.630   9.909 -0.7250 -0.0305 -0.8784
 1127SOL    HW214844   4.616   3.533  10.025  2.5842  0.5282 -1.6135
 1128SOL     OW14845   2.614   3.073   4.762 -0.1661 -0.3201 -0.0283
 1128SOL    HW114846   2.614   2.998   4.822 -1.5724 -0.4063 -0.1366
 1128SOL    HW214847   2.567   3.139   4.813 -0.5786 -1.0967  0.5841
 1129SOL     OW14848   4.538   1.140   6.370  0.1783 -0.8355  0.3880
 1129SOL    HW114849   4.610   1.167   6.313  0.0714  1.0401  1.1493
 1129SOL    HW214850   4.473   1.144   6.299  1.3078 -0.8656 -0.6573
 1130SOL     OW14851   1.586   1.944  12.986 -0.1557 -0.4294  0.1014
 1130SOL    HW114852   1.674   1.944  13.023  1.0279  1.5655 -2.7255
 1130SOL    HW214853   1.549   2.022  13.028 -0.1072 -0.3424 -0.0146
 1131SOL     OW14854   4.465   3.753   6.221  0.0725 -0.1430 -0.4995
 1131SOL    HW114855   4.410   3.813   6.170 -1.7324 -0.4400  1.0918
 1131SOL    HW214856   4.498   3.819   6.281  0.7422  0.2227 -1.2758
 1132SOL     OW14857   4.305   0.326   6.132 -0.4952 -0.1416  0.4117
 1132SOL    HW114858   4.252   0.269   6.188 -1.6040  0.2993 -0.1995
 1132SOL    HW214859   4.239   0.381   6.090 -1.2008 -1.1765  0.1925
 1133SOL     OW14860   1.220   0.231  14.781 -0.3559  0.1565 -0.2493
 1133SOL    HW114861   1.253   0.146  14.751 -0.1706 -0.4109  1.5071
 1133SOL    HW214862   1.163   0.201  14.852 -0.5237 -0.2127 -0.5402
 1134SOL     OW14863   3.329   4.265  13.772  0.0402 -0.1983  0.3448
 1134SOL    HW114864   3.275   4.233  13.699 -1.0832  0.2068  0.9998
 1134SOL    HW214865   3.419   4.254  13.741 -0.5776 -0.7432 -1.2828
 1135SOL     OW14866   3.888   3.517   2.661 -0.1130  0.1178 -0.2909
 1135SOL    HW114867   3.878   3.612   2.655  1.8411  0.1153 -3.2207
 1135SOL    HW214868   3.869   3.489   2.572 -2.7035 -0.0239  0.2938
 1136SOL     OW14869   3.616   3.520   6.258  0.2506 -0.0165  0.5124
 1136SOL    HW114870   3.598   3.436   6.215  1.7539 -0.1189  0.0848
 1136SOL    HW214871   3.666   3.560   6.188  0.8816  1.9834  2.0999
 1137SOL     OW14872   3.544   1.558   3.721  0.2638  0.2321  0.2236
 1137SOL    HW114873   3.479   1.587   3.785  1.5445  1.3268  1.0248
 1137SOL    HW214874   3.588   1.641   3.701 -0.5129 -0.0114 -2.5812
 1138SOL     OW14875   2.125   2.618   3.311  0.0528  0.4331 -0.0570
 1138SOL    HW114876   2.074   2.538   3.294  0.6039  0.5778 -2.3151
 1138SOL    HW214877   2.188   2.600   3.242  1.4662  0.4028  1.2315
 1139SOL     OW14878   3.148   3.384  13.391  0.0520  0.5250  0.2370
 1139SOL    HW114879   3.083   3.397  13.322 -1.2917 -2.7693  0.8914
 1139SOL    HW214880   3.226   3.435  13.369 -0.2497  0.7681 -0.2653
 1140SOL     OW14881   1.523   1.100   1.630  0.6079 -0.0660 -0.2223
 1140SOL    HW114882   1.551   1.162   1.697 -3.0491  0.7130  0.5916
 1140SOL    HW214883   1.603   1.092   1.579  1.0671  1.1945  0.3229
 1141SOL     OW14884   3.389   1.434  12.234  0.1605 -0.0525 -0.4758
 1141SOL    HW114885   3.454   1.495  12.197 -1.2285  1.4049 -0.5011
 1141SOL    HW214886   3.364   1.395  12.150 -1.7988  0.5465 -0.1613
 1142SOL     OW14887   3.580   4.593   2.845  0.2809 -0.4819  0.2773
 1142SOL    HW114888   3.531   4.676   2.847 -0.9932 -1.1984 -1.4591
 1142SOL    HW214889   3.569   4.583   2.750 -1.7799 -0.7529  0.5587
 1143SOL     OW14890   1.854   3.120   6.978  0.2578 -0.4304 -0.0467
 1143SOL    HW114891   1.763   3.112   6.949 -0.0736 -0.8222  1.0850
 1143SOL    HW214892   1.835   3.149   7.067  1.1275 -1.3365  0.4310
 1144SOL     OW14893   1.942   3.536  11.746  0.3095  0.5782 -0.2501
 1144SOL    HW114894   2.033   3.519  11.767  0.9430  0.7337 -2.9525
 1144SOL    HW214895   1.907   3.551  11.835  0.6723  1.1588 -0.2032
 1145SOL     OW14896   2.993   2.584  16.642  0.3015  0.5207  0.1580
 1145SOL    HW114897   2.966   2.542  16.724 -2.1680 -1.9886 -1.9417
 1145SOL    HW214898   3.082   2.550  16.639  0.6176  1.4073 -0.3344
 1146SOL     OW14899   3.385   1.245   2.267  0.6862 -0.4158 -0.4843
 1146SOL    HW114900   3.401   1.266   2.176  1.5544  1.5836  0.1412
 1146SOL    HW214901   3.289   1.239   2.262  0.6527 -0.1061 -0.2362
 1147SOL     OW14902   3.077   3.978   8.451 -0.4141  0.0530 -0.3247
 1147SOL    HW114903   3.062   4.026   8.532  1.9280 -1.0903  0.7975
 1147SOL    HW214904   3.169   3.998   8.433 -0.6653  0.6380 -0.9464
 1148SOL     OW14905   2.198   3.950   7.448  0.2920  0.2089  0.1113
 1148SOL    HW114906   2.196   4.039   7.413  0.4851  0.5603  1.0116
 1148SOL    HW214907   2.149   3.907   7.377 -2.0413  1.9783  0.6468
 1149SOL     OW14908   2.835   3.406   4.369  0.6473  0.2646 -0.0528
 1149SOL    HW114909   2.844   3.438   4.459  0.8488  0.1039 -0.0155
 1149SOL    HW214910   2.845   3.492   4.327 -2.1005  1.9091  2.6738
 1150SOL     OW14911   3.675   1.374   1.875 -0.6936 -0.6267 -0.0684
 1150SOL    HW114912   3.626   1.390   1.795 -0.3572 -0.9245 -0.3358
 1150SOL    HW214913   3.605   1.320   1.913 -1.4583  0.8694  0.6430
 1151SOL     OW14914   0.237   3.951  10.834  0.0817 -0.6452  0.0669
 1151SOL    HW114915   0.277   3.878  10.785  0.1691 -0.0482 -0.7495
 1151SOL    HW214916   0.283   4.024  10.794 -0.8962 -0.3089 -0.4621
 1152SOL     OW14917   4.140   0.361  15.149 -0.3148 -0.1394 -0.3740
 1152SOL    HW114918   4.049   0.388  15.139 -0.2769  1.9695  4.4664
 1152SOL    HW214919   4.173   0.419  15.218 -1.0403 -1.7341  1.3207
 1153SOL     OW14920   2.350   0.103  14.939  0.0262  0.1705  0.3058
 1153SOL    HW114921   2.341   0.111  15.034 -0.6823 -0.1468  0.2651
 1153SOL    HW214922   2.259   0.103  14.909 -0.0763 -0.5063  0.6190
 1154SOL     OW14923   4.603   4.007   3.766  0.7150  0.4123 -0.3821
 1154SOL    HW114924   4.682   4.032   3.814  0.6583 -0.5527  0.2238
 1154SOL    HW214925   4.564   3.933   3.815  2.4104 -0.0265  0.2908
 1155SOL     OW14926   3.659   0.337  16.758 -0.0845  0.8856  0.1997
 1155SOL    HW114927   3.640   0.249  16.792 -1.4041  1.7486  1.7266
 1155SOL    HW214928   3.650   0.318  16.665  1.0316 -0.3249  0.3345
 1156SOL     OW14929   2.755   0.660   5.473  0.0163  0.2079  0.1258
 1156SOL    HW114930   2.675   0.691   5.433  0.3346  3.0813  1.7455
 1156SOL    HW214931   2.818   0.727   5.448 -1.0003  1.0236 -0.2301
 1157SOL     OW14932   1.310   2.788   4.985 -0.1699 -0.1084  0.1463
 1157SOL    HW114933   1.347   2.700   4.992 -1.6290 -0.8277 -1.1530
 1157SOL    HW214934   1.274   2.794   5.074  0.9275  1.4684  0.4773
 1158SOL     OW14935   1.242   3.604  15.882  0.0236 -0.0326 -0.1790
 1158SOL    HW114936   1.336   3.595  15.869  0.1129 -0.1804  0.6135
 1158SOL    HW214937   1.208   3.516  15.865 -0.3354  0.3650 -1.6164
 1159SOL     OW14938   3.157   3.796   7.438  0.4500 -0.9624  0.2030
 1159SOL    HW114939   3.228   3.859   7.438  0.1736 -0.6673 -1.2066
 1159SOL    HW214940   3.176   3.728   7.374 -0.7759 -2.2043  1.1303
 1160SOL     OW14941   3.787   1.688  16.715 -0.1158  0.8516 -0.2018
 1160SOL    HW114942   3.693   1.707  16.712 -0.6039 -1.7340 -1.1121
 1160SOL    HW214943   3.816   1.731  16.634 -0.3378 -0.5634 -1.0368
 1161SOL     OW14944   0.766   0.067  12.762  0.0402 -0.2149 -0.3943
 1161SOL    HW114945   0.677   0.086  12.793  0.4111 -0.6587  0.9255
 1161SOL    HW214946   0.819   0.134  12.806 -0.8009  0.1750  0.0217
 1162SOL     OW14947   3.420   4.380   1.599 -0.2681 -0.0638  0.1246
 1162SOL    HW114948   3.352   4.409   1.660 -0.1973 -0.0020  0.1747
 1162SOL    HW214949   3.388   4.407   1.513  0.4125 -4.2396 -1.4339
 1163SOL     OW14950   2.025   0.497   6.442 -0.2816  0.3323  0.4345
 1163SOL    HW114951   2.047   0.403   6.443  2.1755  0.8868 -0.6457
 1163SOL    HW214952   2.080   0.535   6.373 -0.8956 -1.4561 -1.0559
 1164SOL     OW14953   0.041   3.243   7.266  0.0280  0.6870 -0.3878
 1164SOL    HW114954   0.017   3.283   7.350 -1.4627  0.2711 -0.6251
 1164SOL    HW214955   0.102   3.172   7.289  2.4039  2.5795 -0.7779
 1165SOL     OW14956   0.387   3.198   3.005 -0.0082  0.0054  0.3489
 1165SOL    HW114957   0.482   3.188   3.007 -0.1134 -0.8633  0.8670
 1165SOL    HW214958   0.367   3.161   2.919 -2.7981  1.8617  0.1891
 1166SOL     OW14959   0.822   3.072  10.332 -0.0425 -0.2507 -0.2495
 1166SOL    HW114960   0.888   3.004  10.321 -0.5567 -1.1287  2.0140
 1166SOL    HW214961   0.847   3.096  10.422 -4.7643  0.3451  0.9215
 1167SOL     OW14962   0.544   3.752   4.135  0.1971 -0.0636 -0.3429
 1167SOL    HW114963   0.495   3.834   4.134 -1.0599 -0.8272 -0.7667
 1167SOL    HW214964   0.563   3.728   4.045 -1.9974  1.6036 -1.2396
 1168SOL     OW14965   0.702   4.353   4.562  0.2269 -0.2698  0.2308
 1168SOL    HW114966   0.638   4.415   4.598  2.1400  0.2702  2.7133
 1168SOL    HW214967   0.778   4.382   4.613  1.1401 -0.2284 -1.1823
 1169SOL     OW14968   2.384   0.316   7.076  0.4022  0.2038  0.3190
 1169SOL    HW114969   2.404   0.224   7.056 -2.7884 -0.2332 -0.8487
 1169SOL    HW214970   2.370   0.303   7.170 -0.4759 -1.7098 -0.0664
 1170SOL     OW14971   1.979   4.465  12.050  0.0305 -0.0028 -0.1687
 1170SOL    HW114972   2.009   4.552  12.024 -0.7302  0.5824  0.9043
 1170SOL    HW214973   1.929   4.442  11.971 -0.1638  0.7731 -0.2712
 1171SOL     OW14974   4.188   3.329   1.452 -0.1721 -0.0480 -0.2595
 1171SOL    HW114975   4.234   3.348   1.534 -2.3375  0.8180  0.7587
 1171SOL    HW214976   4.101   3.334   1.491  0.6750  3.5686  1.1992
 1172SOL     OW14977   2.188   0.689  14.770  0.2820 -0.0332  0.3782
 1172SOL    HW114978   2.158   0.724  14.854  0.9280 -0.0552  0.6127
 1172SOL    HW214979   2.181   0.767  14.714  2.2380 -0.5972 -0.6612
 1173SOL     OW14980   0.329   1.756   4.730  0.0611  0.1846  0.0812
 1173SOL    HW114981   0.409   1.716   4.765  0.4274 -1.3615 -2.5295
 1173SOL    HW214982   0.284   1.676   4.704  0.5226 -0.0395 -0.0268
 1174SOL     OW14983   1.007   2.521   8.935  0.6154 -0.2304  0.3358
 1174SOL    HW114984   0.991   2.428   8.949 -1.1298 -0.0148 -0.3322
 1174SOL    HW214985   0.919   2.550   8.959  0.8131  0.1329  0.6239
 1175SOL     OW14986   2.260   1.475   9.866  0.8267  0.4123 -0.0631
 1175SOL    HW114987   2.303   1.530   9.931  0.0046  1.3656 -0.3126
 1175SOL    HW214988   2.307   1.394   9.881  0.2429 -0.5651 -3.5663
 1176SOL     OW14989   2.425   2.730   2.739  0.2813  0.0813  0.0550
 1176SOL    HW114990   2.332   2.721   2.722  0.0247  1.7169  0.6125
 1176SOL    HW214991   2.430   2.820   2.772 -1.3544  0.6756 -1.3390
 1177SOL     OW14992   1.094   3.770   1.962 -0.1487  0.7273  0.7427
 1177SOL    HW114993   1.134   3.801   2.044  0.7608 -2.6794  1.5673
 1177SOL    HW214994   1.139   3.833   1.905  1.5705 -1.6509 -0.4769
 1178SOL     OW14995   3.462   4.538  11.567  0.1566 -0.2111  0.6989
 1178SOL    HW114996   3.387   4.482  11.588 -1.2443  1.5741  0.4730
 1178SOL    HW214997   3.506   4.527  11.651  2.0695 -0.8217 -0.3758
 1179SOL     OW14998   1.266   2.718  12.983 -0.1114 -0.5798  0.7826
 1179SOL    HW114999   1.322   2.706  13.059 -0.2264  1.0319  1.1251
 1179SOL    HW215000   1.320   2.676  12.916 -0.6249 -1.2005  0.7608
 1180SOL     OW15001   3.077   4.129   9.498  0.0558  0.3167  0.1194
 1180SOL    HW115002   3.108   4.219   9.504  2.6345 -0.5077 -0.9885
 1180SOL    HW215003   2.997   4.145   9.549 -0.6327 -1.2716 -0.4598
 1181SOL     OW15004   4.719   1.824   2.808 -0.4475  0.0730 -0.3849
 1181SOL    HW115005   4.684   1.803   2.895  1.7808 -1.9653  0.0197
 1181SOL    HW215006   4.640   1.801   2.759  1.3523 -1.0202 -2.7733
 1182SOL     OW15007   0.664   0.209  10.103  0.2794  0.0194  0.2708
 1182SOL    HW115008   0.710   0.266  10.041  0.7193  0.4087  0.9556
 1182SOL    HW215009   0.734   0.143  10.107 -0.6774 -0.9289  1.0118
 1183SOL     OW15010   0.827   0.960   7.892  0.3227  0.0672  0.4727
 1183SOL    HW115011   0.763   1.002   7.950 -1.9243 -2.7499  0.0433
 1183SOL    HW215012   0.900   0.938   7.951  1.4945 -0.4141 -1.1517
 1184SOL     OW15013   2.700   1.829   1.886  0.0034  0.0788 -0.0414
 1184SOL    HW115014   2.665   1.900   1.939 -1.2283  0.7833 -1.7895
 1184SOL    HW215015   2.786   1.850   1.850 -0.2174  2.3426  0.8016
 1185SOL     OW15016   3.373   4.002   8.546 -0.6213  0.2020 -0.0762
 1185SOL    HW115017   3.333   4.071   8.494 -0.0214  0.5337 -0.1016
 1185SOL    HW215018   3.437   3.969   8.482 -1.2593  0.5100 -0.8701
 1186SOL     OW15019   1.555   0.897   5.866 -0.1879 -0.1610  0.1215
 1186SOL    HW115020   1.521   0.810   5.845  0.5573 -0.4011 -0.0944
 1186SOL    HW215021   1.498   0.963   5.829  0.3001  1.1626  1.7340
 1187SOL     OW15022   3.019   0.700   4.687  0.1663 -0.2291 -0.5173
 1187SOL    HW115023   3.054   0.742   4.608 -0.0304 -1.9114 -1.4914
 1187SOL    HW215024   2.942   0.755   4.702 -1.1586 -2.0692 -0.5351
 1188SOL     OW15025   2.104   1.097   7.495  0.2056  0.1935 -0.1767
 1188SOL    HW115026   2.174   1.162   7.493 -1.7894  2.3019 -1.0720
 1188SOL    HW215027   2.049   1.130   7.424 -0.0588 -0.0919 -0.1043
 1189SOL     OW15028   2.789   1.104   6.144  0.1757  0.0685 -0.1175
 1189SOL    HW115029   2.822   1.116   6.233 -1.5745  2.0215  0.2913
 1189SOL    HW215030   2.765   1.196   6.129  0.5898  0.2453  0.2888
 1190SOL     OW15031   4.063   4.639  13.979 -0.3129 -0.6152 -0.4390
 1190SOL    HW115032   4.064   4.717  13.924  0.5492 -1.2207 -1.2828
 1190SOL    HW215033   3.968   4.630  13.992 -0.3299  0.9948  0.5770
 1191SOL     OW15034   2.518   4.365   7.200  0.2823 -0.4824  0.0298
 1191SOL    HW115035   2.508   4.355   7.106 -0.5229  2.1598 -0.1504
 1191SOL    HW215036   2.613   4.362   7.214  0.2281  0.3357  0.5664
 1192SOL     OW15037   2.016   2.691  11.927  0.3006 -0.2432 -0.0279
 1192SOL    HW115038   2.021   2.784  11.902 -2.0264  0.6319  2.8465
 1192SOL    HW215039   1.925   2.696  11.953  0.2930  1.7347 -0.4277
 1193SOL     OW15040   0.825   1.253   6.102 -0.2242  0.4283  0.6438
 1193SOL    HW115041   0.794   1.223   6.016 -0.1494  0.4487  0.6090
 1193SOL    HW215042   0.746   1.254   6.156  0.1163  3.2768  1.0877
 1194SOL     OW15043   0.118   4.516   0.282  0.2328 -0.3535  0.0378
 1194SOL    HW115044   0.212   4.511   0.266  0.3601  0.5450  0.5278
 1194SOL    HW215045   0.118   4.461   0.361  0.3058  1.2630  1.1497
 1195SOL     OW15046   4.506   3.866   2.223  0.0029 -0.2053 -0.3993
 1195SOL    HW115047   4.526   3.843   2.314  0.9183  0.5279 -0.4232
 1195SOL    HW215048   4.505   3.961   2.232  1.0877 -0.1294 -1.1367
 1196SOL     OW15049   4.227   2.692   4.126 -0.1356 -0.0597  0.7287
 1196SOL    HW115050   4.162   2.678   4.057  0.3271  1.1516  0.0582
 1196SOL    HW215051   4.192   2.634   4.195 -1.7446 -0.2008 -0.1960
 1197SOL     OW15052   0.164   1.978   0.666  0.4004  0.4137 -0.2975
 1197SOL    HW115053   0.188   1.889   0.692  0.1940  0.8868  1.4728
 1197SOL    HW215054   0.208   1.979   0.581  0.8117 -0.7382 -0.1075
 1198SOL     OW15055   0.374   2.595  11.100  0.2075  0.7635 -0.6758
 1198SOL    HW115056   0.308   2.553  11.045 -1.7152  1.2185  1.3222
 1198SOL    HW215057   0.420   2.520  11.138 -2.6667 -1.0123 -0.7351
 1199SOL     OW15058   3.793   2.646   4.913  0.1160 -0.3682  0.4485
 1199SOL    HW115059   3.871   2.675   4.867 -0.6184 -0.5624 -0.9195
 1199SOL    HW215060   3.799   2.554   4.887  2.3693 -0.2340  0.4867
 1200SOL     OW15061   1.200   1.556  14.162  0.1021 -0.4357 -0.2196
 1200SOL    HW115062   1.274   1.550  14.102  1.0789  1.9356  0.7747
 1200SOL    HW215063   1.220   1.501  14.238  2.7686 -0.9759 -1.3249
 1201SOL     OW15064   3.934   4.476   7.437 -0.4083 -0.4069 -0.1641
 1201SOL    HW115065   3.866   4.537   7.408 -0.1248  0.9151  1.9531
 1201SOL    HW215066   3.915   4.471   7.531 -0.3674 -0.5605 -0.1644
 1202SOL     OW15067   1.886   1.388   2.397 -0.0692  0.0291  0.1772
 1202SOL    HW115068   1.938   1.417   2.472 -2.3767 -1.0403  2.2260
 1202SOL    HW215069   1.797   1.396   2.433  1.1943 -0.2390  3.3339
 1203SOL     OW15070   0.288   3.003  15.810  1.0041  0.0890  0.0331
 1203SOL    HW115071   0.257   2.918  15.841 -0.6308  0.7834  0.2603
 1203SOL    HW215072   0.328   3.030  15.892  0.8838 -0.0418  0.1343
 1204SOL     OW15073   4.179   4.699   4.913  0.4394  0.7134 -0.8205
 1204SOL    HW115074   4.151   4.687   4.822 -2.1924  2.3844 -0.2226
 1204SOL    HW215075   4.228   0.053   4.899  1.0154  0.4556 -0.2917
 1205SOL     OW15076   1.640   2.658   8.844  0.1429  0.0806  0.3040
 1205SOL    HW115077   1.718   2.693   8.888 -0.6614  0.0024  1.7977
 1205SOL    HW215078   1.586   2.672   8.921  1.5137 -1.3856  1.5434
 1206SOL     OW15079   3.468   1.854   2.029 -0.0607  0.0594 -0.2570
 1206SOL    HW115080   3.464   1.860   1.934 -0.8729  2.3043 -0.0875
 1206SOL    HW215081   3.462   1.760   2.046  1.3327 -0.3256 -1.9472
 1207SOL     OW15082   2.080   3.949   9.536 -0.1055  0.6800  0.0065
 1207SOL    HW115083   2.175   3.962   9.529 -0.6162  3.5931 -1.5825
 1207SOL    HW215084   2.051   3.982   9.621 -0.1408 -1.7651  0.9382
 1208SOL     OW15085   2.634   4.077   5.983  0.2151 -0.8064  0.3671
 1208SOL    HW115086   2.674   4.146   6.036  0.6588 -0.2647 -0.6778
 1208SOL    HW215087   2.546   4.106   5.961  0.9928  0.0305 -1.5940
 1209SOL     OW15088   0.501   1.035   6.384  0.1824 -0.0819 -0.2713
 1209SOL    HW115089   0.582   0.984   6.385 -0.2404 -0.7377  1.3725
 1209SOL    HW215090   0.445   0.969   6.345 -1.8071  2.7451 -2.1210
 1210SOL     OW15091   4.288   3.972   7.128 -0.2672  0.1316  0.1441
 1210SOL    HW115092   4.318   4.024   7.202  0.0763 -1.2276  0.9510
 1210SOL    HW215093   4.340   4.007   7.055  1.2075 -1.0977  0.6031
 1211SOL     OW15094   3.159   2.498   5.955 -0.0309 -0.0443  0.2287
 1211SOL    HW115095   3.251   2.516   5.973  0.0719 -0.1047 -0.2334
 1211SOL    HW215096   3.174   2.416   5.909  0.7558 -0.5754  1.4366
 1212SOL     OW15097   3.639   3.347   9.835  0.0405  0.8212 -0.3594
 1212SOL    HW115098   3.640   3.398   9.754 -3.6750  0.4657 -0.6167
 1212SOL    HW215099   3.577   3.285   9.796  1.1755  0.0437 -0.9318
 1213SOL     OW15100   3.245   4.274   3.870 -0.7817 -0.3813 -0.4141
 1213SOL    HW115101   3.260   4.368   3.864  1.5675 -0.7460 -0.3438
 1213SOL    HW215102   3.190   4.254   3.795 -0.5122  1.7055 -1.1643
 1214SOL     OW15103   1.334   3.125   1.641 -0.5980 -0.2952  0.3405
 1214SOL    HW115104   1.349   3.170   1.558 -1.7133  2.0835  1.4372
 1214SOL    HW215105   1.424   3.095   1.659 -1.7115 -2.7115  1.9567
 1215SOL     OW15106   0.092   2.411  12.889  0.3321 -0.6014 -0.0576
 1215SOL    HW115107   0.084   2.320  12.860  0.1806 -0.8678  0.8030
 1215SOL    HW215108   0.176   2.412  12.936  0.7818 -0.4333 -0.8663
 1216SOL     OW15109   4.423   0.265   7.893 -0.7953  0.2131 -0.4886
 1216SOL    HW115110   4.373   0.268   7.975  1.1356 -0.2511  0.7239
 1216SOL    HW215111   4.478   0.186   7.898  1.1601  1.5469 -1.0483
 1217SOL     OW15112   1.241   3.308  16.408  0.4398 -0.1891  0.4110
 1217SOL    HW115113   1.151   3.341  16.402  0.6802  0.3524 -0.2614
 1217SOL    HW215114   1.259   3.281  16.318 -1.0977  0.0581  0.0262
 1218SOL     OW15115   3.259   0.675   6.507 -0.0345 -0.0718  0.0433
 1218SOL    HW115116   3.235   0.628   6.427  0.0478  0.8684 -0.5350
 1218SOL    HW215117   3.348   0.705   6.487 -0.5698  0.3106 -1.6853
 1219SOL     OW15118   3.341   1.393  11.962  0.4065  0.5114  0.0851
 1219SOL    HW115119   3.275   1.380  11.895  1.0970 -0.2349 -0.4589
 1219SOL    HW215120   3.357   1.486  11.950 -1.1304  0.4981 -2.0376
 1220SOL     OW15121   0.682   2.595  13.551 -0.0574 -0.2384  0.7401
 1220SOL    HW115122   0.588   2.577  13.560  0.0169 -1.4737 -0.7677
 1220SOL    HW215123   0.674   2.686  13.523  1.3969 -0.1633  0.5560
 1221SOL     OW15124   4.496   3.711   2.910  0.0467  0.1795  0.1467
 1221SOL    HW115125   4.482   3.618   2.929 -2.1056  0.7819  1.4820
 1221SOL    HW215126   4.485   3.756   2.994 -1.3990  1.2637 -0.6427
 1222SOL     OW15127   0.574   0.373   2.621  0.1198 -0.3299  0.5700
 1222SOL    HW115128   0.492   0.343   2.580 -1.4788  2.7984  1.4447
 1222SOL    HW215129   0.585   0.312   2.694 -0.1951  0.4001  1.2378
 1223SOL     OW15130   3.513   4.545   5.837 -0.7086  0.5612 -0.3070
 1223SOL    HW115131   3.546   4.634   5.846  1.9061 -0.4225 -0.1331
 1223SOL    HW215132   3.579   4.485   5.873  0.7995  2.0105 -0.6398
 1224SOL     OW15133   0.102   4.267  12.239 -0.4440 -0.2524 -0.2916
 1224SOL    HW115134   0.128   4.358  12.250 -0.5069 -0.0950 -1.4724
 1224SOL    HW215135   0.039   4.271  12.311 -0.0466  1.9901 -0.0629
 1225SOL     OW15136   1.945   3.695   9.447 -0.2056  0.3485 -0.2377
 1225SOL    HW115137   1.987   3.780   9.465  0.2440  0.1895 -0.5473
 1225SOL    HW215138   1.858   3.721   9.480  0.3960  1.0781  0.7699
 1226SOL     OW15139   1.472   4.057  13.789  0.2300 -0.1277 -0.3079
 1226SOL    HW115140   1.453   3.977  13.838 -1.0822  0.2329 -0.2311
 1226SOL    HW215141   1.559   4.031  13.760  0.5686 -1.9608  2.3257
 1227SOL     OW15142   2.057   2.948   2.625 -0.0794  0.3900  0.0069
 1227SOL    HW115143   2.116   3.022   2.614  0.5344  0.0450  1.0130
 1227SOL    HW215144   2.009   2.998   2.691 -2.4361 -0.4044 -1.0946
 1228SOL     OW15145   0.800   1.520   4.283  0.2917  0.5846 -0.5516
 1228SOL    HW115146   0.777   1.610   4.304 -1.8660 -0.2187  0.6135
 1228SOL    HW215147   0.708   1.495   4.271  0.5213 -0.4709 -0.0872
 1229SOL     OW15148   0.024   3.376   9.006 -0.7567  0.2267 -0.2406
 1229SOL    HW115149   4.657   3.383   8.987 -0.5439  0.6739 -1.0918
 1229SOL    HW215150   0.020   3.282   9.024 -2.6352  0.7582  2.2239
 1230SOL     OW15151   1.451   4.660   6.576 -0.4418  0.5746 -0.0029
 1230SOL    HW115152   1.473   4.589   6.637  0.0532  0.2542 -0.5570
 1230SOL    HW215153   1.357   4.649   6.565 -0.3144  0.3845 -0.9111
 1231SOL     OW15154   2.651   1.676   1.586  0.1480 -0.5122  0.8228
 1231SOL    HW115155   2.665   1.707   1.676  1.4890 -0.2921  0.5406
 1231SOL    HW215156   2.644   1.759   1.539 -1.2076 -2.3481 -2.1546
 1232SOL     OW15157   2.349   1.473  16.280 -0.0544 -0.4922 -0.5122
 1232SOL    HW115158   2.423   1.439  16.229 -0.0689 -0.0370 -0.8329
 1232SOL    HW215159   2.387   1.478  16.368  1.6529  0.8529 -1.3269
 1233SOL     OW15160   4.184   0.465   1.754 -0.3165 -0.0761 -0.0329
 1233SOL    HW115161   4.276   0.461   1.726  0.4348  2.4209  2.0946
 1233SOL    HW215162   4.140   0.506   1.679  0.7523 -1.1704 -1.2564
 1234SOL     OW15163   2.597   3.312   4.181 -0.3196 -0.0134 -0.1874
 1234SOL    HW115164   2.678   3.264   4.198 -0.6605 -1.0343 -1.4600
 1234SOL    HW215165   2.563   3.330   4.269 -0.3568  0.8849 -0.3926
 1235SOL     OW15166   0.563   2.391   3.288 -0.8885  0.1792  0.5341
 1235SOL    HW115167   0.537   2.374   3.197 -0.5439 -2.1194  0.8693
 1235SOL    HW215168   0.570   2.486   3.294  0.0548  0.0380  1.7147
 1236SOL     OW15169   2.660   4.508   7.561 -0.1324 -0.1387  0.5600
 1236SOL    HW115170   2.641   4.421   7.527  2.3246 -0.6356  0.4671
 1236SOL    HW215171   2.746   4.532   7.525 -1.1869  1.3053 -0.9940
 1237SOL     OW15172   0.629   3.376   4.872  0.4283 -0.7352 -0.1131
 1237SOL    HW115173   0.663   3.405   4.787  4.2978 -1.3238  1.2069
 1237SOL    HW215174   0.605   3.288   4.842 -2.7705  1.0207 -2.5449
 1238SOL     OW15175   3.260   4.056   5.877 -0.2128 -0.4865  0.5253
 1238SOL    HW115176   3.348   4.090   5.894  0.5976 -1.2449 -2.1026
 1238SOL    HW215177   3.278   3.977   5.826  2.3338  0.0997  0.5062
 1239SOL     OW15178   2.896   2.366   0.157 -0.2140 -0.0086 -0.3116
 1239SOL    HW115179   2.978   2.405   0.187 -0.4038 -0.2601  0.5276
 1239SOL    HW215180   2.866   2.330   0.240  0.1582 -0.1144 -0.2235
 1240SOL     OW15181   4.609   0.460  12.908  0.1835 -0.3202 -0.2750
 1240SOL    HW115182   4.692   0.413  12.918 -1.1505 -2.2413  1.7277
 1240SOL    HW215183   4.613   0.471  12.813 -0.5250  2.7344  0.0337
 1241SOL     OW15184   2.289   3.523   7.987  0.3594 -0.5267  0.3004
 1241SOL    HW115185   2.244   3.553   7.908  0.4866 -0.3682  0.2887
 1241SOL    HW215186   2.363   3.487   7.939 -0.4277  0.5679 -1.7331
 1242SOL     OW15187   0.888   3.493   3.565  0.5476  0.4936 -0.2460
 1242SOL    HW115188   0.834   3.568   3.537  1.4015  1.3642  0.4293
 1242SOL    HW215189   0.975   3.534   3.560  1.6107 -1.3934  2.6423
 1243SOL     OW15190   0.797   0.546   6.817 -0.4910  0.0469 -0.6789
 1243SOL    HW115191   0.893   0.546   6.813 -0.5211 -1.6533 -1.2901
 1243SOL    HW215192   0.773   0.460   6.784  1.8755 -1.1088  0.5518
 1244SOL     OW15193   1.963   0.338   2.014 -0.2217  0.6404 -0.1547
 1244SOL    HW115194   1.960   0.292   1.930 -1.1124 -0.2286  0.3390
 1244SOL    HW215195   1.871   0.325   2.037  0.1921  0.4209  1.3987
 1245SOL     OW15196   4.615   4.554   4.850 -0.2464  0.2583 -0.5435
 1245SOL    HW115197   4.527   4.522   4.873 -0.5871 -0.1490 -2.4173
 1245SOL    HW215198   4.668   4.475   4.837  1.3363  1.0740  1.0482
 1246SOL     OW15199   2.276   0.812   6.508 -0.2020 -0.1437 -0.0301
 1246SOL    HW115200   2.196   0.859   6.533 -0.2631 -0.5345  0.5005
 1246SOL    HW215201   2.278   0.750   6.580  0.0058 -3.1859 -2.6362
 1247SOL     OW15202   0.323   0.487  17.571 -0.0361 -0.1055 -0.4471
 1247SOL    HW115203   0.384   0.434  17.624  2.0573  2.6539 -0.1013
 1247SOL    HW215204   0.306   0.553  17.639 -0.2096  0.8116 -1.3888
 1248SOL     OW15205   3.840   0.762   2.322 -0.1517  0.4068  0.0967
 1248SOL    HW115206   3.764   0.716   2.287  0.2743  0.3853 -0.8114
 1248SOL    HW215207   3.899   0.739   2.250  0.4862 -2.4080  1.5329
 1249SOL     OW15208   1.819   2.977   3.177 -0.1137 -0.6059  0.1142
 1249SOL    HW115209   1.902   2.955   3.134  0.6519  1.8506  0.3012
 1249SOL    HW215210   1.802   3.056   3.125 -0.5078 -0.2047  0.8559
 1250SOL     OW15211   0.139   2.293   0.316  0.1036 -0.3059  0.6766
 1250SOL    HW115212   0.161   2.363   0.255  3.6138 -1.0577  1.0609
 1250SOL    HW215213   0.178   2.312   0.401  1.2766  1.8083 -0.3503
 1251SOL     OW15214   2.518   1.694   0.304 -0.5416  1.3652 -0.0484
 1251SOL    HW115215   2.458   1.707   0.378  0.2463  0.4147  0.7589
 1251SOL    HW215216   2.462   1.678   0.228  2.4260  0.0107 -1.9577
 1252SOL     OW15217   2.163   4.482   6.300  0.0057 -0.0512  0.5690
 1252SOL    HW115218   2.087   4.432   6.271 -0.5274  1.3169 -0.4158
 1252SOL    HW215219   2.182   4.441   6.384  0.5224  1.2018  1.0713
 1253SOL     OW15220   0.763   1.041   3.637  0.1486 -0.0197  0.3645
 1253SOL    HW115221   0.694   0.982   3.668  0.1701 -0.5760 -0.6318
 1253SOL    HW215222   0.720   1.091   3.568  0.7473 -0.4151 -0.3018
 1254SOL     OW15223   0.370   0.540   8.756  0.1166 -0.4667  0.0958
 1254SOL    HW115224   0.370   0.569   8.664  3.0942  1.6370  0.7719
 1254SOL    HW215225   0.403   0.452   8.736 -1.5379 -1.4318  1.5917
 1255SOL     OW15226   0.339   1.149   8.699 -0.0368 -0.0040  0.1140
 1255SOL    HW115227   0.389   1.097   8.763  0.8646  0.6024 -0.0940
 1255SOL    HW215228   0.388   1.231   8.704  4.4195 -2.5472 -1.0465
 1256SOL     OW15229   3.806   1.443  12.085 -0.4441 -0.5359 -0.7264
 1256SOL    HW115230   3.872   1.481  12.144 -1.0013 -1.1025  0.2722
 1256SOL    HW215231   3.735   1.504  12.103  0.7483  1.2540 -2.1729
 1257SOL     OW15232   3.525   0.649   7.273 -0.1048  0.0452 -0.2428
 1257SOL    HW115233   3.537   0.735   7.233 -1.0944  0.5014  0.4546
 1257SOL    HW215234   3.616   0.625   7.290 -0.7645 -0.3189  2.7410
 1258SOL     OW15235   1.759   0.609   2.315 -0.0394 -0.4011  0.5482
 1258SOL    HW115236   1.853   0.613   2.332  0.6471 -0.8889 -3.0348
 1258SOL    HW215237   1.739   0.516   2.312  0.3060 -0.4573  0.0429
 1259SOL     OW15238   4.382   4.716  13.844  0.1625  0.0603  0.1691
 1259SOL    HW115239   4.331   4.643  13.879 -2.7277  1.0382 -2.0566
 1259SOL    HW215240   4.379   0.045  13.921  0.6309  0.8220 -0.3694
 1260SOL     OW15241   3.674   1.589  11.629  0.0419 -0.2348 -0.2038
 1260SOL    HW115242   3.638   1.639  11.702 -0.0447  1.2797 -1.2907
 1260SOL    HW215243   3.720   1.657  11.579  0.2850  0.1898  0.6012
 1261SOL     OW15244   2.773   2.959   2.138  0.7073  0.2748  0.2980
 1261SOL    HW115245   2.803   3.047   2.162  0.5658  0.8520 -1.6827
 1261SOL    HW215246   2.737   2.990   2.055 -1.6595 -2.8173  0.1843
 1262SOL     OW15247   2.406   2.509   4.692  0.1442  0.3119 -0.1415
 1262SOL    HW115248   2.365   2.587   4.656  0.3751  1.0563  1.2380
 1262SOL    HW215249   2.366   2.441   4.638 -2.2416  2.6985 -1.3727
 1263SOL     OW15250   1.342   0.078  12.362 -0.4336  0.3812  0.0427
 1263SOL    HW115251   1.376   0.087  12.273  1.3551  2.0893  0.9027
 1263SOL    HW215252   1.397   0.147  12.400  0.1130  1.4571 -2.6987
 1264SOL     OW15253   1.616   3.290   8.984  0.3421 -0.6623 -0.0854
 1264SOL    HW115254   1.684   3.346   9.021 -0.6666 -0.7748  1.9106
 1264SOL    HW215255   1.587   3.245   9.063 -0.3854 -0.5877 -0.3120
 1265SOL     OW15256   1.567   3.151   9.212 -0.3948 -0.5921 -0.1260
 1265SOL    HW115257   1.620   3.086   9.167 -2.3129 -1.0175 -1.7757
 1265SOL    HW215258   1.614   3.172   9.293  1.5154 -3.0413 -0.5933
 1266SOL     OW15259   4.388   1.855   6.678  0.2705 -0.0655 -0.3038
 1266SOL    HW115260   4.349   1.798   6.743  0.1360  0.4581  0.0725
 1266SOL    HW215261   4.397   1.797   6.602  0.4186 -0.7662  0.2526
 1267SOL     OW15262   3.229   4.666   6.789 -0.2985  0.5806  0.2540
 1267SOL    HW115263   3.194   0.025   6.766 -0.6292  0.0339 -1.2691
 1267SOL    HW215264   3.300   4.648   6.727  0.3225  0.6732  0.9349
 1268SOL     OW15265   3.648   4.551  12.118 -0.1033  0.7081  0.2886
 1268SOL    HW115266   3.736   4.527  12.091 -0.1864 -0.0120  0.6430
 1268SOL    HW215267   3.616   4.596  12.040  1.5777 -0.0266 -0.8124
 1269SOL     OW15268   4.536   1.321  15.660  0.0564  0.4310  0.0478
 1269SOL    HW115269   4.623   1.290  15.638 -0.3412 -0.2733 -0.5039
 1269SOL    HW215270   4.499   1.334  15.573  0.8506 -2.1788 -0.6621
 1270SOL     OW15271   3.210   2.075   7.530  0.6043 -0.3719  0.6080
 1270SOL    HW115272   3.123   2.058   7.567 -0.4860  2.7845 -0.4542
 1270SOL    HW215273   3.188   2.151   7.476 -2.0898 -0.3847  1.6895
 1271SOL     OW15274   1.950   2.970   8.005 -0.2326 -0.2029 -0.1607
 1271SOL    HW115275   2.003   2.912   8.060 -1.3443 -0.9477  0.1332
 1271SOL    HW215276   1.871   2.919   7.986  0.2317 -0.5192 -1.2609
 1272SOL     OW15277   3.496   0.248   5.483 -0.0612 -0.1271  0.0869
 1272SOL    HW115278   3.528   0.174   5.432 -1.6254  0.4091 -1.6461
 1272SOL    HW215279   3.557   0.318   5.460  0.0571 -0.7684 -1.5856
 1273SOL     OW15280   3.234   0.142   3.509 -0.0445  0.2750 -0.2092
 1273SOL    HW115281   3.250   0.065   3.454 -0.1999  0.7696 -0.9358
 1273SOL    HW215282   3.165   0.183   3.457  0.1586  0.3722 -0.4013
 1274SOL     OW15283   3.893   2.762  13.770 -0.3654  0.2893 -0.3482
 1274SOL    HW115284   3.816   2.716  13.801  1.5029 -1.8061  1.1120
 1274SOL    HW215285   3.875   2.846  13.812  1.6871 -0.1532  1.4084
 1275SOL     OW15286   0.569   2.312   3.016  0.4269 -0.2303 -0.7163
 1275SOL    HW115287   0.549   2.244   2.952  0.8494 -0.9035 -0.1302
 1275SOL    HW215288   0.665   2.321   3.014  0.2180  1.8243 -2.0516
 1276SOL     OW15289   3.578   2.635   0.208  0.0605  0.3217  0.4259
 1276SOL    HW115290   3.671   2.652   0.194 -0.6266  1.9669 -2.2479
 1276SOL    HW215291   3.535   2.656   0.125 -0.7982 -0.2177  0.7317
 1277SOL     OW15292   4.158   1.763  16.946 -0.8501  0.1649  0.4930
 1277SOL    HW115293   4.144   1.707  16.869 -2.2004  0.5267  0.4763
 1277SOL    HW215294   4.070   1.797  16.959 -0.7286  0.4766  0.5204
 1278SOL     OW15295   1.667   1.227   0.935  0.2954 -0.3887  0.0179
 1278SOL    HW115296   1.725   1.303   0.940  1.0359 -0.8346 -1.7212
 1278SOL    HW215297   1.711   1.154   0.977  2.2700  0.0153 -1.3327
 1279SOL     OW15298   0.463   1.372   9.426  0.7072 -0.0839 -0.1557
 1279SOL    HW115299   0.517   1.347   9.501  0.0636 -1.9964 -0.3457
 1279SOL    HW215300   0.470   1.468   9.434 -0.7109  0.0780 -0.8194
 1280SOL     OW15301   0.196   3.217   2.271 -0.4252 -0.8730  0.0392
 1280SOL    HW115302   0.149   3.165   2.206 -1.2108 -1.9770  1.4805
 1280SOL    HW215303   0.199   3.169   2.354 -0.7620 -3.7912 -1.6145
 1281SOL     OW15304   0.739   0.515  15.100 -0.1203  0.6359 -0.2312
 1281SOL    HW115305   0.829   0.497  15.074 -0.3288 -1.1707  0.2314
 1281SOL    HW215306   0.680   0.464  15.043  0.6542 -2.2249  1.5323
 1282SOL     OW15307   3.947   4.286  10.719  0.0426 -0.3034 -0.3590
 1282SOL    HW115308   3.858   4.267  10.689 -1.7013  3.4156  2.5379
 1282SOL    HW215309   4.007   4.252  10.652  2.0801 -1.0106  1.8460
 1283SOL     OW15310   4.036   3.523   9.073 -0.4082  0.1124 -0.3920
 1283SOL    HW115311   4.122   3.503   9.109 -1.4183 -0.6740  1.5375
 1283SOL    HW215312   4.018   3.438   9.033  1.7249  0.7349 -2.7272
 1284SOL     OW15313   2.164   1.256   9.231  0.1192  0.1056 -0.0287
 1284SOL    HW115314   2.211   1.242   9.149  0.0957 -1.0678  0.1583
 1284SOL    HW215315   2.096   1.191   9.216 -0.2599  0.2749  0.9493
 1285SOL     OW15316   2.583   3.193   8.558 -0.0592  0.1822 -0.3951
 1285SOL    HW115317   2.575   3.148   8.474 -0.3413  0.4716 -0.5234
 1285SOL    HW215318   2.676   3.200   8.581  0.3184 -3.0708 -0.9552
 1286SOL     OW15319   3.692   1.532   9.366 -0.4043 -0.3449  0.0888
 1286SOL    HW115320   3.737   1.604   9.410 -2.2431 -0.0772  1.5448
 1286SOL    HW215321   3.742   1.533   9.284 -0.8489 -0.5708 -0.1860
 1287SOL     OW15322   1.444   3.233   8.059 -0.0140 -0.0744 -0.2317
 1287SOL    HW115323   1.532   3.196   8.055 -0.0977 -0.0738 -2.0509
 1287SOL    HW215324   1.411   3.179   7.988  1.6051  1.6727 -2.3278
 1288SOL     OW15325   1.696   1.978   1.016  0.2843  0.8996 -0.5862
 1288SOL    HW115326   1.632   1.921   0.973 -0.5461  1.2369  0.1972
 1288SOL    HW215327   1.718   1.935   1.099 -0.8950  0.5103 -0.4811
 1289SOL     OW15328   0.599   0.658   6.617 -0.0160  0.0768  0.6553
 1289SOL    HW115329   0.607   0.753   6.617  1.7754 -0.0717 -1.3408
 1289SOL    HW215330   0.648   0.641   6.698  0.4102 -0.3525  0.3134
 1290SOL     OW15331   1.746   0.161   8.301  0.1109  0.2802  0.5392
 1290SOL    HW115332   1.776   0.179   8.212 -1.3210  1.5309  0.3146
 1290SOL    HW215333   1.784   0.073   8.306 -0.1152  0.2021  0.8714
 1291SOL     OW15334   2.428   0.457   9.534 -0.0810  0.0288 -0.6466
 1291SOL    HW115335   2.476   0.464   9.452 -0.9542  2.3096 -0.9610
 1291SOL    HW215336   2.396   0.547   9.528  0.9750  0.2258 -3.0564
 1292SOL     OW15337   0.678   2.576  13.900 -0.8067 -0.2466  0.1494
 1292SOL    HW115338   0.683   2.505  13.835  0.8725  0.5997 -0.6365
 1292SOL    HW215339   0.662   2.524  13.979 -0.7123  0.1560  0.4343
 1293SOL     OW15340   2.969   1.954   9.798  0.0974  0.0375  0.2828
 1293SOL    HW115341   2.903   1.910   9.852  1.1223 -1.1178  0.5993
 1293SOL    HW215342   2.957   1.918   9.710  0.9891 -0.6484  0.4348
 1294SOL     OW15343   0.873   0.061  12.329 -0.0832  0.0060 -0.2870
 1294SOL    HW115344   0.785   0.090  12.352 -0.4064 -1.3813  0.1828
 1294SOL    HW215345   0.857   0.009  12.250 -3.2329 -1.5957  1.3978
 1295SOL     OW15346   3.718   1.054  12.027 -0.2726  0.3235  0.7113
 1295SOL    HW115347   3.655   1.077  11.958 -0.1915 -1.0846  0.1567
 1295SOL    HW215348   3.657   1.023  12.095  0.8841 -1.1519  1.0763
 1296SOL     OW15349   1.885   0.097  13.663  0.0419 -0.7896 -0.1753
 1296SOL    HW115350   1.903   0.171  13.721 -0.4840 -1.1688  0.4563
 1296SOL    HW215351   1.952   0.036  13.694 -1.3076 -1.6277  1.0777
 1297SOL     OW15352   2.892   2.812  16.478 -0.3784 -0.5386 -0.0978
 1297SOL    HW115353   2.930   2.732  16.515 -1.9272 -0.8080  0.8999
 1297SOL    HW215354   2.973   2.854  16.452 -0.7515 -0.2030 -0.7076
 1298SOL     OW15355   3.096   1.929   3.974 -0.0277 -0.9293 -0.1260
 1298SOL    HW115356   3.174   1.973   3.940  0.1013  0.6232  2.2034
 1298SOL    HW215357   3.051   1.907   3.893 -1.6595 -0.6417  0.7054
 1299SOL     OW15358   2.356   0.238   5.626 -0.8845 -0.1419  0.0917
 1299SOL    HW115359   2.348   0.160   5.681  1.9893 -1.3124 -1.1417
 1299SOL    HW215360   2.443   0.273   5.646 -0.7725 -0.2601 -0.1770
 1300SOL     OW15361   1.257   0.578  13.348 -0.1171 -0.1798 -0.1506
 1300SOL    HW115362   1.346   0.576  13.312  0.7769  0.4052  2.0101
 1300SOL    HW215363   1.238   0.671  13.362 -1.5377 -0.5882  0.5014
 1301SOL     OW15364   1.286   2.688   2.879 -0.3789 -0.1479  0.5172
 1301SOL    HW115365   1.309   2.780   2.892  1.1605 -0.3778 -0.6330
 1301SOL    HW215366   1.216   2.686   2.945 -0.3290 -0.5822  0.5523
 1302SOL     OW15367   1.652   2.163   0.797  0.3425 -0.5803  0.3046
 1302SOL    HW115368   1.665   2.123   0.883  1.4896 -1.0092 -0.0748
 1302SOL    HW215369   1.625   2.087   0.745  0.1739 -1.4140  1.6040
 1303SOL     OW15370   1.071   4.012   8.991  0.0504  0.3262  0.5593
 1303SOL    HW115371   1.090   4.103   8.965  1.4882 -0.0821  0.1940
 1303SOL    HW215372   1.152   3.980   9.032 -0.4282 -0.1603  1.1212
 1304SOL     OW15373   4.397   0.109   0.748 -0.1465 -0.0649 -0.3790
 1304SOL    HW115374   4.349   0.188   0.774  0.2286 -0.0534  0.2879
 1304SOL    HW215375   4.365   0.082   0.662 -2.3976 -2.1253  1.1177
 1305SOL     OW15376   2.819   2.421   6.921 -0.0602 -0.0233 -0.0519
 1305SOL    HW115377   2.753   2.396   6.857 -1.0860 -1.7342  1.6785
 1305SOL    HW215378   2.777   2.474   6.989 -1.2511 -1.1071  0.0643
 1306SOL     OW15379   1.656   3.220  17.610  0.6474 -0.5336  0.3947
 1306SOL    HW115380   1.578   3.243  17.660 -1.1260  0.3223 -2.7323
 1306SOL    HW215381   1.636   3.284  17.542  0.4545  0.7773  1.6857
 1307SOL     OW15382   2.276   1.249   8.600 -0.3314  0.0289 -1.0337
 1307SOL    HW115383   2.251   1.222   8.512 -3.7395  0.1630 -0.1009
 1307SOL    HW215384   2.200   1.213   8.646 -0.5395 -0.8143 -2.0453
 1308SOL     OW15385   3.212   0.330  10.257  0.1427  0.0365 -0.0958
 1308SOL    HW115386   3.257   0.252  10.289 -2.8047 -1.4789  0.3340
 1308SOL    HW215387   3.131   0.308  10.303  0.5703  1.0407  1.1588
 1309SOL     OW15388   2.671   4.177   6.660 -0.1573  0.3228 -0.1950
 1309SOL    HW115389   2.629   4.092   6.648  0.3311  0.2736 -1.5655
 1309SOL    HW215390   2.738   4.174   6.592  0.1263 -2.4181  0.1995
 1310SOL     OW15391   2.590   2.847  16.554 -0.1488  0.0868 -0.3812
 1310SOL    HW115392   2.497   2.869  16.544 -0.0011  0.9950  0.3274
 1310SOL    HW215393   2.592   2.770  16.497  1.9458 -1.0021  1.1737
 1311SOL     OW15394   4.405   0.532   9.909 -0.0022  0.6395  0.0278
 1311SOL    HW115395   4.390   0.454   9.963  1.5553  1.5350  1.7580
 1311SOL    HW215396   4.500   0.539   9.906  0.0709 -0.9452 -0.9909
 1312SOL     OW15397   4.362   0.013   5.209 -0.4850 -0.4531 -0.0702
 1312SOL    HW115398   4.443   0.004   5.159 -1.1401  0.5225 -1.3182
 1312SOL    HW215399   4.361   4.652   5.245  1.1547  0.3514  1.9595
 1313SOL     OW15400   3.535   1.606  10.212  0.8836  0.0700 -0.1331
 1313SOL    HW115401   3.575   1.660  10.144 -1.5332  0.7415 -0.9990
 1313SOL    HW215402   3.443   1.603  10.188  0.7237  0.3464  0.4473
 1314SOL     OW15403   1.195   4.568   6.634  0.3280 -0.0508 -0.0528
 1314SOL    HW115404   1.207   4.486   6.683 -1.4582 -0.2901 -0.0036
 1314SOL    HW215405   1.117   4.592   6.684  1.0268 -1.3413  1.6765
 1315SOL     OW15406   3.801   0.235   9.019 -0.7075 -0.1839  0.0941
 1315SOL    HW115407   3.756   0.271   8.942 -1.9485 -1.7645  0.0680
 1315SOL    HW215408   3.730   0.196   9.070  0.8659 -2.1971  0.7073
 1316SOL     OW15409   0.572   3.848  13.661 -0.4434 -0.3991 -0.1307
 1316SOL    HW115410   0.487   3.866  13.620 -1.3491  0.3238  2.0217
 1316SOL    HW215411   0.611   3.793  13.594 -0.4758  1.1325 -1.3973
 1317SOL     OW15412   3.481   1.544   3.135 -0.3223 -0.1491 -0.2150
 1317SOL    HW115413   3.468   1.581   3.223 -1.3464 -0.6119 -0.1727
 1317SOL    HW215414   3.575   1.530   3.135 -0.6794 -2.5531 -0.5846
 1318SOL     OW15415   4.217   2.552   4.934  0.7702 -0.0460 -0.3840
 1318SOL    HW115416   4.182   2.638   4.955 -0.5541 -1.6296  3.8618
 1318SOL    HW215417   4.311   2.572   4.930  1.2600 -2.0492  1.1342
 1319SOL     OW15418   0.530   3.208   5.297 -0.5192 -0.8245  0.1660
 1319SOL    HW115419   0.569   3.239   5.378  1.3123 -1.3838 -0.5139
 1319SOL    HW215420   0.570   3.265   5.231  0.3794 -0.0753  1.3579
 1320SOL     OW15421   2.844   3.930  10.506  0.1976  0.5653 -0.2082
 1320SOL    HW115422   2.789   3.886  10.441  1.0902 -1.0838  0.1338
 1320SOL    HW215423   2.883   3.850  10.542 -0.3117  1.2043  1.7010
 1321SOL     OW15424   3.534   0.835   6.283 -0.5213  0.0072 -0.1214
 1321SOL    HW115425   3.504   0.917   6.242  0.4795  1.1391  1.4086
 1321SOL    HW215426   3.543   0.864   6.374  1.4380 -1.3460  0.1038
 1322SOL     OW15427   4.551   4.564   3.575 -0.3635  0.0190 -0.3720
 1322SOL    HW115428   4.577   4.512   3.499 -0.7247 -1.8224  0.7576
 1322SOL    HW215429   4.469   4.604   3.546 -0.5590  1.1336  1.7261
 1323SOL     OW15430   1.497   4.201   9.174  0.3633 -0.3106  0.3412
 1323SOL    HW115431   1.514   4.107   9.177 -2.2362 -0.8057 -0.6212
 1323SOL    HW215432   1.459   4.233   9.256  1.6631  0.7664  0.5299
 1324SOL     OW15433   1.198   0.529  13.090 -0.9362 -0.3126 -0.2105
 1324SOL    HW115434   1.257   0.453  13.083 -3.0103 -1.8945 -0.5753
 1324SOL    HW215435   1.199   0.553  13.182  0.1635 -1.2132  0.0253
 1325SOL     OW15436   4.684   1.839   4.055 -0.0477 -0.0782  0.4747
 1325SOL    HW115437   0.044   1.864   4.085 -0.1759  0.3920  0.4481
 1325SOL    HW215438   4.676   1.882   3.970  0.0973 -0.2046  0.3968
 1326SOL     OW15439   0.408   0.762  10.490  0.3292 -0.4042 -0.1321
 1326SOL    HW115440   0.367   0.782  10.575 -0.6429  1.3766 -1.0224
 1326SOL    HW215441   0.489   0.812  10.494 -1.8353  3.2019 -1.7520
 1327SOL     OW15442   2.804   1.132   7.353 -0.4286 -0.5554 -0.1988
 1327SOL    HW115443   2.776   1.062   7.412  1.3954  0.6157  2.0949
 1327SOL    HW215444   2.721   1.173   7.331 -0.4560 -1.0079 -0.9250
 1328SOL     OW15445   4.467   4.482   0.579 -0.2223 -0.2749 -0.2321
 1328SOL    HW115446   4.382   4.441   0.559 -0.7177  1.3521 -1.4616
 1328SOL    HW215447   4.520   4.407   0.604  1.0488  0.7216  0.0291
 1329SOL     OW15448   2.903   0.210   3.491 -0.2803  0.5361  0.1342
 1329SOL    HW115449   2.813   0.177   3.485 -0.0786 -0.1815  1.1100
 1329SOL    HW215450   2.884   0.266   3.566  0.1014 -0.2062  0.7929
 1330SOL     OW15451   1.183   2.884   5.230  0.3273 -0.6064 -0.0465
 1330SOL    HW115452   1.163   2.809   5.286  0.1005  0.7115  1.6259
 1330SOL    HW215453   1.103   2.936   5.226  0.5591 -0.2013  0.8361
 1331SOL     OW15454   1.068   4.153   4.610 -0.2375  0.5710  0.1762
 1331SOL    HW115455   1.074   4.126   4.519  2.5724  1.7480 -0.0012
 1331SOL    HW215456   1.029   4.067   4.625 -0.4048  0.4295 -1.0732
 1332SOL     OW15457   3.389   0.192   0.897  0.2077  0.5540 -0.1678
 1332SOL    HW115458   3.422   0.152   0.978  1.3773 -0.4902 -1.1547
 1332SOL    HW215459   3.470   0.241   0.882 -0.0234  1.6411  2.0721
 1333SOL     OW15460   4.077   2.450   1.139  0.0600 -0.5243 -0.3513
 1333SOL    HW115461   4.132   2.500   1.199 -2.5227  2.2801 -0.3622
 1333SOL    HW215462   4.138   2.428   1.068  1.2438  0.6738  0.3028
 1334SOL     OW15463   0.750   3.635   8.273  0.0628  0.1147 -0.8087
 1334SOL    HW115464   0.809   3.698   8.231 -0.7077  2.3515  1.4044
 1334SOL    HW215465   0.812   3.575   8.314 -0.0757  0.6993  0.2766
 1335SOL     OW15466   0.144   4.168  10.644  0.2345 -0.5741  0.0250
 1335SOL    HW115467   0.118   4.260  10.648 -0.4907 -0.7562 -0.5461
 1335SOL    HW215468   0.225   4.173  10.592  0.0238  0.0676 -0.2468
 1336SOL     OW15469   2.052   2.163   4.141  0.2694 -0.3425  0.0547
 1336SOL    HW115470   2.000   2.241   4.160  2.1710  0.8154  0.4889
 1336SOL    HW215471   2.000   2.134   4.065  1.2012 -0.0115 -0.7096
 1337SOL     OW15472   3.039   0.330  12.135  0.5513 -0.7893 -0.1606
 1337SOL    HW115473   2.963   0.376  12.102 -0.2261  0.0612  2.7833
 1337SOL    HW215474   3.002   0.283  12.210  3.0442 -1.7083  0.5246
 1338SOL     OW15475   0.266   2.911   0.476 -0.2733  0.5045  0.0885
 1338SOL    HW115476   0.284   2.994   0.433  0.8310  0.0337 -0.3574
 1338SOL    HW215477   0.318   2.854   0.419 -0.4765  0.2561  0.1511
 1339SOL     OW15478   0.250   2.472   1.827  0.0889 -0.2635  0.2784
 1339SOL    HW115479   0.180   2.475   1.763  0.1836  1.4748  0.2552
 1339SOL    HW215480   0.277   2.381   1.821  0.2618  0.0367 -3.3947
 1340SOL     OW15481   1.659   0.754   2.996  0.3077  0.2697 -0.7004
 1340SOL    HW115482   1.574   0.785   3.026 -0.2891 -2.0518 -0.0137
 1340SOL    HW215483   1.639   0.661   2.991  0.0063  0.3377 -0.7202
 1341SOL     OW15484   3.905   0.699   6.240  0.1158  0.8570  0.1404
 1341SOL    HW115485   3.901   0.693   6.335  0.4345  3.7767  0.3359
 1341SOL    HW215486   3.961   0.777   6.238 -0.7160  1.4399 -0.5999
 1342SOL     OW15487   2.542   4.279   2.267  0.1400  0.3986 -0.4254
 1342SOL    HW115488   2.504   4.248   2.185  1.9544 -2.5435 -0.1613
 1342SOL    HW215489   2.620   4.224   2.274  2.4246  3.7138  0.4410
 1343SOL     OW15490   3.495   1.445   1.695 -0.0881 -0.1826  0.0015
 1343SOL    HW115491   3.496   1.392   1.615  2.1820  3.1298 -2.1723
 1343SOL    HW215492   3.402   1.454   1.716  0.1068 -1.4435  1.4034
 1344SOL     OW15493   3.721   0.259   4.070  0.2054 -0.2866 -0.2677
 1344SOL    HW115494   3.655   0.328   4.082 -0.2063 -0.3918 -2.0357
 1344SOL    HW215495   3.797   0.303   4.031  1.1815 -0.4248  1.4756
 1345SOL     OW15496   4.101   1.300   8.017  0.5771  0.0804 -0.7439
 1345SOL    HW115497   4.013   1.338   8.016  1.1694  1.5395  1.1048
 1345SOL    HW215498   4.081   1.226   7.960 -1.5244 -0.5093  0.7548
 1346SOL     OW15499   3.682   3.544   9.652  0.0709  0.4029  0.2968
 1346SOL    HW115500   3.768   3.576   9.624  0.5927  0.5832  2.1085
 1346SOL    HW215501   3.652   3.624   9.696 -0.8406 -1.3835  2.8568
 1347SOL     OW15502   4.060   2.264   3.471  0.5807 -0.5980  0.1591
 1347SOL    HW115503   4.136   2.258   3.529  1.1307 -1.3010 -0.6452
 1347SOL    HW215504   4.061   2.360   3.465 -2.3663 -0.5964 -0.0758
 1348SOL     OW15505   1.250   2.955   1.976  0.2981 -0.0652 -0.2006
 1348SOL    HW115506   1.175   3.015   1.976  1.5095  1.4301 -1.8935
 1348SOL    HW215507   1.279   2.967   2.067 -1.5026  2.8715 -0.0247
 1349SOL     OW15508   1.763   0.746   3.371  0.5541  0.3618  0.1453
 1349SOL    HW115509   1.752   0.656   3.401 -1.5525  0.1916 -1.0813
 1349SOL    HW215510   1.808   0.722   3.290  1.2706  0.6844  0.4578
 1350SOL     OW15511   2.310   0.630  13.593  0.0443 -0.1742 -0.1259
 1350SOL    HW115512   2.330   0.541  13.562  0.5378  0.3282 -1.2493
 1350SOL    HW215513   2.282   0.674  13.512  0.5321  2.7611  1.3344
 1351SOL     OW15514   3.426   2.383   9.242  0.1578  0.3578  0.1430
 1351SOL    HW115515   3.347   2.330   9.235 -0.7791  1.8479 -0.6120
 1351SOL    HW215516   3.437   2.411   9.150  2.3078 -1.5666 -0.1873
 1352SOL     OW15517   3.097   2.208   6.979  0.2229  0.3262  0.5394
 1352SOL    HW115518   3.070   2.276   6.918  2.3298  0.6844 -0.0128
 1352SOL    HW215519   3.188   2.234   6.997  0.9400 -1.4362 -0.5213
 1353SOL     OW15520   0.317   4.609   2.672  0.4814 -0.0515  0.2699
 1353SOL    HW115521   0.316   4.617   2.768 -0.7990  0.5360  0.2102
 1353SOL    HW215522   0.231   4.573   2.650 -0.5352  1.3235  1.9157
 1354SOL     OW15523   4.324   0.193   8.320  0.2050 -0.0742 -0.1746
 1354SOL    HW115524   4.396   0.179   8.258 -0.9392 -2.9904 -0.8313
 1354SOL    HW215525   4.366   0.210   8.404  2.6071  1.6210 -1.7392
 1355SOL     OW15526   1.241   3.472   3.428  0.4931  0.3268  0.1948
 1355SOL    HW115527   1.225   3.562   3.457  0.8808  0.6592 -0.5977
 1355SOL    HW215528   1.333   3.484   3.404  0.5100 -0.6282 -0.1994
 1356SOL     OW15529   2.908   0.539  11.535 -0.0682  0.0766 -0.0830
 1356SOL    HW115530   2.890   0.619  11.584  2.9527  1.9836 -2.0854
 1356SOL    HW215531   3.003   0.550  11.531 -0.1582  1.0147  0.3349
 1357SOL     OW15532   3.429   2.272   3.424  0.2106  0.2193  0.3993
 1357SOL    HW115533   3.427   2.273   3.328  1.1378  0.0307  0.3811
 1357SOL    HW215534   3.343   2.314   3.429 -0.7182 -1.6864  0.1989
 1358SOL     OW15535   2.786   3.500  16.815 -0.4931 -0.3560  1.0790
 1358SOL    HW115536   2.800   3.583  16.861  1.2402 -0.4627  0.7579
 1358SOL    HW215537   2.842   3.439  16.863  3.1248  1.9645 -0.2190
 1359SOL     OW15538   4.199   2.538  12.165  0.0846  0.5158  0.4066
 1359SOL    HW115539   4.148   2.514  12.242  0.9046 -0.4209  0.6597
 1359SOL    HW215540   4.248   2.462  12.134 -2.8392 -1.1730 -0.0336
 1360SOL     OW15541   4.500   3.066   5.832 -0.3883 -0.4187 -0.0592
 1360SOL    HW115542   4.459   3.145   5.797  0.2488  0.9392  2.3052
 1360SOL    HW215543   4.503   3.089   5.925  2.1583  0.9629 -0.4900
 1361SOL     OW15544   2.408   3.281  16.782  0.0025  0.3667 -0.2064
 1361SOL    HW115545   2.388   3.350  16.719  0.7963  0.3320 -0.4947
 1361SOL    HW215546   2.364   3.209  16.737 -0.6619  0.2527  0.6331
 1362SOL     OW15547   4.399   1.434   6.048  0.2445 -0.0589  0.0663
 1362SOL    HW115548   4.429   1.413   5.960 -0.5002  0.2563 -0.2701
 1362SOL    HW215549   4.343   1.357   6.056  0.1781 -0.0352 -0.1573
 1363SOL     OW15550   1.747   3.502   4.822  0.2499 -0.5998  0.3954
 1363SOL    HW115551   1.690   3.441   4.869  0.6018 -0.1612  1.4041
 1363SOL    HW215552   1.682   3.568   4.799 -1.4839 -2.5436 -0.2646
 1364SOL     OW15553   4.122   0.265   5.459  0.0551  0.3459 -0.2560
 1364SOL    HW115554   4.039   0.257   5.412  0.3078  2.2501 -1.0393
 1364SOL    HW215555   4.183   0.242   5.389  1.0249  1.1161  0.3375
 1365SOL     OW15556   1.125   1.642   3.918  0.0313  0.2678 -0.2224
 1365SOL    HW115557   1.096   1.551   3.911  0.2217  0.4192 -3.0361
 1365SOL    HW215558   1.186   1.654   3.845 -1.0076  1.0885 -0.9451
 1366SOL     OW15559   0.781   1.599  12.406 -0.0646 -0.7997  0.8008
 1366SOL    HW115560   0.799   1.632  12.318  1.2963 -1.5109  0.8143
 1366SOL    HW215561   0.865   1.621  12.447 -0.8851  1.0342  1.4965
 1367SOL     OW15562   3.872   1.042   5.616 -0.5464  0.1252 -0.1068
 1367SOL    HW115563   3.935   1.009   5.553  0.0859  1.2613 -0.0732
 1367SOL    HW215564   3.793   1.004   5.578 -3.0835  1.9552  3.3184
 1368SOL     OW15565   0.686   1.293   3.498  0.4148  0.4336  0.4205
 1368SOL    HW115566   0.671   1.363   3.562 -2.9443  2.0120 -2.0512
 1368SOL    HW215567   0.624   1.321   3.430  0.6819 -0.2363 -0.0905
 1369SOL     OW15568   2.232   0.276   3.576  0.5116  0.0649  0.8710
 1369SOL    HW115569   2.287   0.232   3.511 -0.3051 -0.4332  0.5212
 1369SOL    HW215570   2.254   0.237   3.661 -1.7722 -3.6131 -0.2307
 1370SOL     OW15571   0.089   3.301   8.474  0.1167 -0.7770  0.0535
 1370SOL    HW115572   0.098   3.394   8.490  0.1221 -0.4594 -1.7983
 1370SOL    HW215573   4.724   3.272   8.477 -0.0399 -0.3931 -1.1639
 1371SOL     OW15574   0.185   2.951   3.744 -0.3410  0.1792 -0.3113
 1371SOL    HW115575   0.169   3.033   3.791 -1.4642  0.9541 -2.0562
 1371SOL    HW215576   0.231   2.899   3.810 -1.3097  0.3549  0.4895
 1372SOL     OW15577   0.058   2.457   1.199  0.0701  0.5874 -0.3228
 1372SOL    HW115578   0.061   2.550   1.222  0.5927  0.5168 -0.0974
 1372SOL    HW215579   0.123   2.457   1.129 -0.8622  2.4196 -1.1777
 1373SOL     OW15580   1.535   2.660   9.376  0.3116 -0.2540 -0.0200
 1373SOL    HW115581   1.462   2.613   9.418  0.7323  0.1957  1.2251
 1373SOL    HW215582   1.605   2.596   9.391  0.3354  0.4548  2.8355
 1374SOL     OW15583   3.100   0.895  11.874 -0.1211  0.2952  0.0726
 1374SOL    HW115584   3.071   0.806  11.892 -1.9918  0.7647 -0.5785
 1374SOL    HW215585   3.138   0.909  11.961  0.5787 -0.0478 -0.1872
 1375SOL     OW15586   3.716   4.215   1.179  0.3346  0.4780 -0.4541
 1375SOL    HW115587   3.720   4.187   1.270 -0.1568 -0.6041 -0.7697
 1375SOL    HW215588   3.752   4.140   1.132  1.5226  0.1402  1.0158
 1376SOL     OW15589   1.344   4.601   5.762 -0.7936  0.0708 -0.3442
 1376SOL    HW115590   1.433   4.619   5.732 -0.1343  2.4381  2.9919
 1376SOL    HW215591   1.320   4.693   5.776 -0.8671 -0.1380  0.9164
 1377SOL     OW15592   1.115   0.302   7.962 -0.5724  0.4341  0.4511
 1377SOL    HW115593   1.147   0.391   7.946 -2.1839  1.0010  0.3533
 1377SOL    HW215594   1.053   0.290   7.890  0.2786 -2.1363  0.1701
 1378SOL     OW15595   3.132   1.259   2.277 -0.2649 -0.2589 -0.1879
 1378SOL    HW115596   3.116   1.226   2.189 -1.5705 -2.9590  1.0508
 1378SOL    HW215597   3.047   1.293   2.304  0.4134  2.3453 -1.3140
 1379SOL     OW15598   3.608   3.871   0.856 -0.0908  0.1310  0.3384
 1379SOL    HW115599   3.524   3.909   0.881 -1.5849 -1.2862 -2.4393
 1379SOL    HW215600   3.664   3.878   0.933  0.6244  0.0087 -0.1686
 1380SOL     OW15601   3.472   0.272   5.753 -0.5464 -0.4484  0.4463
 1380SOL    HW115602   3.526   0.343   5.787 -2.3232  1.2807 -0.3462
 1380SOL    HW215603   3.511   0.265   5.666 -1.6243  1.8162 -0.2066
 1381SOL     OW15604   3.810   4.490   3.826 -0.0882  0.4024 -0.6328
 1381SOL    HW115605   3.741   4.468   3.763 -0.1008 -0.1210 -0.4414
 1381SOL    HW215606   3.768   4.468   3.909 -0.2609 -0.2299 -0.8805
 1382SOL     OW15607   1.609   1.524   3.823 -0.7363  0.8253  0.7151
 1382SOL    HW115608   1.704   1.524   3.836 -0.7663 -0.2681  0.9255
 1382SOL    HW215609   1.589   1.438   3.785 -1.7467  2.6472 -2.8927
 1383SOL     OW15610   1.515   4.436   5.112 -0.2465  0.2190  0.0717
 1383SOL    HW115611   1.471   4.507   5.159  0.8139 -0.2705  1.7634
 1383SOL    HW215612   1.459   4.409   5.038  2.3588 -0.7122 -1.5623
 1384SOL     OW15613   4.718   2.684   6.763 -0.1577 -0.3494  0.0870
 1384SOL    HW115614   0.011   2.617   6.698  0.8884 -0.4660  0.5231
 1384SOL    HW215615   4.689   2.751   6.702  0.9186 -0.6160 -0.7163
 1385SOL     OW15616   0.575   3.997  12.796 -0.2367 -0.8315  0.3474
 1385SOL    HW115617   0.521   3.919  12.812 -0.8207 -1.1005 -2.9538
 1385SOL    HW215618   0.532   4.032  12.718 -1.0413 -3.1068 -0.2409
 1386SOL     OW15619   3.804   3.466   3.520  0.0964  0.0322  0.0145
 1386SOL    HW115620   3.872   3.420   3.568 -0.2846 -2.3151 -1.6817
 1386SOL    HW215621   3.793   3.439   3.428 -0.1282 -1.7574  0.5629
 1387SOL     OW15622   2.765   2.655   4.324 -0.0975 -0.6666  0.1878
 1387SOL    HW115623   2.750   2.637   4.231  0.0963  1.5454 -0.2768
 1387SOL    HW215624   2.760   2.751   4.326 -0.3638 -0.7006  1.0978
 1388SOL     OW15625   1.139   1.339   9.583 -0.3754  0.4005  0.8729
 1388SOL    HW115626   1.171   1.252   9.609 -1.9971 -0.3398  0.3637
 1388SOL    HW215627   1.161   1.342   9.490 -1.2001  0.3139  0.6796
 1389SOL     OW15628   2.574   4.643   9.767 -0.7850 -0.3679 -0.2928
 1389SOL    HW115629   2.535   4.557   9.750  0.3552 -0.5582 -1.9621
 1389SOL    HW215630   2.660   4.625   9.804 -1.0083 -0.8624 -0.0165
 1390SOL     OW15631   4.228   2.399   4.027 -0.4389 -0.0306  0.0486
 1390SOL    HW115632   4.289   2.417   3.956 -0.7140  0.8152  0.0323
 1390SOL    HW215633   4.143   2.431   3.996 -1.4225 -2.1357  0.5387
 1391SOL     OW15634   3.118   3.605  14.763 -0.3095  0.8838 -0.2218
 1391SOL    HW115635   3.076   3.533  14.810  0.6691  2.3183  2.8321
 1391SOL    HW215636   3.205   3.569  14.750 -0.7366 -0.3609  0.3527
 1392SOL     OW15637   2.757   1.218   0.416 -0.3912 -0.0808 -0.2613
 1392SOL    HW115638   2.756   1.231   0.321 -2.9694 -1.3403 -0.4097
 1392SOL    HW215639   2.775   1.304   0.455 -1.2577 -0.3723  0.7699
 1393SOL     OW15640   2.396   3.165  11.938 -0.3335  0.3741  0.2253
 1393SOL    HW115641   2.374   3.209  12.021 -2.9184  1.9759 -1.3219
 1393SOL    HW215642   2.491   3.162  11.949 -0.2744 -2.9714 -1.4900
 1394SOL     OW15643   1.492   3.022   7.671 -0.3702 -0.4949 -0.2275
 1394SOL    HW115644   1.523   3.093   7.616 -1.6388  0.2856  0.0615
 1394SOL    HW215645   1.460   2.961   7.606  0.9661 -2.1688  0.6932
 1395SOL     OW15646   4.425   1.691  14.667  0.0305  0.1651  0.0606
 1395SOL    HW115647   4.395   1.673  14.756 -3.3258  1.0811 -0.8866
 1395SOL    HW215648   4.464   1.779  14.668 -1.0126  0.6288  0.9061
 1396SOL     OW15649   0.011   4.264   2.691  0.4832 -0.0683  0.3983
 1396SOL    HW115650   0.104   4.270   2.666 -0.2720  0.5986 -2.2190
 1396SOL    HW215651   4.727   4.330   2.760  0.6812 -0.0446  0.4090
 1397SOL     OW15652   3.305   3.867   8.804 -0.2432  1.3822  0.2479
 1397SOL    HW115653   3.334   3.915   8.726 -0.5698 -0.8197 -1.2289
 1397SOL    HW215654   3.288   3.780   8.768  4.0032  0.7063 -0.0994
 1398SOL     OW15655   2.566   2.487   6.060  0.2638  0.4005 -0.3061
 1398SOL    HW115656   2.627   2.476   5.987  0.3926  1.5944 -0.3889
 1398SOL    HW215657   2.499   2.425   6.032 -1.4845  1.0350  2.5268
 1399SOL     OW15658   2.895   0.599  10.224  0.3268  0.8241 -0.3107
 1399SOL    HW115659   2.975   0.600  10.276 -0.8577 -0.8470  1.5281
 1399SOL    HW215660   2.916   0.679  10.175 -0.3339  0.9529 -0.3790
 1400SOL     OW15661   0.236   2.993   3.476 -0.1801  0.3644 -0.7437
 1400SOL    HW115662   0.239   2.902   3.447 -0.2677 -0.2669  1.2373
 1400SOL    HW215663   0.210   2.981   3.568 -2.0007  0.4582 -1.2354
 1401SOL     OW15664   3.908   2.091   7.367 -0.4224 -0.3230 -0.4500
 1401SOL    HW115665   3.908   2.082   7.462 -1.5064  0.8453 -0.3421
 1401SOL    HW215666   3.815   2.090   7.346 -0.3733  1.6139 -0.7279
 1402SOL     OW15667   0.941   4.394   5.218 -0.1239 -0.4808 -0.2419
 1402SOL    HW115668   0.981   4.427   5.137  0.1643  0.1778  0.1688
 1402SOL    HW215669   0.918   4.306   5.187 -0.6278 -0.3582 -0.2027
 1403SOL     OW15670   0.955   4.448   5.533 -0.4184 -0.3294 -0.3201
 1403SOL    HW115671   0.963   4.409   5.446  0.7844  0.5757 -0.6111
 1403SOL    HW215672   0.894   4.520   5.518 -0.5135 -0.8259 -2.3621
 1404SOL     OW15673   0.092   3.655  10.898  0.1796 -0.1284 -0.4433
 1404SOL    HW115674   0.163   3.629  10.956  0.8925  0.6030 -0.9853
 1404SOL    HW215675   0.019   3.677  10.956  0.8028  0.8972 -0.0453
 1405SOL     OW15676   0.849   4.611   3.726 -0.2797 -0.5399 -0.8980
 1405SOL    HW115677   0.915   4.603   3.657 -1.3463 -0.5498 -1.9090
 1405SOL    HW215678   0.886   4.670   3.792 -2.5338 -0.2120  0.0810
 1406SOL     OW15679   0.469   2.566   2.845  0.1068  0.6964 -0.2260
 1406SOL    HW115680   0.558   2.564   2.810  0.0937 -3.1373 -0.0404
 1406SOL    HW215681   0.490   2.506   2.916 -0.7718  1.2863  0.5358
 1407SOL     OW15682   3.154   3.398   2.593  0.0125  0.3223 -0.1637
 1407SOL    HW115683   3.245   3.396   2.563 -0.4598  0.3881 -1.6365
 1407SOL    HW215684   3.127   3.490   2.591  0.4380  0.4655  0.8780
 1408SOL     OW15685   3.377   0.262   7.919 -1.0135  0.1846 -0.5051
 1408SOL    HW115686   3.438   0.334   7.934 -0.5655 -0.8012  2.5638
 1408SOL    HW215687   3.423   0.197   7.866 -2.7971 -0.3220 -1.4457
 1409SOL     OW15688   0.864   3.117   3.720  0.0487  0.2703 -0.1803
 1409SOL    HW115689   0.831   3.065   3.793  1.0059 -1.1989 -0.7927
 1409SOL    HW215690   0.796   3.185   3.717  1.4437  1.6940  0.7844
 1410SOL     OW15691   3.602   1.727   7.374  0.9921  0.1315  0.4854
 1410SOL    HW115692   3.518   1.761   7.403  0.9309  1.4160 -1.2190
 1410SOL    HW215693   3.598   1.741   7.280  1.3169 -0.2288  0.4141
 1411SOL     OW15694   0.505   2.260   7.232 -0.0432 -0.5454 -0.3217
 1411SOL    HW115695   0.410   2.250   7.229  0.0136 -1.9218  3.1626
 1411SOL    HW215696   0.516   2.311   7.312  0.2716  0.3248 -0.9205
 1412SOL     OW15697   0.947   4.460   4.091  0.2407 -0.2784 -0.0539
 1412SOL    HW115698   0.969   4.539   4.042 -2.0968  1.0479  1.0629
 1412SOL    HW215699   1.033   4.417   4.092  1.1625  1.5582  1.0229
 1413SOL     OW15700   4.345   2.763   6.943 -0.0213 -0.5188 -0.4638
 1413SOL    HW115701   4.427   2.812   6.941 -1.6159  2.0077 -3.2869
 1413SOL    HW215702   4.339   2.740   6.851 -2.3089  0.0273 -0.4541
 1414SOL     OW15703   0.686   2.882   3.202  0.4566  0.6025 -0.4615
 1414SOL    HW115704   0.642   2.957   3.162 -1.0268  0.6642  1.2716
 1414SOL    HW215705   0.739   2.914   3.275 -2.1598  0.9065  1.2964
 1415SOL     OW15706   0.272   2.828   5.799  0.0085 -0.1616  0.0565
 1415SOL    HW115707   0.242   2.918   5.802 -2.0589 -0.7758 -2.1062
 1415SOL    HW215708   0.201   2.773   5.832  0.6540 -0.8955  0.2358
 1416SOL     OW15709   2.224   0.507   1.665 -0.3825 -0.0215  0.4956
 1416SOL    HW115710   2.181   0.427   1.694 -2.7558  0.9424 -0.3453
 1416SOL    HW215711   2.166   0.572   1.705 -1.0821 -0.5086  0.2804
 1417SOL     OW15712   2.979   4.494  10.282 -0.2243 -0.3026 -0.3283
 1417SOL    HW115713   2.903   4.493  10.339 -0.5213 -0.4117 -0.7264
 1417SOL    HW215714   3.042   4.558  10.316 -1.2534  0.9592 -0.8273
 1418SOL     OW15715   0.583   1.423   1.071 -0.5014 -0.2990 -0.2936
 1418SOL    HW115716   0.674   1.447   1.053 -0.3205  0.2068  1.3263
 1418SOL    HW215717   0.548   1.481   1.004 -1.4829 -0.6751 -0.0999
 1419SOL     OW15718   3.279   2.462   7.525  0.0671 -0.2664  0.1784
 1419SOL    HW115719   3.238   2.468   7.611  0.2475 -4.2837  0.5248
 1419SOL    HW215720   3.336   2.387   7.538  2.2228  1.4122  0.2698
 1420SOL     OW15721   2.420   2.343   7.524 -0.2431 -0.3016  0.6560
 1420SOL    HW115722   2.396   2.436   7.519  1.3690  0.1162  0.5418
 1420SOL    HW215723   2.356   2.311   7.587 -2.2741 -0.1013 -1.3119
 1421SOL     OW15724   1.907   2.391   4.063  0.1443 -0.5738 -1.1532
 1421SOL    HW115725   1.937   2.440   3.987 -0.3082  0.9423 -0.3637
 1421SOL    HW215726   1.827   2.439   4.087 -1.4356 -2.3033 -3.0001
 1422SOL     OW15727   2.727   4.581   3.160 -0.2752 -0.0481 -0.4779
 1422SOL    HW115728   2.811   4.617   3.133 -0.4020  1.3356  0.9859
 1422SOL    HW215729   2.697   4.549   3.075  3.0853  1.4246 -2.2098
 1423SOL     OW15730   3.218   0.621   7.500  0.4006 -0.7230  0.1843
 1423SOL    HW115731   3.292   0.565   7.528  1.6251 -0.2575 -2.1158
 1423SOL    HW215732   3.157   0.563   7.454  0.3895 -1.1621  0.7485
 1424SOL     OW15733   1.580   2.671   6.322  0.2786  0.0725  0.0246
 1424SOL    HW115734   1.571   2.651   6.415  0.8061 -0.9536 -0.1318
 1424SOL    HW215735   1.546   2.597   6.270  1.4950 -0.0138 -0.6623
 1425SOL     OW15736   2.836   2.213  16.986 -0.0781 -0.5027 -0.7330
 1425SOL    HW115737   2.876   2.238  16.903 -0.9169  1.3874 -0.5779
 1425SOL    HW215738   2.897   2.261  17.042  0.7832  0.4763 -2.4916
 1426SOL     OW15739   0.690   0.556   5.659 -0.2084  0.4641  0.7636
 1426SOL    HW115740   0.612   0.562   5.715  0.1012  0.6046  1.1761
 1426SOL    HW215741   0.690   0.634   5.604  1.8666  0.5217  0.8378
 1427SOL     OW15742   4.101   3.998  17.044  0.4339  0.2343  0.4201
 1427SOL    HW115743   4.080   4.018  17.135 -1.1032 -1.4624  0.4445
 1427SOL    HW215744   4.132   4.085  17.019  0.7108  0.1208  0.3642
 1428SOL     OW15745   0.426   0.590  14.263  0.3219 -0.0524 -0.0246
 1428SOL    HW115746   0.360   0.521  14.250 -0.9151  0.9943  0.6377
 1428SOL    HW215747   0.457   0.585  14.353  1.4280  0.6399 -0.3675
 1429SOL     OW15748   3.283   1.993   8.101  0.0044 -0.2261 -0.3187
 1429SOL    HW115749   3.372   2.011   8.072 -0.0139  0.8066  0.2832
 1429SOL    HW215750   3.272   2.059   8.169  0.9092  0.3787 -0.7706
 1430SOL     OW15751   2.791   3.472   7.879  0.0376 -0.4868  0.0031
 1430SOL    HW115752   2.763   3.548   7.931  2.6481 -0.3306  1.1660
 1430SOL    HW215753   2.721   3.469   7.813 -0.8554  1.6397  0.8608
 1431SOL     OW15754   3.096   0.860  15.161 -0.1632 -0.2049 -0.0937
 1431SOL    HW115755   3.117   0.779  15.116 -1.0182 -0.3255 -0.2677
 1431SOL    HW215756   3.069   0.822  15.244 -0.6361 -0.8311 -0.5339
 1432SOL     OW15757   2.143   0.519   7.265 -0.3822 -1.1983 -0.2136
 1432SOL    HW115758   2.157   0.609   7.237 -0.3613 -0.8555  0.8880
 1432SOL    HW215759   2.119   0.482   7.180  0.5816  0.7674 -1.3388
 1433SOL     OW15760   1.326   2.389  14.534 -0.1224  0.3285  0.0423
 1433SOL    HW115761   1.320   2.350  14.446  0.2493 -0.5218  0.3957
 1433SOL    HW215762   1.238   2.426  14.530  0.2981  1.4753  1.3311
 1434SOL     OW15763   2.249   0.466   6.212  0.5718  0.2491  0.1562
 1434SOL    HW115764   2.273   0.376   6.191  2.8377  0.5581  1.4026
 1434SOL    HW215765   2.188   0.483   6.140  1.3892 -0.1921 -0.6383
 1435SOL     OW15766   2.777   1.480  16.726  0.1133 -0.2080  0.3415
 1435SOL    HW115767   2.703   1.493  16.786  0.0243 -2.9313  0.8066
 1435SOL    HW215768   2.803   1.393  16.756 -0.9492 -0.8433 -0.5714
 1436SOL     OW15769   0.143   0.407   3.372  0.2442  0.2032 -0.4236
 1436SOL    HW115770   0.162   0.447   3.287 -1.7965 -0.4411 -1.1805
 1436SOL    HW215771   0.191   0.452   3.442  1.4838 -3.0974  0.8671
 1437SOL     OW15772   3.681   3.931  14.124 -0.2167 -0.3909 -0.2720
 1437SOL    HW115773   3.769   3.919  14.086  0.1529 -1.6554  1.0102
 1437SOL    HW215774   3.626   3.979  14.062  1.1997  0.7156 -0.6947
 1438SOL     OW15775   1.734   2.580   7.034  0.0637 -0.2773 -0.3671
 1438SOL    HW115776   1.797   2.508   7.035 -1.1916 -1.3978 -1.7629
 1438SOL    HW215777   1.766   2.638   7.104 -0.4158  0.5367 -0.8226
 1439SOL     OW15778   1.019   3.973   6.948  0.1065 -0.3021  0.1321
 1439SOL    HW115779   1.076   3.970   6.871 -2.3479 -0.8066 -1.6605
 1439SOL    HW215780   1.061   3.909   7.006 -1.1809 -2.0321 -0.8413
 1440SOL     OW15781   2.336   1.709  15.183 -0.0376  0.5379 -0.3130
 1440SOL    HW115782   2.328   1.804  15.189 -0.0432  0.5379 -0.3207
 1440SOL    HW215783   2.250   1.673  15.205  1.3097 -2.7232 -0.3162
 1441SOL     OW15784   0.281   3.970   9.111 -0.1106 -0.7197 -0.1839
 1441SOL    HW115785   0.265   3.909   9.039 -1.6216  0.1626 -0.5862
 1441SOL    HW215786   0.321   3.910   9.175  0.7325  2.2189  2.0556
 1442SOL     OW15787   1.120   3.388   6.415  0.1764 -0.7938 -0.1301
 1442SOL    HW115788   1.179   3.379   6.490 -1.2937 -0.7254  1.0550
 1442SOL    HW215789   1.046   3.419   6.469 -0.1733  0.2403 -1.1919
 1443SOL     OW15790   1.492   0.167  10.122 -0.2938  0.1377 -0.4011
 1443SOL    HW115791   1.419   0.130  10.172 -0.6691  0.0860 -0.9979
 1443SOL    HW215792   1.552   0.093  10.128  0.0488  0.5096  0.6864
 1444SOL     OW15793   3.237   3.517  11.599 -0.0831  0.4264  0.1036
 1444SOL    HW115794   3.264   3.515  11.507  2.0415  0.9173  0.7211
 1444SOL    HW215795   3.218   3.609  11.612  1.9463  1.3021 -3.0522
 1445SOL     OW15796   0.412   0.293   2.345  0.0284 -0.9056  0.1342
 1445SOL    HW115797   0.494   0.252   2.318  1.0048 -0.5188  2.4707
 1445SOL    HW215798   0.387   0.234   2.417 -4.4623 -0.9939 -1.4962
 1446SOL     OW15799   1.520   1.508  10.588  0.6146 -0.3775 -0.0460
 1446SOL    HW115800   1.595   1.470  10.633  1.7208 -1.4387 -2.7579
 1446SOL    HW215801   1.446   1.451  10.610 -0.3364  0.5130 -0.8871
 1447SOL     OW15802   1.240   2.594   9.059 -0.1760 -0.7298  0.3826
 1447SOL    HW115803   1.204   2.588   9.147 -1.1259  0.2653  0.0543
 1447SOL    HW215804   1.166   2.557   9.012  0.1839 -1.2344  0.2038
 1448SOL     OW15805   2.930   1.624   5.241 -0.0944  0.7771  0.4172
 1448SOL    HW115806   3.017   1.624   5.280 -0.8530 -1.3000  2.1035
 1448SOL    HW215807   2.884   1.689   5.294  0.7656  1.3758  0.4288
 1449SOL     OW15808   3.298   1.383   3.664 -0.7994  0.2122 -0.1380
 1449SOL    HW115809   3.331   1.379   3.754  0.8658  0.6567 -0.7366
 1449SOL    HW215810   3.213   1.424   3.682  0.4931  2.7258  0.1403
 1450SOL     OW15811   2.034   1.640   1.815 -0.1926 -0.1766 -0.3053
 1450SOL    HW115812   2.093   1.661   1.887  1.1184 -1.2263 -1.0684
 1450SOL    HW215813   1.976   1.581   1.863  0.1333 -0.5513 -0.3763
 1451SOL     OW15814   1.883   0.366  10.598 -0.3256  1.0218 -0.5489
 1451SOL    HW115815   1.804   0.355  10.545  1.8741 -1.5166 -3.2945
 1451SOL    HW215816   1.944   0.416  10.544  1.9357 -1.3788 -0.2071
 1452SOL     OW15817   0.802   2.358   6.115 -0.4174  0.0565 -0.1922
 1452SOL    HW115818   0.873   2.422   6.105  0.6415 -0.9412  1.0994
 1452SOL    HW215819   0.737   2.395   6.055 -0.0959 -2.7265 -2.2535
 1453SOL     OW15820   1.481   1.108  11.477  0.2480  0.2449 -0.0811
 1453SOL    HW115821   1.451   1.073  11.561  0.0258 -0.1948 -0.3447
 1453SOL    HW215822   1.576   1.119  11.484  0.6302 -2.8272 -0.5724
 1454SOL     OW15823   4.275   3.106   7.341 -0.1772  0.2397 -0.2107
 1454SOL    HW115824   4.246   3.045   7.274  0.5422 -2.3265  1.8407
 1454SOL    HW215825   4.371   3.099   7.339  0.0221  2.2481  1.8336
 1455SOL     OW15826   2.693   3.778   2.212  0.2264 -0.5660  0.2034
 1455SOL    HW115827   2.660   3.777   2.122  0.8972 -0.1384 -0.0466
 1455SOL    HW215828   2.610   3.814   2.246  0.0684 -1.5907  0.8969
 1456SOL     OW15829   4.293   0.939   8.511 -0.2964  0.5933 -0.2143
 1456SOL    HW115830   4.344   0.968   8.587 -1.7716 -1.8452  1.7141
 1456SOL    HW215831   4.236   0.877   8.557 -0.0105  1.2283  1.0133
 1457SOL     OW15832   2.531   2.834   1.135 -0.2807 -0.4990 -0.4135
 1457SOL    HW115833   2.442   2.868   1.147  0.8622  2.8463 -1.5401
 1457SOL    HW215834   2.550   2.900   1.069  0.5738  0.7044  1.0238
 1458SOL     OW15835   4.155   2.840  10.037  0.3683 -0.2721  0.1929
 1458SOL    HW115836   4.131   2.837  10.130 -1.9465 -0.4042 -0.4055
 1458SOL    HW215837   4.242   2.801  10.028 -0.0690 -1.6758  1.7663
 1459SOL     OW15838   1.586   2.029  13.888  0.5866  0.8003  0.1555
 1459SOL    HW115839   1.647   1.999  13.821 -0.2599 -1.7033  0.5210
 1459SOL    HW215840   1.637   2.080  13.950  0.7722 -0.1561  0.7780
 1460SOL     OW15841   0.659   1.275   1.450  0.4282 -0.9250  0.6246
 1460SOL    HW115842   0.702   1.209   1.396  2.4136  0.1531  0.8662
 1460SOL    HW215843   0.639   1.241   1.537 -0.4449  1.9309  1.5481
 1461SOL     OW15844   3.518   2.710   0.457 -0.6402 -0.1992  0.0612
 1461SOL    HW115845   3.512   2.681   0.365  0.8877 -0.6112  0.0887
 1461SOL    HW215846   3.474   2.635   0.497 -1.5247  0.5875  0.5348
 1462SOL     OW15847   1.372   0.705   5.407  0.4276  0.2626  0.6485
 1462SOL    HW115848   1.455   0.704   5.454 -0.8736  0.0493  2.9283
 1462SOL    HW215849   1.354   0.613   5.422  0.2951  0.0866 -0.5934
 1463SOL     OW15850   4.204   1.298   9.281 -0.6226  0.0642 -0.0225
 1463SOL    HW115851   4.209   1.215   9.328  0.6382  0.4406  0.5252
 1463SOL    HW215852   4.272   1.345   9.330  0.4037 -1.6240  0.1855
 1464SOL     OW15853   1.203   1.096  14.018  0.5470  0.8633  0.2474
 1464SOL    HW115854   1.182   1.016  14.066 -0.1707  0.4225 -0.8137
 1464SOL    HW215855   1.260   1.138  14.083 -1.2059  1.3339  1.4846
 1465SOL     OW15856   0.501   2.473   8.562 -0.3013 -0.1764  0.2784
 1465SOL    HW115857   0.589   2.455   8.529 -0.3237 -1.7188  1.0399
 1465SOL    HW215858   0.518   2.467   8.656 -1.6005  0.3407  0.5549
 1466SOL     OW15859   1.965   2.193   7.557 -0.2213  0.1510 -0.5349
 1466SOL    HW115860   2.005   2.187   7.644 -0.9268  1.3883 -0.1231
 1466SOL    HW215861   1.970   2.101   7.532 -2.3928 -0.1990  0.3574
 1467SOL     OW15862   0.890   2.714  11.891  0.9043  0.0711  0.4697
 1467SOL    HW115863   0.893   2.628  11.849 -3.9410  0.5036 -0.7815
 1467SOL    HW215864   0.847   2.775  11.830 -1.8603  1.2968  3.6617
 1468SOL     OW15865   2.662   3.911   7.735  0.2223 -0.3445 -0.6670
 1468SOL    HW115866   2.588   3.853   7.715 -1.1892  1.6563 -1.2255
 1468SOL    HW215867   2.617   3.988   7.770  1.0486 -0.6626  1.0743
 1469SOL     OW15868   3.970   3.945  12.228  0.5753 -0.1988 -0.0925
 1469SOL    HW115869   3.881   3.968  12.254 -0.2390 -2.5793 -0.7850
 1469SOL    HW215870   3.952   3.894  12.149 -1.1178 -0.4283  0.4346
 1470SOL     OW15871   1.638   1.976   0.237 -0.3563 -0.4705  0.1753
 1470SOL    HW115872   1.727   1.952   0.212 -0.1197 -0.3249  0.9031
 1470SOL    HW215873   1.660   2.016   0.321 -0.6331  0.1509 -0.0460
 1471SOL     OW15874   0.184   0.863   4.668 -0.6673 -0.3030 -0.0133
 1471SOL    HW115875   0.125   0.869   4.743 -0.2036 -0.6640  0.3794
 1471SOL    HW215876   0.142   0.924   4.607 -0.7672 -0.9804 -0.6234
 1472SOL     OW15877   0.763   4.448  10.057 -0.7220 -0.6381  0.0821
 1472SOL    HW115878   0.798   4.437  10.146 -1.0759  0.0345  0.3013
 1472SOL    HW215879   0.695   4.514  10.066  1.3155  1.3066  1.2305
 1473SOL     OW15880   0.417   0.384  10.254  0.5090  0.0562  0.2048
 1473SOL    HW115881   0.444   0.474  10.239  0.1902  0.1553  0.2309
 1473SOL    HW215882   0.358   0.398  10.328 -0.2169 -0.7255 -0.2215
 1474SOL     OW15883   4.593   1.691   1.456 -0.2017  0.4594  0.2414
 1474SOL    HW115884   4.636   1.725   1.535  1.6714  1.0497 -1.0410
 1474SOL    HW215885   4.546   1.770   1.431 -1.7613 -1.1379 -1.8027
 1475SOL     OW15886   4.527   2.052   6.489 -0.1143  0.4939  0.1322
 1475SOL    HW115887   4.608   2.002   6.475 -0.1244  0.8355 -1.1411
 1475SOL    HW215888   4.471   1.990   6.535  2.1496 -1.9685 -0.4239
 1476SOL     OW15889   1.760   3.878  10.916  0.3992 -0.2792 -0.1290
 1476SOL    HW115890   1.812   3.816  10.967  1.0649 -0.4093 -0.9868
 1476SOL    HW215891   1.820   3.915  10.851 -2.2628  1.2287 -1.7419
 1477SOL     OW15892   2.036   0.782   0.507  0.5507  0.1829 -0.3245
 1477SOL    HW115893   2.109   0.790   0.446 -0.8063  2.2675 -1.6624
 1477SOL    HW215894   2.083   0.785   0.590  0.9649  1.1444 -0.5948
 1478SOL     OW15895   0.584   1.497   2.704  0.2548  0.4264  0.1127
 1478SOL    HW115896   0.540   1.507   2.620  0.5612 -0.2930 -0.1319
 1478SOL    HW215897   0.518   1.444   2.747 -0.9286  0.3147 -1.8554
 1479SOL     OW15898   1.796   4.391   2.133 -0.4281 -0.2852  0.1703
 1479SOL    HW115899   1.736   4.336   2.081 -0.9266 -0.6001  1.0718
 1479SOL    HW215900   1.793   4.349   2.219 -2.5151  0.6954  0.5670
 1480SOL     OW15901   4.614   4.203   4.014  0.1598  0.4069  0.2358
 1480SOL    HW115902   4.680   4.269   3.991  0.5754 -0.7519 -1.8692
 1480SOL    HW215903   4.541   4.256   4.046  0.3802  0.5770  0.4599
 1481SOL     OW15904   1.630   4.220   8.240 -0.6316  0.1210 -0.0106
 1481SOL    HW115905   1.577   4.142   8.226 -1.0532  0.1997  1.2022
 1481SOL    HW215906   1.567   4.286   8.210 -0.3880  0.0622 -0.6468
 1482SOL     OW15907   3.885   4.292   8.842 -0.1996 -0.3154  0.3674
 1482SOL    HW115908   3.790   4.297   8.827 -0.2469  0.7163  0.9522
 1482SOL    HW215909   3.904   4.200   8.825  0.2378 -0.0651 -0.4862
 1483SOL     OW15910   2.313   1.631  12.420 -0.1893  0.4816 -0.3190
 1483SOL    HW115911   2.340   1.601  12.333  0.3855 -0.6951  0.2642
 1483SOL    HW215912   2.225   1.596  12.436  0.3351 -1.1876 -1.0829
 1484SOL     OW15913   3.441   2.853   6.556  0.3573  0.1933 -0.1700
 1484SOL    HW115914   3.357   2.811   6.575  0.8922 -1.0487 -0.5448
 1484SOL    HW215915   3.501   2.781   6.536  1.2569  0.8483  0.2024
 1485SOL     OW15916   3.009   2.626   9.182  0.9449  0.4732 -0.2650
 1485SOL    HW115917   2.949   2.552   9.180  0.4981  0.8443 -0.9153
 1485SOL    HW215918   2.985   2.664   9.267  1.4487 -0.1833  0.1675
 1486SOL     OW15919   2.895   3.437  17.239 -0.5375 -0.6999  0.4307
 1486SOL    HW115920   2.807   3.470  17.221 -0.1433 -0.4947 -1.0850
 1486SOL    HW215921   2.896   3.356  17.188 -3.2394  0.8562 -2.0289
 1487SOL     OW15922   1.290   0.119   4.210  0.2820 -0.3997 -0.2455
 1487SOL    HW115923   1.374   0.110   4.255  0.5550 -1.0113 -0.8892
 1487SOL    HW215924   1.310   0.210   4.186 -1.4702  0.5398  1.8224
 1488SOL     OW15925   1.335   3.440   3.686  0.2089  0.0246  0.7299
 1488SOL    HW115926   1.265   3.418   3.747  1.5126  0.0143  2.2273
 1488SOL    HW215927   1.278   3.446   3.610 -1.2920 -0.6492  1.8093
 1489SOL     OW15928   0.911   4.438   7.018  0.5739  0.6422 -0.6409
 1489SOL    HW115929   0.898   4.344   7.032  2.9299  0.4664  0.3950
 1489SOL    HW215930   0.935   4.464   7.107 -0.8636 -1.5394  0.3796
 1490SOL     OW15931   0.780   3.800   6.388  0.2169 -0.0288  0.1235
 1490SOL    HW115932   0.780   3.782   6.294  0.6456 -0.1151  0.1365
 1490SOL    HW215933   0.686   3.816   6.393  0.1932 -0.1915  0.1900
 1491SOL     OW15934   2.989   2.021   0.074 -0.2790 -0.3527  0.4036
 1491SOL    HW115935   2.923   2.083   0.043 -1.2435  0.0025  3.1954
 1491SOL    HW215936   2.957   1.937   0.041 -1.5897  1.0881 -2.0088
 1492SOL     OW15937   0.532   4.059   7.477  0.1535  0.2590 -0.0032
 1492SOL    HW115938   0.590   4.105   7.416 -2.1417  3.3668  0.1566
 1492SOL    HW215939   0.536   4.125   7.546 -0.9609  1.1474 -0.7790
 1493SOL     OW15940   2.550   0.038   2.710 -0.1163  0.1049  0.1541
 1493SOL    HW115941   2.541   0.095   2.633 -1.0854 -1.4516 -0.8865
 1493SOL    HW215942   2.626   0.068   2.760  1.7680 -4.2225 -0.1495
 1494SOL     OW15943   1.226   3.145   4.462  0.0591  0.7540 -0.3793
 1494SOL    HW115944   1.177   3.086   4.518  0.5209  1.1052  0.3959
 1494SOL    HW215945   1.315   3.116   4.481 -0.6315 -1.1419 -0.0253
 1495SOL     OW15946   2.761   1.572   4.493 -0.2538  0.0587 -0.3743
 1495SOL    HW115947   2.787   1.480   4.495  0.5410  0.2808 -0.4280
 1495SOL    HW215948   2.763   1.593   4.587 -2.5769 -0.9299 -0.1128
 1496SOL     OW15949   4.237   3.922   2.247 -0.3917  0.2557 -0.0823
 1496SOL    HW115950   4.199   3.971   2.175 -0.5298  0.3671  0.0650
 1496SOL    HW215951   4.318   3.900   2.202 -0.2609  1.9344 -0.6644
 1497SOL     OW15952   3.547   4.522  12.418 -0.5359  0.0433  0.1328
 1497SOL    HW115953   3.497   4.506  12.498 -0.4897 -1.2931 -0.1128
 1497SOL    HW215954   3.492   4.466  12.364 -1.7051  1.2512  0.0787
 1498SOL     OW15955   2.907   3.086   5.416 -0.1417  0.1189 -0.8816
 1498SOL    HW115956   2.907   3.083   5.320  0.4511  0.1572 -0.8779
 1498SOL    HW215957   2.813   3.080   5.437 -0.1518 -1.0623 -1.2910
 1499SOL     OW15958   1.785   2.227  17.659  0.0880  0.4186  0.0573
 1499SOL    HW115959   1.695   2.194  17.667 -0.7473  2.6031 -0.4736
 1499SOL    HW215960   1.826   2.167  17.597  1.0827  1.8768 -0.7003
 1500SOL     OW15961   3.884   2.775   3.740  0.3297  0.1176  0.5206
 1500SOL    HW115962   3.892   2.854   3.794 -3.1305 -0.0538  1.3309
 1500SOL    HW215963   3.968   2.784   3.696 -0.6400  2.1480 -0.8700
 1501SOL     OW15964   3.159   2.216   5.865 -0.4197  0.4752 -0.0351
 1501SOL    HW115965   3.203   2.160   5.930  0.5795  0.3191 -0.8530
 1501SOL    HW215966   3.213   2.196   5.788 -0.8668  0.9480 -0.4656
 1502SOL     OW15967   2.350   2.624   2.425  0.4892  0.3670  0.4526
 1502SOL    HW115968   2.285   2.692   2.409  0.6272  0.6016  0.8888
 1502SOL    HW215969   2.304   2.542   2.446  0.8654  0.5824  2.1053
 1503SOL     OW15970   4.633   0.751   2.164  0.5351 -0.6514  0.2404
 1503SOL    HW115971   4.722   0.761   2.199 -0.4812 -0.7896  2.8835
 1503SOL    HW215972   4.640   0.655   2.162 -1.4659 -0.7470 -1.8597
 1504SOL     OW15973   3.127   2.976   7.629  0.0249  0.2909  0.1271
 1504SOL    HW115974   3.149   3.053   7.682 -1.3521  0.1813  0.8535
 1504SOL    HW215975   3.040   2.958   7.665 -0.8177  0.8681 -1.6049
 1505SOL     OW15976   1.867   3.628   4.163  0.1423  0.2000  0.0672
 1505SOL    HW115977   1.806   3.624   4.237 -0.3573  2.5479 -0.2250
 1505SOL    HW215978   1.939   3.688   4.182  0.4693 -0.0645 -0.3436
 1506SOL     OW15979   0.160   3.730   4.599  0.7203  0.5145 -0.0763
 1506SOL    HW115980   0.190   3.716   4.689  1.2188 -1.5893 -0.5802
 1506SOL    HW215981   0.072   3.759   4.624  0.2026 -2.8314  1.9606
 1507SOL     OW15982   2.638   4.487   4.452 -0.0281  0.2208  0.4713
 1507SOL    HW115983   2.668   4.476   4.543  0.7801 -2.5029 -0.1010
 1507SOL    HW215984   2.719   4.521   4.414 -0.3034 -0.0582 -0.3470
 1508SOL     OW15985   1.163   3.866   6.178  0.2530  0.3420  0.4216
 1508SOL    HW115986   1.258   3.868   6.181  0.2895 -1.1005  0.0941
 1508SOL    HW215987   1.141   3.788   6.228  2.4112  1.6513  3.4090
 1509SOL     OW15988   1.915   3.118   2.780  0.3942  0.1618  0.0159
 1509SOL    HW115989   1.852   3.046   2.790  0.5766  0.0784  0.5784
 1509SOL    HW215990   1.907   3.157   2.868  2.0079  1.5430 -0.4474
 1510SOL     OW15991   1.562   3.535   5.843 -0.9613 -0.2783 -0.3227
 1510SOL    HW115992   1.516   3.524   5.760 -1.2894  0.0117 -0.1755
 1510SOL    HW215993   1.586   3.627   5.851  2.4127 -1.1213 -0.5896
 1511SOL     OW15994   1.772   2.488  14.641 -0.3463  0.3298 -0.3291
 1511SOL    HW115995   1.778   2.427  14.714  1.9829  1.2776  0.2614
 1511SOL    HW215996   1.845   2.549  14.647  0.3393 -0.5206  0.0592
 1512SOL     OW15997   3.812   2.226   3.700  0.2560  0.0833 -0.0402
 1512SOL    HW115998   3.734   2.190   3.658 -0.1548  1.8331 -0.8134
 1512SOL    HW215999   3.775   2.286   3.765  0.6982 -0.2882  0.5423
 1513SOL     OW16000   0.555   3.153   8.324 -0.4996  0.3840  0.1637
 1513SOL    HW116001   0.509   3.236   8.317  1.6146  1.3067 -2.6562
 1513SOL    HW216002   0.517   3.102   8.253 -0.4228 -0.6974  0.8913
 1514SOL     OW16003   1.866   3.608  11.377  0.0872  0.1165  0.0345
 1514SOL    HW116004   1.851   3.514  11.381 -0.0256  0.2244  2.0614
 1514SOL    HW216005   1.776   3.640  11.387 -0.6382 -2.0708  0.5275
 1515SOL     OW16006   2.623   1.032   2.224 -0.1921  0.8775 -0.4391
 1515SOL    HW116007   2.597   1.003   2.137 -2.0431 -0.3352  0.5241
 1515SOL    HW216008   2.640   1.125   2.210  1.9269  0.2963 -1.5974
 1516SOL     OW16009   4.677   3.588   1.857 -1.4007 -0.1357  0.0736
 1516SOL    HW116010   0.010   3.569   1.928 -0.6413  3.2187  0.3435
 1516SOL    HW216011   4.721   3.533   1.793  1.8806  0.7960  1.5509
 1517SOL     OW16012   3.215   3.169   8.654 -0.1535 -0.1434  0.0773
 1517SOL    HW116013   3.235   3.106   8.585  0.2564 -0.6717  0.6762
 1517SOL    HW216014   3.147   3.126   8.706 -0.3144  2.1153  1.7317
 1518SOL     OW16015   2.664   3.812   0.137  0.0021  0.0902  0.3324
 1518SOL    HW116016   2.748   3.858   0.146 -0.7215  1.2146  1.3551
 1518SOL    HW216017   2.606   3.876   0.178 -2.2488 -2.4417  1.0820
 1519SOL     OW16018   2.187   1.066   9.692  0.3086 -0.4692  0.2952
 1519SOL    HW116019   2.243   1.000   9.733  0.0751 -0.8648 -0.0383
 1519SOL    HW216020   2.096   1.041   9.701  0.1804 -0.7825 -1.8494
 1520SOL     OW16021   3.454   1.261  12.491 -0.6363  0.2640 -0.1303
 1520SOL    HW116022   3.447   1.292  12.401 -1.8392  2.2227  0.6291
 1520SOL    HW216023   3.463   1.344  12.538  2.8852 -0.3529  0.2550
 1521SOL     OW16024   1.041   3.027   3.289  0.0561 -0.4735  0.6636
 1521SOL    HW116025   1.019   3.113   3.324 -0.0449 -1.0104  1.9025
 1521SOL    HW216026   1.118   3.053   3.239  1.4332 -0.0484  3.0116
 1522SOL     OW16027   0.821   0.167   9.798 -0.2332  0.3355 -0.3694
 1522SOL    HW116028   0.762   0.091   9.797 -0.9844  0.8927  0.8949
 1522SOL    HW216029   0.760   0.240   9.811  1.8978  1.5634  2.7033
 1523SOL     OW16030   0.819   1.378   1.810  0.1658  0.0945  0.0815
 1523SOL    HW116031   0.783   1.421   1.889  1.6167  0.1560  0.7036
 1523SOL    HW216032   0.781   1.425   1.736 -1.4966 -1.3339  0.0178
 1524SOL     OW16033   1.956   1.556  16.146 -0.2275  0.4014  0.2964
 1524SOL    HW116034   2.030   1.615  16.160 -0.1266  0.1399  0.8875
 1524SOL    HW216035   1.954   1.501  16.225  1.4808  1.0016  0.7482
 1525SOL     OW16036   3.753   0.341  10.665  0.8707  0.1144 -0.2637
 1525SOL    HW116037   3.719   0.320  10.752 -1.1926  0.8967 -0.8602
 1525SOL    HW216038   3.838   0.366  10.701  0.4502 -0.1086  0.8892
 1526SOL     OW16039   3.514   4.425   8.348 -0.1896  0.0478 -0.2231
 1526SOL    HW116040   3.564   4.403   8.426  0.6345 -0.3399 -0.8569
 1526SOL    HW216041   3.507   4.520   8.344 -0.3407  0.0644  0.4165
 1527SOL     OW16042   4.316   1.784  11.433  0.0134 -0.0294 -0.1908
 1527SOL    HW116043   4.297   1.799  11.526 -1.1164  1.6403 -0.6843
 1527SOL    HW216044   4.233   1.765  11.388  0.1996  1.7500 -1.2750
 1528SOL     OW16045   0.293   3.114   1.116 -0.5659  0.4962 -0.4968
 1528SOL    HW116046   0.339   3.161   1.185 -2.2209  2.9347 -1.0518
 1528SOL    HW216047   0.318   3.162   1.036 -1.4503 -1.2054 -1.7935
 1529SOL     OW16048   2.879   2.884   4.809 -0.7773  0.7650  0.1835
 1529SOL    HW116049   2.792   2.877   4.850 -0.4901  0.1220  0.6743
 1529SOL    HW216050   2.862   2.863   4.717 -0.2208  2.3319 -0.2681
 1530SOL     OW16051   4.226   1.577   4.921 -0.3790  0.3327 -0.4346
 1530SOL    HW116052   4.145   1.532   4.943  0.8511 -0.7674  1.8072
 1530SOL    HW216053   4.200   1.599   4.831  2.6059 -1.4151 -1.7449
 1531SOL     OW16054   1.021   2.336   5.049  0.2809 -0.5653 -0.9235
 1531SOL    HW116055   1.116   2.344   5.044  0.2994  0.5745  1.2497
 1531SOL    HW216056   0.994   2.303   4.963 -0.8140  0.9002 -1.1489
 1532SOL     OW16057   3.228   0.076   4.945  0.4376 -0.0074 -0.3566
 1532SOL    HW116058   3.144   0.118   4.926  2.2047  3.5218 -0.3793
 1532SOL    HW216059   3.225   0.010   4.877  0.4739 -0.0998 -0.2682
 1533SOL     OW16060   3.193   3.431   7.308  0.0060  0.2455 -0.0942
 1533SOL    HW116061   3.134   3.396   7.242  2.4226 -0.6556 -1.8080
 1533SOL    HW216062   3.164   3.385   7.387  1.6090  2.9951  2.1416
 1534SOL     OW16063   0.327   1.005  16.564 -0.1590  0.0262  0.0313
 1534SOL    HW116064   0.365   0.944  16.626  0.6184  1.1953  0.7181
 1534SOL    HW216065   0.320   0.943  16.491 -1.3457 -1.3190  1.2983
 1535SOL     OW16066   2.333   1.860  14.392 -0.2825  0.1115 -0.3653
 1535SOL    HW116067   2.329   1.955  14.400 -2.0092  0.0561 -0.4805
 1535SOL    HW216068   2.403   1.856  14.327  0.8025 -2.5251  0.9759
 1536SOL     OW16069   0.411   1.297   5.348  0.1346  0.2271  0.0819
 1536SOL    HW116070   0.410   1.270   5.256  0.7810  1.1534 -0.1961
 1536SOL    HW216071   0.342   1.241   5.383 -0.0885 -0.7667 -1.9278
 1537SOL     OW16072   4.563   2.355  11.658 -0.1859 -0.8831 -0.0588
 1537SOL    HW116073   4.522   2.433  11.695  0.6329  0.7452 -2.6020
 1537SOL    HW216074   4.524   2.350  11.571  4.3052  0.2764 -2.1419
 1538SOL     OW16075   4.346   1.752   9.154  0.3273 -0.2289 -0.1411
 1538SOL    HW116076   4.440   1.749   9.170 -0.0289 -1.6588  1.7116
 1538SOL    HW216077   4.328   1.659   9.165 -0.6218  0.2430  2.3616
 1539SOL     OW16078   3.696   2.967   9.715 -0.0333 -0.1087  0.5853
 1539SOL    HW116079   3.670   2.876   9.700 -1.0657 -0.2943  3.4867
 1539SOL    HW216080   3.777   2.955   9.665  0.8602 -0.4569  2.1083
 1540SOL     OW16081   1.734   4.158   1.657  0.8001 -0.6472  0.2657
 1540SOL    HW116082   1.769   4.239   1.696 -0.2260  0.8031 -1.8062
 1540SOL    HW216083   1.756   4.173   1.565 -1.8058 -1.0817 -0.4066
 1541SOL     OW16084   2.632   1.365   8.600 -0.0100  0.2852  0.2012
 1541SOL    HW116085   2.599   1.450   8.627  0.3659  0.6860 -0.6198
 1541SOL    HW216086   2.585   1.348   8.519 -0.8013 -3.5244  1.4519
 1542SOL     OW16087   2.293   0.553   5.484  0.2188  0.1369  0.0262
 1542SOL    HW116088   2.226   0.506   5.533  1.1725  0.0069  1.2122
 1542SOL    HW216089   2.260   0.543   5.394  1.3686 -1.1835 -0.2487
 1543SOL     OW16090   4.357   0.135  16.660  0.4217 -0.2350 -0.5492
 1543SOL    HW116091   4.429   0.122  16.722 -1.0995 -2.0689  0.8615
 1543SOL    HW216092   4.280   0.142  16.716  0.6156 -0.7317 -0.2175
 1544SOL     OW16093   4.411   3.378   7.784  0.2031  0.4832 -0.0455
 1544SOL    HW116094   4.335   3.337   7.744  0.3775  0.5836 -0.4797
 1544SOL    HW216095   4.444   3.415   7.703  0.6687  0.0688 -0.0518
 1545SOL     OW16096   4.052   0.408   9.613 -0.1146  1.1173  0.2100
 1545SOL    HW116097   4.143   0.435   9.627 -0.0507 -0.2655  2.5369
 1545SOL    HW216098   4.051   0.317   9.583  3.1084  1.0657  0.2435
 1546SOL     OW16099   3.309   0.999   7.802  0.2970 -0.0025 -0.3853
 1546SOL    HW116100   3.286   0.910   7.778 -0.0122  0.2734 -1.1289
 1546SOL    HW216101   3.400   0.980   7.825  0.9413  2.2685 -1.0695
 1547SOL     OW16102   0.254   1.189  16.741 -0.4198  0.7372 -0.0135
 1547SOL    HW116103   0.162   1.181  16.718 -0.2121 -0.2495 -0.5366
 1547SOL    HW216104   0.293   1.150  16.662 -1.0320  1.6685 -0.7679
 1548SOL     OW16105   0.460   4.695   3.214  0.4464  0.6231 -0.5028
 1548SOL    HW116106   0.488   4.611   3.179  1.6197  0.8314 -0.0644
 1548SOL    HW216107   0.408   4.666   3.289  1.5308 -0.6271 -0.2213
 1549SOL     OW16108   3.300   0.108  13.061  0.4774 -0.4339 -0.4238
 1549SOL    HW116109   3.321   0.162  12.985  1.3194  0.9576  0.7871
 1549SOL    HW216110   3.222   0.154  13.092  1.2543 -0.7984  2.0511
 1550SOL     OW16111   0.534   0.521  13.431 -0.0247 -0.3003  0.1607
 1550SOL    HW116112   0.619   0.536  13.472 -0.3972  0.3852  0.6756
 1550SOL    HW216113   0.534   0.586  13.360  0.5826 -0.2458  0.2066
 1551SOL     OW16114   0.809   3.783  16.598  0.3555  0.0270  0.0060
 1551SOL    HW116115   0.844   3.695  16.602 -1.1121 -0.5800 -0.6484
 1551SOL    HW216116   0.860   3.827  16.530  1.2769  0.2766  0.8429
 1552SOL     OW16117   2.310   3.596   6.998  0.3987  0.0449  0.0298
 1552SOL    HW116118   2.377   3.537   6.963  0.9950  0.5618  0.3167
 1552SOL    HW216119   2.335   3.675   6.951 -1.2297  0.7989  0.4232
 1553SOL     OW16120   0.693   3.593   7.027 -0.2445 -0.3498  0.1264
 1553SOL    HW116121   0.645   3.675   7.025  0.7427  0.2064 -0.6681
 1553SOL    HW216122   0.628   3.525   7.045 -0.0558 -0.8939 -1.2072
 1554SOL     OW16123   4.184   3.861  10.614  0.0171  0.1719  0.6723
 1554SOL    HW116124   4.247   3.829  10.549 -0.1690  0.7285  0.2141
 1554SOL    HW216125   4.125   3.916  10.562 -0.4221 -1.1041 -0.1922
 1555SOL     OW16126   3.290   2.629   6.255  0.4494 -0.2007  0.4333
 1555SOL    HW116127   3.231   2.588   6.317  0.8679  0.9015  1.5560
 1555SOL    HW216128   3.278   2.723   6.269  1.5562 -0.6178  4.1494
 1556SOL     OW16129   3.744   2.382   7.740 -0.1495 -0.4378 -0.1016
 1556SOL    HW116130   3.826   2.413   7.700  0.1444  1.4883  1.9873
 1556SOL    HW216131   3.762   2.296   7.778  1.3834  0.0893  0.3652
 1557SOL     OW16132   4.337   4.521  16.781 -0.1253 -0.0398 -0.3637
 1557SOL    HW116133   4.394   4.594  16.804  0.8995 -1.3207  1.1503
 1557SOL    HW216134   4.327   4.539  16.687 -5.2904  1.0774  0.4012
 1558SOL     OW16135   1.783   3.140  16.719  0.7175  0.3306 -0.3902
 1558SOL    HW116136   1.786   3.131  16.814 -2.4022  1.2389 -0.2195
 1558SOL    HW216137   1.714   3.076  16.703  3.0109 -2.3269  0.2983
 1559SOL     OW16138   3.352   3.207   6.973  0.0967  0.2779 -0.2628
 1559SOL    HW116139   3.322   3.160   7.051 -0.5349  1.0764 -0.0284
 1559SOL    HW216140   3.330   3.296   6.999 -0.0981 -0.3264  1.6680
 1560SOL     OW16141   2.660   1.175   8.993  0.3410 -0.3145  0.0918
 1560SOL    HW116142   2.614   1.255   8.969 -1.0018 -0.8889  0.7367
 1560SOL    HW216143   2.706   1.168   8.910 -0.8206 -0.1830 -0.5667
 1561SOL     OW16144   3.955   2.618  17.654 -0.2616 -0.5708  0.0941
 1561SOL    HW116145   3.951   2.712  17.669  0.5742  0.0762 -3.8124
 1561SOL    HW216146   3.924   2.598   0.033  0.0180  1.9271  0.7633
 1562SOL     OW16147   2.847   4.193  15.209  0.2816  0.2890  0.1948
 1562SOL    HW116148   2.845   4.287  15.193 -1.4459 -0.0393 -1.4644
 1562SOL    HW216149   2.838   4.168  15.117 -0.3082 -3.1057  1.1534
 1563SOL     OW16150   1.914   1.233   8.511 -0.2085 -0.1806  0.4949
 1563SOL    HW116151   1.901   1.192   8.597 -1.7548  0.4477  0.5737
 1563SOL    HW216152   1.985   1.182   8.474 -0.6424 -0.6413  0.2933
 1564SOL     OW16153   2.653   1.944  14.856 -0.1397 -0.6908 -0.8033
 1564SOL    HW116154   2.560   1.946  14.830 -1.0842  1.1506  2.6718
 1564SOL    HW216155   2.673   2.033  14.884  0.9127 -0.1788 -3.1577
 1565SOL     OW16156   1.533   1.437  10.953  0.1088  0.3961  0.0985
 1565SOL    HW116157   1.455   1.473  10.910  0.5577 -0.3757 -1.3764
 1565SOL    HW216158   1.603   1.437  10.888  1.2803  1.4820  1.3644
 1566SOL     OW16159   3.940   2.541  14.479 -0.3272 -0.3578  0.0265
 1566SOL    HW116160   4.008   2.604  14.501  1.0014 -2.1839  1.1150
 1566SOL    HW216161   3.983   2.488  14.412 -0.1557 -0.4439  0.2023
 1567SOL     OW16162   0.801   1.668   2.687 -0.0912 -0.4464 -0.0593
 1567SOL    HW116163   0.737   1.599   2.709 -0.5670  1.2513  3.8408
 1567SOL    HW216164   0.841   1.676   2.773 -1.1901 -0.1746  0.4259
 1568SOL     OW16165   1.927   1.695   6.388 -0.3990  0.7257 -0.7237
 1568SOL    HW116166   1.996   1.666   6.447  0.0063  0.6173 -1.2538
 1568SOL    HW216167   1.943   1.646   6.307 -2.3877 -0.7009 -0.2743
 1569SOL     OW16168   2.479   0.054   1.771  0.2097 -0.1703 -0.7212
 1569SOL    HW116169   2.569   0.033   1.796  0.5780 -0.8691 -2.6449
 1569SOL    HW216170   2.435   0.006   1.842  0.1057  0.2534 -0.4973
 1570SOL     OW16171   3.528   0.479   8.640 -0.1587 -0.2710  0.3360
 1570SOL    HW116172   3.516   0.550   8.703  2.0967  0.1108  0.3567
 1570SOL    HW216173   3.439   0.457   8.615 -0.5199  1.1653  0.4074
 1571SOL     OW16174   3.821   2.315   1.650 -0.0409  0.1023  0.1969
 1571SOL    HW116175   3.854   2.373   1.582  0.4393  1.4703  1.6028
 1571SOL    HW216176   3.783   2.379   1.710 -1.3791  1.7208 -2.3985
 1572SOL     OW16177   4.132   0.101  16.814 -0.0967 -0.3543  0.0504
 1572SOL    HW116178   4.101   0.100  16.724 -0.5279 -0.2159  0.1938
 1572SOL    HW216179   4.095   0.183  16.847 -2.1903 -0.8004 -1.1464
 1573SOL     OW16180   0.717   0.802   2.115  0.3536 -0.1260 -0.3412
 1573SOL    HW116181   0.803   0.780   2.150 -0.7256 -0.4657  2.1038
 1573SOL    HW216182   0.707   0.891   2.149  0.2649 -0.7327  1.2212
 1574SOL     OW16183   4.323   2.148   7.570 -0.3670 -0.3193  0.6410
 1574SOL    HW116184   4.282   2.080   7.624  2.2371 -0.5253  2.3742
 1574SOL    HW216185   4.310   2.228   7.620  1.7064  0.2714  0.2344
 1575SOL     OW16186   0.282   2.953   9.160  0.3280  0.7055  0.2403
 1575SOL    HW116187   0.344   3.017   9.126  1.0652  0.6705  1.5429
 1575SOL    HW216188   0.219   3.012   9.201 -1.8450 -1.4523 -0.0012
 1576SOL     OW16189   2.554   0.274  14.831  0.2597  0.2210 -0.3317
 1576SOL    HW116190   2.502   0.193  14.838 -1.1645  1.2861  1.3653
 1576SOL    HW216191   2.482   0.326  14.867  0.0493 -0.4186  0.1704
 1577SOL     OW16192   2.147   3.099  15.333  0.3057  0.1707  0.6166
 1577SOL    HW116193   2.219   3.130  15.278 -2.4033  2.2894 -1.7384
 1577SOL    HW216194   2.069   3.133  15.289  1.1558  0.9313 -0.2997
 1578SOL     OW16195   2.636   4.613  15.109 -0.4448  0.2875 -0.0960
 1578SOL    HW116196   2.564   4.579  15.056  0.2527  0.0832 -0.9288
 1578SOL    HW216197   2.628   4.700  15.069  0.1159  0.5753  0.4156
 1579SOL     OW16198   4.604   2.156   7.269 -0.3579 -0.5475 -0.5799
 1579SOL    HW116199   4.578   2.191   7.184 -1.5571  1.7026  0.7248
 1579SOL    HW216200   4.594   2.062   7.252 -0.2974 -0.6878  0.1256
 1580SOL     OW16201   2.693   3.449   2.018 -0.1335  0.0358 -0.5186
 1580SOL    HW116202   2.720   3.359   2.000  0.3741  0.0908 -0.0293
 1580SOL    HW216203   2.666   3.464   1.927 -0.4449  0.0832 -0.4158
 1581SOL     OW16204   1.974   3.096   5.751  0.1659  0.2267  0.0353
 1581SOL    HW116205   2.029   3.043   5.692 -0.8355  1.3630 -1.9277
 1581SOL    HW216206   1.898   3.124   5.700 -0.2150 -2.1871 -0.7292
 1582SOL     OW16207   1.564   0.686   6.880  0.4239 -0.0948  0.0167
 1582SOL    HW116208   1.610   0.612   6.840 -1.3041 -0.6947 -0.9023
 1582SOL    HW216209   1.631   0.715   6.941  0.3503 -0.2443  0.1717
 1583SOL     OW16210   0.826   2.078   7.657  0.2729 -0.1378 -0.1631
 1583SOL    HW116211   0.873   2.000   7.627  1.2040  0.3883 -0.0499
 1583SOL    HW216212   0.898   2.139   7.672  1.5824 -1.6148 -0.4280
 1584SOL     OW16213   1.286   3.201  16.176  0.1468 -0.2164  0.4366
 1584SOL    HW116214   1.374   3.232  16.154  0.4267 -0.9109  0.5595
 1584SOL    HW216215   1.290   3.114  16.217  0.7835 -0.0307  0.7786
 1585SOL     OW16216   0.250   0.115   7.421 -0.3395 -0.1706 -0.1633
 1585SOL    HW116217   0.261   0.037   7.475  0.4697 -0.9131 -1.4104
 1585SOL    HW216218   0.175   0.161   7.458 -0.3168 -1.0758  1.0295
 1586SOL     OW16219   3.593   2.205   6.711 -0.1791 -0.0354  0.3094
 1586SOL    HW116220   3.576   2.181   6.620 -0.9288 -0.1446  0.4779
 1586SOL    HW216221   3.678   2.164   6.726  0.3923  0.5493 -1.4103
 1587SOL     OW16222   1.696   2.381  14.425  0.3234 -0.2472 -0.2160
 1587SOL    HW116223   1.718   2.403  14.516  2.1167  0.5281 -0.8366
 1587SOL    HW216224   1.600   2.383  14.431  0.3309  2.9260 -0.7034
 1588SOL     OW16225   3.030   4.568   5.616  0.0072  0.7437 -1.0669
 1588SOL    HW116226   3.104   4.605   5.569  1.8542 -1.9737 -0.2544
 1588SOL    HW216227   2.974   4.644   5.632 -0.5975  0.2946 -1.0268
 1589SOL     OW16228   2.043   0.743  11.403  0.6442  0.4205 -0.6161
 1589SOL    HW116229   2.074   0.820  11.357  0.7491  0.2937 -0.7563
 1589SOL    HW216230   2.041   0.682  11.330 -0.4578 -1.9952  1.4185
 1590SOL     OW16231   0.257   0.275   5.981  1.0973 -0.1112 -0.6869
 1590SOL    HW116232   0.235   0.184   6.001  0.8925  0.5053  1.8586
 1590SOL    HW216233   0.350   0.277   6.002  0.7179 -0.2436  0.9981
 1591SOL     OW16234   0.860   1.015  13.223 -0.4214  0.0593  0.3905
 1591SOL    HW116235   0.874   0.921  13.216 -1.6727 -0.0754 -0.3594
 1591SOL    HW216236   0.953   1.038  13.220 -0.7034  1.0019 -1.0530
 1592SOL     OW16237   3.438   0.625   6.131  0.2477  0.0305 -0.3944
 1592SOL    HW116238   3.460   0.709   6.173 -0.4137  0.1575 -0.2997
 1592SOL    HW216239   3.481   0.564   6.190 -1.8938 -0.8327  0.2808
 1593SOL     OW16240   0.949   1.314  16.721  0.2087  0.2163  0.5476
 1593SOL    HW116241   1.006   1.386  16.694  0.4744  0.2788  1.2497
 1593SOL    HW216242   1.011   1.278  16.786 -0.2794  0.1142  0.9565
 1594SOL     OW16243   4.328   0.652   2.879 -0.0146  0.3387  0.5560
 1594SOL    HW116244   4.305   0.693   2.795 -1.2492 -0.7076  0.3729
 1594SOL    HW216245   4.295   0.711   2.946  0.1169 -0.5500  1.3958
 1595SOL     OW16246   0.104   1.914   7.477  0.2240 -0.1520 -0.1885
 1595SOL    HW116247   0.017   1.902   7.516  1.1041 -0.6752  1.6271
 1595SOL    HW216248   0.131   1.981   7.540  1.4254 -0.2123 -0.6384
 1596SOL     OW16249   2.631   3.027  15.070  0.0757 -0.2012 -0.1037
 1596SOL    HW116250   2.665   3.076  14.994 -2.9266 -0.2182 -1.4918
 1596SOL    HW216251   2.666   2.942  15.044  0.1165 -0.1032 -0.3709
 1597SOL     OW16252   2.362   1.421   0.817  0.3164 -0.0484  0.3902
 1597SOL    HW116253   2.336   1.499   0.867  0.1853  0.3977 -0.3643
 1597SOL    HW216254   2.281   1.371   0.831  2.7382 -3.3959  2.3610
 1598SOL     OW16255   3.423   1.913   7.422  0.2125 -0.5408 -0.7384
 1598SOL    HW116256   3.391   1.983   7.479 -1.8148 -1.0354 -1.2800
 1598SOL    HW216257   3.436   1.962   7.340 -2.5331  0.3554 -0.6189
 1599SOL     OW16258   2.742   4.232  17.022  1.0167 -0.1507 -0.5068
 1599SOL    HW116259   2.806   4.252  17.091  0.9389  0.7456 -0.6933
 1599SOL    HW216260   2.675   4.171  17.052  0.6516 -0.0996 -1.2115
 1600SOL     OW16261   2.922   4.081   4.584 -0.4952  0.0796 -0.2580
 1600SOL    HW116262   2.848   4.083   4.646  0.4830  1.7245  0.8498
 1600SOL    HW216263   2.934   4.176   4.575  2.1181 -0.1940  0.4069
 1601SOL     OW16264   2.731   1.549   5.024 -0.0285  0.3112 -0.8215
 1601SOL    HW116265   2.820   1.533   5.054 -0.4293 -0.9049 -0.2938
 1601SOL    HW216266   2.689   1.473   5.063 -0.6035  1.5786  1.0255
 1602SOL     OW16267   4.271   3.112   2.496 -0.0473 -0.6845 -0.3511
 1602SOL    HW116268   4.320   3.056   2.556  1.1043  0.7757  0.0742
 1602SOL    HW216269   4.193   3.146   2.540 -0.9290 -1.2554 -1.4655
 1603SOL     OW16270   2.087   0.562   3.694  0.2911  0.0440  0.0597
 1603SOL    HW116271   2.055   0.567   3.785 -1.6205  0.6401 -0.6433
 1603SOL    HW216272   2.172   0.606   3.695 -1.9566  4.3245  0.0129
 1604SOL     OW16273   1.743   1.708  17.473  0.4136  0.0872  0.3453
 1604SOL    HW116274   1.727   1.778  17.410  0.2520 -0.8792 -0.6843
 1604SOL    HW216275   1.801   1.757  17.532  1.6519 -0.8873 -0.0503
 1605SOL     OW16276   2.809   4.350   2.475 -0.0325 -0.2418  0.4289
 1605SOL    HW116277   2.739   4.411   2.496 -1.0909 -1.9664  1.8982
 1605SOL    HW216278   2.834   4.381   2.388 -2.3022  0.8353  0.1542
 1606SOL     OW16279   3.856   3.043   7.897 -0.2532 -0.1667  0.4231
 1606SOL    HW116280   3.818   3.098   7.829 -1.9621 -0.5756  1.0440
 1606SOL    HW216281   3.784   2.982   7.915  0.6694 -2.1508 -2.5129
 1607SOL     OW16282   2.744   0.600   7.379  0.1052 -0.3364  0.1923
 1607SOL    HW116283   2.821   0.634   7.424 -0.7154 -0.2428  1.5040
 1607SOL    HW216284   2.705   0.544   7.445 -0.2223  0.0515  0.3286
 1608SOL     OW16285   0.871   3.487   6.863  0.0899  0.7329  0.0971
 1608SOL    HW116286   0.880   3.407   6.916 -0.2414  1.1673  0.8064
 1608SOL    HW216287   0.816   3.534   6.926  3.1314  2.2579  1.6075
 1609SOL     OW16288   3.416   1.857   2.722 -0.2411  0.5582 -0.2901
 1609SOL    HW116289   3.470   1.872   2.800  0.8592 -0.5587 -0.8368
 1609SOL    HW216290   3.442   1.924   2.660 -1.3898 -1.1942 -2.6447
 1610SOL     OW16291   1.574   2.709   5.417 -0.3281  0.0204 -0.3031
 1610SOL    HW116292   1.596   2.645   5.350  1.7500  1.2249 -0.7734
 1610SOL    HW216293   1.514   2.769   5.373 -1.1592 -0.6445 -0.0773
 1611SOL     OW16294   0.097   1.290   7.505 -0.1139  0.1395  0.6853
 1611SOL    HW116295   0.035   1.355   7.539 -1.4022 -0.7295 -0.0029
 1611SOL    HW216296   0.062   1.206   7.534 -1.4550  0.1682 -0.8483
 1612SOL     OW16297   4.672   4.282   7.873  0.0405  0.4045  0.7653
 1612SOL    HW116298   4.721   4.228   7.811 -0.4590 -0.1092  0.8147
 1612SOL    HW216299   4.686   4.236   7.956  0.1759 -0.8697  0.0401
 1613SOL     OW16300   0.646   3.678   9.910 -0.0288  0.5438 -0.2978
 1613SOL    HW116301   0.674   3.766   9.936  0.1633 -0.6297  3.3991
 1613SOL    HW216302   0.625   3.629   9.989  1.2394  0.7997  0.1936
 1614SOL     OW16303   0.055   2.650   7.522 -0.3666 -0.4069 -0.5110
 1614SOL    HW116304   4.695   2.669   7.485 -1.3208 -1.0485  1.4532
 1614SOL    HW216305   0.119   2.684   7.459 -0.2245 -0.4213 -0.3734
 1615SOL     OW16306   3.030   1.131  13.270 -0.7195  0.3287 -0.3986
 1615SOL    HW116307   3.108   1.183  13.248  1.4616 -2.0618  1.8319
 1615SOL    HW216308   3.059   1.041  13.256  1.2306  0.6545  1.5098
 1616SOL     OW16309   1.906   2.410  11.856 -0.2395  0.0599  0.0382
 1616SOL    HW116310   1.944   2.340  11.803  2.4926 -0.3889  2.5862
 1616SOL    HW216311   1.968   2.482  11.845 -2.3273  1.6172 -1.5289
 1617SOL     OW16312   0.138   1.924   1.167  0.0604  0.0201 -0.4051
 1617SOL    HW116313   0.176   1.840   1.141  1.2653  0.1753  0.8851
 1617SOL    HW216314   0.059   1.921   1.114 -0.3357  1.7484  0.1015
 1618SOL     OW16315   4.706   4.305   7.143  0.1498  0.2221  0.6052
 1618SOL    HW116316   4.641   4.352   7.195  1.0810  2.2195 -0.0519
 1618SOL    HW216317   0.042   4.375   7.126  1.0716 -0.2386  2.0525
 1619SOL     OW16318   3.399   4.661  15.204 -0.0897  0.1792 -0.7134
 1619SOL    HW116319   3.383   4.627  15.116 -3.6550 -0.0666  0.0366
 1619SOL    HW216320   3.322   4.624  15.247  0.4607  1.9983  1.8428
 1620SOL     OW16321   2.925   1.480  15.496 -0.3228  0.2418  0.0813
 1620SOL    HW116322   3.021   1.479  15.495 -0.3185  2.9811 -3.2381
 1620SOL    HW216323   2.916   1.557  15.440  0.5041  1.7623  2.0337
 1621SOL     OW16324   2.836   4.657   4.902 -0.2555  0.2525 -0.1384
 1621SOL    HW116325   2.859   0.014   4.941 -1.1299  1.3994 -2.1095
 1621SOL    HW216326   2.742   4.646   4.918 -0.2823  0.2944 -0.2667
 1622SOL     OW16327   3.945   2.308   6.081  0.1565  0.2037 -0.1076
 1622SOL    HW116328   3.852   2.329   6.076 -0.0703 -0.2071  2.4273
 1622SOL    HW216329   3.981   2.362   6.011 -2.4672  0.4209 -1.2732
 1623SOL     OW16330   3.031   0.677  15.392  0.1232 -0.4701  0.2524
 1623SOL    HW116331   3.018   0.586  15.421  2.1928 -0.6287  0.6807
 1623SOL    HW216332   3.006   0.723  15.471  1.1712 -0.9940  0.8936
 1624SOL     OW16333   1.179   0.389   9.535  0.2952  0.1604  0.3296
 1624SOL    HW116334   1.214   0.376   9.623 -2.4757 -2.4104  1.0643
 1624SOL    HW216335   1.084   0.398   9.549 -0.2212  0.5036 -3.3776
 1625SOL     OW16336   0.534   0.903   4.055  0.2905 -0.0721 -0.3122
 1625SOL    HW116337   0.549   0.857   3.972 -0.6722  3.2293 -2.3253
 1625SOL    HW216338   0.622   0.932   4.079  0.7843 -0.1903 -1.9899
 1626SOL     OW16339   2.631   1.996   2.622  0.3556  0.0352  0.0784
 1626SOL    HW116340   2.601   2.080   2.586 -0.7135  0.9965  3.1054
 1626SOL    HW216341   2.624   1.934   2.550  0.3488  0.4512 -0.2777
 1627SOL     OW16342   4.653   3.223   4.643 -0.3887 -0.3598 -0.8022
 1627SOL    HW116343   4.588   3.291   4.663  1.8666  1.7616 -0.7091
 1627SOL    HW216344   0.001   3.283   4.643 -1.3972  0.9259 -1.9476
 1628SOL     OW16345   2.675   4.316   1.551  0.3680 -0.6468 -0.6164
 1628SOL    HW116346   2.724   4.329   1.632 -1.3748 -1.7416  0.6256
 1628SOL    HW216347   2.747   4.349   1.497 -0.2720  2.5404  0.4692
 1629SOL     OW16348   1.232   4.168   5.010 -0.0668 -0.2252  0.3005
 1629SOL    HW116349   1.259   4.131   5.094 -0.7024  0.2545  0.7193
 1629SOL    HW216350   1.292   4.125   4.950 -0.2153 -3.1665  2.2532
 1630SOL     OW16351   0.385   3.149   6.180  0.0892 -0.1188  0.1629
 1630SOL    HW116352   0.354   3.195   6.258  0.1210 -3.1001  1.9423
 1630SOL    HW216353   0.435   3.076   6.217  2.1430  0.8713 -0.6758
 1631SOL     OW16354   2.923   3.992   3.570  0.5539  0.5881 -0.0239
 1631SOL    HW116355   2.977   4.037   3.505  0.8013 -0.7261 -0.7116
 1631SOL    HW216356   2.838   3.983   3.527  0.8210  2.0890 -0.8951
 1632SOL     OW16357   3.396   0.537   7.068 -0.5277  0.1795 -0.1449
 1632SOL    HW116358   3.435   0.588   7.140 -1.5692 -0.9318  1.2037
 1632SOL    HW216359   3.305   0.537   7.096 -0.4372  0.7605  0.1539
 1633SOL     OW16360   0.904   1.311   3.339 -0.4944  0.4886  0.0206
 1633SOL    HW116361   0.817   1.296   3.377 -0.7392  0.2164 -0.6454
 1633SOL    HW216362   0.929   1.387   3.393 -0.7441 -0.0366  0.8735
 1634SOL     OW16363   1.238   0.118  12.662  0.4759  0.2059 -0.0632
 1634SOL    HW116364   1.284   0.051  12.610  0.8323  0.7664 -0.4648
 1634SOL    HW216365   1.173   0.142  12.597  0.6491  0.0256 -0.3031
 1635SOL     OW16366   3.492   3.680   7.624 -0.1183 -0.7736  0.0268
 1635SOL    HW116367   3.575   3.649   7.659  0.4024 -2.1316 -2.4359
 1635SOL    HW216368   3.476   3.617   7.554  0.8374 -2.6042  1.4538
 1636SOL     OW16369   2.412   2.031   7.528 -0.0901  0.1581  0.1931
 1636SOL    HW116370   2.330   2.057   7.489 -0.0548  1.9591  1.3278
 1636SOL    HW216371   2.405   2.091   7.602 -1.6865 -1.0585  1.0362
 1637SOL     OW16372   1.909   0.379   2.471  0.2692  0.2230 -0.1650
 1637SOL    HW116373   1.862   0.350   2.393 -0.9421 -0.5268  0.8318
 1637SOL    HW216374   1.997   0.341   2.463 -0.0936 -0.7032  0.2046
 1638SOL     OW16375   4.012   0.519   4.309 -0.4850 -0.3623 -0.1690
 1638SOL    HW116376   4.049   0.522   4.221 -0.9874 -2.5325 -0.4512
 1638SOL    HW216377   3.933   0.466   4.296 -0.1507 -0.5194 -1.6082
 1639SOL     OW16378   3.058   1.703  16.107  0.0362 -0.1986 -0.0597
 1639SOL    HW116379   3.146   1.692  16.072  0.4800  0.8619  0.7271
 1639SOL    HW216380   3.042   1.797  16.115 -0.1669 -0.2287 -0.1036
 1640SOL     OW16381   2.034   2.149   6.873 -0.0395  0.6350 -0.4985
 1640SOL    HW116382   2.021   2.205   6.796  2.8857 -0.6066 -1.9079
 1640SOL    HW216383   2.129   2.153   6.885 -0.0837 -0.7082  0.2764
 1641SOL     OW16384   2.104   2.325   9.567  0.5348 -0.0735  0.1390
 1641SOL    HW116385   2.114   2.238   9.528 -2.3458 -0.1874 -0.3639
 1641SOL    HW216386   2.111   2.372   9.484  0.9819 -0.4740 -0.0511
 1642SOL     OW16387   3.000   2.604   3.453 -0.0821  0.5603 -0.4366
 1642SOL    HW116388   2.921   2.551   3.439  0.8093 -0.0734 -2.9889
 1642SOL    HW216389   3.041   2.564   3.530  0.4059  0.4866 -0.7381
 1643SOL     OW16390   0.167   3.894   6.350  0.0205  0.6254 -0.5760
 1643SOL    HW116391   0.193   3.952   6.421  2.5771 -0.2048 -0.8233
 1643SOL    HW216392   0.100   3.942   6.303  1.4494  1.4906 -1.7045
 1644SOL     OW16393   2.597   0.493   7.905  0.1289 -0.1663  0.6699
 1644SOL    HW116394   2.619   0.400   7.902  1.7271  0.2668 -1.0390
 1644SOL    HW216395   2.619   0.506   7.813  0.6641 -1.4647  0.6117
 1645SOL     OW16396   0.747   0.557   3.863 -0.6247  0.0345 -0.5947
 1645SOL    HW116397   0.752   0.546   3.957 -1.6301 -0.9727 -0.6695
 1645SOL    HW216398   0.812   0.626   3.843 -1.4295  0.6299 -1.1825
 1646SOL     OW16399   4.003   0.649   5.912 -0.2392 -0.3229 -0.0227
 1646SOL    HW116400   4.035   0.664   5.823  2.7957 -0.7206  0.9842
 1646SOL    HW216401   3.920   0.697   5.910  0.4101  0.7710 -0.7099
 1647SOL     OW16402   0.202   3.282   8.711 -0.1777 -0.3864 -0.0725
 1647SOL    HW116403   0.144   3.218   8.753 -1.1213  0.4130 -0.1433
 1647SOL    HW216404   0.178   3.280   8.618  1.4840  1.1276 -0.5214
 1648SOL     OW16405   0.891   0.813  15.329 -0.3637  0.5012 -0.8273
 1648SOL    HW116406   0.979   0.842  15.352 -0.4346  1.1140 -1.3324
 1648SOL    HW216407   0.891   0.731  15.380  0.3144 -0.2048 -1.9774
 1649SOL     OW16408   1.626   2.750   9.122 -0.6232 -0.0233 -0.5529
 1649SOL    HW116409   1.663   2.662   9.128 -0.1115  0.3234  1.3770
 1649SOL    HW216410   1.584   2.740   9.208  1.7473 -2.0411  0.3608
 1650SOL     OW16411   2.258   4.641   4.050 -0.3548  0.2041 -0.6327
 1650SOL    HW116412   2.351   4.631   4.029 -0.3025 -0.3903 -0.1412
 1650SOL    HW216413   2.265   4.645   4.146 -2.2641 -0.5427 -0.4685
 1651SOL     OW16414   3.462   0.005   7.249  0.0593 -0.2927 -1.0358
 1651SOL    HW116415   3.474   0.100   7.254 -0.7162 -0.2055 -0.7875
 1651SOL    HW216416   3.492   4.709   7.161 -0.1111  1.0910 -1.4757
 1652SOL     OW16417   1.774   2.381  10.341 -0.2292 -0.1601  0.2378
 1652SOL    HW116418   1.849   2.438  10.358  0.5828 -1.4675  0.9601
 1652SOL    HW216419   1.809   2.293  10.338 -0.0578 -0.0245 -1.7095
 1653SOL     OW16420   2.185   3.388   5.821  0.5480  0.6263 -0.4404
 1653SOL    HW116421   2.255   3.417   5.880  0.1952  1.1253 -0.2670
 1653SOL    HW216422   2.112   3.356   5.874  0.9159 -0.7978 -0.8102
 1654SOL     OW16423   1.507   3.307  10.598 -0.0059  0.5284 -0.1843
 1654SOL    HW116424   1.578   3.301  10.533 -0.2417  0.0275 -0.3950
 1654SOL    HW216425   1.543   3.247  10.663  1.5954  1.4042 -0.2548
 1655SOL     OW16426   1.058   2.118   5.343  0.0662 -0.4307  0.2176
 1655SOL    HW116427   1.014   2.036   5.364 -0.6830 -0.4097 -1.2553
 1655SOL    HW216428   0.987   2.178   5.321  0.2883 -0.5886 -0.9237
 1656SOL     OW16429   1.155   1.075   3.938  0.3725  0.3632 -0.1847
 1656SOL    HW116430   1.222   1.042   3.878  0.2793 -3.1322  1.6441
 1656SOL    HW216431   1.153   1.169   3.924 -2.0118  0.3034 -0.3513
 1657SOL     OW16432   0.356   0.553   6.282 -0.4800  0.4770 -0.5713
 1657SOL    HW116433   0.421   0.594   6.226 -0.6187 -1.2334 -1.9660
 1657SOL    HW216434   0.282   0.547   6.222 -0.1914  0.1707 -0.8962
 1658SOL     OW16435   1.973   4.644   7.014  0.0551 -0.4229  0.0553
 1658SOL    HW116436   1.919   4.683   6.946 -2.4957 -2.3929  0.9656
 1658SOL    HW216437   1.909   4.588   7.058  0.7481 -1.2895 -0.0376
 1659SOL     OW16438   0.676   2.371   6.589 -0.4232 -0.0893  0.5053
 1659SOL    HW116439   0.706   2.440   6.647  0.8358 -0.6770  0.5475
 1659SOL    HW216440   0.629   2.426   6.526  1.2506  0.3216 -0.3864
 1660SOL     OW16441   4.699   3.142   3.004 -0.5271 -0.4604  0.3996
 1660SOL    HW116442   4.626   3.112   3.058 -0.1170  0.3413  1.4121
 1660SOL    HW216443   4.668   3.127   2.915  2.4599 -1.5843 -0.4399
 1661SOL     OW16444   3.452   0.863   9.828 -0.2502  0.4348 -0.6598
 1661SOL    HW116445   3.534   0.834   9.788 -1.4301 -1.2218 -1.8758
 1661SOL    HW216446   3.450   0.950   9.787  0.5613 -0.0093 -1.6732
 1662SOL     OW16447   0.439   3.789   3.644 -0.2793  0.1430 -0.2595
 1662SOL    HW116448   0.485   3.871   3.664  1.4597 -1.0798  0.6953
 1662SOL    HW216449   0.350   3.817   3.665 -0.0795 -0.8857  1.9289
 1663SOL     OW16450   2.954   3.400   3.874 -0.4451 -0.1003  0.2834
 1663SOL    HW116451   2.862   3.424   3.890 -0.1102  2.2151 -1.4004
 1663SOL    HW216452   2.960   3.415   3.780 -0.1377  0.4845  0.3988
 1664SOL     OW16453   0.324   2.288   4.458  0.1113 -0.6226  0.3780
 1664SOL    HW116454   0.232   2.305   4.479 -0.2072  2.9225 -3.8271
 1664SOL    HW216455   0.326   2.266   4.365 -0.9045 -1.0830  0.4645
 1665SOL     OW16456   2.567   1.982   8.437  0.3255  0.4325  1.0595
 1665SOL    HW116457   2.653   2.022   8.423  1.0855 -1.5982 -0.0586
 1665SOL    HW216458   2.523   2.054   8.483  0.3498  2.0128 -1.4022
 1666SOL     OW16459   4.536   2.085   7.858  0.8020 -0.0075 -0.2291
 1666SOL    HW116460   4.479   2.160   7.842 -0.3016 -0.5469  1.1859
 1666SOL    HW216461   4.510   2.070   7.949  2.3422  0.7389  0.3288
 1667SOL     OW16462   3.666   1.351  11.888  0.6158 -0.5192 -0.5310
 1667SOL    HW116463   3.729   1.381  11.954  1.2663 -1.9285 -0.4990
 1667SOL    HW216464   3.581   1.351  11.933 -0.1470 -2.0617 -2.0015
 1668SOL     OW16465   1.252   3.988   9.753 -0.2699 -0.0734  0.1229
 1668SOL    HW116466   1.236   4.062   9.695 -1.0528  0.9181  1.6022
 1668SOL    HW216467   1.263   4.026   9.840  0.0879 -1.0014  0.4930
 1669SOL     OW16468   3.338   3.258  14.170  0.4508 -0.5419  0.0962
 1669SOL    HW116469   3.333   3.163  14.168  1.9168 -0.6482  2.4230
 1669SOL    HW216470   3.418   3.261  14.118  0.5484 -1.6749  0.1933
 1670SOL     OW16471   2.289   3.054  12.587  0.4596  0.1537  0.7121
 1670SOL    HW116472   2.284   3.050  12.491  1.1080 -0.5036  0.7041
 1670SOL    HW216473   2.291   3.149  12.594 -1.2614  0.1754  1.0711
 1671SOL     OW16474   2.991   1.457   1.973  0.7244 -0.0165  0.1745
 1671SOL    HW116475   2.982   1.447   1.878  1.2282 -0.1277  0.1387
 1671SOL    HW216476   2.967   1.368   2.000  2.1579 -0.0946  1.1800
 1672SOL     OW16477   2.998   1.126   5.952 -1.3865 -0.8863  0.2344
 1672SOL    HW116478   2.953   1.106   5.870 -0.8249  0.1686 -0.3215
 1672SOL    HW216479   2.933   1.121   6.023  1.0291  0.1317  2.5170
 1673SOL     OW16480   1.028   3.529   4.618 -0.5658 -0.6267  0.0353
 1673SOL    HW116481   0.975   3.525   4.698  1.5231  1.6751  1.5287
 1673SOL    HW216482   0.976   3.600   4.581 -0.4820 -0.6187 -0.0690
 1674SOL     OW16483   4.027   2.077  17.062  0.5034  0.1060 -0.1866
 1674SOL    HW116484   4.078   2.048  17.138 -1.7832  0.2913  1.4121
 1674SOL    HW216485   3.958   2.011  17.063  2.4815 -1.9711  0.1207
 1675SOL     OW16486   4.383   2.063   1.916 -0.7524 -0.1619 -0.1746
 1675SOL    HW116487   4.415   1.974   1.903 -2.8583 -0.7248 -1.4571
 1675SOL    HW216488   4.448   2.113   1.866 -0.4413  0.4906  0.8724
 1676SOL     OW16489   4.321   3.560  12.176 -0.3102 -0.0877 -0.1353
 1676SOL    HW116490   4.298   3.536  12.266 -0.0862 -0.4993 -0.1901
 1676SOL    HW216491   4.307   3.655  12.183 -1.6149 -0.1817 -1.5683
 1677SOL     OW16492   3.850   4.352   4.712 -0.5615 -0.1564  0.1807
 1677SOL    HW116493   3.868   4.363   4.619  1.9883  0.8489  0.8106
 1677SOL    HW216494   3.823   4.440   4.738  0.4791  0.8644 -2.2691
 1678SOL     OW16495   2.881   2.642   6.112  0.8210  0.0634  0.2397
 1678SOL    HW116496   2.920   2.697   6.179 -0.0539 -1.7292  2.2196
 1678SOL    HW216497   2.877   2.552   6.143 -0.0799 -0.5191 -1.5211
 1679SOL     OW16498   1.713   3.145   5.498 -0.4485  0.1775  0.2256
 1679SOL    HW116499   1.778   3.075   5.489 -0.9270 -0.2188 -0.1300
 1679SOL    HW216500   1.653   3.130   5.426 -0.7537  0.1540  0.4852
 1680SOL     OW16501   2.737   2.398   5.858  0.3493 -0.2742 -0.2906
 1680SOL    HW116502   2.792   2.443   5.793  0.8431 -1.5593 -0.7634
 1680SOL    HW216503   2.775   2.310   5.859 -1.0120 -0.8351  1.6183
 1681SOL     OW16504   4.303   1.194   6.024  0.2349 -0.2575 -0.6124
 1681SOL    HW116505   4.238   1.151   6.079  0.7225  2.7804  2.3301
 1681SOL    HW216506   4.376   1.136   6.045 -1.7824 -2.0962  1.4125
 1682SOL     OW16507   3.008   4.349   6.514  0.6582  0.1445  0.2780
 1682SOL    HW116508   3.073   4.281   6.536 -0.1211 -0.1653  1.6314
 1682SOL    HW216509   3.011   4.402   6.594 -0.0178  0.5427  0.0318
 1683SOL     OW16510   1.779   0.937   6.315  0.2880  0.0326 -0.5219
 1683SOL    HW116511   1.693   0.942   6.356  0.6121 -0.4805  0.2477
 1683SOL    HW216512   1.751   0.893   6.235 -0.9231 -1.4299  0.7093
 1684SOL     OW16513   1.235   1.587   5.680  0.6870 -0.4250 -0.3394
 1684SOL    HW116514   1.239   1.567   5.586  1.7709 -1.5722 -0.0449
 1684SOL    HW216515   1.145   1.563   5.701  0.6152  0.3867  0.2517
 1685SOL     OW16516   3.813   2.092   4.940 -0.4480  0.7021 -0.1010
 1685SOL    HW116517   3.848   2.010   4.905 -1.1407  0.5209 -0.3821
 1685SOL    HW216518   3.772   2.075   5.025  1.2998 -3.2383 -0.0424
 1686SOL     OW16519   2.457   0.900   7.573 -0.1875 -0.0355  0.1545
 1686SOL    HW116520   2.367   0.902   7.605  0.1690  0.4370  1.1395
 1686SOL    HW216521   2.504   0.902   7.657 -2.6191 -1.4600  1.5544
 1687SOL     OW16522   0.861   1.419   6.555 -0.2781  0.1565  0.2070
 1687SOL    HW116523   0.941   1.471   6.548 -0.4019 -0.2796 -4.3224
 1687SOL    HW216524   0.826   1.473   6.626 -3.6862 -2.0335  0.1928
 1688SOL     OW16525   0.760   4.403  10.554 -0.7254 -0.2976 -0.1507
 1688SOL    HW116526   0.769   4.308  10.559 -2.1809 -0.4984 -1.5040
 1688SOL    HW216527   0.850   4.428  10.574 -0.9198  0.2509  0.0576
 1689SOL     OW16528   3.951   3.636   9.581 -0.2150 -0.0926 -0.0488
 1689SOL    HW116529   3.990   3.724   9.580  0.1766 -0.2762 -0.8530
 1689SOL    HW216530   3.954   3.610   9.489 -0.3174  0.6624 -0.2695
 1690SOL     OW16531   1.514   0.093  11.408 -0.1177 -0.2650 -0.0778
 1690SOL    HW116532   1.568   0.138  11.472 -0.8332  1.3129 -0.5861
 1690SOL    HW216533   1.572   0.085  11.332 -1.1121  1.4356 -1.0343
 1691SOL     OW16534   2.921   0.291  16.132 -0.0740  0.0989  0.4280
 1691SOL    HW116535   2.863   0.268  16.060  1.0070 -1.5944  0.0849
 1691SOL    HW216536   2.960   0.371  16.095  1.5749 -1.2263 -0.7037
 1692SOL     OW16537   0.889   1.576   6.014  0.0481 -0.1890 -0.0707
 1692SOL    HW116538   0.857   1.581   5.924 -2.0413  1.8470  0.7700
 1692SOL    HW216539   0.921   1.486   6.021 -3.8680 -1.6742 -1.1167
 1693SOL     OW16540   4.564   3.118   4.438 -0.1400 -0.2108 -0.4321
 1693SOL    HW116541   4.574   3.158   4.524 -1.7186 -3.5356  1.2725
 1693SOL    HW216542   4.477   3.140   4.405  0.4910  0.9435 -1.3801
 1694SOL     OW16543   0.989   0.075   5.248 -0.5895 -0.2213 -0.4105
 1694SOL    HW116544   0.932   0.031   5.311 -0.8855  3.3311  1.8240
 1694SOL    HW216545   0.928   0.130   5.200  1.0042  2.9084  1.1659
 1695SOL     OW16546   4.066   0.453   2.373  0.9829 -0.0832  0.2795
 1695SOL    HW116547   4.050   0.367   2.334 -0.0554  0.2446 -0.0035
 1695SOL    HW216548   4.053   0.513   2.300 -0.3954  1.5277  1.8417
 1696SOL     OW16549   3.633   1.126   0.071 -0.8126 -0.4262 -0.0312
 1696SOL    HW116550   3.655   1.039   0.106  1.0048 -0.6499 -1.7699
 1696SOL    HW216551   3.553   1.143   0.120  0.3927  3.1720  0.6767
 1697SOL     OW16552   4.100   1.250   0.324 -0.1703 -0.6157 -0.1567
 1697SOL    HW116553   4.007   1.232   0.329 -1.1429  4.5117  0.9301
 1697SOL    HW216554   4.118   1.186   0.256 -3.8547 -3.3048  1.4350
 1698SOL     OW16555   0.843   4.014   8.436 -0.1240 -0.3391 -0.2877
 1698SOL    HW116556   0.885   4.088   8.391 -0.8698 -0.9681 -2.0226
 1698SOL    HW216557   0.914   3.975   8.487 -1.0278 -0.1275  1.1206
 1699SOL     OW16558   0.102   0.320  12.959 -0.8089  0.4941  0.1573
 1699SOL    HW116559   0.077   0.259  13.029  0.1813 -0.1083 -0.0033
 1699SOL    HW216560   0.190   0.340  12.990 -1.3004  2.8306 -0.0069
 1700SOL     OW16561   3.461   3.462   4.156  0.3827 -0.5374  0.3191
 1700SOL    HW116562   3.402   3.535   4.137  0.7559 -0.1414  0.6937
 1700SOL    HW216563   3.440   3.404   4.082  0.4821 -0.7780  0.4799
 1701SOL     OW16564   3.951   2.182  15.060 -0.0619 -0.2716 -0.2469
 1701SOL    HW116565   4.016   2.112  15.051 -0.6718 -0.8700 -0.0325
 1701SOL    HW216566   3.928   2.157  15.150 -0.4092 -2.1363 -0.8376
 1702SOL     OW16567   0.040   3.678   6.535  0.4447  0.2757 -0.0361
 1702SOL    HW116568   0.073   3.751   6.587 -2.0982  1.1583  0.3191
 1702SOL    HW216569   0.070   3.699   6.446 -0.8849 -0.3530 -0.6285
 1703SOL     OW16570   2.581   1.472  14.289  0.2479 -0.1249  0.5957
 1703SOL    HW116571   2.501   1.438  14.330 -0.9575  0.8914 -0.8882
 1703SOL    HW216572   2.645   1.413  14.327  1.3893 -0.9977 -2.7403
 1704SOL     OW16573   1.554   0.046   4.312 -0.0160  0.2243 -1.1324
 1704SOL    HW116574   1.551   4.692   4.362  1.0370  1.1717  0.4690
 1704SOL    HW216575   1.543   0.112   4.380 -1.8501 -1.5852  0.2943
 1705SOL     OW16576   2.657   0.192   9.937 -0.1780 -0.3804  0.3339
 1705SOL    HW116577   2.728   0.131   9.918  0.1306 -0.1213  0.6418
 1705SOL    HW216578   2.710   0.247   9.995 -0.6409 -0.6321  0.9905
 1706SOL     OW16579   2.955   0.776  10.022 -0.0965  0.1495  0.4451
 1706SOL    HW116580   3.046   0.773   9.993 -1.0358 -0.1240 -2.5049
 1706SOL    HW216581   2.900   0.750   9.948  0.3271 -1.7077  0.7835
 1707SOL     OW16582   4.305   0.430   3.685 -0.0037  0.8438  0.8349
 1707SOL    HW116583   4.249   0.503   3.712  0.3498  1.2750  0.4230
 1707SOL    HW216584   4.299   0.438   3.590 -0.4927 -0.0517  0.7958
 1708SOL     OW16585   4.556   3.000   4.741 -0.0829 -0.8137  0.4655
 1708SOL    HW116586   4.587   3.002   4.831 -0.9425  2.7612  0.6877
 1708SOL    HW216587   4.577   3.088   4.709 -0.3244 -1.6587 -2.0498
 1709SOL     OW16588   2.087   3.418   7.013 -0.0606  0.5129 -0.6325
 1709SOL    HW116589   2.140   3.495   6.992  0.8310 -0.0524 -0.4533
 1709SOL    HW216590   2.084   3.416   7.109  1.9568  0.3255 -0.5625
 1710SOL     OW16591   2.424   0.708   2.367 -0.1585 -0.1369  0.1839
 1710SOL    HW116592   2.345   0.693   2.418 -0.5078 -0.6515 -0.5010
 1710SOL    HW216593   2.397   0.784   2.314 -3.3852 -2.1053 -1.0030
 1711SOL     OW16594   2.856   0.519  12.051 -0.4586  0.2749  0.0236
 1711SOL    HW116595   2.777   0.470  12.032  0.1380 -0.6270 -0.1039
 1711SOL    HW216596   2.821   0.570  12.125 -3.6781 -1.6658 -0.2009
 1712SOL     OW16597   1.303   3.955   2.541  0.4090 -0.4783 -0.3503
 1712SOL    HW116598   1.380   3.931   2.490 -0.4405  0.3733 -2.0346
 1712SOL    HW216599   1.300   3.893   2.615  1.4156 -1.2311 -0.9528
 1713SOL     OW16600   1.268   0.354   1.454 -0.6968  0.1136  0.0774
 1713SOL    HW116601   1.250   0.306   1.534  0.5966  2.0530  1.5455
 1713SOL    HW216602   1.196   0.417   1.460 -1.1439 -0.3929 -0.0302
 1714SOL     OW16603   0.543   1.618   4.822 -0.4061 -0.1653  0.4467
 1714SOL    HW116604   0.519   1.547   4.880 -1.9985 -0.4594 -0.5661
 1714SOL    HW216605   0.577   1.570   4.746 -0.3581 -0.0860  0.4183
 1715SOL     OW16606   1.168   1.096   1.237  0.4958  0.1136 -0.3309
 1715SOL    HW116607   1.109   1.063   1.305  0.0499  0.2000 -0.6679
 1715SOL    HW216608   1.238   1.135   1.289  0.8418 -1.3515  0.2874
 1716SOL     OW16609   1.642   0.219   4.076  0.6483 -0.1862  0.1378
 1716SOL    HW116610   1.649   0.198   4.169 -0.1232 -1.9554 -0.2131
 1716SOL    HW216611   1.721   0.173   4.046 -0.2692 -2.0730  0.6073
 1717SOL     OW16612   2.964   1.111   8.498  0.4909 -0.0063  0.4700
 1717SOL    HW116613   2.980   1.021   8.526 -0.1739 -0.7069 -1.3737
 1717SOL    HW216614   2.926   1.086   8.413  0.4886 -0.8607  0.7270
 1718SOL     OW16615   1.099   2.761   5.673 -0.0254 -0.2276  0.0751
 1718SOL    HW116616   1.079   2.840   5.723 -0.7726 -0.2780 -0.1587
 1718SOL    HW216617   1.038   2.765   5.601  0.1337  0.3117 -0.0259
 1719SOL     OW16618   1.760   3.167   2.428 -0.1345 -0.0635  0.1290
 1719SOL    HW116619   1.710   3.110   2.371  0.1805  0.1421 -0.3607
 1719SOL    HW216620   1.721   3.160   2.515 -1.0850 -0.4566 -0.3342
 1720SOL     OW16621   0.040   0.149  15.372 -0.6413  0.2670  0.5178
 1720SOL    HW116622   4.684   0.142  15.419 -1.0827 -2.5152 -0.6997
 1720SOL    HW216623   0.047   0.245  15.376  1.8544  0.1150 -0.2985
 1721SOL     OW16624   1.429   3.063   8.860 -0.0272 -0.4582 -0.4017
 1721SOL    HW116625   1.522   3.073   8.839  0.1687 -1.7068 -0.0956
 1721SOL    HW216626   1.432   2.986   8.917  0.2000 -0.3109 -0.2124
 1722SOL     OW16627   3.724   0.500   3.310  0.1212 -0.5381  0.6070
 1722SOL    HW116628   3.788   0.438   3.345  2.1343  0.8371 -0.5611
 1722SOL    HW216629   3.769   0.585   3.319  2.4585 -1.5927 -1.0067
 1723SOL     OW16630   0.858   4.505  13.247  0.4222  0.1693  0.2144
 1723SOL    HW116631   0.830   4.535  13.160 -1.5836  1.9500  1.4672
 1723SOL    HW216632   0.847   4.586  13.298 -0.2651 -0.7013  1.4286
 1724SOL     OW16633   4.109   3.444   7.714 -0.0015 -0.1268 -0.2105
 1724SOL    HW116634   4.133   3.385   7.643  2.3929  0.5660  0.0383
 1724SOL    HW216635   4.071   3.376   7.771 -1.7638  0.5468 -0.5608
 1725SOL     OW16636   0.227   1.564  11.405 -0.1603 -0.0909  0.3236
 1725SOL    HW116637   0.194   1.540  11.318 -1.1201 -1.0511  0.9437
 1725SOL    HW216638   0.215   1.659  11.406  1.4641  0.0975  2.3716
 1726SOL     OW16639   1.671   3.448   6.076 -0.4595  0.5717  0.2883
 1726SOL    HW116640   1.610   3.381   6.106  0.2410 -0.6521 -1.0103
 1726SOL    HW216641   1.641   3.467   5.987 -0.5763  0.2239  0.2540
 1727SOL     OW16642   1.004   2.627   2.965 -0.3560 -0.1919 -0.2139
 1727SOL    HW116643   1.014   2.593   2.876 -0.6197  1.1025 -0.7413
 1727SOL    HW216644   0.974   2.715   2.941  0.9412 -0.4634 -2.8361
 1728SOL     OW16645   0.421   3.760   9.674  0.2045 -0.2950  0.0132
 1728SOL    HW116646   0.452   3.830   9.731  1.8377 -1.3488  0.4100
 1728SOL    HW216647   0.329   3.784   9.660  0.1195 -1.4533 -1.4714
 1729SOL     OW16648   2.534   0.219   8.366 -0.6350 -0.2706  0.1424
 1729SOL    HW116649   2.559   0.129   8.350  0.6830  0.1442 -0.0935
 1729SOL    HW216650   2.503   0.250   8.280  3.6023  1.2779 -0.8442
 1730SOL     OW16651   2.150   0.305  12.436  0.2669  0.0076  0.0214
 1730SOL    HW116652   2.183   0.258  12.513  0.8788  1.3058  0.5573
 1730SOL    HW216653   2.060   0.318  12.465 -0.8816 -2.4780 -2.4580
 1731SOL     OW16654   0.418   2.681  17.555 -0.1802  0.5037  0.5318
 1731SOL    HW116655   0.427   2.589  17.579  1.4620  1.0093  1.8187
 1731SOL    HW216656   0.323   2.686  17.571 -0.5301 -2.1163 -0.6785
 1732SOL     OW16657   0.538   2.861   8.843  0.1400  0.5353 -0.3959
 1732SOL    HW116658   0.576   2.792   8.788 -0.5671 -0.0173 -0.2093
 1732SOL    HW216659   0.592   2.858   8.921  0.9915 -2.0307 -1.0880
 1733SOL     OW16660   3.432   2.888  13.488  0.3743  0.2674 -0.1059
 1733SOL    HW116661   3.479   2.856  13.565 -0.4311 -0.2674  0.1689
 1733SOL    HW216662   3.343   2.901  13.521  0.4315 -1.8548  0.8757
 1734SOL     OW16663   1.579   0.078   0.704  0.5883  0.3983 -0.6146
 1734SOL    HW116664   1.634   0.103   0.778 -2.4651  1.0359  1.4416
 1734SOL    HW216665   1.604   0.146   0.642  1.6962  0.4736 -0.0730
 1735SOL     OW16666   0.198   3.523   6.706  0.2905 -0.0488  0.4237
 1735SOL    HW116667   0.269   3.479   6.659 -0.1761 -2.7258  2.1868
 1735SOL    HW216668   0.139   3.549   6.635  0.7192  2.1518  0.8736
 1736SOL     OW16669   0.430   4.353   6.128 -0.0536  0.2402  0.2356
 1736SOL    HW116670   0.356   4.371   6.186 -0.3272 -1.7573  0.4984
 1736SOL    HW216671   0.495   4.349   6.197 -1.8861  1.4952  2.0612
 1737SOL     OW16672   2.355   3.507  14.330 -0.2425  0.2434 -0.0571
 1737SOL    HW116673   2.276   3.560  14.323 -2.0469 -2.2979  1.1554
 1737SOL    HW216674   2.316   3.425  14.298  1.4996 -0.7794  0.4350
 1738SOL     OW16675   4.348   3.276   5.769 -0.4399 -0.7588  0.2462
 1738SOL    HW116676   4.357   3.297   5.676 -1.8701 -0.6722  0.1369
 1738SOL    HW216677   4.259   3.244   5.782 -0.8819  1.2155  2.0088
 1739SOL     OW16678   2.010   2.159   5.487 -0.3853 -0.0353 -0.0537
 1739SOL    HW116679   2.037   2.251   5.494 -2.3564  0.4903  0.5837
 1739SOL    HW216680   1.915   2.157   5.486 -0.4163  0.1278  2.2905
 1740SOL     OW16681   2.835   1.791  15.072 -0.3371  0.1863 -0.0397
 1740SOL    HW116682   2.749   1.801  15.032  0.0658 -0.2832 -1.0380
 1740SOL    HW216683   2.857   1.868  15.124 -0.4570  1.2536 -1.5598
 1741SOL     OW16684   1.726   3.397  16.970  0.1117  0.3859  0.5722
 1741SOL    HW116685   1.729   3.303  16.982 -0.2658  0.2261 -0.5506
 1741SOL    HW216686   1.815   3.432  16.976  1.1919 -2.4024  0.4725
 1742SOL     OW16687   1.679   1.523   3.412 -0.6984 -0.5136 -0.2495
 1742SOL    HW116688   1.751   1.541   3.472  0.0266 -1.9332 -0.7084
 1742SOL    HW216689   1.692   1.429   3.400  0.7186 -0.6428  2.5080
 1743SOL     OW16690   2.264   0.042   2.716 -0.3883  0.2250 -0.0064
 1743SOL    HW116691   2.337   0.049   2.654 -0.2045 -0.1493  0.1689
 1743SOL    HW216692   2.300   0.078   2.796  3.3262 -1.2819 -0.9962
 1744SOL     OW16693   1.051   3.168   8.564  0.0471  0.2293 -0.3271
 1744SOL    HW116694   1.048   3.196   8.656  1.9568 -0.1721 -0.1352
 1744SOL    HW216695   0.969   3.196   8.524 -0.6814 -0.8541  0.4268
 1745SOL     OW16696   3.470   2.335   0.010 -0.2375 -0.2947 -0.5250
 1745SOL    HW116697   3.509   2.248   0.023  1.3540  0.6700  1.2369
 1745SOL    HW216698   3.376   2.321   0.017 -0.8459  2.9235 -2.7442
 1746SOL     OW16699   1.527   2.423  12.070  0.0662 -0.1080  0.3862
 1746SOL    HW116700   1.484   2.508  12.071  0.7422  0.2201  2.0529
 1746SOL    HW216701   1.462   2.356  12.092  0.7499 -0.4319  1.3973
 1747SOL     OW16702   2.275   0.894   3.123  0.1338  0.3275  0.2341
 1747SOL    HW116703   2.303   0.835   3.193 -1.0960  0.4775  0.8587
 1747SOL    HW216704   2.341   0.961   3.138  0.0444  0.0740  1.7337
 1748SOL     OW16705   0.743   0.569   1.369  0.1089 -0.3143 -0.3935
 1748SOL    HW116706   0.687   0.558   1.292 -0.0205  1.5010 -0.5558
 1748SOL    HW216707   0.685   0.525   1.431  0.8900  0.8323  1.1341
 1749SOL     OW16708   1.774   4.432   3.837 -0.0204 -0.5846  0.0174
 1749SOL    HW116709   1.861   4.438   3.875  0.8682  0.8612 -2.2488
 1749SOL    HW216710   1.784   4.369   3.766 -0.4510 -0.1262 -0.4489
 1750SOL     OW16711   0.323   1.586   9.008  0.0996 -0.1620  0.0893
 1750SOL    HW116712   0.387   1.648   8.973 -1.0309  0.5357 -0.7639
 1750SOL    HW216713   0.291   1.631   9.086 -4.6254 -2.9625 -0.1765
 1751SOL     OW16714   0.838   3.239   2.383  0.3788  0.2867  0.1096
 1751SOL    HW116715   0.839   3.295   2.305 -2.8247  1.4201  0.8950
 1751SOL    HW216716   0.922   3.258   2.425  1.1778  0.4194 -1.5359
 1752SOL     OW16717   3.887   4.174   4.190 -0.2012 -0.6631 -0.2365
 1752SOL    HW116718   3.904   4.238   4.259 -4.1730 -1.4130  1.4783
 1752SOL    HW216719   3.801   4.144   4.222 -0.4843  0.3469 -0.0474
 1753SOL     OW16720   0.371   4.360   7.562 -0.5084 -0.2404 -0.0689
 1753SOL    HW116721   0.327   4.276   7.547 -1.0101 -0.0953  0.5609
 1753SOL    HW216722   0.437   4.333   7.626 -2.1265  1.6424  2.4012
 1754SOL     OW16723   2.863   3.988   0.143  0.4447 -0.2092  0.0478
 1754SOL    HW116724   2.868   4.068   0.196  3.8180  0.0378 -0.6414
 1754SOL    HW216725   2.954   3.974   0.119  0.9924  0.1077  1.9136
 1755SOL     OW16726   4.573   4.582   4.416 -0.7274  0.1492  0.4884
 1755SOL    HW116727   4.624   4.662   4.430 -1.3078 -0.2924  5.2282
 1755SOL    HW216728   4.484   4.613   4.431 -1.6495 -2.2878 -0.0031
 1756SOL     OW16729   4.171   1.594   8.849 -0.0287  0.0539  0.2862
 1756SOL    HW116730   4.215   1.547   8.920  1.6154  0.5347 -0.4058
 1756SOL    HW216731   4.095   1.537   8.863 -1.6568  1.2332 -3.5813
 1757SOL     OW16732   2.913   4.379   5.179  0.4067  0.1305 -0.2840
 1757SOL    HW116733   2.996   4.361   5.223  0.0678  0.6493  0.5651
 1757SOL    HW216734   2.936   4.336   5.097  2.0441 -1.0337  0.8058
 1758SOL     OW16735   2.555   1.931   3.044  0.0821 -0.3307  0.0224
 1758SOL    HW116736   2.517   1.846   3.067 -0.8476 -0.0782 -0.5849
 1758SOL    HW216737   2.615   1.900   2.977 -0.0587 -2.0970  0.7055
 1759SOL     OW16738   2.649   4.463   6.422  0.6537  0.0841  0.4724
 1759SOL    HW116739   2.628   4.403   6.351 -0.4728  1.4077 -0.3077
 1759SOL    HW216740   2.577   4.525   6.432  0.9839  0.0750  3.0553
 1760SOL     OW16741   3.146   0.442  12.696  0.1511  0.1642  0.1651
 1760SOL    HW116742   3.188   0.373  12.748 -1.2575 -0.6517  0.2097
 1760SOL    HW216743   3.187   0.520  12.733 -0.3609 -0.3414  1.7948
 1761SOL     OW16744   1.592   1.469   4.085 -0.3870  0.0721  0.0780
 1761SOL    HW116745   1.545   1.541   4.127  1.8507  0.5985  1.6703
 1761SOL    HW216746   1.614   1.505   3.999  0.7320  0.4819  0.5355
 1762SOL     OW16747   3.197   4.522   3.517  0.5502  0.0346  0.0358
 1762SOL    HW116748   3.244   4.580   3.457 -3.0676  3.6618  0.7051
 1762SOL    HW216749   3.141   4.466   3.464 -1.1108  2.6474 -0.9663
 1763SOL     OW16750   1.776   4.448   3.256 -0.1126  0.4031  0.2407
 1763SOL    HW116751   1.690   4.434   3.216  0.2840  1.7494 -1.0665
 1763SOL    HW216752   1.741   4.442   3.345  0.1724  0.6867  0.3722
 1764SOL     OW16753   3.211   1.609  12.365 -0.2868 -0.1083 -0.0037
 1764SOL    HW116754   3.277   1.546  12.337  1.4416  0.5477  2.6376
 1764SOL    HW216755   3.252   1.685  12.323 -0.0151  0.1287  0.6913
 1765SOL     OW16756   3.008   2.351   4.765 -0.1549  0.0439 -0.2166
 1765SOL    HW116757   3.009   2.447   4.760 -1.3176  0.0788  0.2053
 1765SOL    HW216758   2.996   2.348   4.860  0.1367  0.7224 -0.1560
 1766SOL     OW16759   2.204   2.930  17.226 -0.6284 -0.4321 -0.2873
 1766SOL    HW116760   2.193   2.911  17.319 -2.4297  0.6973 -0.2831
 1766SOL    HW216761   2.255   2.854  17.197  1.0557  1.6109 -2.7160
 1767SOL     OW16762   1.103   0.874   1.054 -0.0899  0.2851  0.4299
 1767SOL    HW116763   1.134   0.955   1.095 -0.5651  0.3805  0.6038
 1767SOL    HW216764   1.010   0.895   1.054 -0.7865 -2.8199 -0.4885
 1768SOL     OW16765   2.022   2.316   9.054  0.0349 -0.5736  0.3556
 1768SOL    HW116766   1.987   2.228   9.064 -0.2802 -0.5360 -0.4503
 1768SOL    HW216767   2.048   2.307   8.963 -0.7283 -1.4037  0.2233
 1769SOL     OW16768   4.358   4.042   4.125  0.4176 -0.2392  0.1936
 1769SOL    HW116769   4.332   4.034   4.033  2.5604 -2.9341 -0.1893
 1769SOL    HW216770   4.438   3.988   4.126 -0.1843 -1.0497  2.5423
 1770SOL     OW16771   3.822   3.072  16.741  0.1454  0.3417 -0.4305
 1770SOL    HW116772   3.821   3.149  16.798  0.9582  0.2184 -0.2476
 1770SOL    HW216773   3.751   3.021  16.780 -0.5186  0.2025 -1.8136
 1771SOL     OW16774   1.002   2.838   7.557  0.3750  0.4400 -0.1992
 1771SOL    HW116775   0.958   2.820   7.474  2.1412 -0.5678 -0.9188
 1771SOL    HW216776   1.077   2.778   7.562 -0.1987 -0.2583 -0.0367
 1772SOL     OW16777   1.131   4.606  12.466  0.3625 -0.1699 -0.3413
 1772SOL    HW116778   1.045   4.572  12.442 -0.2841 -0.4083  2.3807
 1772SOL    HW216779   1.124   4.700  12.450  0.0409  0.1973  2.0343
 1773SOL     OW16780   2.601   3.351   3.015 -0.5216 -0.0060 -0.0545
 1773SOL    HW116781   2.584   3.330   2.923  1.5389 -3.0941  0.2711
 1773SOL    HW216782   2.691   3.317   3.014  0.4402  2.5359  0.1368
 1774SOL     OW16783   2.848   0.523  10.880 -0.6212  0.3153  0.6535
 1774SOL    HW116784   2.897   0.493  10.956 -1.2913  0.0940  0.9866
 1774SOL    HW216785   2.869   0.616  10.888  0.6737  0.0487  0.3556
 1775SOL     OW16786   0.233   1.833   4.101  0.3599  0.1624 -0.4471
 1775SOL    HW116787   0.297   1.903   4.095 -0.7991  1.1913 -0.7170
 1775SOL    HW216788   0.283   1.756   4.072 -1.3804 -1.3460  0.5988
 1776SOL     OW16789   3.692   0.874   0.183 -0.0807 -0.1058 -0.2135
 1776SOL    HW116790   3.624   0.838   0.239  1.0616 -1.5987  0.1965
 1776SOL    HW216791   3.707   0.809   0.115 -1.3382 -1.5884  0.9394
 1777SOL     OW16792   0.527   0.976   8.379 -0.0281 -0.9032 -0.0524
 1777SOL    HW116793   0.509   0.977   8.285 -2.1870 -3.0904  0.3456
 1777SOL    HW216794   0.459   1.036   8.409 -0.3304 -1.8953  1.2003
 1778SOL     OW16795   3.659   4.062   2.366  0.3315  0.7176 -0.5190
 1778SOL    HW116796   3.749   4.063   2.333  0.2258 -0.4636 -0.8346
 1778SOL    HW216797   3.651   3.976   2.406 -0.9791  1.6813  1.2931
 1779SOL     OW16798   2.338   4.094   6.466  0.5713 -0.1669 -0.3355
 1779SOL    HW116799   2.370   4.048   6.543  0.5069  1.3582  0.6074
 1779SOL    HW216800   2.293   4.170   6.505  1.7212  0.7102 -0.7138
 1780SOL     OW16801   4.255   1.108   9.592 -0.0742 -0.3188 -0.0201
 1780SOL    HW116802   4.170   1.115   9.635  0.3791  2.3787  0.4539
 1780SOL    HW216803   4.311   1.170   9.639  0.6914  0.4355 -1.9417
 1781SOL     OW16804   0.534   2.928  16.660 -0.7357 -0.0124  1.2270
 1781SOL    HW116805   0.548   2.898  16.750  2.7238 -0.2444  0.6002
 1781SOL    HW216806   0.451   2.977  16.661 -1.2080 -0.8127  0.9239
 1782SOL     OW16807   3.286   0.415   3.558  0.2726 -0.6382  0.1636
 1782SOL    HW116808   3.355   0.465   3.516 -0.3494 -0.4796 -0.6721
 1782SOL    HW216809   3.324   0.329   3.544  0.4081 -0.3611 -1.1704
 1783SOL     OW16810   3.862   4.270  15.778  0.0096 -0.0350  0.2669
 1783SOL    HW116811   3.948   4.287  15.816  1.6730 -2.6333 -2.3521
 1783SOL    HW216812   3.884   4.268  15.685  0.7949  2.5194  0.3935
 1784SOL     OW16813   4.306   1.433  16.095  0.4248 -0.2654  0.2867
 1784SOL    HW116814   4.390   1.425  16.050  0.6370 -2.0080  0.9916
 1784SOL    HW216815   4.250   1.451  16.020  1.6726  1.3407 -0.2677
 1785SOL     OW16816   3.589   2.593   7.815 -0.3592  0.4465  0.0624
 1785SOL    HW116817   3.654   2.523   7.813 -1.1575 -0.3510  1.6490
 1785SOL    HW216818   3.521   2.545   7.863  2.2293 -1.6676  1.6178
 1786SOL     OW16819   2.537   3.692   1.598 -0.0168 -0.4913  0.2842
 1786SOL    HW116820   2.578   3.771   1.632 -0.9066 -0.1338  0.5203
 1786SOL    HW216821   2.599   3.623   1.621 -2.6123 -3.1036 -0.4827
 1787SOL     OW16822   4.474   1.360   3.746 -0.4918  0.1623 -0.3769
 1787SOL    HW116823   4.552   1.382   3.798 -1.2387 -2.0078  1.7138
 1787SOL    HW216824   4.447   1.448   3.720 -0.9938  0.8905  2.5951
 1788SOL     OW16825   3.161   2.977   3.361 -0.5933  0.7806 -0.0902
 1788SOL    HW116826   3.082   3.018   3.397 -0.8671 -0.4909  0.7329
 1788SOL    HW216827   3.152   3.003   3.269  0.7501 -1.7297 -0.9076
 1789SOL     OW16828   1.967   3.393   0.217  0.3727  0.1826 -0.1254
 1789SOL    HW116829   2.053   3.368   0.249  0.2734  1.1993  0.9169
 1789SOL    HW216830   1.986   3.428   0.130 -0.4154  0.0574 -0.3557
 1790SOL     OW16831   0.392   0.062  10.276 -0.2178 -1.0626 -0.4414
 1790SOL    HW116832   0.304   0.059  10.240 -1.0623 -0.4729  1.5746
 1790SOL    HW216833   0.373   0.023  10.361  1.7148 -1.5395 -0.2305
 1791SOL     OW16834   1.076   3.843  10.894  0.3136 -0.0253 -0.1916
 1791SOL    HW116835   1.134   3.917  10.875  0.9469  0.1336  2.3495
 1791SOL    HW216836   1.141   3.775  10.880  0.7653  0.4906 -0.6274
 1792SOL     OW16837   3.208   4.032   4.518  0.1925 -0.3510 -0.0164
 1792SOL    HW116838   3.124   4.048   4.561  0.7729  1.7508  0.3250
 1792SOL    HW216839   3.269   4.014   4.589  0.9475  2.2103 -0.0245
 1793SOL     OW16840   0.819   1.605  12.120 -0.2413 -0.6431  0.3782
 1793SOL    HW116841   0.848   1.522  12.082  1.0464  0.4570 -1.0346
 1793SOL    HW216842   0.731   1.576  12.145  0.1845 -0.6784  1.8552
 1794SOL     OW16843   3.138   1.022  10.405 -0.6892  0.8352  0.5142
 1794SOL    HW116844   3.090   1.026  10.323  0.3562 -0.6447 -0.1849
 1794SOL    HW216845   3.216   1.076  10.394  1.2843 -1.9752  0.5763
 1795SOL     OW16846   1.667   3.013  10.579  0.6403 -0.0212  0.0552
 1795SOL    HW116847   1.656   2.939  10.638  2.0584 -0.3038 -0.0305
 1795SOL    HW216848   1.648   3.080  10.644 -1.2032 -0.4252 -0.0640
 1796SOL     OW16849   4.060   2.495  14.230 -0.4443  0.8119  0.3718
 1796SOL    HW116850   4.075   2.401  14.231 -0.1606  0.8745  1.3547
 1796SOL    HW216851   3.989   2.511  14.167  0.1790 -0.1440 -0.5764
 1797SOL     OW16852   1.918   4.299   8.976 -0.7769  0.7454  0.1348
 1797SOL    HW116853   1.860   4.318   8.903  1.2948  0.7012 -1.5044
 1797SOL    HW216854   1.883   4.211   8.992  1.6220  0.0372  1.5448
 1798SOL     OW16855   3.439   2.279   7.624  0.2867  0.2244 -0.1377
 1798SOL    HW116856   3.513   2.309   7.571  1.6740 -0.2523  1.5245
 1798SOL    HW216857   3.474   2.193   7.646 -1.0884 -0.1210  0.6998
 1799SOL     OW16858   4.118   1.923   1.695 -0.7415  0.7570  0.4048
 1799SOL    HW116859   4.101   2.017   1.703 -1.7485  0.4001  2.6135
 1799SOL    HW216860   4.141   1.906   1.787 -0.5169  1.3820  0.4608
 1800SOL     OW16861   0.745   1.542   9.570 -0.3898 -0.7767  0.5062
 1800SOL    HW116862   0.741   1.479   9.642  5.0844 -0.0415  1.4419
 1800SOL    HW216863   0.816   1.499   9.523  0.1673  1.3717 -0.5946
 1801SOL     OW16864   1.111   3.617   9.023  0.3436 -0.3226  0.6143
 1801SOL    HW116865   1.154   3.603   9.107  0.3660  1.8535  0.9669
 1801SOL    HW216866   1.169   3.676   8.974 -0.9845  2.0263  1.8879
 1802SOL     OW16867   1.449   3.819   5.699  0.7451 -0.3447 -0.2196
 1802SOL    HW116868   1.493   3.754   5.644  1.9611  0.8624 -0.6745
 1802SOL    HW216869   1.362   3.780   5.691  0.5103  0.4098 -1.2894
 1803SOL     OW16870   1.559   3.348  12.015  0.2979  0.0783  0.1664
 1803SOL    HW116871   1.552   3.317  11.925 -0.2432  0.4954  0.0705
 1803SOL    HW216872   1.625   3.418  12.016 -0.7726  1.0603  2.4470
 1804SOL     OW16873   3.856   2.962  12.338  0.9921  0.0700  0.2029
 1804SOL    HW116874   3.940   3.003  12.316  0.6320  2.1465  2.8499
 1804SOL    HW216875   3.793   3.032  12.323  0.1696 -0.2789  1.9964
 1805SOL     OW16876   4.642   3.701   9.501  0.2898  0.2060 -0.2041
 1805SOL    HW116877   4.588   3.668   9.573 -0.3040  0.9526 -0.3130
 1805SOL    HW216878   4.620   3.793   9.489 -2.2118 -0.2894  0.5994
 1806SOL     OW16879   3.191   3.894   9.851  0.1107  0.7094  0.6133
 1806SOL    HW116880   3.163   3.851   9.932 -1.5494 -0.7423 -0.7208
 1806SOL    HW216881   3.214   3.980   9.886  0.0245  0.7699  0.5209
 1807SOL     OW16882   3.190   2.069  14.837 -0.0988 -0.1015 -0.0472
 1807SOL    HW116883   3.121   2.005  14.824 -0.4956  0.5721 -1.2617
 1807SOL    HW216884   3.268   2.036  14.791 -0.3444  0.8376 -1.1319
 1808SOL     OW16885   2.961   4.466   3.850  0.6075 -0.5608  0.0846
 1808SOL    HW116886   3.053   4.489   3.864  1.2933 -2.2276 -1.5796
 1808SOL    HW216887   2.949   4.503   3.763 -1.0553 -1.1640  0.0648
 1809SOL     OW16888   2.374   3.306  10.514  0.1128  0.6551  0.0409
 1809SOL    HW116889   2.307   3.359  10.469 -0.9620 -2.2067 -1.6950
 1809SOL    HW216890   2.381   3.337  10.604  0.2591  1.5253 -0.2654
 1810SOL     OW16891   4.238   4.137   2.853 -0.7136 -0.0287  0.2624
 1810SOL    HW116892   4.204   4.158   2.940 -0.3677 -1.5009  0.7524
 1810SOL    HW216893   4.234   4.042   2.851  1.9310 -0.1560  1.4891
 1811SOL     OW16894   1.687   2.620   4.385  0.3690 -0.0511 -0.4092
 1811SOL    HW116895   1.608   2.567   4.375  0.4595 -0.1175 -0.7752
 1811SOL    HW216896   1.729   2.589   4.304  2.7256 -2.4918  1.7510
 1812SOL     OW16897   2.043   1.274   7.985  0.0896 -0.2536  0.5500
 1812SOL    HW116898   2.130   1.265   7.948  0.0445  2.2114 -0.2112
 1812SOL    HW216899   1.988   1.293   7.909  2.4057 -2.1698 -1.5800
 1813SOL     OW16900   0.479   2.032   4.395  0.2883  0.1467 -0.4309
 1813SOL    HW116901   0.485   2.050   4.489  0.9250 -3.1662  0.1641
 1813SOL    HW216902   0.438   1.945   4.401  0.2108  0.2114 -0.0101
 1814SOL     OW16903   3.239   4.326   4.743 -0.1073  0.4112  0.3719
 1814SOL    HW116904   3.271   4.344   4.654  0.5877 -1.4257  0.2574
 1814SOL    HW216905   3.247   4.231   4.746  2.8342  0.5972 -1.5959
 1815SOL     OW16906   1.215   1.035   6.421 -0.5945  0.5543  0.2780
 1815SOL    HW116907   1.226   1.026   6.326 -0.4773 -3.0496  0.6343
 1815SOL    HW216908   1.283   1.101   6.434  1.1210 -1.4028  1.2885
 1816SOL     OW16909   0.364   1.690   5.095 -0.6924  0.3627  0.1893
 1816SOL    HW116910   0.305   1.638   5.042 -0.1598  0.2039 -0.2497
 1816SOL    HW216911   0.354   1.781   5.068  0.3702  1.0951  2.2034
 1817SOL     OW16912   1.628   0.117   5.100 -0.2210 -0.4825  0.2377
 1817SOL    HW116913   1.590   0.202   5.075  1.2964  0.0697 -0.1832
 1817SOL    HW216914   1.685   0.117   5.023  1.0931 -3.8530  1.2403
 1818SOL     OW16915   3.166   3.361   6.394 -0.1947  0.2090 -0.3157
 1818SOL    HW116916   3.135   3.423   6.460  2.2114  0.7572  0.2939
 1818SOL    HW216917   3.209   3.430   6.344  1.0448 -1.9525 -2.2675
 1819SOL     OW16918   1.865   2.921   1.561 -0.3875 -0.0327 -0.1355
 1819SOL    HW116919   1.935   2.961   1.510 -0.0784  1.9461  1.8415
 1819SOL    HW216920   1.912   2.839   1.578  1.3846  1.0429  0.0657
 1820SOL     OW16921   4.703   1.218   8.271 -0.1746 -0.1673 -0.2405
 1820SOL    HW116922   4.621   1.242   8.229  0.9916  2.5455 -1.0007
 1820SOL    HW216923   4.704   1.123   8.280 -0.2928 -0.0844  0.7140
 1821SOL     OW16924   2.404   1.251   5.835  0.0585 -0.2318 -0.1540
 1821SOL    HW116925   2.359   1.202   5.765  0.2765 -1.9609  0.9120
 1821SOL    HW216926   2.331   1.284   5.887  1.0501 -1.1404  1.7968
 1822SOL     OW16927   4.505   2.808   9.790  0.7900 -0.0677 -0.1902
 1822SOL    HW116928   4.477   2.774   9.876 -3.1911  1.4290 -0.9279
 1822SOL    HW216929   4.426   2.850   9.758 -0.3203 -2.1617 -0.2465
 1823SOL     OW16930   4.282   1.250   4.243 -0.0667  0.2588  0.0796
 1823SOL    HW116931   4.312   1.334   4.207 -1.3075  0.8089  0.3344
 1823SOL    HW216932   4.265   1.197   4.166 -1.3229 -0.1294  0.6348
 1824SOL     OW16933   3.413   2.487   0.609  0.0661  0.3726 -0.2388
 1824SOL    HW116934   3.392   2.399   0.579 -0.1664  0.0169  0.9534
 1824SOL    HW216935   3.500   2.464   0.642 -0.2687  0.2156  0.5378
 1825SOL     OW16936   1.001   3.820   5.571 -0.2097 -0.2006  0.4558
 1825SOL    HW116937   0.984   3.862   5.487  0.4608 -3.1686 -1.2025
 1825SOL    HW216938   0.976   3.734   5.537 -0.2626  1.0545 -2.7013
 1826SOL     OW16939   4.063   1.666   5.410  0.1659 -0.7283  0.2609
 1826SOL    HW116940   4.004   1.594   5.432 -1.1920  1.2238  2.8991
 1826SOL    HW216941   4.037   1.722   5.483 -2.0374 -0.1099 -1.0055
 1827SOL     OW16942   1.064   0.947   1.520  0.1919 -0.4896 -0.5878
 1827SOL    HW116943   1.155   0.951   1.549  0.2350 -2.6201 -0.4022
 1827SOL    HW216944   1.064   0.874   1.457 -0.0445 -0.3524 -0.7497
 1828SOL     OW16945   1.832   2.814   2.852  0.3272  0.3438  0.0047
 1828SOL    HW116946   1.899   2.775   2.909  0.3303  1.5885  0.8642
 1828SOL    HW216947   1.846   2.758   2.776  2.3740 -0.5028  1.0117
 1829SOL     OW16948   1.843   2.236   6.322 -0.0711  0.3916 -0.1265
 1829SOL    HW116949   1.857   2.146   6.294 -2.3565  0.3833 -1.2646
 1829SOL    HW216950   1.918   2.271   6.274 -1.0068  0.2369 -1.6853
 1830SOL     OW16951   1.404   3.861   3.910  0.0309 -0.1495  0.3500
 1830SOL    HW116952   1.429   3.783   3.960 -0.8080  0.0361  1.0516
 1830SOL    HW216953   1.484   3.914   3.907 -0.4925  0.5689 -0.8786
 1831SOL     OW16954   0.218   3.244   3.222  0.1145  0.2019 -0.5461
 1831SOL    HW116955   0.256   3.225   3.136  0.6390 -0.4212 -0.1715
 1831SOL    HW216956   0.150   3.308   3.202 -0.2608  0.0999  0.4118
 1832SOL     OW16957   4.060   0.177   4.444 -0.4325 -0.4466 -0.0267
 1832SOL    HW116958   4.048   0.242   4.513 -1.5340 -0.0548 -0.5935
 1832SOL    HW216959   3.985   0.209   4.395  0.7612 -0.9900 -2.2147
 1833SOL     OW16960   3.132   1.092   3.828  0.0394 -0.3998 -0.3233
 1833SOL    HW116961   3.201   1.131   3.773  0.4363 -1.6860 -0.7286
 1833SOL    HW216962   3.054   1.139   3.798 -0.4174 -1.1415 -0.2854
 1834SOL     OW16963   1.809   3.973  11.295 -0.0076  0.1846 -0.0974
 1834SOL    HW116964   1.801   3.900  11.233 -1.6886  2.0080 -2.0549
 1834SOL    HW216965   1.719   3.999  11.317  0.3072  1.1039  0.1020
 1835SOL     OW16966   2.254   1.807   6.885  0.5749 -0.0984  0.2025
 1835SOL    HW116967   2.279   1.835   6.797  0.5857  1.0876  0.5809
 1835SOL    HW216968   2.329   1.830   6.941  0.8266  0.0477 -0.2005
 1836SOL     OW16969   2.856   3.837   2.808 -0.2152 -0.5171  0.1435
 1836SOL    HW116970   2.793   3.766   2.821 -1.8117  0.6597 -1.1214
 1836SOL    HW216971   2.808   3.913   2.839 -0.2840 -0.1961 -0.7412
 1837SOL     OW16972   4.095   3.567   3.321  0.4842 -0.0131  0.2980
 1837SOL    HW116973   4.167   3.549   3.382 -0.7120  2.2256  2.3905
 1837SOL    HW216974   4.107   3.504   3.250 -2.2400 -0.2327  0.0183
 1838SOL     OW16975   0.735   2.702   4.031 -0.3448 -0.4346 -0.0966
 1838SOL    HW116976   0.738   2.654   4.114  0.5262 -2.2943 -1.1881
 1838SOL    HW216977   0.752   2.631   3.968  0.2871  0.3754 -0.8327
 1839SOL     OW16978   2.827   0.594   7.110  0.0304  0.7310  0.1098
 1839SOL    HW116979   2.812   0.621   7.200 -2.7574  1.8030 -0.6567
 1839SOL    HW216980   2.744   0.552   7.086  0.4233 -0.0880  0.2128
 1840SOL     OW16981   3.568   2.843   8.470 -0.3128  0.0454 -0.2045
 1840SOL    HW116982   3.620   2.877   8.398  0.5952  0.6760  0.7453
 1840SOL    HW216983   3.575   2.914   8.534  0.3696  0.0959 -0.3317
 1841SOL     OW16984   1.381   3.259  11.558 -0.2465 -0.1257 -0.5111
 1841SOL    HW116985   1.347   3.314  11.487 -2.2987  1.5126  1.7339
 1841SOL    HW216986   1.464   3.231  11.520 -0.4125  0.1212 -1.0528
 1842SOL     OW16987   2.272   0.775   3.424  0.4216 -0.3961  0.5582
 1842SOL    HW116988   2.305   0.690   3.398  0.5450 -0.0933 -0.2742
 1842SOL    HW216989   2.355   0.820   3.436  1.4752 -1.9262 -1.0657
 1843SOL     OW16990   1.783   1.737   1.151 -0.0947  0.2988  0.4524
 1843SOL    HW116991   1.741   1.668   1.099 -0.9223  0.7351  0.5572
 1843SOL    HW216992   1.726   1.754   1.226 -0.0125 -0.9159  0.7997
 1844SOL     OW16993   1.168   3.156   8.864 -0.1080 -0.4414 -0.3310
 1844SOL    HW116994   1.248   3.113   8.894  1.0302  1.3267 -0.8267
 1844SOL    HW216995   1.198   3.240   8.829  1.7147 -0.3276  1.4786
 1845SOL     OW16996   0.838   4.605   2.558  0.2005 -1.0434 -0.3714
 1845SOL    HW116997   0.743   4.593   2.549 -0.3416  1.3682  2.1585
 1845SOL    HW216998   0.868   4.613   2.468 -2.0790  0.1413 -1.0290
 1846SOL     OW16999   3.205   1.957   7.845  0.6420 -0.1006 -0.3779
 1846SOL    HW117000   3.267   2.013   7.799  0.2514 -0.5137 -1.4256
 1846SOL    HW217001   3.236   1.964   7.935  2.2660  0.8607 -1.0153
 1847SOL     OW17002   1.828   1.349   3.825  0.1079  0.0649 -0.3962
 1847SOL    HW117003   1.826   1.316   3.915  0.7252 -0.2508 -0.4949
 1847SOL    HW217004   1.834   1.262   3.786 -1.5118 -0.0141 -0.4416
 1848SOL     OW17005   1.098   4.124   5.497 -0.4297  0.4293 -0.2734
 1848SOL    HW117006   1.145   4.064   5.554 -3.1686 -1.7539 -0.3199
 1848SOL    HW217007   1.141   4.210   5.502  0.5720 -0.2055  2.1068
 1849SOL     OW17008   4.186   1.449   2.266 -0.7777  0.4171  0.3633
 1849SOL    HW117009   4.200   1.358   2.294 -0.0864  0.4673  0.1747
 1849SOL    HW217010   4.271   1.486   2.291 -0.0740  0.4855 -2.2121
 1850SOL     OW17011   1.393   0.124   8.036 -0.0844  0.3782  0.5179
 1850SOL    HW117012   1.326   0.055   8.040  0.5153 -0.1628  1.3468
 1850SOL    HW217013   1.389   0.152   7.945  0.5649  2.3702  1.1081
 1851SOL     OW17014   1.167   0.958   9.873  0.7427  0.0526 -0.3258
 1851SOL    HW117015   1.101   0.930   9.936  2.1533  0.3749  1.3274
 1851SOL    HW217016   1.229   0.885   9.882 -0.2647 -0.9417 -1.5640
 1852SOL     OW17017   1.384   4.385  16.582  0.7784 -0.5891 -0.0650
 1852SOL    HW117018   1.407   4.397  16.674  0.8783  0.6211 -0.2467
 1852SOL    HW217019   1.328   4.308  16.592  0.0660 -0.0211  0.3051
 1853SOL     OW17020   0.631   4.309   4.927  0.3162 -0.3650  0.0172
 1853SOL    HW117021   0.630   4.228   4.875 -1.6846  0.9633 -1.9969
 1853SOL    HW217022   0.693   4.365   4.879 -2.0716  1.1529 -1.2944
 1854SOL     OW17023   0.123   2.109   5.394 -0.0459 -0.4207  0.0579
 1854SOL    HW117024   0.058   2.114   5.325 -0.2348  0.8135  0.3254
 1854SOL    HW217025   0.210   2.102   5.355  0.1770  0.4216  0.3817
 1855SOL     OW17026   2.978   1.333   2.822 -0.1736 -0.8654  0.2407
 1855SOL    HW117027   2.927   1.412   2.806  2.2658  0.5381 -0.6273
 1855SOL    HW217028   2.967   1.288   2.738  0.5199 -0.7784  0.0980
 1856SOL     OW17029   0.774   2.029  11.582  0.0702 -0.4156  0.0018
 1856SOL    HW117030   0.716   2.049  11.510 -0.8343  0.6404  1.0277
 1856SOL    HW217031   0.718   2.006  11.657  0.1459 -1.6441 -0.3165
 1857SOL     OW17032   0.862   2.166   3.468  0.3324 -0.4371  0.1240
 1857SOL    HW117033   0.946   2.140   3.430 -0.5384 -3.6494  0.3170
 1857SOL    HW217034   0.840   2.084   3.513 -0.9563 -0.3070 -0.2837
 1858SOL     OW17035   3.220   4.260   8.450 -0.2577 -0.0184  1.1006
 1858SOL    HW117036   3.260   4.306   8.376  0.4099 -1.8215  0.3527
 1858SOL    HW217037   3.200   4.323   8.520 -0.1306 -0.7755  1.8079
 1859SOL     OW17038   3.047   1.583   2.556  0.6359  0.0444 -0.6458
 1859SOL    HW117039   2.991   1.654   2.588  0.0912 -0.4026 -0.6157
 1859SOL    HW217040   3.105   1.582   2.632 -0.4752  0.3160  0.2009
 1860SOL     OW17041   4.047   3.866   2.892  0.4872 -0.4430 -0.8094
 1860SOL    HW117042   3.989   3.926   2.845  0.7440 -1.3698 -2.3311
 1860SOL    HW217043   4.114   3.845   2.827  0.8579 -1.5476 -0.0771
 1861SOL     OW17044   1.969   4.162  11.797 -0.2602 -0.5675  0.4436
 1861SOL    HW117045   1.911   4.117  11.859 -2.4515  0.6035 -0.7204
 1861SOL    HW217046   1.927   4.121  11.720 -1.0926 -1.0315  1.1437
 1862SOL     OW17047   2.801   1.368   3.990  0.8900 -0.1125 -0.1219
 1862SOL    HW117048   2.836   1.291   4.036 -0.2022  2.0881  4.3537
 1862SOL    HW217049   2.850   1.365   3.908 -0.5627 -0.9133 -0.9587
 1863SOL     OW17050   0.208   2.028   8.545 -0.0738 -0.4726 -0.5619
 1863SOL    HW117051   0.247   2.063   8.625 -0.0082 -2.2848  0.2045
 1863SOL    HW217052   0.176   2.106   8.499 -1.1930  0.3053  1.4728
 1864SOL     OW17053   3.853   0.522   0.813 -0.2200 -0.2175  0.2116
 1864SOL    HW117054   3.773   0.563   0.781  0.0058 -0.0237 -0.0990
 1864SOL    HW217055   3.908   0.584   0.765 -0.5796 -0.4875 -0.5399
 1865SOL     OW17056   3.633   2.233   4.514  0.0188 -0.1661 -0.3002
 1865SOL    HW117057   3.612   2.214   4.422 -2.6168 -1.3396  0.5456
 1865SOL    HW217058   3.654   2.147   4.550 -1.3546  0.2282  1.4386
 1866SOL     OW17059   4.558   2.044  16.336  0.1253 -0.1196 -0.0146
 1866SOL    HW117060   4.579   2.126  16.381  1.6422 -0.4034 -0.1952
 1866SOL    HW217061   4.476   2.062  16.290 -0.3776  1.5587  1.5251
 1867SOL     OW17062   4.674   2.369   0.890 -0.4116  0.2451  0.7152
 1867SOL    HW117063   4.629   2.300   0.841 -0.1380  1.7692 -1.6500
 1867SOL    HW217064   0.001   2.404   0.819  3.1823 -4.9026  0.9192
 1868SOL     OW17065   4.211   2.450   6.970  0.2598 -0.0003 -0.5898
 1868SOL    HW117066   4.148   2.378   6.959 -0.5447  0.8603 -1.5788
 1868SOL    HW217067   4.249   2.455   6.883  1.1250  1.8241 -0.1004
 1869SOL     OW17068   2.341   3.626   8.998 -0.1869  0.1266  0.7332
 1869SOL    HW117069   2.435   3.615   8.983 -0.1651  1.0206  0.1959
 1869SOL    HW217070   2.332   3.721   9.006 -0.8878  0.0893  0.3329
 1870SOL     OW17071   1.873   1.690   7.060 -0.3776 -0.0856  0.0741
 1870SOL    HW117072   1.907   1.629   6.995  2.3515  0.0649  1.4034
 1870SOL    HW217073   1.861   1.767   7.005 -2.7755 -2.0959 -2.2682
 1871SOL     OW17074   3.606   3.639   4.016 -0.2036  1.0652  0.3369
 1871SOL    HW117075   3.594   3.730   4.043  2.4337  0.9858  1.7866
 1871SOL    HW217076   3.562   3.594   4.089 -4.5573  0.6530 -2.5694
 1872SOL     OW17077   2.866   0.289   5.968  0.1502  0.9275 -0.4680
 1872SOL    HW117078   2.821   0.297   5.884 -1.0268 -1.1437 -0.0372
 1872SOL    HW217079   2.960   0.291   5.950 -0.1356 -0.6194 -2.0541
 1873SOL     OW17080   4.064   1.346   4.969 -0.2539 -0.5940 -0.0155
 1873SOL    HW117081   3.990   1.357   4.910  0.7842 -2.1446 -1.6096
 1873SOL    HW217082   4.060   1.252   4.987  1.6011 -0.7879 -0.6518
 1874SOL     OW17083   0.730   2.186   8.065  0.3234 -0.7654  0.0545
 1874SOL    HW117084   0.680   2.121   8.115  0.4841 -0.4719  0.6008
 1874SOL    HW217085   0.802   2.137   8.026  0.2556  1.1178 -2.4297
 1875SOL     OW17086   0.001   3.421   7.502 -0.1193  0.2735  0.2234
 1875SOL    HW117087   4.639   3.444   7.529  0.4199  2.6486 -0.0105
 1875SOL    HW217088   0.027   3.360   7.570  0.6786 -0.3627 -0.6454
 1876SOL     OW17089   4.590   2.166   8.504 -0.3408  0.2700 -0.4062
 1876SOL    HW117090   4.606   2.087   8.452 -0.8564 -1.2956  1.8390
 1876SOL    HW217091   4.514   2.138   8.555 -1.0588 -0.1736 -1.7102
 1877SOL     OW17092   0.854   1.398  16.094 -0.6661 -0.3667 -0.2201
 1877SOL    HW117093   0.768   1.396  16.051 -1.4966  0.0151  1.4045
 1877SOL    HW217094   0.836   1.415  16.187  0.0112 -0.4871 -0.0677
 1878SOL     OW17095   0.783   1.736   1.287 -0.0995 -0.1617  0.7407
 1878SOL    HW117096   0.780   1.830   1.305  0.3362  0.3616 -1.9318
 1878SOL    HW217097   0.711   1.704   1.342 -0.2865 -0.1341  0.5135
 1879SOL     OW17098   1.180   2.106   3.387 -0.2699  0.4387 -0.6117
 1879SOL    HW117099   1.143   2.116   3.299  0.1250  1.3751 -0.6605
 1879SOL    HW217100   1.262   2.149   3.367  0.8641 -0.9102  1.1406
 1880SOL     OW17101   3.620   3.011  13.777  0.3286  0.1557  0.1070
 1880SOL    HW117102   3.598   2.922  13.751  0.6783 -0.2136  1.0768
 1880SOL    HW217103   3.688   2.985  13.839  2.2281 -0.4867 -2.2091
 1881SOL     OW17104   0.424   0.472   7.859  0.0753 -0.2719  0.6364
 1881SOL    HW117105   0.329   0.481   7.866  0.0835 -0.5309  1.0262
 1881SOL    HW217106   0.429   0.456   7.765  2.2749 -1.1988  0.9245
 1882SOL     OW17107   3.494   4.066   2.087  0.2751  0.6409  0.3508
 1882SOL    HW117108   3.520   4.046   2.177  1.0759  0.5681  0.1040
 1882SOL    HW217109   3.582   4.092   2.057  1.8530 -2.2484  2.4276
 1883SOL     OW17110   4.550   0.529   7.283  0.0106 -0.0968 -0.2347
 1883SOL    HW117111   4.543   0.584   7.204  0.8239  1.4931  0.8198
 1883SOL    HW217112   4.635   0.544   7.324 -0.0034 -1.6417  0.3293
 1884SOL     OW17113   0.881   3.945  16.364 -0.3164 -0.1133  0.8834
 1884SOL    HW117114   0.824   4.015  16.395 -0.1476 -1.2633  3.8711
 1884SOL    HW217115   0.813   3.898  16.316  0.5974 -1.4903  0.9107
 1885SOL     OW17116   3.838   3.986   6.467 -0.1151 -0.1600  0.3508
 1885SOL    HW117117   3.774   4.057   6.476 -1.2315 -1.2281  0.9892
 1885SOL    HW217118   3.828   3.968   6.374  2.0975 -1.4415  0.3700
 1886SOL     OW17119   1.375   2.857  17.436  0.0661  0.3256  0.3531
 1886SOL    HW117120   1.405   2.766  17.439 -0.7120  0.0684  0.3658
 1886SOL    HW217121   1.283   2.850  17.412  1.4411 -1.7199 -4.1491
 1887SOL     OW17122   3.802   4.181  11.178  0.1358  0.1551  0.1776
 1887SOL    HW117123   3.795   4.168  11.083  1.0221  0.2521  0.1045
 1887SOL    HW217124   3.735   4.249  11.189 -1.1235 -1.3154  1.7383
 1888SOL     OW17125   3.618   0.892   5.178  0.0315 -0.1391 -0.1677
 1888SOL    HW117126   3.647   0.827   5.243 -0.9325  0.6868  1.1012
 1888SOL    HW217127   3.551   0.945   5.220 -0.6354 -0.0715 -1.3273
 1889SOL     OW17128   2.244   1.008  11.129 -0.6135 -0.2508 -0.3756
 1889SOL    HW117129   2.278   1.089  11.093 -2.3486 -0.6348 -2.8794
 1889SOL    HW217130   2.233   1.029  11.222 -1.9751  0.5336 -0.7112
 1890SOL     OW17131   2.504   3.162   2.358 -0.6671 -0.2782 -0.0469
 1890SOL    HW117132   2.480   3.082   2.405 -0.5487 -1.0040 -1.2235
 1890SOL    HW217133   2.434   3.221   2.387 -1.7384 -1.5987  0.0519
 1891SOL     OW17134   2.098   0.532   3.244  0.9751  0.2858 -0.0678
 1891SOL    HW117135   2.067   0.499   3.328  0.7997  0.0428 -0.2265
 1891SOL    HW217136   2.061   0.620   3.239  1.8527  0.6422 -0.1989
 1892SOL     OW17137   3.781   1.828   7.086 -0.0459  0.1238  0.1615
 1892SOL    HW117138   3.791   1.884   7.163 -0.4123  0.7656 -0.2587
 1892SOL    HW217139   3.863   1.843   7.040  0.1933  2.7736  1.4288
 1893SOL     OW17140   0.080   0.559   1.513 -0.8093 -0.9925  0.2793
 1893SOL    HW117141   0.018   0.497   1.476 -0.3442 -1.3571  0.1174
 1893SOL    HW217142   0.126   0.600   1.440 -1.0002 -0.3241  0.5344
 1894SOL     OW17143   2.384   0.492   2.185  0.0336  0.5940 -0.0464
 1894SOL    HW117144   2.385   0.557   2.255 -0.5242  1.0745 -0.4801
 1894SOL    HW217145   2.295   0.501   2.150 -0.1977  2.2305  0.9901
 1895SOL     OW17146   0.105   3.461   3.459  0.2646 -0.0964 -0.2456
 1895SOL    HW117147   0.113   3.512   3.540  0.8963 -2.9296  1.4819
 1895SOL    HW217148   0.084   3.531   3.397  1.2285  0.4907  0.0947
 1896SOL     OW17149   2.658   4.676   0.039 -0.7208 -0.2620 -0.2551
 1896SOL    HW117150   2.683   4.607  17.688  1.8820 -1.5214  2.2625
 1896SOL    HW217151   2.588   4.638   0.093 -0.4155 -0.8091 -0.2454
 1897SOL     OW17152   0.235   3.003  10.057 -0.3724 -0.0294  0.0338
 1897SOL    HW117153   0.282   2.951   9.992 -0.3520  1.1524 -0.8860
 1897SOL    HW217154   0.150   3.020  10.017 -1.5845 -1.3490  2.0493
 1898SOL     OW17155   2.450   3.259   6.496  0.0932 -0.2241 -0.5831
 1898SOL    HW117156   2.414   3.259   6.407 -0.1100  1.0431 -0.5103
 1898SOL    HW217157   2.368   3.271   6.545 -0.0538 -1.3487 -0.5527
 1899SOL     OW17158   3.056   0.515   4.972  0.1885  0.1924  0.3914
 1899SOL    HW117159   3.067   0.562   5.055 -0.2438 -0.2404  0.6916
 1899SOL    HW217160   3.097   0.435   5.002  1.3714  0.1690 -1.2509
 1900SOL     OW17161   1.995   1.847  13.895  0.1889  0.2981 -0.9261
 1900SOL    HW117162   2.090   1.838  13.895  0.2600  1.0978  0.4651
 1900SOL    HW217163   1.977   1.892  13.977 -1.9572 -1.1055 -0.6181
 1901SOL     OW17164   2.422   0.106   2.400  0.1480 -0.3558  0.1171
 1901SOL    HW117165   2.512   0.100   2.432  0.5819  1.1312 -0.7998
 1901SOL    HW217166   2.450   0.126   2.311 -0.0029 -0.6612  0.0005
 1902SOL     OW17167   3.378   4.176  11.404 -0.1552  0.9056  0.3113
 1902SOL    HW117168   3.380   4.215  11.492 -1.6517  2.2207 -0.2308
 1902SOL    HW217169   3.444   4.220  11.350 -1.0287  1.7662 -0.0693
 1903SOL     OW17170   1.603   1.413  13.721  0.1087 -0.2332 -0.2125
 1903SOL    HW117171   1.516   1.394  13.757  0.4509  0.5752  1.0510
 1903SOL    HW217172   1.622   1.322  13.696 -0.5701 -0.7696  1.1920
 1904SOL     OW17173   4.479   0.652  17.052  0.3435 -0.0742 -0.4453
 1904SOL    HW117174   4.412   0.594  17.087  1.6032 -0.8096  0.7298
 1904SOL    HW217175   4.549   0.612  17.102  0.9376  1.1933 -0.2590
 1905SOL     OW17176   0.909   1.765   8.740  0.6403  0.2571  0.1933
 1905SOL    HW117177   0.833   1.727   8.696 -0.0305 -1.0679  2.4661
 1905SOL    HW217178   0.951   1.689   8.781  0.5974 -0.4309 -1.0245
 1906SOL     OW17179   2.252   1.347   7.609 -0.6296  0.4233  0.0353
 1906SOL    HW117180   2.210   1.418   7.560 -0.2781  1.4173  1.1723
 1906SOL    HW217181   2.288   1.400   7.680 -0.0775 -0.3061  0.2903
 1907SOL     OW17182   2.459   4.698  10.357  0.4290 -0.3993  0.0452
 1907SOL    HW117183   2.384   0.003  10.407 -1.8897  0.6728 -4.1157
 1907SOL    HW217184   2.423   4.631  10.298 -0.8341 -0.2769  0.6722
 1908SOL     OW17185   1.959   0.481   8.522 -0.3539 -0.3299 -0.5963
 1908SOL    HW117186   1.933   0.540   8.593 -0.3654 -2.1873  0.9487
 1908SOL    HW217187   1.880   0.427   8.515 -1.3099  0.9792  0.0349
 1909SOL     OW17188   4.042   3.299   7.069  0.3472 -0.8668  0.1856
 1909SOL    HW117189   4.125   3.300   7.021  0.5271 -2.0066  0.4768
 1909SOL    HW217190   4.031   3.204   7.062 -0.2014 -0.6344 -2.1449
 1910SOL     OW17191   3.033   0.947   1.622  0.3599 -0.6836  0.3105
 1910SOL    HW117192   3.115   0.977   1.662 -0.8405  3.1557 -0.1833
 1910SOL    HW217193   2.992   1.033   1.611 -0.7051 -1.3090 -0.5903
 1911SOL     OW17194   4.523   2.420   1.101 -0.1139 -0.0529  0.0530
 1911SOL    HW117195   4.550   2.413   1.009 -4.3330 -0.0612 -1.1640
 1911SOL    HW217196   4.610   2.440   1.135 -0.9066 -0.7687  2.5472
 1912SOL     OW17197   3.543   1.406   6.048  0.0084  0.1076 -0.2118
 1912SOL    HW117198   3.522   1.463   5.974 -2.1100  0.1343  0.3971
 1912SOL    HW217199   3.502   1.330   6.008 -0.6872 -1.2336  3.0631
 1913SOL     OW17200   2.205   2.652  11.723 -0.3015  0.4386  0.5159
 1913SOL    HW117201   2.164   2.671  11.808 -0.6653  1.2711  0.1582
 1913SOL    HW217202   2.196   2.557  11.718  1.6815  0.2379  0.9318
 1914SOL     OW17203   2.390   4.457   2.508  0.3044  0.0532 -0.1926
 1914SOL    HW117204   2.395   4.392   2.438  0.3104 -0.0546 -0.0930
 1914SOL    HW217205   2.476   4.448   2.548  0.0567 -1.9625 -0.1046
 1915SOL     OW17206   0.758   1.992   1.349  0.2055 -0.0848 -0.3109
 1915SOL    HW117207   0.746   2.064   1.411  1.3653 -0.7116  0.6446
 1915SOL    HW217208   0.739   2.047   1.273 -0.0484  1.4134  0.8475
 1916SOL     OW17209   3.876   2.531   9.605  0.5708 -0.1391  0.4059
 1916SOL    HW117210   3.933   2.474   9.554 -0.8382 -1.3551  0.2024
 1916SOL    HW217211   3.897   2.507   9.695  0.7724  0.3994  0.5005
 1917SOL     OW17212   1.089   2.493  14.481  0.0119 -0.2864  0.1720
 1917SOL    HW117213   1.068   2.574  14.527  1.5480 -0.0292  0.4142
 1917SOL    HW217214   1.063   2.516  14.392  1.2071 -0.7718 -0.3124
 1918SOL     OW17215   0.977   4.222   4.942  0.4866  0.1595 -0.0308
 1918SOL    HW117216   1.071   4.219   4.957  0.5229 -1.6305 -0.5510
 1918SOL    HW217217   0.944   4.134   4.962 -0.0163  0.0145 -1.4753
 1919SOL     OW17218   2.973   2.916   6.693  0.0964  0.1597  0.2499
 1919SOL    HW117219   2.935   2.942   6.609  1.6601 -0.5451 -0.6693
 1919SOL    HW217220   2.958   2.994   6.747  0.5044 -0.0325  0.6376
 1920SOL     OW17221   0.758   3.881   7.216 -0.2979  0.5031  0.6433
 1920SOL    HW117222   0.813   3.802   7.218 -0.0942  0.6025 -0.7908
 1920SOL    HW217223   0.691   3.858   7.281 -1.1677  0.8165 -0.1328
 1921SOL     OW17224   0.111   3.018  12.855  0.5494 -0.0305  0.3788
 1921SOL    HW117225   0.021   2.990  12.873  0.2529  0.3598 -0.4686
 1921SOL    HW217226   0.159   2.969  12.922  0.1442 -0.1940  0.5498
 1922SOL     OW17227   3.391   4.589  14.950 -0.1624 -0.1062 -0.0729
 1922SOL    HW117228   3.383   4.591  14.855  5.4482 -2.4103 -0.5921
 1922SOL    HW217229   3.426   4.501  14.961 -0.8931 -0.1699  1.7454
 1923SOL     OW17230   2.926   2.913   9.604 -0.3474 -0.5662 -0.2368
 1923SOL    HW117231   2.879   2.921   9.687 -0.1572  1.1822 -0.2955
 1923SOL    HW217232   2.999   2.856   9.626 -0.8936 -0.8972  0.7277
 1924SOL     OW17233   0.164   2.715   9.112 -0.4330  0.2776 -0.6671
 1924SOL    HW117234   0.222   2.791   9.115  0.6659 -0.5762 -0.0137
 1924SOL    HW217235   0.140   2.708   9.204 -1.4199  0.6112 -0.9082
 1925SOL     OW17236   3.081   0.564   6.845 -0.3279 -0.0185 -0.0795
 1925SOL    HW117237   3.121   0.519   6.771 -0.5160 -1.0582  0.4458
 1925SOL    HW217238   2.988   0.567   6.825 -0.5523 -1.2360  0.7630
 1926SOL     OW17239   1.413   4.214   7.932  0.5378 -0.2147  0.3947
 1926SOL    HW117240   1.466   4.134   7.942  1.1746  0.2032  0.3782
 1926SOL    HW217241   1.335   4.188   7.981 -0.4584  0.6522 -0.7543
 1927SOL     OW17242   3.605   3.333   2.880  0.2564  0.4130 -0.1326
 1927SOL    HW117243   3.595   3.323   2.975 -0.6105 -1.5556 -0.4198
 1927SOL    HW217244   3.532   3.296   2.831  1.4729 -1.9547 -0.1598
 1928SOL     OW17245   2.416   4.161   6.953  0.6463  0.1691  0.4608
 1928SOL    HW117246   2.492   4.132   7.003  0.7670  1.2448  0.8816
 1928SOL    HW217247   2.413   4.087   6.892  0.3603 -1.1974  2.1358
 1929SOL     OW17248   4.601   3.528  12.108 -0.0101  0.7699 -0.0708
 1929SOL    HW117249   4.605   3.602  12.048  3.7835 -1.6200 -2.7678
 1929SOL    HW217250   4.507   3.510  12.099  0.3679 -0.7672 -1.0079
 1930SOL     OW17251   1.988   2.124   3.353  0.3137 -0.2999 -0.1159
 1930SOL    HW117252   2.066   2.073   3.329  1.5292  1.2126  0.6482
 1930SOL    HW217253   1.952   2.066   3.420  1.3543  0.1784  0.8552
 1931SOL     OW17254   4.029   4.660   6.277 -0.2535  0.4223 -0.5046
 1931SOL    HW117255   3.985   4.680   6.194 -0.9356  0.0364 -0.2291
 1931SOL    HW217256   4.102   4.722   6.282 -0.7364  0.8148  1.5326
 1932SOL     OW17257   2.042   2.958   4.447 -0.6791 -0.1301 -0.0379
 1932SOL    HW117258   1.967   2.987   4.499 -0.7761 -0.9849  0.2941
 1932SOL    HW217259   2.116   2.987   4.502 -1.1195 -0.9335  0.9805
 1933SOL     OW17260   2.965   1.508  14.936 -0.2425 -0.4676 -0.5599
 1933SOL    HW117261   2.926   1.581  14.983  1.5884 -1.1531  2.1081
 1933SOL    HW217262   2.966   1.547  14.849 -1.9456 -0.5593 -0.6120
 1934SOL     OW17263   2.057   1.294   1.710  0.0925 -0.8726 -0.1493
 1934SOL    HW117264   2.096   1.285   1.797  2.1604 -0.6413 -1.0660
 1934SOL    HW217265   2.104   1.369   1.675 -0.2613 -1.0743 -1.0426
 1935SOL     OW17266   1.674   3.042  15.999 -0.4241  0.0095  0.4959
 1935SOL    HW117267   1.615   3.114  16.023 -0.2013  1.2408 -2.6528
 1935SOL    HW217268   1.603   2.985  15.971 -1.7936  1.2742  1.3733
 1936SOL     OW17269   2.623   1.352   5.165  0.5984  1.0537 -0.1087
 1936SOL    HW117270   2.538   1.389   5.189  0.3583 -0.5309  1.4634
 1936SOL    HW217271   2.608   1.258   5.177 -1.9670  1.4658 -0.1030
 1937SOL     OW17272   2.280   2.857   6.782  0.0200  1.3344  0.4580
 1937SOL    HW117273   2.185   2.846   6.786  0.0929 -0.1098 -2.4726
 1937SOL    HW217274   2.286   2.894   6.871  1.6212 -2.7245  2.0378
 1938SOL     OW17275   3.103   0.820   5.969 -0.7139  0.1132 -0.4673
 1938SOL    HW117276   3.076   0.866   6.048  1.6341  1.8640 -0.6920
 1938SOL    HW217277   3.046   0.743   5.967 -1.5757  0.8457 -3.7217
 1939SOL     OW17278   0.176   2.464   5.380 -0.0759  0.1627 -0.5061
 1939SOL    HW117279   0.161   2.466   5.475 -0.8029 -1.7413 -0.5958
 1939SOL    HW217280   0.263   2.504   5.380 -0.8702  1.8688 -1.9653
 1940SOL     OW17281   0.699   4.667   2.016 -0.3727 -0.2580  0.3657
 1940SOL    HW117282   0.759   4.592   2.010  1.3743  1.1731 -0.0873
 1940SOL    HW217283   0.648   4.651   1.936  0.2954  2.1385 -0.5496
 1941SOL     OW17284   0.995   4.460   7.286  0.0657  0.8163 -0.6923
 1941SOL    HW117285   1.072   4.493   7.333 -1.3911 -0.9155  2.9054
 1941SOL    HW217286   0.935   4.519   7.332  0.5323  0.0558  0.9097
 1942SOL     OW17287   3.337   1.046   7.066 -0.0433 -0.1462  0.0537
 1942SOL    HW117288   3.273   1.113   7.092  2.3352  1.2505  2.2735
 1942SOL    HW217289   3.287   0.988   7.008  1.4317  0.5293 -1.8948
 1943SOL     OW17290   2.371   0.609   3.733 -0.4158  0.3391 -0.6233
 1943SOL    HW117291   2.377   0.664   3.810  0.8767 -1.0712  0.2707
 1943SOL    HW217292   2.423   0.664   3.674  0.3580 -1.6961 -1.8575
 1944SOL     OW17293   4.697   1.464   4.731 -0.1496 -0.3701  0.1929
 1944SOL    HW117294   4.663   1.511   4.808  1.2943 -0.7114  1.0304
 1944SOL    HW217295   4.691   1.373   4.760  3.3650 -1.1769 -1.7126
 1945SOL     OW17296   0.328   2.578   6.263  0.2048  0.3620  0.7056
 1945SOL    HW117297   0.252   2.526   6.238  2.0739 -2.0603  0.0707
 1945SOL    HW217298   0.351   2.603   6.173 -0.9678  1.4350  0.7074
 1946SOL     OW17299   1.166   0.860  11.098  0.5956  0.3882  0.1642
 1946SOL    HW117300   1.080   0.874  11.138 -2.1330 -1.1632 -5.2334
 1946SOL    HW217301   1.161   0.909  11.016 -1.3232  0.5886  0.3941
 1947SOL     OW17302   1.255   2.196   2.761 -0.4074  0.0223 -0.5714
 1947SOL    HW117303   1.345   2.166   2.774 -0.0864  1.9644  1.6439
 1947SOL    HW217304   1.281   2.282   2.729 -0.2220  0.1505 -0.0708
 1948SOL     OW17305   3.519   2.999  15.349  0.2205 -0.4905 -0.1141
 1948SOL    HW117306   3.461   3.068  15.381  0.7388  0.2817 -0.8436
 1948SOL    HW217307   3.461   2.946  15.295 -1.0126 -0.7518  1.4789
 1949SOL     OW17308   3.665   4.032  16.316  0.5037  0.2752 -0.5215
 1949SOL    HW117309   3.621   3.982  16.247 -0.9063 -0.3230  0.8018
 1949SOL    HW217310   3.679   3.956  16.372  0.0505  0.6102  0.0522
 1950SOL     OW17311   2.005   0.369  10.260 -0.5131 -0.0392 -0.4057
 1950SOL    HW117312   2.077   0.382  10.322 -2.1639 -0.4779  1.5994
 1950SOL    HW217313   2.033   0.429  10.191  0.0898 -0.2349 -0.3384
 1951SOL     OW17314   1.379   1.009   0.759 -0.2019 -0.1654  0.2679
 1951SOL    HW117315   1.371   1.078   0.824  0.2722  0.4249 -0.2914
 1951SOL    HW217316   1.416   0.941   0.815  1.5061  1.7938  1.5011
 1952SOL     OW17317   4.436   1.949   6.210  0.1262  0.4439 -0.1823
 1952SOL    HW117318   4.397   1.979   6.128  0.1635  1.0511  0.0169
 1952SOL    HW217319   4.493   2.022   6.237 -1.2355  1.3561  0.1942
 1953SOL     OW17320   3.834   2.378  11.643 -0.2326  0.3145 -0.7882
 1953SOL    HW117321   3.854   2.335  11.726 -2.3570  1.6078  0.3779
 1953SOL    HW217322   3.923   2.383  11.609  0.2064 -0.2332  0.2920
 1954SOL     OW17323   2.742   4.179  10.451  0.1007 -0.0538 -0.9739
 1954SOL    HW117324   2.662   4.131  10.430 -0.6598  1.0565 -0.6133
 1954SOL    HW217325   2.792   4.102  10.478  0.7912  1.8231  3.0323
 1955SOL     OW17326   4.171   4.290   4.487  0.3206  0.4166  0.2835
 1955SOL    HW117327   4.264   4.313   4.476 -0.4519  2.4659 -2.0744
 1955SOL    HW217328   4.175   4.206   4.441  3.4278  0.0261  1.2745
 1956SOL     OW17329   3.280   1.121   5.734  0.1960 -0.4012 -0.5243
 1956SOL    HW117330   3.220   1.152   5.665 -1.8393 -1.4037  0.7910
 1956SOL    HW217331   3.315   1.204   5.764  0.2378 -0.7818  0.4587
 1957SOL     OW17332   2.350   1.078  17.569 -0.1251 -0.5145 -0.1159
 1957SOL    HW117333   2.272   1.126  17.542  1.3957  0.7270 -2.3234
 1957SOL    HW217334   2.318   0.989  17.557 -1.2801  0.2972 -3.0566
 1958SOL     OW17335   2.056   2.482   2.602 -0.5677  0.3787 -0.4871
 1958SOL    HW117336   2.064   2.474   2.507 -0.3883 -2.8165 -0.2148
 1958SOL    HW217337   1.969   2.523   2.605 -0.5196  0.4136  0.4495
 1959SOL     OW17338   0.205   4.372   5.541  0.0263 -0.0916  0.0332
 1959SOL    HW117339   0.243   4.289   5.569  1.6129  0.3207 -0.9245
 1959SOL    HW217340   0.189   4.423   5.621 -0.8228 -0.5684  0.1658
 1960SOL     OW17341   2.848   2.025   8.996  0.0424  0.2291  0.5960
 1960SOL    HW117342   2.890   1.955   8.945  1.8407  0.1075  2.2849
 1960SOL    HW217343   2.798   2.071   8.928  0.0890  0.6978  0.8846
 1961SOL     OW17344   1.871   1.590   0.084  0.2276  0.9778  0.1262
 1961SOL    HW117345   1.787   1.586   0.129  0.5856  1.0740  0.8067
 1961SOL    HW217346   1.892   1.682   0.065  0.4950  0.6413 -1.1815
 1962SOL     OW17347   3.917   2.549   1.946  0.2640  0.4153 -0.3119
 1962SOL    HW117348   3.989   2.499   1.986  0.7611 -0.7692 -2.6535
 1962SOL    HW217349   3.965   2.604   1.884  0.1839  1.4799  0.5811
 1963SOL     OW17350   2.604   0.688  17.314  0.0149 -0.4348  0.5410
 1963SOL    HW117351   2.595   0.691  17.409 -1.1368 -0.6291  0.4458
 1963SOL    HW217352   2.617   0.779  17.289  0.2924 -0.7537 -0.5065
 1964SOL     OW17353   2.501   0.432   4.354 -0.1291  0.0078 -0.3165
 1964SOL    HW117354   2.504   0.337   4.339 -0.2963 -0.2738  1.4608
 1964SOL    HW217355   2.591   0.443   4.386  0.0446  0.1054 -0.8387
 1965SOL     OW17356   1.182   0.180   3.853  0.1313 -0.6215  0.0718
 1965SOL    HW117357   1.171   0.240   3.779  0.4804  3.0132  2.9537
 1965SOL    HW217358   1.275   0.174   3.872 -0.1665  0.5243  1.9695
 1966SOL     OW17359   0.200   0.285   2.198 -0.2802 -0.9888  0.2468
 1966SOL    HW117360   0.295   0.291   2.211 -0.2298 -1.9127  0.2811
 1966SOL    HW217361   0.192   0.261   2.106  2.5222  1.1975 -0.5633
 1967SOL     OW17362   2.339   1.031  11.667  0.0989 -0.1909 -0.6394
 1967SOL    HW117363   2.268   1.015  11.729  0.9491 -0.6064  0.2224
 1967SOL    HW217364   2.382   0.946  11.658  0.6924  0.0447 -0.0052
 1968SOL     OW17365   1.167   2.315   8.712 -0.2305  0.4169  0.3398
 1968SOL    HW117366   1.093   2.334   8.769  0.3754  0.0806  1.2557
 1968SOL    HW217367   1.205   2.402   8.698 -0.5323  0.4273 -0.4103
 1969SOL     OW17368   2.910   2.192   5.798 -0.0039  0.1584  0.0975
 1969SOL    HW117369   3.000   2.177   5.827  0.0937 -2.0871 -1.3782
 1969SOL    HW217370   2.913   2.168   5.705  2.0438  1.3705 -0.1237
 1970SOL     OW17371   3.591   1.858   6.679 -0.2705  0.1796  0.5030
 1970SOL    HW117372   3.612   1.764   6.673 -0.5313  0.1505  0.0188
 1970SOL    HW217373   3.664   1.882   6.737 -1.1431  1.1797  1.1853
 1971SOL     OW17374   3.096   1.584   7.536 -1.0166  0.2082 -0.3521
 1971SOL    HW117375   3.083   1.608   7.628  0.8823  1.2203 -0.3332
 1971SOL    HW217376   3.093   1.489   7.540 -0.9537  0.3095  1.7338
 1972SOL     OW17377   0.960   2.236  13.975 -0.4416  0.4470  0.0309
 1972SOL    HW117378   1.056   2.234  13.972 -0.4891  0.3546 -1.2299
 1972SOL    HW217379   0.937   2.158  14.026 -2.3962  0.1891 -1.2917
 1973SOL     OW17380   2.013   3.390   3.153 -0.0215 -0.0905 -0.2703
 1973SOL    HW117381   1.998   3.401   3.247  2.1116 -5.2506  0.6520
 1973SOL    HW217382   2.108   3.405   3.147 -0.2223  1.3374  0.0539
 1974SOL     OW17383   2.930   3.632   2.045  0.0406  0.3423 -0.2369
 1974SOL    HW117384   2.946   3.580   2.124 -0.8740  0.3742 -0.0238
 1974SOL    HW217385   2.851   3.581   2.031  1.8294 -2.2244 -0.9434
 1975SOL     OW17386   1.427   1.324  12.053  0.3213 -0.2087  0.1688
 1975SOL    HW117387   1.444   1.280  11.970 -1.9717 -1.3403  0.2865
 1975SOL    HW217388   1.447   1.264  12.125 -1.2582  0.0392  0.8244
 1976SOL     OW17389   2.266   4.629  13.983  0.0206 -0.3318  0.4500
 1976SOL    HW117390   2.360   4.637  13.973 -0.0054  1.8817  1.8494
 1976SOL    HW217391   2.256   4.629  14.078 -0.1427 -1.0822  0.4307
 1977SOL     OW17392   4.188   2.539  15.843 -0.5926 -0.1038 -0.0361
 1977SOL    HW117393   4.110   2.501  15.803  0.4174 -1.3241 -0.8177
 1977SOL    HW217394   4.151   2.605  15.901  0.2186  0.2741  0.0595
 1978SOL     OW17395   0.353   2.782   6.614 -0.0440  0.5126  0.2039
 1978SOL    HW117396   0.390   2.820   6.535  1.2841  0.4647  0.8022
 1978SOL    HW217397   0.334   2.692   6.588  1.3280  0.4350 -0.5139
 1979SOL     OW17398   3.524   0.444   9.061  0.4633  0.0899 -0.3650
 1979SOL    HW117399   3.483   0.489   9.135  1.9719  0.6061  0.1580
 1979SOL    HW217400   3.534   0.507   8.989 -0.3660 -2.1514 -2.4475
 1980SOL     OW17401   3.474   1.744  15.842  1.0210 -0.0810 -0.4151
 1980SOL    HW117402   3.440   1.790  15.918 -1.9479 -1.2399 -1.0255
 1980SOL    HW217403   3.567   1.733  15.862  1.1476  2.2338  0.2643
 1981SOL     OW17404   2.044   3.769   7.279  0.2773  0.2166 -0.0651
 1981SOL    HW117405   1.983   3.721   7.335 -1.4935  0.1035 -2.1100
 1981SOL    HW217406   1.986   3.812   7.217 -1.1733 -0.2567  0.9655
 1982SOL     OW17407   0.372   3.016  11.757 -0.0795  0.5739  0.1286
 1982SOL    HW117408   0.279   3.004  11.737 -0.2232  1.0059  0.5161
 1982SOL    HW217409   0.366   3.105  11.793  2.1355  0.9795 -0.5514
 1983SOL     OW17410   1.108   3.389  17.136 -0.2029 -0.0814 -0.4418
 1983SOL    HW117411   1.170   3.375  17.064 -0.0632  1.3804 -0.6103
 1983SOL    HW217412   1.162   3.381  17.215  2.8660 -1.2212 -2.6400
 1984SOL     OW17413   1.402   1.724  12.691  0.0653  0.3737 -0.5108
 1984SOL    HW117414   1.406   1.819  12.676 -1.5479  0.3516 -1.0321
 1984SOL    HW217415   1.393   1.704  12.598  0.3893  2.8604 -1.0724
 1985SOL     OW17416   3.788   2.843  17.637 -0.1041 -0.1690 -0.4355
 1985SOL    HW117417   3.861   2.898  17.665  0.1995 -1.0176  0.4421
 1985SOL    HW217418   3.722   2.869  17.700  1.3568 -2.2752  1.9568
 1986SOL     OW17419   2.798   1.854   4.131 -0.1583  0.4683 -0.2706
 1986SOL    HW117420   2.819   1.894   4.046 -0.2583  0.6331 -0.2181
 1986SOL    HW217421   2.764   1.769   4.103  0.7035 -0.6697  2.1559
 1987SOL     OW17422   0.546   2.936   3.643  0.1643 -0.1246 -0.1797
 1987SOL    HW117423   0.507   2.849   3.653  1.9534 -0.8535  0.4341
 1987SOL    HW217424   0.499   2.983   3.712  0.9348 -0.6753  0.7097
 1988SOL     OW17425   2.626   1.223   6.880  0.3759  0.4086  0.4552
 1988SOL    HW117426   2.700   1.203   6.938 -0.3150 -0.7508  0.9448
 1988SOL    HW217427   2.629   1.318   6.876  0.4067  0.5036  2.5713
 1989SOL     OW17428   3.096   3.026   4.128 -0.3104  0.0916  0.1809
 1989SOL    HW117429   3.020   3.031   4.069  0.2654 -0.9200 -0.6476
 1989SOL    HW217430   3.041   3.069   4.193 -1.4683  0.6596 -1.1666
 1990SOL     OW17431   4.434   0.896  10.211 -0.1652 -0.2606  0.0371
 1990SOL    HW117432   4.353   0.860  10.175  0.2333 -0.2213 -0.8891
 1990SOL    HW217433   4.497   0.825  10.198 -1.3539 -1.7341  2.1929
 1991SOL     OW17434   1.406   1.225  16.900 -0.0841  0.2081 -0.0419
 1991SOL    HW117435   1.437   1.202  16.987  1.4819  0.4596 -0.5235
 1991SOL    HW217436   1.478   1.273  16.858 -0.5824  1.2826  0.3457
 1992SOL     OW17437   4.475   3.165  10.926 -0.0445  0.0056 -0.0717
 1992SOL    HW117438   4.492   3.231  10.993 -2.6825  0.6774 -0.0675
 1992SOL    HW217439   4.498   3.085  10.973  0.0966  0.5168  0.7221
 1993SOL     OW17440   4.141   1.132   2.178 -0.1643 -0.8054  0.0475
 1993SOL    HW117441   4.062   1.090   2.147 -0.6831 -0.2167  0.5650
 1993SOL    HW217442   4.196   1.138   2.100 -0.1748 -0.2830  0.0791
 1994SOL     OW17443   2.178   2.536   0.078  0.0561 -0.2756 -0.0403
 1994SOL    HW117444   2.102   2.479   0.070 -0.3633 -0.0197  1.9405
 1994SOL    HW217445   2.171   2.597   0.005 -0.1080 -0.5108 -0.2184
 1995SOL     OW17446   4.080   1.483   6.832 -0.1844 -0.3878  0.5656
 1995SOL    HW117447   4.020   1.435   6.775 -1.1586  0.4967  0.8572
 1995SOL    HW217448   4.091   1.429   6.910  1.9120 -0.7655  0.0148
 1996SOL     OW17449   1.873   3.486  15.971 -0.3161  0.2584 -0.4632
 1996SOL    HW117450   1.882   3.525  15.883 -1.9704 -1.0498 -1.1975
 1996SOL    HW217451   1.849   3.395  15.957  1.0071 -0.1579 -0.0628
 1997SOL     OW17452   1.997   1.029   5.189 -0.2995 -0.0259  0.1915
 1997SOL    HW117453   1.938   1.078   5.132 -0.6144 -1.1410 -0.4395
 1997SOL    HW217454   1.984   0.941   5.154 -1.2891  0.1321  0.1474
 1998SOL     OW17455   2.459   4.171   8.725  0.4009  0.7503  0.3431
 1998SOL    HW117456   2.483   4.201   8.812  0.0460  4.0582 -0.7162
 1998SOL    HW217457   2.534   4.197   8.671  0.8533 -2.5617 -0.6789
 1999SOL     OW17458   3.204   0.739  15.696 -0.0969 -0.0300 -0.5739
 1999SOL    HW117459   3.118   0.776  15.714 -0.2798  0.5747 -2.7580
 1999SOL    HW217460   3.233   0.797  15.626  0.9768  1.7857  1.3602
 2000SOL     OW17461   2.115   2.391   7.302  0.6930  0.2663 -0.5429
 2000SOL    HW117462   2.072   2.428   7.379 -1.4036 -1.4465 -0.9010
 2000SOL    HW217463   2.156   2.470   7.266  3.2459 -0.5865  0.5235
 2001SOL     OW17464   0.413   1.662   2.533 -0.0419  0.5989 -0.0222
 2001SOL    HW117465   0.472   1.655   2.457 -1.3723 -0.4291 -0.9397
 2001SOL    HW217466   0.342   1.719   2.505  0.1619  1.3333  0.9427
 2002SOL     OW17467   1.089   3.302  14.980 -0.5299 -0.1562 -0.0552
 2002SOL    HW117468   1.056   3.214  15.000 -0.2315 -0.0796  0.7396
 2002SOL    HW217469   1.039   3.340  14.907  0.8232  0.3339 -0.7216
 2003SOL     OW17470   0.657   3.131   8.849 -0.1762 -0.4308  0.6743
 2003SOL    HW117471   0.745   3.110   8.882  0.3099 -2.0425 -1.6024
 2003SOL    HW217472   0.639   3.051   8.799 -0.4070  0.0639 -0.0182
 2004SOL     OW17473   1.972   1.774  10.574 -0.1186 -0.1389  0.4192
 2004SOL    HW117474   2.007   1.756  10.486 -0.2170 -1.2491  0.6100
 2004SOL    HW217475   1.966   1.869  10.566  1.2724 -0.0063  1.0020
 2005SOL     OW17476   2.597   4.080  16.410 -0.3414 -0.0740 -0.1638
 2005SOL    HW117477   2.592   4.168  16.448  1.4408  0.4309 -1.1178
 2005SOL    HW217478   2.550   4.088  16.327  1.4165  0.1426 -1.1444
 2006SOL     OW17479   1.796   1.962  11.949 -0.2641  0.0984  0.0789
 2006SOL    HW117480   1.773   2.025  12.018  0.9444 -0.4639  0.9967
 2006SOL    HW217481   1.753   1.996  11.870 -0.4222  0.0333  0.1379
 2007SOL     OW17482   3.616   1.860  11.224 -0.1345  0.5233 -0.7646
 2007SOL    HW117483   3.637   1.803  11.150  2.4647  1.4917 -0.7915
 2007SOL    HW217484   3.696   1.859  11.278 -0.1004  0.7617 -0.8080
 2008SOL     OW17485   0.100   3.072   4.312  0.1918  0.6208 -0.1043
 2008SOL    HW117486   0.017   3.085   4.357  0.1330  1.4266 -0.4519
 2008SOL    HW217487   0.119   3.164   4.297 -1.4195  0.9540 -0.0688
 2009SOL     OW17488   1.590   3.680   8.945 -0.8869 -0.1841  0.2258
 2009SOL    HW117489   1.643   3.760   8.955 -0.3704 -0.4280 -0.5025
 2009SOL    HW217490   1.563   3.660   9.034  2.0684  2.1126  1.6597
 2010SOL     OW17491   2.995   2.142   3.337  0.9779 -0.0385 -0.4415
 2010SOL    HW117492   3.042   2.073   3.383 -1.1651 -0.7820  0.6461
 2010SOL    HW217493   3.048   2.149   3.258 -1.2702 -2.5237 -2.1892
 2011SOL     OW17494   1.216   1.261  13.678  0.4500 -0.1370 -0.2580
 2011SOL    HW117495   1.259   1.341  13.648  2.0546 -0.4648  1.1797
 2011SOL    HW217496   1.153   1.294  13.742 -0.9212 -1.0499 -1.1216
 2012SOL     OW17497   4.622   4.246   1.790 -0.3369  0.3271  0.2071
 2012SOL    HW117498   4.636   4.336   1.821 -0.6590 -0.0721  1.5313
 2012SOL    HW217499   4.713   4.220   1.805  0.0480  1.7098  0.2816
 2013SOL     OW17500   3.648   3.005   9.343 -0.1720  0.0839  0.1175
 2013SOL    HW117501   3.564   3.001   9.389 -0.2590 -1.4628 -0.1824
 2013SOL    HW217502   3.658   2.913   9.319  1.1925  0.3956 -0.5361
 2014SOL     OW17503   1.872   2.749   7.220 -0.0315  0.1277 -0.1465
 2014SOL    HW117504   1.930   2.700   7.278  1.4408 -1.9994 -3.3948
 2014SOL    HW217505   1.937   2.766   7.152 -0.8756  1.8762 -0.5109
 2015SOL     OW17506   2.050   2.924  12.471 -0.4975 -0.0486  0.0836
 2015SOL    HW117507   2.138   2.952  12.447  0.1552 -1.0781  1.2631
 2015SOL    HW217508   2.054   2.920  12.567 -2.8790 -1.1999  0.1443
 2016SOL     OW17509   0.680   0.022  10.754 -0.5633  0.2113 -0.3548
 2016SOL    HW117510   0.696   4.676  10.814 -0.1118  0.9281  0.3937
 2016SOL    HW217511   0.639   4.722  10.671 -0.2260 -1.5291  0.0521
 2017SOL     OW17512   4.475   3.153   6.831  0.3392  0.3881  0.4647
 2017SOL    HW117513   4.560   3.183   6.797  0.5091 -0.4395  0.1386
 2017SOL    HW217514   4.503   3.132   6.920 -0.2407 -0.7244  0.3848
 2018SOL     OW17515   4.459   1.810  15.194  0.1491  0.3860 -0.3498
 2018SOL    HW117516   4.508   1.884  15.159 -0.3616  1.2087  0.6819
 2018SOL    HW217517   4.399   1.796  15.120 -0.5074 -0.7041  0.3911
 2019SOL     OW17518   1.985   2.184   2.049 -0.0748  0.4147  0.1315
 2019SOL    HW117519   1.961   2.233   1.970 -0.7939  0.9532  0.6806
 2019SOL    HW217520   2.066   2.140   2.027 -0.6458  0.2029 -1.5270
 2020SOL     OW17521   2.273   3.350   4.734 -0.5024  0.8228  0.7033
 2020SOL    HW117522   2.178   3.350   4.727 -0.5453  0.7212  1.3009
 2020SOL    HW217523   2.312   3.381   4.652  1.1997 -1.9877  0.4254
 2021SOL     OW17524   2.028   0.038   7.901  0.1071 -0.6581  0.1695
 2021SOL    HW117525   1.942   0.001   7.881 -0.5507  1.9659 -1.9673
 2021SOL    HW217526   2.010   0.113   7.957 -2.5402  0.1560 -1.7463
 2022SOL     OW17527   4.552   0.210   8.160  0.0763  0.1194  0.0144
 2022SOL    HW117528   4.637   0.210   8.116  0.2582  4.2717  0.4407
 2022SOL    HW217529   4.532   0.303   8.157  0.2204  0.1582  0.3060
 2023SOL     OW17530   0.309   2.159   3.301  0.0106 -0.1704 -0.4647
 2023SOL    HW117531   0.303   2.136   3.394 -1.5751 -0.2237 -0.5673
 2023SOL    HW217532   0.400   2.179   3.283  1.0060 -2.3436  2.1621
 2024SOL     OW17533   3.818   0.756   3.257  0.6730 -0.0689 -0.0229
 2024SOL    HW117534   3.775   0.788   3.178  1.9172  1.8864  0.0879
 2024SOL    HW217535   3.758   0.789   3.325  1.4378  0.4316  0.4070
 2025SOL     OW17536   1.418   3.667   1.945  0.0373 -0.1182 -0.1214
 2025SOL    HW117537   1.508   3.701   1.935 -0.3657  2.1504  3.6878
 2025SOL    HW217538   1.429   3.617   2.026  2.2775  1.1262  0.3621
 2026SOL     OW17539   1.156   1.920  13.221 -0.5827 -0.2123 -0.0413
 2026SOL    HW117540   1.066   1.903  13.192 -0.5097  0.4041 -0.6118
 2026SOL    HW217541   1.206   1.917  13.139 -2.5767  2.7309 -1.3833
 2027SOL     OW17542   4.493   3.206   6.100 -0.4418  0.0723 -0.6431
 2027SOL    HW117543   4.431   3.278   6.113  0.2899  1.1285 -3.0056
 2027SOL    HW217544   4.443   3.127   6.123 -0.7362  0.7570  1.0236
 2028SOL     OW17545   0.968   1.562   4.511  0.0035  0.1772  0.1665
 2028SOL    HW117546   0.937   1.524   4.429  1.9648  2.4594 -1.6169
 2028SOL    HW217547   0.975   1.488   4.571 -2.0983  0.3040  0.5473
 2029SOL     OW17548   1.755   1.053   0.276 -0.0360  0.4209 -0.4073
 2029SOL    HW117549   1.849   1.063   0.265  0.3283 -1.7167  0.7603
 2029SOL    HW217550   1.737   0.983   0.214 -0.6063  0.6795 -0.5377
 2030SOL     OW17551   1.088   1.354   6.051 -0.5069  0.3989 -0.0738
 2030SOL    HW117552   1.012   1.302   6.029 -1.5229  2.6206 -1.7748
 2030SOL    HW217553   1.164   1.303   6.021 -0.3085  0.4105  0.4001
 2031SOL     OW17554   3.670   2.973   5.390 -0.1228 -0.3431  0.4583
 2031SOL    HW117555   3.602   2.976   5.457  0.6457 -2.4410  1.3313
 2031SOL    HW217556   3.633   2.893   5.354  0.6477 -0.2954 -0.4519
 2032SOL     OW17557   1.578   3.150   5.272  0.3471  0.1355 -0.1418
 2032SOL    HW117558   1.503   3.172   5.216 -1.0836 -1.2530  1.2328
 2032SOL    HW217559   1.635   3.101   5.214  2.2716  0.3342  1.5924
 2033SOL     OW17560   0.292   2.793   8.748  0.6197 -0.4103  0.4094
 2033SOL    HW117561   0.363   2.829   8.802  0.9749  1.6282 -1.4422
 2033SOL    HW217562   0.280   2.715   8.803 -2.3781 -0.9601 -1.0319
 2034SOL     OW17563   2.463   0.614   7.250  0.1596 -0.1197  0.0670
 2034SOL    HW117564   2.528   0.568   7.196  0.6498  3.1411 -2.1126
 2034SOL    HW217565   2.481   0.575   7.335 -0.1020 -2.1994 -0.8299
 2035SOL     OW17566   3.949   0.762   9.910  0.0674  0.2245  0.8668
 2035SOL    HW117567   3.932   0.764  10.004  0.6905 -3.0725  1.0534
 2035SOL    HW217568   3.972   0.855   9.901 -2.1948  0.8403  1.3029
 2036SOL     OW17569   1.304   4.638   6.125  0.1656  0.0858 -0.8178
 2036SOL    HW117570   1.213   4.666   6.114  1.0136  3.4669  0.7313
 2036SOL    HW217571   1.302   4.618   6.219 -1.4656 -1.7472 -1.2456
 2037SOL     OW17572   0.246   2.588   4.417  0.4203 -0.1236  0.4145
 2037SOL    HW117573   0.300   2.544   4.351  1.7591 -0.3855  1.6926
 2037SOL    HW217574   0.269   2.678   4.395  1.7127 -0.3315  0.8943
 2038SOL     OW17575   1.362   0.838   3.077 -0.5710 -0.2406  0.0049
 2038SOL    HW117576   1.337   0.838   3.169  0.7857  0.1168  0.3716
 2038SOL    HW217577   1.289   0.789   3.038 -0.7493  1.7752 -2.1855
 2039SOL     OW17578   1.880   0.186   3.332 -0.6017 -0.1893 -0.4854
 2039SOL    HW117579   1.843   0.214   3.248 -0.2515 -0.0314 -0.5878
 2039SOL    HW217580   1.900   0.266   3.380 -2.6988  0.7348 -1.1107
 2040SOL     OW17581   2.248   4.103   8.563 -0.5280 -0.2984  0.0026
 2040SOL    HW117582   2.314   4.114   8.631 -1.5578  0.6964  0.8451
 2040SOL    HW217583   2.294   4.042   8.506  1.0628 -1.7922  2.8974
 2041SOL     OW17584   3.112   4.336   7.710 -0.1633 -0.2132  0.7841
 2041SOL    HW117585   3.174   4.264   7.698  1.2615  1.0247  0.7331
 2041SOL    HW217586   3.044   4.311   7.647  0.6491  1.7136 -0.8885
 2042SOL     OW17587   3.009   0.488  15.970  0.0922  0.0378  0.1460
 2042SOL    HW117588   3.102   0.469  15.979 -0.3128 -2.4512 -0.9806
 2042SOL    HW217589   3.016   0.583  15.964  0.9029 -0.0102  0.3302
 2043SOL     OW17590   3.380   4.333   9.898 -0.4095 -0.0689  0.1573
 2043SOL    HW117591   3.428   4.346   9.981 -2.9598 -1.6050  1.8658
 2043SOL    HW217592   3.406   4.410   9.849 -2.2867 -0.5227 -1.5595
 2044SOL     OW17593   2.822   0.870   4.727 -0.1337 -0.3667 -0.0422
 2044SOL    HW117594   2.892   0.936   4.721  0.5846 -1.6381 -5.1668
 2044SOL    HW217595   2.770   0.885   4.649 -0.8486  1.0025  0.6931
 2045SOL     OW17596   3.198   1.279   8.347 -0.1396 -0.6848 -0.3752
 2045SOL    HW117597   3.181   1.371   8.328  2.8901 -0.5136 -2.3129
 2045SOL    HW217598   3.142   1.267   8.423 -1.6268  0.1870 -1.3516
 2046SOL     OW17599   2.473   3.879   3.694 -0.0488  1.0076 -0.6573
 2046SOL    HW117600   2.405   3.888   3.627  0.2635 -1.7968 -1.3513
 2046SOL    HW217601   2.512   3.967   3.694 -2.2159  1.9850 -2.5065
 2047SOL     OW17602   4.365   4.473   4.929  0.2958 -0.1374  0.1633
 2047SOL    HW117603   4.316   4.404   4.885  0.9168 -0.1900 -0.4400
 2047SOL    HW217604   4.296   4.539   4.920  1.2262  0.8134 -0.0693
 2048SOL     OW17605   3.068   2.452   1.162 -0.3555 -0.2091  0.0341
 2048SOL    HW117606   2.994   2.508   1.186 -0.2467  0.4886 -1.2790
 2048SOL    HW217607   3.021   2.380   1.119 -0.6179  1.0158 -1.7230
 2049SOL     OW17608   2.994   3.551   9.234  0.4650  0.3230 -0.2186
 2049SOL    HW117609   3.062   3.565   9.300  1.2400  1.5807 -1.2796
 2049SOL    HW217610   3.043   3.577   9.156  1.4705 -1.9093 -0.3224
 2050SOL     OW17611   4.451   4.432   6.963  0.1737  0.3463  0.2098
 2050SOL    HW117612   4.396   4.462   6.891  0.5382  0.0988 -0.1692
 2050SOL    HW217613   4.389   4.420   7.034  1.1949  1.0678  1.2273
 2051SOL     OW17614   1.525   2.776   8.616  0.5044 -0.3423  0.4481
 2051SOL    HW117615   1.448   2.764   8.673  0.1769  0.4647  0.1699
 2051SOL    HW217616   1.584   2.750   8.687  1.2947 -0.4498 -0.2540
 2052SOL     OW17617   2.200   0.042   8.603  0.5343  0.2991 -0.3576
 2052SOL    HW117618   2.280   0.047   8.551  1.1529  0.4948  0.5950
 2052SOL    HW217619   2.136   0.092   8.553  2.2004  1.0057 -1.7564
 2053SOL     OW17620   3.379   4.305   6.651  0.2982  0.0288 -0.2654
 2053SOL    HW117621   3.325   4.251   6.593 -1.6435 -0.4068  1.9671
 2053SOL    HW217622   3.385   4.388   6.604 -3.2151  1.2930  1.5629
 2054SOL     OW17623   3.536   1.154   5.911 -0.1848 -0.1852  0.0711
 2054SOL    HW117624   3.490   1.109   5.839 -2.0248  0.0945  1.0776
 2054SOL    HW217625   3.592   1.212   5.860  1.6829 -2.3779 -0.3700
 2055SOL     OW17626   1.297   2.352   5.266 -0.3812 -0.1186  0.1316
 2055SOL    HW117627   1.312   2.261   5.240  0.1958 -0.0038  0.0637
 2055SOL    HW217628   1.229   2.337   5.331 -1.0460  1.6840 -0.1307
 2056SOL     OW17629   1.438   1.362   8.621  0.5758  0.3048 -0.1124
 2056SOL    HW117630   1.402   1.448   8.639 -1.6560 -0.5095 -0.7041
 2056SOL    HW217631   1.525   1.395   8.644  0.6473  2.2633 -3.2371
 2057SOL     OW17632   4.406   2.529  16.071  0.4850 -0.2225 -0.3678
 2057SOL    HW117633   4.383   2.616  16.039 -0.0872  0.4380  1.8416
 2057SOL    HW217634   4.365   2.481  15.999  2.3493 -0.0402 -1.5316
 2058SOL     OW17635   3.805   3.905   6.171  0.4184 -0.0899  0.6961
 2058SOL    HW117636   3.860   3.921   6.095  0.4615 -1.3261  0.4693
 2058SOL    HW217637   3.808   3.810   6.183  0.9637 -0.2273 -0.5642
 2059SOL     OW17638   3.628   0.710   7.597  0.0074 -0.4087  0.2321
 2059SOL    HW117639   3.683   0.788   7.586 -0.4172 -0.3426 -1.4151
 2059SOL    HW217640   3.607   0.728   7.688 -2.1351 -0.8289 -0.1933
 2060SOL     OW17641   2.835   1.876  17.055  0.4238  0.1774  0.1602
 2060SOL    HW117642   2.747   1.904  17.032 -0.0903 -1.9654 -0.4059
 2060SOL    HW217643   2.889   1.896  16.978 -0.1716  1.5794  0.1103
 2061SOL     OW17644   2.405   0.069   6.958  0.1531 -0.1434 -0.2065
 2061SOL    HW117645   2.358   0.028   6.885  3.4295 -1.2586 -1.7290
 2061SOL    HW217646   2.401   4.717   7.011 -4.0273 -1.1985 -2.0970
 2062SOL     OW17647   2.279   2.831   8.254 -0.3609  0.2928  0.3677
 2062SOL    HW117648   2.286   2.917   8.295 -0.5594  0.5169 -0.0808
 2062SOL    HW217649   2.354   2.830   8.195 -1.7139  0.3386 -1.3252
 2063SOL     OW17650   3.628   3.957  14.382 -0.4211  0.0348 -0.0223
 2063SOL    HW117651   3.559   4.021  14.363  0.5439  1.8073  2.4168
 2063SOL    HW217652   3.646   3.932  14.291 -1.2508 -4.9387  1.2130
 2064SOL     OW17653   3.093   0.839   3.901 -0.0587 -0.2437 -0.5471
 2064SOL    HW117654   3.149   0.797   3.837  1.0142 -0.1356  0.3255
 2064SOL    HW217655   3.114   0.931   3.885  3.6340 -0.7013  1.7787
 2065SOL     OW17656   3.151   2.259  12.184  0.7126 -0.0308  0.0582
 2065SOL    HW117657   3.181   2.306  12.262  0.3216 -1.4919  1.1046
 2065SOL    HW217658   3.185   2.316  12.116  0.6607  0.1679  0.1983
 2066SOL     OW17659   2.384   1.503   8.693 -0.3699 -0.3568 -0.3118
 2066SOL    HW117660   2.327   1.540   8.626  1.2230  0.3520 -1.2894
 2066SOL    HW217661   2.361   1.412   8.672  1.2236 -1.8219  4.1970
 2067SOL     OW17662   1.509   3.169   8.343  0.4733 -0.1460 -0.8441
 2067SOL    HW117663   1.461   3.169   8.260 -2.0488 -0.4408  0.6219
 2067SOL    HW217664   1.440   3.173   8.409 -0.8489  0.2373 -2.2579
 2068SOL     OW17665   4.213   2.662   8.264 -0.4341  0.1069  0.6534
 2068SOL    HW117666   4.256   2.747   8.259  0.2140 -0.3609 -1.8420
 2068SOL    HW217667   4.185   2.657   8.355 -1.3557 -0.8133  0.3151
 2069SOL     OW17668   4.630   0.069   6.119  0.1690 -0.3097  0.2212
 2069SOL    HW117669   4.596   0.116   6.195  1.0998  0.7873 -0.0470
 2069SOL    HW217670   4.551   0.064   6.065  0.2032  0.4584  0.1071
 2070SOL     OW17671   2.608   4.393   5.833  0.0866  0.5724  0.7659
 2070SOL    HW117672   2.693   4.384   5.875  0.4256  0.4040  0.0465
 2070SOL    HW217673   2.628   4.349   5.750  0.9322 -0.1258  1.3500
 2071SOL     OW17674   3.197   3.319   5.129  0.0900 -0.1993  0.3922
 2071SOL    HW117675   3.134   3.367   5.075  0.4807  0.0817  0.1811
 2071SOL    HW217676   3.224   3.388   5.189 -0.7309 -1.1137  1.7913
 2072SOL     OW17677   4.713   1.757   7.951  0.4636 -0.4360  0.7951
 2072SOL    HW117678   0.061   1.771   8.009  2.1559 -1.0222 -1.2634
 2072SOL    HW217679   4.644   1.796   8.006 -0.9616  0.2667 -1.5057
 2073SOL     OW17680   2.736   1.644   4.750 -0.3058  0.3649 -0.2770
 2073SOL    HW117681   2.644   1.656   4.729 -0.2947  0.3614 -0.3291
 2073SOL    HW217682   2.721   1.604   4.835  1.4704 -1.3341 -0.7536
 2074SOL     OW17683   0.262   0.585   4.575 -0.2792  0.6210 -0.0114
 2074SOL    HW117684   0.236   0.667   4.618 -2.8474 -0.2834  0.1343
 2074SOL    HW217685   0.306   0.541   4.648  0.5764 -1.1153 -1.5849
 2075SOL     OW17686   2.662   2.891   5.180  0.3783  0.0700 -0.0493
 2075SOL    HW117687   2.698   2.856   5.262 -1.1607  0.4319  0.7805
 2075SOL    HW217688   2.725   2.959   5.156 -1.2099  1.6160  0.1246
 2076SOL     OW17689   2.742   1.941   7.388 -0.8024 -0.1142  0.1576
 2076SOL    HW117690   2.749   2.034   7.364 -0.1511 -0.0412  0.6342
 2076SOL    HW217691   2.828   1.912   7.359 -0.0423  2.0239  0.2659
 2077SOL     OW17692   4.484   0.500   8.798  0.1520 -0.2305  0.6394
 2077SOL    HW117693   4.393   0.524   8.813 -0.2986 -1.6675  0.2339
 2077SOL    HW217694   4.494   0.553   8.719  3.4377  1.6935  2.3616
 2078SOL     OW17695   4.256   3.997   9.027 -0.0472 -0.2069 -0.2286
 2078SOL    HW117696   4.182   3.959   8.980  1.7129 -0.6268 -2.7074
 2078SOL    HW217697   4.314   3.927   8.997 -0.8999 -2.0172  2.4012
 2079SOL     OW17698   1.282   2.885   4.271  0.0466  0.7593  0.1248
 2079SOL    HW117699   1.351   2.927   4.221  0.2643  1.9461  1.4153
 2079SOL    HW217700   1.337   2.838   4.334 -2.8832  0.6587  2.6144
 2080SOL     OW17701   1.694   4.703   5.710 -0.3349  0.0242  0.5017
 2080SOL    HW117702   1.652   4.622   5.738  1.9916 -1.3928 -0.0567
 2080SOL    HW217703   1.783   4.691   5.743 -0.0079  0.6510 -0.1618
 2081SOL     OW17704   1.648   1.389   2.516  0.3924  0.6119 -0.2418
 2081SOL    HW117705   1.578   1.340   2.472  0.6075 -0.3830  0.5042
 2081SOL    HW217706   1.681   1.329   2.584 -0.2267  0.2434 -0.2623
 2082SOL     OW17707   3.184   4.671  11.611 -0.8433 -1.0018  0.1767
 2082SOL    HW117708   3.116   4.607  11.631 -1.5078 -0.3450  0.0173
 2082SOL    HW217709   3.185   4.663  11.516  0.6983 -1.2006  0.2065
 2083SOL     OW17710   3.688   3.364  17.409 -0.2538  0.6383 -0.5012
 2083SOL    HW117711   3.751   3.294  17.393  1.0848  2.1093 -1.7085
 2083SOL    HW217712   3.749   3.436  17.426 -1.6453  1.1306  2.3071
 2084SOL     OW17713   3.907   1.365   2.267  0.4804 -0.3159  0.0625
 2084SOL    HW117714   3.994   1.393   2.239 -0.4259  0.4137 -2.0508
 2084SOL    HW217715   3.897   1.280   2.224 -0.5850  0.1575 -0.6238
 2085SOL     OW17716   2.770   1.043   3.639  0.0787 -0.6743 -0.2207
 2085SOL    HW117717   2.804   0.984   3.572 -0.6910 -0.4151 -0.8380
 2085SOL    HW217718   2.693   1.072   3.590  1.9588  1.8124 -1.7075
 2086SOL     OW17719   1.354   2.287   7.387 -0.5699 -0.1220  0.4869
 2086SOL    HW117720   1.401   2.208   7.362  2.3800  1.1662  1.9370
 2086SOL    HW217721   1.415   2.331   7.446 -0.2658  0.6034 -0.3698
 2087SOL     OW17722   1.642   4.640   7.334 -0.0035 -0.4988  0.2736
 2087SOL    HW117723   1.730   4.628   7.367 -0.1972  0.7211  1.2253
 2087SOL    HW217724   1.589   4.627   7.413 -1.0080 -0.6473 -0.4159
 2088SOL     OW17725   4.561   0.379   3.690 -0.1920 -0.1302 -0.1228
 2088SOL    HW117726   4.562   0.295   3.645 -0.8184  0.4710 -1.2548
 2088SOL    HW217727   4.469   0.405   3.680 -0.7768 -2.0076  0.4477
 2089SOL     OW17728   2.183   1.802   3.036  0.1028  0.7996 -0.1772
 2089SOL    HW117729   2.089   1.789   3.028  0.0740  1.7327 -1.3235
 2089SOL    HW217730   2.199   1.822   2.944 -0.8884 -1.6724 -0.9068
 2090SOL     OW17731   0.973   3.569  16.598  0.3536  0.2172 -0.0464
 2090SOL    HW117732   0.931   3.491  16.636 -0.4358  0.3474 -0.6713
 2090SOL    HW217733   1.004   3.529  16.517  0.9598 -0.8408  0.6951
 2091SOL     OW17734   3.989   2.776   5.311 -0.4692  0.2783 -0.4464
 2091SOL    HW117735   3.937   2.848   5.276 -0.1404  0.3796 -0.7331
 2091SOL    HW217736   3.924   2.707   5.293 -0.2057  0.1025 -0.7225
 2092SOL     OW17737   1.896   1.297   7.767 -0.7265 -0.1081 -0.2956
 2092SOL    HW117738   1.802   1.304   7.749 -0.7464  0.1908 -0.0755
 2092SOL    HW217739   1.938   1.341   7.693  0.4893 -1.9059 -0.6548
 2093SOL     OW17740   2.490   2.228  16.290  0.2992 -0.2213  0.3235
 2093SOL    HW117741   2.567   2.273  16.256 -0.8628  0.8014 -0.9378
 2093SOL    HW217742   2.509   2.134  16.288 -1.0391 -0.4167 -2.5626
 2094SOL     OW17743   3.191   0.375   7.778 -0.2727 -0.0137 -0.3261
 2094SOL    HW117744   3.257   0.353   7.713 -0.7173 -0.4004 -0.6426
 2094SOL    HW217745   3.240   0.341   7.852  0.5871 -0.8171 -1.2744
 2095SOL     OW17746   4.384   0.850   4.819 -0.3383  0.3828  0.3978
 2095SOL    HW117747   4.394   0.777   4.881  0.7512  0.0426 -0.1844
 2095SOL    HW217748   4.451   0.819   4.759 -0.9830 -1.9145  0.8495
 2096SOL     OW17749   1.231   4.688   2.743  0.0286  0.0954 -0.1590
 2096SOL    HW117750   1.246   0.003   2.659 -0.4520  1.6061  0.5058
 2096SOL    HW217751   1.294   4.726   2.805 -0.8799 -0.7273  1.2617
 2097SOL     OW17752   3.959   3.484   5.178 -0.1723  0.6320 -0.3197
 2097SOL    HW117753   3.976   3.572   5.143  3.3533  0.4456  1.0060
 2097SOL    HW217754   3.992   3.434   5.103  0.2127  1.4698 -0.7089
 2098SOL     OW17755   1.456   0.083   7.196  0.3628 -0.6982 -0.0059
 2098SOL    HW117756   1.404   0.146   7.245  2.8875  0.5511  1.0960
 2098SOL    HW217757   1.509   0.034   7.259  2.8512 -0.3585 -1.8288
 2099SOL     OW17758   1.312   3.242   7.556 -0.4145 -0.5550  0.2479
 2099SOL    HW117759   1.406   3.260   7.562 -0.2390 -1.4080  0.0345
 2099SOL    HW217760   1.278   3.300   7.623  1.6296  0.1642  0.6795
 2100SOL     OW17761   1.693   0.852   6.676  0.3433  0.1374  0.0469
 2100SOL    HW117762   1.650   0.917   6.620 -0.6970 -0.2980  0.3263
 2100SOL    HW217763   1.620   0.820   6.730  0.4809  1.6539  1.1348
 2101SOL     OW17764   3.624   2.516   4.586  0.1001  0.1722 -0.5804
 2101SOL    HW117765   3.590   2.427   4.588  2.6011 -0.7541  0.5642
 2101SOL    HW217766   3.550   2.559   4.544 -0.1724  1.1958  0.9272
 2102SOL     OW17767   1.544   0.206   7.489  0.3586 -0.1280  0.3519
 2102SOL    HW117768   1.538   0.111   7.492  1.3588 -0.1818  1.0344
 2102SOL    HW217769   1.578   0.220   7.578  2.9615 -1.3922 -0.4211
 2103SOL     OW17770   3.228   0.759   9.917  0.0169 -0.5719 -0.8225
 2103SOL    HW117771   3.301   0.815   9.890  0.2789  0.2837  1.6312
 2103SOL    HW217772   3.274   0.711   9.986 -0.4252 -0.3558 -0.3691
 2104SOL     OW17773   2.374   2.029   7.092  0.2837 -0.3281  0.6429
 2104SOL    HW117774   2.347   2.088   7.161 -0.4004 -0.3260  0.3749
 2104SOL    HW217775   2.437   1.970   7.133  1.0148  1.2267  1.7563
 2105SOL     OW17776   3.612   1.199   5.480 -0.7322 -0.6378  0.3142
 2105SOL    HW117777   3.603   1.105   5.495 -0.2210 -1.0815 -2.1511
 2105SOL    HW217778   3.634   1.216   5.388  0.0721 -1.8955  0.2734
 2106SOL     OW17779   0.195   0.176   4.338 -0.0466 -0.3896  0.2170
 2106SOL    HW117780   0.171   0.243   4.274 -0.7082 -2.4428 -1.6737
 2106SOL    HW217781   0.103   0.153   4.355 -0.3443 -0.3118 -1.2306
 2107SOL     OW17782   2.141   1.932   7.405 -0.1751  0.1156 -0.4102
 2107SOL    HW117783   2.090   1.977   7.337 -0.3859  1.9557  0.9937
 2107SOL    HW217784   2.069   1.898   7.457  0.7003 -1.1922 -0.0403
 2108SOL     OW17785   4.111   3.557   4.718  0.0071 -0.0356  0.0820
 2108SOL    HW117786   4.110   3.631   4.657  0.0494  0.3397  0.5393
 2108SOL    HW217787   4.065   3.579   4.799 -0.2063  0.8632 -0.2900
 2109SOL     OW17788   1.208   2.470   6.612 -0.0515  1.0634  0.1130
 2109SOL    HW117789   1.150   2.536   6.572 -0.8057 -0.0048 -0.5519
 2109SOL    HW217790   1.271   2.520   6.665 -1.2636  1.6778  0.9743
 2110SOL     OW17791   2.765   1.007   3.938  0.5629 -0.0768  0.3739
 2110SOL    HW117792   2.706   1.054   3.997  0.9510 -2.6880  2.8730
 2110SOL    HW217793   2.760   1.053   3.854  1.7095 -0.1049  0.2909
 2111SOL     OW17794   1.181   2.737   3.446  0.0799  0.1985  0.2606
 2111SOL    HW117795   1.252   2.762   3.387 -0.3594  1.4951  0.2810
 2111SOL    HW217796   1.210   2.647   3.460  1.3246  0.5450 -0.0803
 2112SOL     OW17797   0.539   3.853  12.161  0.7635  0.2121  0.3603
 2112SOL    HW117798   0.541   3.761  12.189  1.8705  0.1355  0.0109
 2112SOL    HW217799   0.558   3.850  12.068  0.6356 -0.0587  0.3430
 2113SOL     OW17800   0.233   3.574   8.758  0.2217 -0.0762  0.9175
 2113SOL    HW117801   0.143   3.600   8.737  1.3678  3.4301  0.3242
 2113SOL    HW217802   0.221   3.481   8.741 -0.1435  0.3538 -1.1377
 2114SOL     OW17803   0.708   1.103   2.158  0.0619 -0.2531 -0.9753
 2114SOL    HW117804   0.649   1.171   2.124 -1.9274 -1.2367  0.5535
 2114SOL    HW217805   0.790   1.146   2.133  0.7824 -1.4852 -0.7326
 2115SOL     OW17806   3.951   2.171   5.729 -0.7212 -0.4762 -0.0844
 2115SOL    HW117807   3.981   2.246   5.781  1.0720  0.0359 -1.8539
 2115SOL    HW217808   3.947   2.210   5.641  0.0318 -0.3880 -0.0860
 2116SOL     OW17809   0.191   0.529   5.916 -0.2600  0.3170 -0.4625
 2116SOL    HW117810   0.096   0.533   5.906 -0.2582  2.2609  0.3978
 2116SOL    HW217811   0.203   0.435   5.929  2.4359  0.8471  0.7323
 2117SOL     OW17812   1.475   3.231   2.125 -0.2245 -0.2009  0.1468
 2117SOL    HW117813   1.398   3.252   2.179  1.2960 -0.0601  2.2559
 2117SOL    HW217814   1.438   3.262   2.043 -2.3631 -1.7876  0.5008
 2118SOL     OW17815   3.946   2.047   3.556  0.4415 -0.2050 -0.2053
 2118SOL    HW117816   3.994   2.120   3.517  0.2247  0.0408 -0.0180
 2118SOL    HW217817   3.896   2.097   3.620 -0.6648 -0.4060 -0.9017
 2119SOL     OW17818   2.475   0.539   5.181  0.2578 -0.2886  0.4407
 2119SOL    HW117819   2.388   0.534   5.142  0.4865  0.9203 -0.2389
 2119SOL    HW217820   2.493   0.453   5.218 -0.8689 -0.2870  0.9677
 2120SOL     OW17821   1.720   4.394   4.276 -0.0917  0.1228  0.4674
 2120SOL    HW117822   1.802   4.346   4.289  0.3053  0.4947 -0.6817
 2120SOL    HW217823   1.685   4.345   4.202  0.2115  2.5435 -1.2850
 2121SOL     OW17824   2.409   4.535   2.789 -0.8434 -0.4729  0.7522
 2121SOL    HW117825   2.318   4.507   2.779 -1.5184  1.7147  0.9276
 2121SOL    HW217826   2.414   4.614   2.736 -0.6941 -0.5384  0.6688
 2122SOL     OW17827   2.900   0.243   8.944 -1.2615  0.2607 -0.1331
 2122SOL    HW117828   2.995   0.252   8.934 -1.2327 -0.3392 -0.4024
 2122SOL    HW217829   2.884   0.317   9.002 -0.0127 -0.7011  1.4323
 2123SOL     OW17830   3.438   1.641   8.144 -0.0401 -0.0133 -0.0198
 2123SOL    HW117831   3.399   1.608   8.063  0.8777  1.1412 -0.9279
 2123SOL    HW217832   3.530   1.623   8.128 -0.1107 -1.2192  0.9215
 2124SOL     OW17833   2.078   4.508   5.723  0.4305 -0.7691  0.0725
 2124SOL    HW117834   2.073   4.424   5.769 -2.1952 -0.0610  1.1050
 2124SOL    HW217835   2.110   4.481   5.636  1.3114  3.5252 -0.9089
 2125SOL     OW17836   2.860   4.125   8.327  0.2331 -0.3817  0.4232
 2125SOL    HW117837   2.850   4.203   8.382  0.6615  1.0175 -1.4900
 2125SOL    HW217838   2.936   4.082   8.365  0.5199  0.6106  0.9634
 2126SOL     OW17839   0.886   2.020  10.838 -0.0759 -0.0856 -0.3316
 2126SOL    HW117840   0.823   1.991  10.904 -0.8205  1.7389 -0.2236
 2126SOL    HW217841   0.851   1.993  10.753 -0.5433  1.8462 -0.7560
 2127SOL     OW17842   0.685   1.656   0.915 -0.0802  0.2879  0.0120
 2127SOL    HW117843   0.710   1.615   0.832 -0.5048  1.2241 -0.5828
 2127SOL    HW217844   0.746   1.730   0.913 -0.3758  0.5340  0.0740
 2128SOL     OW17845   1.256   2.545  15.164  0.2466 -0.0197 -0.1374
 2128SOL    HW117846   1.313   2.621  15.154  0.4391 -0.1304  0.1199
 2128SOL    HW217847   1.255   2.507  15.076 -1.6298  0.2569 -0.2316
 2129SOL     OW17848   2.294   1.370   5.558 -0.2323 -0.1463  0.5398
 2129SOL    HW117849   2.207   1.337   5.581  0.1638 -1.2317  0.4928
 2129SOL    HW217850   2.304   1.461   5.584 -0.9255  0.3609 -0.9372
 2130SOL     OW17851   0.560   3.974   6.137 -0.2728  0.3728 -0.2190
 2130SOL    HW117852   0.559   4.061   6.176  0.9798 -0.1945  1.0746
 2130SOL    HW217853   0.476   3.982   6.090  0.0273 -0.4245 -0.8926
 2131SOL     OW17854   4.636   0.248   9.357  0.1963 -0.4356  0.0029
 2131SOL    HW117855   4.679   0.290   9.282  1.0061 -0.5316  0.4141
 2131SOL    HW217856   4.622   0.320   9.418  1.2493  0.1837 -0.4806
 2132SOL     OW17857   0.829   2.314   5.243 -0.2082 -0.1796 -0.1548
 2132SOL    HW117858   0.854   2.393   5.292 -0.6053 -0.2104  0.1002
 2132SOL    HW217859   0.893   2.320   5.172 -0.7735 -0.7234 -0.7033
 2133SOL     OW17860   0.720   0.614   6.339  0.0126 -0.0506  0.3337
 2133SOL    HW117861   0.668   0.626   6.260 -0.6395  1.4087  0.9796
 2133SOL    HW217862   0.659   0.608   6.413  0.4068 -2.2540  0.4893
 2134SOL     OW17863   0.022   2.059   1.379  0.1545 -0.0203 -0.3477
 2134SOL    HW117864   4.658   2.040   1.356 -0.2575  1.0652  0.4241
 2134SOL    HW217865   0.070   2.024   1.303 -0.1887  0.7397 -0.9089
 2135SOL     OW17866   3.007   4.652   8.356  0.6446  0.4566 -0.0247
 2135SOL    HW117867   2.989   4.575   8.301  1.9692 -0.0513  0.2452
 2135SOL    HW217868   3.003   4.721   8.290  0.2709  1.2173  0.7918
 2136SOL     OW17869   2.823   3.968  11.543 -0.0814  0.1863  0.3357
 2136SOL    HW117870   2.741   4.003  11.578 -0.2061  0.7849 -0.5583
 2136SOL    HW217871   2.802   3.876  11.528  0.5060  0.1094 -0.0144
 2137SOL     OW17872   4.674   0.505   9.825 -0.4061 -0.0410 -0.4677
 2137SOL    HW117873   4.663   0.508   9.730 -2.1399  1.1626 -0.2355
 2137SOL    HW217874   4.707   0.419   9.848 -0.9721 -0.4799 -1.3064
 2138SOL     OW17875   3.384   0.641   0.238 -0.0171  0.3923 -0.2255
 2138SOL    HW117876   3.390   0.621   0.331 -0.1749 -1.6705 -0.6614
 2138SOL    HW217877   3.386   0.553   0.201 -0.4061 -1.2913  3.8109
 2139SOL     OW17878   0.389   4.247   1.401  0.2032 -0.4356  0.0861
 2139SOL    HW117879   0.350   4.328   1.369 -0.0802 -0.9722 -0.9004
 2139SOL    HW217880   0.312   4.191   1.408  0.1525 -0.2547  1.0210
 2140SOL     OW17881   2.340   3.882   8.347 -0.3234  0.3711 -0.2368
 2140SOL    HW117882   2.391   3.943   8.294 -1.2238  1.0490 -0.3209
 2140SOL    HW217883   2.392   3.805   8.323 -1.0129  0.1950 -1.2096
 2141SOL     OW17884   2.667   3.130  16.700 -0.2077 -0.4734 -0.3865
 2141SOL    HW117885   2.643   3.157  16.789 -2.4639  1.7826 -1.6442
 2141SOL    HW217886   2.722   3.202  16.669 -0.0951 -0.4960 -0.2392
 2142SOL     OW17887   2.077   3.884   0.984 -0.2914  0.1477  0.1593
 2142SOL    HW117888   2.103   3.969   0.950 -1.1352  0.5855  0.6064
 2142SOL    HW217889   2.160   3.851   1.018 -0.1685  1.0265  0.6936
 2143SOL     OW17890   0.749   3.588   1.985  0.1924  0.0765 -0.1939
 2143SOL    HW117891   0.712   3.596   1.897 -2.2169  0.5337  0.8734
 2143SOL    HW217892   0.842   3.574   1.964  0.0852 -1.2725  0.1828
 2144SOL     OW17893   0.378   0.595   8.494 -0.4355  0.2714  0.3195
 2144SOL    HW117894   0.449   0.583   8.431 -2.3674 -1.3729 -1.5311
 2144SOL    HW217895   0.349   0.682   8.466  0.2022 -0.2530 -1.9917
 2145SOL     OW17896   0.869   1.259   5.821 -0.3870 -0.5272  0.0116
 2145SOL    HW117897   0.776   1.238   5.828 -0.4997 -0.1578 -0.4248
 2145SOL    HW217898   0.874   1.348   5.788  0.1668 -0.3549  0.5502
 2146SOL     OW17899   3.149   3.108   2.720 -0.2775 -0.4551  0.5458
 2146SOL    HW117900   3.077   3.066   2.672  0.6508  1.1091 -2.1921
 2146SOL    HW217901   3.119   3.198   2.718 -0.2472 -0.3811  4.2469
 2147SOL     OW17902   3.135   1.376   6.757  0.1418  0.6744  0.5894
 2147SOL    HW117903   3.195   1.431   6.706 -1.1225  0.9156 -0.6429
 2147SOL    HW217904   3.072   1.360   6.687  0.5509  0.9548  0.1502
 2148SOL     OW17905   2.036   2.546  15.029 -0.4120 -0.6340 -0.5369
 2148SOL    HW117906   2.024   2.459  14.990  0.8053  0.0400 -2.4182
 2148SOL    HW217907   1.950   2.583  15.015 -0.2911 -0.1789 -0.0955
 2149SOL     OW17908   2.019   3.177   8.372  0.0249 -0.8897 -0.0321
 2149SOL    HW117909   1.981   3.089   8.372 -2.5570  0.2109 -0.4746
 2149SOL    HW217910   1.934   3.211   8.398  1.2613  3.5668 -1.7524
 2150SOL     OW17911   2.007   1.093   0.195  0.0915 -0.8122 -0.4291
 2150SOL    HW117912   1.999   1.148   0.117 -1.6117  0.8785  0.9120
 2150SOL    HW217913   2.076   1.149   0.230 -0.4827 -0.1219 -0.3977
 2151SOL     OW17914   3.193   0.572   6.256 -0.3483 -0.4625 -0.3553
 2151SOL    HW117915   3.228   0.490   6.220  0.6995  0.3952 -1.2765
 2151SOL    HW217916   3.258   0.629   6.215 -2.2261  2.4043  0.6538
 2152SOL     OW17917   1.982   1.508   8.401  0.0017 -0.1017 -0.0633
 2152SOL    HW117918   1.959   1.456   8.324  2.0767  0.9046 -1.3771
 2152SOL    HW217919   2.015   1.438   8.457  2.6033  2.7215  1.9526
 2153SOL     OW17920   2.916   0.756  14.886  0.0937 -0.6496 -0.0433
 2153SOL    HW117921   2.980   0.744  14.956  0.2456  2.8295  0.4005
 2153SOL    HW217922   2.959   0.823  14.833  0.7291  0.9596  2.5596
 2154SOL     OW17923   0.761   3.858   1.014  0.1115  0.1706 -0.4154
 2154SOL    HW117924   0.751   3.923   0.944  0.5577  1.4831  0.7386
 2154SOL    HW217925   0.669   3.839   1.032  0.1867  0.1354 -0.0819
 2155SOL     OW17926   2.709   1.534   8.912 -0.3300 -0.1962 -0.3187
 2155SOL    HW117927   2.722   1.610   8.970  1.2975 -0.9106  0.2571
 2155SOL    HW217928   2.726   1.578   8.829  0.5708 -1.2418 -0.6894
 2156SOL     OW17929   4.536   4.158   1.511  0.1072 -0.3036 -0.0404
 2156SOL    HW117930   4.613   4.108   1.484 -0.7094 -0.2321 -2.4817
 2156SOL    HW217931   4.574   4.192   1.593 -0.2905 -0.2504  0.1220
 2157SOL     OW17932   3.045   1.187   2.028 -0.4167 -0.1711 -0.0240
 2157SOL    HW117933   3.032   1.099   2.065 -2.0377  1.0988  2.4107
 2157SOL    HW217934   2.964   1.195   1.977  0.0389  2.1838 -0.3344
 2158SOL     OW17935   3.142   4.612   2.274 -0.1813  0.0627  0.0289
 2158SOL    HW117936   3.204   4.581   2.208 -1.1986  0.1262 -0.9554
 2158SOL    HW217937   3.067   4.624   2.216  0.2707  1.2638 -0.3022
 2159SOL     OW17938   2.716   3.060   7.857 -0.0045  0.0963  0.5782
 2159SOL    HW117939   2.673   3.028   7.778 -1.8350 -0.2875  1.7390
 2159SOL    HW217940   2.761   2.980   7.884 -0.8764 -0.8647 -0.8263
 2160SOL     OW17941   2.800   3.472  13.845 -0.0899  0.2166  0.0921
 2160SOL    HW117942   2.858   3.404  13.810  0.8920  1.4475 -0.6429
 2160SOL    HW217943   2.847   3.555  13.840 -1.7175  0.8109 -5.2705
 2161SOL     OW17944   2.736   1.737   9.090  0.0131  0.0338 -0.5542
 2161SOL    HW117945   2.790   1.779   9.156 -1.1864  1.1317 -0.2631
 2161SOL    HW217946   2.643   1.751   9.111  0.8205  0.4848  2.6278
 2162SOL     OW17947   0.783   0.938   4.155  0.2176 -0.4848 -0.4122
 2162SOL    HW117948   0.848   0.937   4.084 -0.6222 -2.4636 -1.1413
 2162SOL    HW217949   0.832   0.927   4.236 -2.4479  0.8136  1.3885
 2163SOL     OW17950   3.389   4.340   9.356 -0.5528 -0.1733  0.4560
 2163SOL    HW117951   3.362   4.346   9.447 -0.5973  1.9502  0.2976
 2163SOL    HW217952   3.357   4.427   9.332  0.3350  0.4147  1.3837
 2164SOL     OW17953   4.660   1.692  15.356  0.4490  0.6476  0.2432
 2164SOL    HW117954   4.584   1.744  15.329 -0.3013  0.0191  1.1549
 2164SOL    HW217955   4.620   1.633  15.420  1.0437 -0.1433 -0.1167
 2165SOL     OW17956   0.832   0.025   7.213 -0.5798 -0.0260 -1.0441
 2165SOL    HW117957   0.900   0.077   7.256 -1.4829 -0.5928  1.0781
 2165SOL    HW217958   0.869   0.013   7.126 -0.4130  1.8518 -1.2438
 2166SOL     OW17959   3.156   4.079   1.738 -0.1801 -0.4560 -0.2780
 2166SOL    HW117960   3.140   4.143   1.670  1.7584 -1.6070 -1.8187
 2166SOL    HW217961   3.067   4.056   1.764 -0.4159  2.2410  1.3015
 2167SOL     OW17962   0.683   1.477   8.821  0.1893  0.3726  0.6117
 2167SOL    HW117963   0.742   1.402   8.811 -0.7175 -0.3012  0.3962
 2167SOL    HW217964   0.612   1.440   8.769  2.4054 -0.9133 -1.4896
 2168SOL     OW17965   1.837   3.230   3.018  0.1357 -0.4210 -0.5635
 2168SOL    HW117966   1.750   3.271   3.015  0.0342 -0.5945 -0.0529
 2168SOL    HW217967   1.882   3.304   3.058  0.7831 -0.7809 -0.6338
 2169SOL     OW17968   3.307   2.218  13.717  0.0281  1.0143 -0.3677
 2169SOL    HW117969   3.261   2.215  13.633 -1.4086 -0.6470  0.4719
 2169SOL    HW217970   3.231   2.240  13.771  1.4468  3.6757  0.5641
 2170SOL     OW17971   3.112   0.159   4.233 -0.7245  0.6689  0.1336
 2170SOL    HW117972   3.127   0.119   4.319 -0.7658  1.4666  0.5110
 2170SOL    HW217973   3.066   0.085   4.193 -2.0983  1.3219  0.5111
 2171SOL     OW17974   0.032   2.866   5.530 -0.1600  0.0871  0.3047
 2171SOL    HW117975   0.025   2.823   5.615 -1.4063 -1.6444 -0.6539
 2171SOL    HW217976   0.112   2.917   5.538 -0.6256  1.0439 -1.0804
 2172SOL     OW17977   2.370   2.033   2.817  0.4789 -0.6316 -0.3922
 2172SOL    HW117978   2.392   1.952   2.863  0.1669  0.1327  1.0947
 2172SOL    HW217979   2.409   2.006   2.734 -1.9129 -0.8487 -1.4518
 2173SOL     OW17980   2.448   1.097   8.766 -0.4617 -0.1096 -0.0601
 2173SOL    HW117981   2.395   1.025   8.732  0.2474 -0.7777  0.2424
 2173SOL    HW217982   2.426   1.173   8.711 -3.1794  0.0967  1.3192
 2174SOL     OW17983   2.619   4.722  10.691 -0.6961 -0.2107 -0.1216
 2174SOL    HW117984   2.686   4.654  10.702 -0.4119  0.3752  1.7439
 2174SOL    HW217985   2.585   4.709  10.603 -2.3000  2.3066  0.1560
 2175SOL     OW17986   0.383   1.411  15.490  0.1739  0.3496  0.6353
 2175SOL    HW117987   0.354   1.371  15.408 -0.3718  1.5826  0.2323
 2175SOL    HW217988   0.473   1.432  15.465 -1.2169  2.4186 -2.6773
 2176SOL     OW17989   3.403   2.947   7.483 -0.8711 -0.7656  0.1741
 2176SOL    HW117990   3.487   2.929   7.442 -1.0331  0.9817 -0.9070
 2176SOL    HW217991   3.394   2.874   7.544  0.2950 -1.3851 -0.3998
 2177SOL     OW17992   1.833   0.342  11.768 -0.3136  0.1365 -0.1767
 2177SOL    HW117993   1.875   0.428  11.766  1.1273 -0.5553 -0.0593
 2177SOL    HW217994   1.907   0.296  11.727 -0.9589 -1.9263  0.9722
 2178SOL     OW17995   2.902   3.643   4.236  0.0270 -0.5076  0.2044
 2178SOL    HW117996   2.967   3.659   4.167 -1.7706 -0.3848 -1.4558
 2178SOL    HW217997   2.893   3.732   4.270 -0.7336 -0.2534 -0.6600
 2179SOL     OW17998   0.122   1.568   2.336 -0.0725  0.0036 -0.0805
 2179SOL    HW117999   0.195   1.601   2.284  0.1882  0.9454  0.8875
 2179SOL    HW218000   0.071   1.645   2.360  1.8374  1.3823 -0.5069
 2180SOL     OW18001   2.847   3.155   7.551  0.0221  0.0401 -0.0133
 2180SOL    HW118002   2.762   3.147   7.593 -0.7948 -1.1848 -1.8834
 2180SOL    HW218003   2.832   3.242   7.515 -0.5576 -0.6082 -1.3324
 2181SOL     OW18004   0.932   3.072   6.489  0.0930  0.2554  0.6029
 2181SOL    HW118005   0.967   3.004   6.547 -1.5866 -1.5538 -0.5297
 2181SOL    HW218006   0.844   3.083   6.523  0.4157  0.2536  1.4409
 2182SOL     OW18007   0.341   4.141  16.331  0.1187  0.5346  0.4777
 2182SOL    HW118008   0.246   4.152  16.336 -0.0508 -1.4249  1.3998
 2182SOL    HW218009   0.377   4.189  16.405  0.9257  1.5574 -0.5684
 2183SOL     OW18010   4.242   3.422   1.817 -0.5154 -0.8409 -0.6032
 2183SOL    HW118011   4.242   3.338   1.770 -0.9930 -0.8767 -0.5416
 2183SOL    HW218012   4.195   3.480   1.757  0.0322  1.2715  1.0006
 2184SOL     OW18013   0.024   0.673   9.535  0.2580  0.3620 -0.6908
 2184SOL    HW118014   0.051   0.725   9.610  1.3841 -0.3565 -0.5859
 2184SOL    HW218015   0.068   0.712   9.459  2.2454 -1.7889 -0.6821
 2185SOL     OW18016   3.235   3.870   2.678  0.1076 -0.2156 -0.4040
 2185SOL    HW118017   3.304   3.937   2.680  1.1044 -1.2611  0.7381
 2185SOL    HW218018   3.210   3.886   2.587  0.3427  1.3907 -0.1751
 2186SOL     OW18019   3.513   3.021  11.798  0.3598 -0.2283  0.3832
 2186SOL    HW118020   3.436   3.062  11.837  1.4173 -0.2045  2.4612
 2186SOL    HW218021   3.477   2.951  11.744 -1.2603  0.7443  0.2107
 2187SOL     OW18022   3.650   2.881   7.940  0.1797  0.0775  0.0056
 2187SOL    HW118023   3.647   2.785   7.938 -0.0311  0.0645  0.8436
 2187SOL    HW218024   3.572   2.900   7.887 -0.9281 -2.3813  0.7591
 2188SOL     OW18025   4.511   0.761   6.145  0.2474  0.3570  0.8740
 2188SOL    HW118026   4.421   0.742   6.170  0.4849 -0.3158  1.2099
 2188SOL    HW218027   4.488   0.800   6.060  2.8940  2.2626  1.0158
 2189SOL     OW18028   1.944   2.308   8.067 -0.2961  0.5598  0.1995
 2189SOL    HW118029   2.021   2.318   8.123 -0.5280 -0.9168  0.7742
 2189SOL    HW218030   1.884   2.364   8.116  0.1998  0.0251  1.4058
 2190SOL     OW18031   2.553   1.974   8.847 -0.4550 -0.1733  0.2685
 2190SOL    HW118032   2.540   1.992   8.754  1.0040  0.3510  0.1666
 2190SOL    HW218033   2.468   1.955   8.885 -1.3390 -0.5418 -1.8712
 2191SOL     OW18034   4.326   0.976   8.036  0.9588 -0.0833 -0.3899
 2191SOL    HW118035   4.350   0.916   7.966 -3.4769 -0.2508 -1.7492
 2191SOL    HW218036   4.236   0.964   8.066  1.4681 -0.7082  0.9035
 2192SOL     OW18037   0.398   2.744   5.577 -0.9641 -0.3568 -0.0490
 2192SOL    HW118038   0.438   2.663   5.609 -1.3877 -0.2734  0.7100
 2192SOL    HW218039   0.349   2.765   5.657 -1.7380  2.7026 -1.3170
 2193SOL     OW18040   0.897   2.287   9.219 -0.2120 -0.0909  0.3401
 2193SOL    HW118041   0.894   2.228   9.295 -2.2911  0.9163  1.0445
 2193SOL    HW218042   0.979   2.332   9.237 -1.2317  1.8519  0.1211
 2194SOL     OW18043   3.580   1.921   2.923  0.3051 -0.3629  0.0311
 2194SOL    HW118044   3.509   1.983   2.935  0.4202 -0.0793 -0.7560
 2194SOL    HW218045   3.647   1.950   2.985  0.4894 -1.5081  0.3794
 2195SOL     OW18046   1.032   3.271   3.428 -0.5662 -0.6205  0.0561
 2195SOL    HW118047   1.109   3.320   3.456 -1.4152 -0.9518  2.9813
 2195SOL    HW218048   0.969   3.304   3.493  0.0515 -0.1982  0.4478
 2196SOL     OW18049   0.468   3.452   4.019  0.1565  0.4568 -0.0843
 2196SOL    HW118050   0.510   3.494   3.944  1.4529  1.1485  1.0492
 2196SOL    HW218051   0.391   3.509   4.014 -0.5275 -0.4227  0.3289
 2197SOL     OW18052   2.350   1.170  13.539 -0.2516  0.0771 -0.1391
 2197SOL    HW118053   2.274   1.229  13.538 -0.8962 -0.7532 -1.3793
 2197SOL    HW218054   2.374   1.180  13.447 -0.1484 -0.1177 -0.1314
 2198SOL     OW18055   1.781   2.092   5.217  0.0920  0.0202 -0.2803
 2198SOL    HW118056   1.761   2.105   5.309 -4.8863  0.6902 -1.4744
 2198SOL    HW218057   1.876   2.076   5.215 -0.2713 -2.2416  0.6151
 2199SOL     OW18058   3.283   3.536   6.218  0.3052 -0.1422  0.1222
 2199SOL    HW118059   3.303   3.568   6.130  1.6981 -0.4864  0.3158
 2199SOL    HW218060   3.336   3.602   6.261  0.0708  0.4849 -0.5573
 2200SOL     OW18061   0.133   3.137   9.277  0.3759  0.0925 -0.0456
 2200SOL    HW118062   0.072   3.096   9.337  1.5502  0.4776  1.4078
 2200SOL    HW218063   0.086   3.214   9.243  1.1448  0.6414  0.1295
 2201SOL     OW18064   2.205   3.306  11.646 -0.3582 -0.9886 -0.2970
 2201SOL    HW118065   2.121   3.287  11.606 -0.3896 -1.3766 -0.0469
 2201SOL    HW218066   2.247   3.220  11.656 -0.1218 -0.7684  0.6504
 2202SOL     OW18067   0.378   4.344   4.750 -0.0164 -0.5467  0.2775
 2202SOL    HW118068   0.472   4.346   4.764  0.2610  0.8878 -1.8705
 2202SOL    HW218069   0.388   4.370   4.658  0.4333  0.9199  0.7476
 2203SOL     OW18070   3.000   0.136  12.713 -0.2849 -0.2919  0.4343
 2203SOL    HW118071   2.983   0.212  12.657 -0.5708  1.3750  2.7712
 2203SOL    HW218072   2.934   0.075  12.679  0.0058 -0.4069  0.0822
 2204SOL     OW18073   4.025   4.129  13.787  0.7467  0.1824 -0.2689
 2204SOL    HW118074   4.116   4.099  13.780  0.2651 -1.4832  0.4863
 2204SOL    HW218075   4.039   4.199  13.850  0.0736  0.3467 -0.3059
 2205SOL     OW18076   0.041   0.468  15.400 -0.1696 -0.2119 -0.0421
 2205SOL    HW118077   4.706   0.435  15.336  0.4974  1.1324 -1.3690
 2205SOL    HW218078   0.117   0.500  15.353  0.9292 -0.6663  1.4123
 2206SOL     OW18079   0.406   1.053   5.671 -0.5805 -0.1155 -0.6729
 2206SOL    HW118080   0.343   1.056   5.599  0.9363 -2.6233 -2.0968
 2206SOL    HW218081   0.374   0.978   5.721 -1.7397  0.2839 -0.8194
 2207SOL     OW18082   3.310   1.405   7.121  0.5401 -0.7490  0.4707
 2207SOL    HW118083   3.251   1.352   7.068 -0.1750 -1.4434  1.9445
 2207SOL    HW218084   3.315   1.360   7.206 -1.2232  0.9384  1.4732
 2208SOL     OW18085   1.663   1.764   7.614 -0.0115  0.2905  0.0274
 2208SOL    HW118086   1.641   1.748   7.522  2.1980 -1.7210 -0.1568
 2208SOL    HW218087   1.664   1.674   7.645 -0.6906  0.2780  0.0148
 2209SOL     OW18088   3.231   2.864   6.934 -0.2362 -0.0677  0.4423
 2209SOL    HW118089   3.191   2.947   6.908 -1.3038 -1.4012 -2.2513
 2209SOL    HW218090   3.322   2.883   6.915 -0.2184 -1.5679 -1.0056
 2210SOL     OW18091   1.247   0.017   7.696  0.2506  0.0432  0.2989
 2210SOL    HW118092   1.332   4.703   7.684 -0.6716 -0.9258 -2.9584
 2210SOL    HW218093   1.271   0.108   7.679  0.5118 -0.4499 -1.8933
 2211SOL     OW18094   4.205   4.629  12.403 -0.5107 -0.0117  0.3578
 2211SOL    HW118095   4.211   4.674  12.487  1.8015 -0.7245  0.5894
 2211SOL    HW218096   4.211   4.704  12.345  0.9294  0.1977  0.7718
 2212SOL     OW18097   4.722   3.825   5.706  0.1142  0.3882 -0.4425
 2212SOL    HW118098   0.073   3.865   5.668  1.0826 -2.6072 -1.5747
 2212SOL    HW218099   4.655   3.854   5.644 -1.6821 -0.4286  1.1036
 2213SOL     OW18100   2.810   1.521   2.760  0.1006 -0.2024  0.2254
 2213SOL    HW118101   2.733   1.472   2.731 -0.0053  1.3361 -2.0814
 2213SOL    HW218102   2.776   1.610   2.755  0.8313  0.0258 -0.6630
 2214SOL     OW18103   3.525   1.760  14.959  0.0946  0.0892 -0.2716
 2214SOL    HW118104   3.450   1.792  14.909 -2.5497 -0.7183  3.2065
 2214SOL    HW218105   3.533   1.842  15.007 -0.2977 -0.9098  1.4872
 2215SOL     OW18106   1.070   3.747  12.978  0.3647  0.1029 -0.6200
 2215SOL    HW118107   1.079   3.816  12.913  0.0101 -0.5611 -1.3759
 2215SOL    HW218108   1.143   3.777  13.033 -1.3400 -0.1625  1.8037
 2216SOL     OW18109   4.112   3.327   6.378  0.2355  0.3938  0.6627
 2216SOL    HW118110   4.076   3.248   6.418 -2.1363  0.6193 -1.0173
 2216SOL    HW218111   4.129   3.372   6.461  1.6126  0.0382  0.5686
 2217SOL     OW18112   0.656   1.950   9.756 -0.9570  0.3252  0.2238
 2217SOL    HW118113   0.637   1.875   9.813 -0.6697  0.9852  1.1820
 2217SOL    HW218114   0.706   1.908   9.686 -1.6975 -0.3018  0.0737
 2218SOL     OW18115   0.025   0.418   4.877 -0.6130  0.3274  0.4433
 2218SOL    HW118116   0.091   0.350   4.879 -3.2000 -2.2320 -1.3193
 2218SOL    HW218117   4.694   0.371   4.936  0.1927 -0.4521  0.6126
 2219SOL     OW18118   0.035   4.004   1.050 -0.2386  0.1819  0.3023
 2219SOL    HW118119   0.022   3.958   0.967  0.9759 -0.6150  0.5583
 2219SOL    HW218120   0.005   3.935   1.108 -0.9404  0.8948  0.7834
 2220SOL     OW18121   4.354   4.684   3.080  0.2879 -0.5765 -0.5060
 2220SOL    HW118122   4.259   4.684   3.064  0.1619  0.5596  0.2225
 2220SOL    HW218123   4.400   4.691   2.997 -0.2158  1.4763 -0.6013
 2221SOL     OW18124   3.577   3.440   3.196  0.0315 -0.0338 -0.0796
 2221SOL    HW118125   3.603   3.530   3.174  3.0082 -0.4251  1.9194
 2221SOL    HW218126   3.655   3.404   3.238 -1.0874 -1.6784  0.5814
 2222SOL     OW18127   3.616   0.266   3.796  0.3452 -0.0734  0.0351
 2222SOL    HW118128   3.579   0.349   3.829  0.7245  0.5788 -1.1811
 2222SOL    HW218129   3.700   0.296   3.763  0.6323  1.2692  1.9727
 2223SOL     OW18130   2.083   3.313   4.403  0.4392 -0.3558 -0.1431
 2223SOL    HW118131   1.990   3.304   4.424  0.5900 -3.9679 -0.9556
 2223SOL    HW218132   2.094   3.237   4.346 -0.7152 -1.3483  0.9717
 2224SOL     OW18133   0.144   1.224  15.620 -0.4343 -0.2251 -0.6410
 2224SOL    HW118134   0.239   1.208  15.622 -0.5655 -0.5753  1.8839
 2224SOL    HW218135   0.122   1.150  15.676 -2.2162  1.3246  0.6956
 2225SOL     OW18136   1.649   2.426   0.122  0.2641 -0.4209 -0.2566
 2225SOL    HW118137   1.634   2.332   0.132  1.2616 -0.7337 -1.6214
 2225SOL    HW218138   1.578   2.451   0.181  0.7415  0.5153 -0.0760
 2226SOL     OW18139   3.874   3.124   7.353  0.0297  0.3165 -0.1310
 2226SOL    HW118140   3.794   3.150   7.307  1.1961  2.0798 -1.1565
 2226SOL    HW218141   3.921   3.081   7.282 -1.5073  0.7694 -1.4279
 2227SOL     OW18142   3.526   1.402   0.348  0.3553 -0.5341 -0.1487
 2227SOL    HW118143   3.468   1.453   0.404 -0.6741 -2.4313  0.5015
 2227SOL    HW218144   3.586   1.473   0.324  0.3606 -0.6228 -0.3942
 2228SOL     OW18145   4.587   3.357  15.023 -0.4728 -0.3599  0.4014
 2228SOL    HW118146   4.525   3.286  15.004  0.2837 -0.7912 -0.4830
 2228SOL    HW218147   4.550   3.395  15.102  0.9903 -2.2804  2.0268
 2229SOL     OW18148   2.025   0.978   5.951 -0.1494  0.1582  0.4263
 2229SOL    HW118149   2.007   0.942   5.865  0.8456 -0.0720  0.3122
 2229SOL    HW218150   2.066   0.908   6.003  2.0403  0.8419 -0.3603
 2230SOL     OW18151   3.891   3.781  16.023 -0.1178  0.0299 -0.2804
 2230SOL    HW118152   3.831   3.853  16.000 -1.0095 -0.2248  1.2225
 2230SOL    HW218153   3.844   3.700  16.001  0.6091  0.0096 -1.7689
 2231SOL     OW18154   2.925   3.393   8.489 -0.4003  0.4196  0.0375
 2231SOL    HW118155   2.957   3.318   8.539 -1.1042  1.7727  2.5218
 2231SOL    HW218156   2.853   3.355   8.438 -0.3165  2.0882 -1.3342
 2232SOL     OW18157   2.477   0.309   5.304 -0.2464 -0.3350  0.6122
 2232SOL    HW118158   2.387   0.293   5.333  0.9879 -1.4401  3.8213
 2232SOL    HW218159   2.520   0.227   5.328 -2.5548 -1.4781  0.9089
 2233SOL     OW18160   3.980   0.658   3.624  0.8141 -0.5172  0.2733
 2233SOL    HW118161   3.957   0.644   3.532 -2.2284  0.0787  0.9715
 2233SOL    HW218162   3.949   0.578   3.665 -1.0297 -1.0662 -2.1645
 2234SOL     OW18163   3.388   0.073  16.658 -0.3263  0.9630  0.3906
 2234SOL    HW118164   3.315   0.136  16.665  0.2174  1.4600  1.6544
 2234SOL    HW218165   3.460   0.121  16.617 -0.4158  1.0099  0.2878
 2235SOL     OW18166   1.730   2.994   9.057  0.4831 -0.3724 -0.1732
 2235SOL    HW118167   1.689   2.907   9.058  0.6687 -0.4379  1.4563
 2235SOL    HW218168   1.730   3.017   8.964 -0.9359 -0.1220 -0.0960
 2236SOL     OW18169   2.890   3.923   9.472 -0.0074 -0.0563  0.2583
 2236SOL    HW118170   2.972   3.972   9.479 -0.0176  0.2645 -1.9837
 2236SOL    HW218171   2.902   3.864   9.546  0.7319 -0.3727 -0.1144
 2237SOL     OW18172   2.073   2.494  15.975  0.3161  0.0304 -1.2029
 2237SOL    HW118173   2.069   2.450  15.890 -0.1884 -1.3679 -0.4459
 2237SOL    HW218174   2.166   2.514  15.989 -0.0150 -0.1463  1.2422
 2238SOL     OW18175   0.618   3.792  15.178  0.5632  0.0417  0.4964
 2238SOL    HW118176   0.633   3.776  15.271 -1.5956 -0.2022  0.8036
 2238SOL    HW218177   0.565   3.719  15.146  1.1768 -0.8815  1.6053
 2239SOL     OW18178   2.722   2.337   9.019 -0.3436 -1.0322 -0.1509
 2239SOL    HW118179   2.755   2.292   8.941  0.4566  0.2378 -0.5548
 2239SOL    HW218180   2.665   2.267   9.050 -0.5431 -0.9700 -0.3784
 2240SOL     OW18181   3.001   3.576   6.527 -0.9127  0.2950 -0.7334
 2240SOL    HW118182   3.061   3.649   6.518  0.3777 -0.8584 -1.4924
 2240SOL    HW218183   2.961   3.572   6.440 -0.0552  1.7242 -1.1817
 2241SOL     OW18184   3.055   1.664   4.731  0.6542 -0.0516 -0.5395
 2241SOL    HW118185   3.047   1.760   4.732  0.2453 -0.0726 -1.8456
 2241SOL    HW218186   2.962   1.647   4.717  0.4065  1.4085 -0.7305
 2242SOL     OW18187   3.605   2.264   8.525 -0.2448 -0.8967  0.3094
 2242SOL    HW118188   3.690   2.262   8.567  0.0631 -3.0134 -0.4411
 2242SOL    HW218189   3.605   2.359   8.511 -1.1113 -1.1909 -1.8149
 2243SOL     OW18190   1.607   1.297   8.841  0.3319  0.4158 -0.1365
 2243SOL    HW118191   1.692   1.267   8.872  0.6651  0.2876 -1.1826
 2243SOL    HW218192   1.594   1.232   8.772 -1.7580  1.6832 -0.9697
 2244SOL     OW18193   1.059   3.568   0.872  0.4664 -0.2984  0.6479
 2244SOL    HW118194   1.084   3.654   0.908  0.2556  0.0869 -0.1190
 2244SOL    HW218195   0.996   3.600   0.807  1.4152  1.7040  0.7144
 2245SOL     OW18196   2.208   2.236   2.248 -0.6077 -0.7149 -0.9315
 2245SOL    HW118197   2.165   2.164   2.295 -2.8005  2.1855  1.4893
 2245SOL    HW218198   2.227   2.201   2.161  0.5637  2.1835 -1.8163
 2246SOL     OW18199   1.623   4.338   6.315  0.0846  0.0062 -0.4153
 2246SOL    HW118200   1.626   4.246   6.286  1.2692  0.4018 -1.5195
 2246SOL    HW218201   1.552   4.326   6.377  0.0098  1.4435 -0.2297
 2247SOL     OW18202   1.541   1.250   0.626 -0.4889  0.0673  0.4716
 2247SOL    HW118203   1.509   1.208   0.706  0.6680  0.4762  1.1500
 2247SOL    HW218204   1.518   1.191   0.554  1.6698 -1.2839  0.8586
 2248SOL     OW18205   0.922   0.598   7.860  0.0351 -0.3698 -0.1525
 2248SOL    HW118206   0.929   0.629   7.770  1.3168 -1.9864 -0.6191
 2248SOL    HW218207   0.846   0.539   7.855  0.2081 -0.5865 -0.2420
 2249SOL     OW18208   3.663   1.782   3.979  0.3653 -0.3234  0.0145
 2249SOL    HW118209   3.743   1.804   4.027 -1.8272  2.2661  2.4698
 2249SOL    HW218210   3.638   1.702   4.026 -1.4534  1.4886  2.1115
 2250SOL     OW18211   3.756   0.498   0.250  0.2064 -0.0016 -0.1754
 2250SOL    HW118212   3.816   0.563   0.287 -0.6912 -0.1060  1.5047
 2250SOL    HW218213   3.735   0.528   0.162 -0.8683 -1.4113 -0.4047
 2251SOL     OW18214   2.359   2.498   8.441  0.2415 -0.2387 -0.6772
 2251SOL    HW118215   2.296   2.567   8.462  1.5836  0.9641 -0.6391
 2251SOL    HW218216   2.316   2.433   8.498  0.2636 -1.1725 -1.7149
 2252SOL     OW18217   0.567   0.343   5.494 -0.3305 -0.2808  0.5226
 2252SOL    HW118218   0.627   0.377   5.428 -0.8235 -0.9334 -0.2592
 2252SOL    HW218219   0.604   0.402   5.559  2.0154  1.8003 -2.6753
 2253SOL     OW18220   2.450   4.146   3.322 -0.5577 -0.4010 -0.1047
 2253SOL    HW118221   2.358   4.172   3.316 -0.6083 -0.5887 -0.1485
 2253SOL    HW218222   2.483   4.227   3.362 -4.0920  1.1844 -0.3190
 2254SOL     OW18223   2.122   0.627   4.968  1.0051  0.2074 -0.3654
 2254SOL    HW118224   2.043   0.681   4.977 -1.0660 -2.7865 -0.5526
 2254SOL    HW218225   2.076   0.546   4.948 -1.2006  0.9497  1.6887
 2255SOL     OW18226   0.557   2.015   8.614  0.6793 -0.6997  0.2752
 2255SOL    HW118227   0.577   2.088   8.671  1.4427  0.3244 -1.3117
 2255SOL    HW218228   0.641   1.990   8.576  0.5560 -1.2938  0.3937
 2256SOL     OW18229   3.749   4.486   9.055  0.0736 -0.4686  0.2615
 2256SOL    HW118230   3.656   4.463   9.059  0.1922 -0.8871  0.6236
 2256SOL    HW218231   3.770   4.433   8.978 -0.6175 -1.0019  0.4297
 2257SOL     OW18232   0.435   1.102   9.445  1.0418  0.3047 -0.1124
 2257SOL    HW118233   0.449   1.195   9.428  1.2891  0.0896 -1.0677
 2257SOL    HW218234   0.514   1.075   9.491  1.2828 -0.5592 -1.0335
 2258SOL     OW18235   0.541   0.627   8.048  0.1323  0.0948 -0.0608
 2258SOL    HW118236   0.491   0.564   7.995  0.4797  0.5076 -0.8843
 2258SOL    HW218237   0.585   0.681   7.982  1.8623  0.5895  1.5114
 2259SOL     OW18238   1.695   0.964   8.100 -0.0734  0.2634 -0.2999
 2259SOL    HW118239   1.637   1.009   8.039  1.1678 -1.5422 -2.8204
 2259SOL    HW218240   1.625   0.917   8.146  0.4392  1.3198  1.5406
 2260SOL     OW18241   2.274   0.369   6.733  0.2121  0.2231  0.4027
 2260SOL    HW118242   2.368   0.351   6.733  0.1371 -0.1972 -0.5854
 2260SOL    HW218243   2.258   0.343   6.642  0.6796  0.5253  0.2351
 2261SOL     OW18244   3.727   2.910  10.782 -0.0697  0.5099 -0.5445
 2261SOL    HW118245   3.633   2.915  10.798 -0.1699  1.1245 -1.3330
 2261SOL    HW218246   3.759   2.988  10.828  0.0835  1.1675 -1.7643
 2262SOL     OW18247   2.441   1.172   2.802 -0.0217 -1.1151 -0.4073
 2262SOL    HW118248   2.492   1.101   2.763  0.8296  0.6439 -2.4672
 2262SOL    HW218249   2.358   1.162   2.756 -0.1498  2.1907 -0.8639
 2263SOL     OW18250   4.445   2.689   2.837 -0.0385  0.3302  0.0406
 2263SOL    HW118251   4.367   2.635   2.826  1.5577 -2.8565  4.5194
 2263SOL    HW218252   4.501   2.669   2.762 -0.5217 -2.7234  0.5146
 2264SOL     OW18253   3.012   1.973   8.318 -0.0901  0.2032  0.1367
 2264SOL    HW118254   3.007   2.068   8.304  0.3822  0.3856  1.2431
 2264SOL    HW218255   3.050   1.965   8.405  0.7345 -2.5475 -0.4865
 2265SOL     OW18256   2.685   1.982   7.697  0.1414  0.1771 -0.4198
 2265SOL    HW118257   2.681   1.952   7.788  0.1509  0.3113 -0.3752
 2265SOL    HW218258   2.779   1.997   7.688 -0.0529  1.4929 -0.3270
 2266SOL     OW18259   1.335   1.687   4.464 -0.6938  0.1614 -0.4343
 2266SOL    HW118260   1.273   1.702   4.535  1.0760  0.4577  1.0424
 2266SOL    HW218261   1.418   1.701   4.509 -0.3786 -1.5224 -0.4867
 2267SOL     OW18262   1.113   3.630   3.628 -0.1868 -0.3868  0.2707
 2267SOL    HW118263   1.179   3.678   3.579 -2.0311 -0.5986 -2.3929
 2267SOL    HW218264   1.062   3.695   3.677  0.2318  0.8977 -0.9952
 2268SOL     OW18265   4.597   0.657  13.641 -0.1013  0.8169 -0.5077
 2268SOL    HW118266   4.567   0.748  13.641  1.3604  1.2845  0.4782
 2268SOL    HW218267   4.599   0.642  13.735  0.1902 -1.3267 -0.8568
 2269SOL     OW18268   1.012   2.332  15.197  0.0831 -0.8170  1.0772
 2269SOL    HW118269   1.087   2.377  15.159 -0.7808  0.0796  0.4272
 2269SOL    HW218270   0.971   2.405  15.244  2.4948  2.2389 -1.6452
 2270SOL     OW18271   2.167   3.262   7.969  0.0191  0.2434  0.9743
 2270SOL    HW118272   2.074   3.243   7.982 -0.0662  0.0843  0.1333
 2270SOL    HW218273   2.185   3.342   8.018  2.8624 -0.8591  1.6995
 2271SOL     OW18274   0.099   3.168   2.639 -0.1922 -0.3468 -0.1927
 2271SOL    HW118275   0.015   3.189   2.680 -0.9827 -0.2635 -1.8589
 2271SOL    HW218276   0.060   3.088   2.602  1.1674 -0.2205 -1.8764
 2272SOL     OW18277   4.667   1.830   4.400  0.2113  0.3823  0.5400
 2272SOL    HW118278   0.016   1.879   4.431 -0.2899  3.0877 -2.5536
 2272SOL    HW218279   4.615   1.907   4.380 -0.7237 -0.3363  0.1883
 2273SOL     OW18280   2.847   0.967   4.414 -0.0893  0.2225  0.5040
 2273SOL    HW118281   2.925   1.014   4.443 -1.6549  1.9813  1.8995
 2273SOL    HW218282   2.883   0.913   4.344  0.8095  0.9918  0.3797
 2274SOL     OW18283   0.558   4.721   9.234  0.4014  0.4586  0.2170
 2274SOL    HW118284   0.523   0.083   9.233  0.1426  0.3638  0.6941
 2274SOL    HW218285   0.488   4.684   9.288  1.3284 -0.8424  0.5332
 2275SOL     OW18286   3.526   1.185   4.998 -0.1546  0.0017 -0.2753
 2275SOL    HW118287   3.438   1.154   4.977 -0.2708 -2.2504  3.5688
 2275SOL    HW218288   3.573   1.109   4.965  0.1177 -0.6475  1.6019
 2276SOL     OW18289   0.851   1.939   9.246  0.5227  0.1734  0.4375
 2276SOL    HW118290   0.887   1.857   9.279 -0.3256 -0.5800 -0.5211
 2276SOL    HW218291   0.926   1.997   9.262  0.4722  0.1441  0.7767
 2277SOL     OW18292   1.594   3.177   9.918 -0.2749 -0.1587  0.1151
 2277SOL    HW118293   1.500   3.166   9.924 -0.2569 -1.5058 -1.9471
 2277SOL    HW218294   1.608   3.256   9.865  1.4215  0.1322  0.9857
 2278SOL     OW18295   4.302   4.433   8.373  0.5988 -0.2315 -0.6358
 2278SOL    HW118296   4.326   4.502   8.310  1.6288 -0.2042 -0.1952
 2278SOL    HW218297   4.381   4.381   8.372  0.1931 -0.8513 -0.3661
 2279SOL     OW18298   1.617   3.498   8.067  0.1906 -0.0595 -0.1467
 2279SOL    HW118299   1.564   3.497   8.146  1.4559  2.4757  0.7253
 2279SOL    HW218300   1.594   3.413   8.028  1.2103  0.0368 -0.9709
 2280SOL     OW18301   3.253   1.839   1.671 -0.4675 -0.1969  0.4970
 2280SOL    HW118302   3.219   1.810   1.756  1.8838 -2.6949  0.5590
 2280SOL    HW218303   3.347   1.848   1.687 -0.2346 -1.2414 -0.3434
 2281SOL     OW18304   0.825   1.976   8.577  0.3783  0.6842 -0.3292
 2281SOL    HW118305   0.900   2.033   8.562  2.9251 -2.6924 -0.5815
 2281SOL    HW218306   0.878   1.908   8.619 -0.5040  0.5766  0.5911
 2282SOL     OW18307   3.698   2.714   0.661  0.2053  0.5679  0.5809
 2282SOL    HW118308   3.695   2.625   0.696  0.1430  0.0711 -0.7034
 2282SOL    HW218309   3.627   2.719   0.598  0.6644 -0.5199 -0.0128
 2283SOL     OW18310   0.829   4.201   5.624  0.1222  0.0627 -0.1946
 2283SOL    HW118311   0.880   4.121   5.636  1.0427  0.8857  1.4221
 2283SOL    HW218312   0.900   4.260   5.597  0.0281  0.5860  0.7047
 2284SOL     OW18313   3.869   2.102   2.812 -0.1842  0.5089 -0.0218
 2284SOL    HW118314   3.857   2.013   2.843  0.4835  0.2777 -0.4036
 2284SOL    HW218315   3.806   2.094   2.740  0.2942 -4.1649  0.0653
 2285SOL     OW18316   1.029   4.386   4.437  0.0755 -0.2919  0.3335
 2285SOL    HW118317   0.989   4.303   4.465 -1.3173  0.3255  0.1994
 2285SOL    HW218318   0.994   4.448   4.501 -2.5181  0.3091 -1.6721
 2286SOL     OW18319   2.546   3.610  15.215 -0.3127  0.2459 -0.3133
 2286SOL    HW118320   2.534   3.700  15.245  0.0873 -0.3657  1.7485
 2286SOL    HW218321   2.552   3.635  15.123 -0.3644 -1.6885 -0.8434
 2287SOL     OW18322   3.626   1.963  15.114  0.1143  0.3045  0.3803
 2287SOL    HW118323   3.591   1.956  15.203 -0.0028  0.4195  0.3442
 2287SOL    HW218324   3.635   2.059  15.116  3.3067 -0.0256  0.8426
 2288SOL     OW18325   1.388   1.341   4.301  0.6056 -0.2394  0.0295
 2288SOL    HW118326   1.483   1.338   4.311  0.2076 -1.1002  3.3587
 2288SOL    HW218327   1.358   1.284   4.372  0.2818 -0.2252 -0.0936
 2289SOL     OW18328   3.116   1.971   3.010  0.1400 -0.0910  0.5209
 2289SOL    HW118329   3.185   1.939   3.069  1.8499  1.8862 -0.3780
 2289SOL    HW218330   3.175   2.018   2.951  0.0365  2.6679  2.5580
 2290SOL     OW18331   3.747   1.431   9.739  0.1487 -0.3558  0.1799
 2290SOL    HW118332   3.768   1.384   9.819  1.4707 -0.7499 -0.3921
 2290SOL    HW218333   3.781   1.516   9.767  1.6529 -1.0157  0.3445
 2291SOL     OW18334   4.491   4.184   9.724  0.4450 -0.9834  0.5042
 2291SOL    HW118335   4.512   4.276   9.713 -1.8347 -0.6451 -0.9897
 2291SOL    HW218336   4.531   4.171   9.810  0.2738  2.0866  1.0596
 2292SOL     OW18337   1.598   3.756  12.082  0.9183  0.1639  0.3992
 2292SOL    HW118338   1.529   3.807  12.040 -1.1233 -1.6438  1.5216
 2292SOL    HW218339   1.597   3.805  12.165 -2.1899  0.1412  0.3666
 2293SOL     OW18340   3.102   1.598   8.573  0.5402 -0.6004 -0.2050
 2293SOL    HW118341   3.085   1.654   8.497 -1.0381  1.9565  2.0527
 2293SOL    HW218342   3.040   1.527   8.553  1.0974 -1.4940  1.2903
 2294SOL     OW18343   1.425   1.048   3.293  0.3844  0.1393  0.6899
 2294SOL    HW118344   1.367   1.017   3.224  1.6064 -0.3817 -0.1056
 2294SOL    HW218345   1.363   1.091   3.352 -1.6906 -3.7104  1.2817
 2295SOL     OW18346   0.941   4.461   3.071 -0.9821 -0.4413  0.4374
 2295SOL    HW118347   0.969   4.549   3.044 -0.1011 -0.6848  0.5573
 2295SOL    HW218348   0.932   4.478   3.164  1.6819 -2.9469  1.1603
 2296SOL     OW18349   3.158   1.930   2.415 -0.5860 -0.2070  0.4842
 2296SOL    HW118350   3.182   1.937   2.322  1.1182 -1.1230  0.8626
 2296SOL    HW218351   3.222   1.866   2.446  1.4115  0.6960 -1.7263
 2297SOL     OW18352   3.444   3.186   5.339  0.2494  0.3545 -0.7368
 2297SOL    HW118353   3.503   3.219   5.271  2.4179  1.3786  1.6283
 2297SOL    HW218354   3.365   3.164   5.288 -0.7884  1.9675  0.2025
 2298SOL     OW18355   3.768   1.924   0.834  0.4420 -0.6453 -0.0616
 2298SOL    HW118356   3.753   2.007   0.878 -2.8622  0.2433 -2.8933
 2298SOL    HW218357   3.741   1.862   0.902 -2.2829  2.2636  1.5043
 2299SOL     OW18358   4.367   1.479   4.111 -0.3446  0.2189 -0.0289
 2299SOL    HW118359   4.407   1.565   4.099  0.4789 -0.3778 -1.5459
 2299SOL    HW218360   4.298   1.488   4.045  0.7189 -1.1180 -1.3267
 2300SOL     OW18361   1.897   3.047  12.267 -0.3735  0.0432 -0.3504
 2300SOL    HW118362   1.948   3.001  12.333 -0.0256  0.8536 -0.0594
 2300SOL    HW218363   1.948   3.127  12.259 -0.2142 -0.1611 -1.3780
 2301SOL     OW18364   2.205   2.314   2.771  0.2273  0.1799  0.0176
 2301SOL    HW118365   2.156   2.380   2.721 -2.6243 -1.6439  0.3962
 2301SOL    HW218366   2.195   2.235   2.719 -0.5610 -2.8510  4.7628
 2302SOL     OW18367   4.671   2.890  14.009  0.2261  0.3427 -0.3809
 2302SOL    HW118368   4.630   2.857  13.929  0.5311  1.5089 -1.0082
 2302SOL    HW218369   4.608   2.958  14.033  0.4918  0.6624 -0.5976
 2303SOL     OW18370   1.421   4.338   2.171  0.3835 -0.6251  1.1348
 2303SOL    HW118371   1.488   4.326   2.105  1.2713  1.3290  1.6913
 2303SOL    HW218372   1.371   4.260   2.149  1.9809 -1.1950 -0.4043
 2304SOL     OW18373   3.238   1.601   1.974 -0.1876 -0.1477 -0.0510
 2304SOL    HW118374   3.329   1.584   1.999 -0.5542 -1.5059  0.3703
 2304SOL    HW218375   3.218   1.544   1.900 -0.0883  0.0018 -0.1930
 2305SOL     OW18376   0.961   4.127   6.194 -0.4207 -0.4776 -0.1846
 2305SOL    HW118377   0.910   4.128   6.275  0.5101  1.1715  0.3866
 2305SOL    HW218378   1.037   4.075   6.217 -0.5534 -1.3092 -1.6526
 2306SOL     OW18379   1.811   2.273   2.413 -0.2472  0.4644 -0.5709
 2306SOL    HW118380   1.894   2.313   2.390 -0.0744  1.1565  1.2604
 2306SOL    HW218381   1.788   2.211   2.344  3.2747 -0.3054 -1.0454
 2307SOL     OW18382   4.153   4.329   4.040 -0.0967  0.3478  0.5360
 2307SOL    HW118383   4.119   4.246   4.005  1.8623 -0.5532  0.7411
 2307SOL    HW218384   4.118   4.395   3.980  0.0251 -0.0112  0.0628
 2308SOL     OW18385   1.075   3.498   3.208  0.3102 -0.3425  0.0482
 2308SOL    HW118386   0.992   3.451   3.209 -0.0888  0.3665 -0.1812
 2308SOL    HW218387   1.126   3.467   3.283  1.7100  2.5440  0.2852
 2309SOL     OW18388   0.439   2.907   3.053 -0.0339  0.0909  0.2681
 2309SOL    HW118389   0.394   2.892   2.970 -1.9923  2.3245  0.9114
 2309SOL    HW218390   0.405   2.992   3.081  0.7369  0.0521  1.3487
 2310SOL     OW18391   3.398   3.206   7.504  0.1485  0.8741  0.4599
 2310SOL    HW118392   3.412   3.112   7.499 -1.7389  0.7303 -1.9668
 2310SOL    HW218393   3.479   3.233   7.461  0.8832 -0.2085  1.1776
 2311SOL     OW18394   2.409   3.285   3.597  0.4468 -0.6618 -0.0960
 2311SOL    HW118395   2.316   3.265   3.601  0.1265  0.5388 -1.7393
 2311SOL    HW218396   2.448   3.266   3.682  2.7745  1.6716 -0.6422
 2312SOL     OW18397   1.333   2.630  10.045 -0.1546 -0.1654 -0.1399
 2312SOL    HW118398   1.326   2.588   9.959 -0.1807 -0.4813  0.0172
 2312SOL    HW218399   1.427   2.650  10.046 -0.3382  0.6217  0.9012
 2313SOL     OW18400   3.742   4.453  13.563 -0.2330 -0.3715 -0.3266
 2313SOL    HW118401   3.717   4.527  13.618 -0.0144 -1.0623  0.7058
 2313SOL    HW218402   3.830   4.478  13.538  1.5693 -2.6535  3.7507
 2314SOL     OW18403   1.370   2.203   8.823  0.4296 -0.0106  0.5161
 2314SOL    HW118404   1.384   2.118   8.782  0.3519 -0.1185  0.7112
 2314SOL    HW218405   1.287   2.214   8.777  1.4359  0.6145 -1.1331
 2315SOL     OW18406   0.211   0.833   3.133  0.0146 -0.7558 -0.8679
 2315SOL    HW118407   0.307   0.836   3.138  0.1317 -0.7137 -3.3451
 2315SOL    HW218408   0.205   0.799   3.044  2.1373 -0.6030 -1.0771
 2316SOL     OW18409   0.105   3.292   6.523 -0.0894  0.5424  0.0840
 2316SOL    HW118410   0.046   3.326   6.456 -0.1511 -1.3598 -0.8402
 2316SOL    HW218411   0.112   3.200   6.497  2.6864  0.7874 -0.0938
 2317SOL     OW18412   4.450   4.157   8.198  0.0808 -0.2809 -0.0673
 2317SOL    HW118413   4.501   4.153   8.117  1.1120  3.7011  0.3626
 2317SOL    HW218414   4.363   4.136   8.166 -0.4331 -0.9825  1.7859
 2318SOL     OW18415   0.588   4.577   4.739  0.3879 -0.1882  0.2396
 2318SOL    HW118416   0.603   4.626   4.821 -0.9011  0.9424 -0.1962
 2318SOL    HW218417   0.582   4.655   4.684  1.2076 -0.3368 -0.0536
 2319SOL     OW18418   4.004   1.990  13.099 -0.2479 -0.1501  0.0531
 2319SOL    HW118419   3.993   1.895  13.093  1.1093 -0.2622 -0.5619
 2319SOL    HW218420   4.073   2.006  13.035 -2.3832 -2.6649 -2.8682
 2320SOL     OW18421   1.791   3.802  15.370  0.5060  0.3864  0.1477
 2320SOL    HW118422   1.782   3.759  15.285 -0.7407 -1.0129  0.9935
 2320SOL    HW218423   1.766   3.889  15.339 -2.1433 -0.8680 -1.1866
 2321SOL     OW18424   4.329   0.630   8.322 -0.6337 -0.3415  0.2941
 2321SOL    HW118425   4.270   0.623   8.397 -0.0662 -0.2955  0.7447
 2321SOL    HW218426   4.354   0.722   8.330 -0.3756 -0.3756 -0.1639
 2322SOL     OW18427   3.662   1.449   7.622 -0.2509 -0.3698 -0.3631
 2322SOL    HW118428   3.662   1.439   7.526 -1.4810 -1.4353 -0.2494
 2322SOL    HW218429   3.664   1.358   7.651 -0.9430  0.3814  1.9852
 2323SOL     OW18430   2.037   2.199   4.949  0.3440 -0.0597 -0.3332
 2323SOL    HW118431   1.955   2.216   4.902  2.4686  0.0167 -4.0180
 2323SOL    HW218432   2.043   2.273   5.009 -0.3590 -1.4978  1.5097
 2324SOL     OW18433   3.423   1.195   2.808 -0.2636  0.0527  0.0800
 2324SOL    HW118434   3.401   1.105   2.783 -1.9631 -0.2402  2.6337
 2324SOL    HW218435   3.335   1.232   2.811  1.1495  3.3353  0.3130
 2325SOL     OW18436   3.719   4.014  15.543  0.0253  0.6444 -0.0722
 2325SOL    HW118437   3.631   4.047  15.558  0.0053 -1.0240  3.4638
 2325SOL    HW218438   3.712   3.997  15.449 -1.5945  0.0385  0.1654
 2326SOL     OW18439   4.030   2.907   8.073 -0.6478 -0.3163  0.5261
 2326SOL    HW118440   4.015   2.894   7.979 -1.5949 -0.6578  0.7290
 2326SOL    HW218441   3.967   2.977   8.088 -2.4823 -1.6546 -0.8850
 2327SOL     OW18442   2.565   1.436   4.170  0.3882 -0.2176  0.0146
 2327SOL    HW118443   2.645   1.446   4.117  0.5826  0.6559  0.4644
 2327SOL    HW218444   2.575   1.518   4.218  0.4152 -0.7053  0.8318
 2328SOL     OW18445   3.769   3.774   4.917  0.1185  0.1726  0.3394
 2328SOL    HW118446   3.731   3.862   4.926 -0.1360 -0.1117  1.9893
 2328SOL    HW218447   3.701   3.751   4.853  2.7631 -2.5877 -1.4455
 2329SOL     OW18448   2.101   4.520  15.084  0.5776 -0.5895 -0.2960
 2329SOL    HW118449   2.184   4.504  15.039 -0.0472  0.7628 -1.8944
 2329SOL    HW218450   2.094   4.437  15.132 -2.0259  0.4334  1.1228
 2330SOL     OW18451   3.919   4.466   7.725 -0.3597  0.4305 -0.4580
 2330SOL    HW118452   3.962   4.462   7.810  1.5009  2.1723 -1.3345
 2330SOL    HW218453   3.913   4.560   7.704 -1.1570  0.3492 -0.5995
 2331SOL     OW18454   2.904   4.014   8.916 -0.3358  0.4044  0.2080
 2331SOL    HW118455   2.819   3.969   8.919  0.2246 -0.7766 -2.1392
 2331SOL    HW218456   2.899   4.078   8.988 -3.9987  2.0884 -1.5213
 2332SOL     OW18457   4.080   1.473  13.490  0.1411 -0.0789 -0.0031
 2332SOL    HW118458   3.992   1.462  13.453  0.4279 -0.2850 -0.6191
 2332SOL    HW218459   4.137   1.476  13.413 -0.1888  0.0371 -0.2429
 2333SOL     OW18460   1.386   0.305   7.807 -0.5680  0.1121 -0.5093
 2333SOL    HW118461   1.332   0.378   7.837 -4.0482 -1.9419 -1.8612
 2333SOL    HW218462   1.338   0.280   7.728  0.1146  0.1439 -0.9427
 2334SOL     OW18463   3.966   0.560   8.253 -0.7784  0.4713 -0.0325
 2334SOL    HW118464   4.039   0.535   8.310 -1.1012 -1.0739 -0.3123
 2334SOL    HW218465   4.010   0.571   8.169  1.0333 -1.7231  0.6186
 2335SOL     OW18466   0.359   0.973   4.405 -0.0846 -0.3262  0.4130
 2335SOL    HW118467   0.361   0.948   4.497 -0.3802 -2.3455 -0.1295
 2335SOL    HW218468   0.448   0.942   4.386 -0.7560 -1.9892 -0.0892
 2336SOL     OW18469   0.758   2.603   7.073  0.3270 -0.1109  0.1792
 2336SOL    HW118470   0.710   2.527   7.041 -0.7060  0.7402 -0.2846
 2336SOL    HW218471   0.832   2.558   7.113 -0.0298 -0.6793  0.1956
 2337SOL     OW18472   2.222   2.508   1.664  0.1853 -0.1393 -0.4041
 2337SOL    HW118473   2.143   2.556   1.689  0.9647  0.6511  0.5370
 2337SOL    HW218474   2.197   2.484   1.575 -1.1385  0.0888 -0.0945
 2338SOL     OW18475   0.598   3.979  10.448  0.0936 -0.1888 -0.0794
 2338SOL    HW118476   0.568   3.926  10.375 -0.0974  3.0926 -2.3916
 2338SOL    HW218477   0.687   3.945  10.448 -0.3715 -1.4039  2.1454
 2339SOL     OW18478   0.752   1.118   2.624  1.0508  0.1796 -0.9748
 2339SOL    HW118479   0.716   1.057   2.560 -1.9504  0.9253 -0.0295
 2339SOL    HW218480   0.679   1.156   2.674  1.1951  0.1143 -0.7126
 2340SOL     OW18481   1.010   2.836   7.115 -0.1081 -0.5115  0.3014
 2340SOL    HW118482   1.033   2.784   7.038  0.4726  0.2929 -0.0661
 2340SOL    HW218483   0.977   2.914   7.069  0.2613  0.1742  1.2050
 2341SOL     OW18484   3.730   4.140  13.774  0.0337  0.0566  0.4136
 2341SOL    HW118485   3.723   4.231  13.800 -2.3230  0.8513 -2.9966
 2341SOL    HW218486   3.782   4.139  13.694  0.2009  2.6146  0.5113
 2342SOL     OW18487   1.764   0.288   2.274 -0.1505 -0.3688  0.3573
 2342SOL    HW118488   1.681   0.244   2.292  0.1338 -1.6938 -1.5332
 2342SOL    HW218489   1.821   0.213   2.257 -1.0596 -0.7494 -1.0259
 2343SOL     OW18490   2.731   2.643   7.080 -0.2373 -0.0010  0.5513
 2343SOL    HW118491   2.808   2.641   7.137 -0.6857 -1.8756  1.0806
 2343SOL    HW218492   2.776   2.672   7.000  0.3672  0.6099  1.1133
 2344SOL     OW18493   2.138   1.666   3.346  0.5412 -0.2156  0.3798
 2344SOL    HW118494   2.185   1.597   3.300 -1.9272 -0.7331 -1.3996
 2344SOL    HW218495   2.116   1.725   3.274 -0.7768  0.6285  1.4700
 2345SOL     OW18496   1.069   0.593   1.141 -0.3313 -0.4662 -0.0454
 2345SOL    HW118497   1.083   0.572   1.049  0.9892 -1.5121  0.4017
 2345SOL    HW218498   1.149   0.561   1.184 -0.9979 -0.4991  1.1852
 2346SOL     OW18499   4.061   4.607   3.288  0.1773  0.1645 -0.1820
 2346SOL    HW118500   4.075   4.630   3.197 -1.8767 -1.2579 -0.8599
 2346SOL    HW218501   3.968   4.586   3.282  0.0861 -0.0753  2.0985
 2347SOL     OW18502   0.162   0.115   5.186 -0.2923  0.4396  0.3289
 2347SOL    HW118503   0.210   0.032   5.196  1.9596  1.6855 -0.1174
 2347SOL    HW218504   0.198   0.159   5.263  1.3810 -1.0075  0.3933
 2348SOL     OW18505   2.851   3.445   6.975  0.0278 -0.1270 -0.0120
 2348SOL    HW118506   2.773   3.497   6.993 -0.2021 -0.5932  0.3299
 2348SOL    HW218507   2.861   3.448   6.880  1.5331 -0.6874  0.1353
 2349SOL     OW18508   0.173   1.531   4.940 -0.0240  1.1443  0.5596
 2349SOL    HW118509   0.144   1.546   4.850  2.9196  0.9857 -0.3919
 2349SOL    HW218510   0.093   1.547   4.990 -1.4360 -1.1358 -0.9615
 2350SOL     OW18511   0.953   1.370   5.481  0.1654 -0.2188  0.2533
 2350SOL    HW118512   0.957   1.430   5.407  0.5839  0.1760  0.5950
 2350SOL    HW218513   0.879   1.316   5.454  1.0235 -0.4764 -1.5776
 2351SOL     OW18514   2.495   3.441   8.488 -0.2654  0.0691 -0.3104
 2351SOL    HW118515   2.477   3.414   8.398 -0.1308 -0.5560 -0.1437
 2351SOL    HW218516   2.512   3.350   8.512 -0.0052 -0.0847 -1.1008
 2352SOL     OW18517   0.846   3.001  12.902  0.1913 -0.3405  0.0188
 2352SOL    HW118518   0.888   3.084  12.880  1.2428 -1.3053 -1.6964
 2352SOL    HW218519   0.915   2.963  12.957  0.4750  2.5677  1.6668
 2353SOL     OW18520   2.386   1.095  17.088 -0.1211  0.2384  0.0117
 2353SOL    HW118521   2.311   1.036  17.097  1.3111 -1.5532  0.2740
 2353SOL    HW218522   2.380   1.119  16.996 -1.4232  0.8862  0.2663
 2354SOL     OW18523   1.046   0.329   5.995  1.0767 -0.0840  0.2289
 2354SOL    HW118524   1.028   0.235   5.999 -0.3346  0.1483 -0.3534
 2354SOL    HW218525   0.964   0.364   6.031  0.3952  0.0466 -1.4370
 2355SOL     OW18526   1.712   2.681   3.503 -0.5470 -0.7256  0.9632
 2355SOL    HW118527   1.711   2.775   3.522  1.4389 -1.0214  2.5235
 2355SOL    HW218528   1.773   2.652   3.571 -0.4606 -0.7197  0.8873
 2356SOL     OW18529   1.957   0.576   3.929  0.6631  0.3507  0.0353
 2356SOL    HW118530   1.878   0.539   3.968 -0.2697  2.2394 -0.0943
 2356SOL    HW218531   2.016   0.547   3.999  1.3466  2.6735  0.4148
 2357SOL     OW18532   0.798   3.572  14.936  0.5754 -0.1935  0.7003
 2357SOL    HW118533   0.838   3.537  14.857  1.7794  0.7355  0.8846
 2357SOL    HW218534   0.748   3.500  14.974 -0.4588 -0.2446 -0.7892
 2358SOL     OW18535   3.592   3.777   2.466 -0.3646 -0.0676  0.1020
 2358SOL    HW118536   3.527   3.751   2.401  0.2210  0.0353 -0.5268
 2358SOL    HW218537   3.569   3.718   2.538  0.2347 -0.1108  0.2610
 2359SOL     OW18538   4.411   2.631   8.742 -0.1821 -0.1583  0.4042
 2359SOL    HW118539   4.502   2.605   8.726 -0.1283  0.4804 -0.3114
 2359SOL    HW218540   4.409   2.703   8.805  1.9474  1.4992 -1.4039
 2360SOL     OW18541   1.633   3.744  11.401  0.0476 -0.1432  0.2977
 2360SOL    HW118542   1.541   3.723  11.421 -0.3532  0.6020 -0.7376
 2360SOL    HW218543   1.621   3.839  11.399  1.3995  0.0252  0.4030
 2361SOL     OW18544   4.498   3.833  16.237  0.8548  0.7559  0.9263
 2361SOL    HW118545   4.529   3.823  16.147  0.4238  1.8226  0.6684
 2361SOL    HW218546   4.518   3.741  16.257  1.9168  0.5068 -1.2512
 2362SOL     OW18547   4.711   2.745   4.371 -0.2257  0.2148 -0.7124
 2362SOL    HW118548   0.044   2.711   4.436 -0.3386  1.0181 -0.1853
 2362SOL    HW218549   4.640   2.765   4.432 -1.8579  0.8782 -2.8215
 2363SOL     OW18550   2.397   1.328   0.110  0.6986  0.1121  0.4767
 2363SOL    HW118551   2.343   1.322   0.031  0.2337  2.4389  0.6193
 2363SOL    HW218552   2.331   1.322   0.179 -1.7804  1.8238 -1.7345
 2364SOL     OW18553   1.824   1.975   6.121 -0.3960  0.3450 -0.8735
 2364SOL    HW118554   1.897   1.980   6.059 -0.8600 -0.9536 -1.5067
 2364SOL    HW218555   1.839   1.882   6.134  1.1666  0.5751 -1.0345
 2365SOL     OW18556   4.194   4.337   4.772  0.2861  0.0077  0.3771
 2365SOL    HW118557   4.169   4.296   4.689 -1.9781 -1.9245  2.0274
 2365SOL    HW218558   4.123   4.302   4.825  0.7911  1.1302  1.7979
 2366SOL     OW18559   3.422   1.504   5.822  0.0458 -0.2507 -0.1543
 2366SOL    HW118560   3.328   1.506   5.807 -0.1371  0.8211  1.1281
 2366SOL    HW218561   3.453   1.460   5.743 -1.0400 -1.3713  0.0468
 2367SOL     OW18562   0.277   2.497   8.844 -0.0636  0.0683 -0.1489
 2367SOL    HW118563   0.214   2.428   8.862 -0.9246 -0.0442 -3.5807
 2367SOL    HW218564   0.362   2.459   8.866 -0.6020 -0.4029  1.0908
 2368SOL     OW18565   2.538   2.323   7.131  0.4397  0.1505  0.1100
 2368SOL    HW118566   2.451   2.297   7.160 -0.0189 -0.0354 -1.4541
 2368SOL    HW218567   2.527   2.362   7.045  1.4878 -0.9217 -0.5027
 2369SOL     OW18568   0.321   2.611   4.844  0.0186 -0.0418  0.3966
 2369SOL    HW118569   0.390   2.624   4.779  0.3967 -0.2127  0.7697
 2369SOL    HW218570   0.254   2.569   4.790  0.4613 -0.9203  0.5385
 2370SOL     OW18571   1.918   4.039   2.439  0.2133  0.5215 -0.0604
 2370SOL    HW118572   1.904   4.028   2.533  0.3193  2.0900  0.1514
 2370SOL    HW218573   1.918   3.950   2.405 -0.5417  0.4474  0.1257
 2371SOL     OW18574   1.895   2.903   5.534  0.4142 -0.4069  0.3891
 2371SOL    HW118575   1.932   2.841   5.471  3.7334  1.1596  0.8423
 2371SOL    HW218576   1.821   2.862   5.580  0.0005  1.1698  1.1376
 2372SOL     OW18577   4.064   4.149  17.294  0.3509 -0.4440 -0.3418
 2372SOL    HW118578   4.045   4.243  17.292  0.6414 -0.3419  1.9374
 2372SOL    HW218579   4.136   4.147  17.232  1.6644 -1.4353  1.2189
 2373SOL     OW18580   0.214   1.284   3.157 -0.0186 -0.2191 -0.0965
 2373SOL    HW118581   0.157   1.220   3.200 -1.2922 -0.0792 -1.5908
 2373SOL    HW218582   0.153   1.357   3.156  0.7053  0.4276  1.8270
 2374SOL     OW18583   2.497   1.392   8.935  0.0077  0.0246  0.0035
 2374SOL    HW118584   2.576   1.444   8.920  1.5402 -1.8821  1.3936
 2374SOL    HW218585   2.428   1.452   8.907  1.4748  1.8169  0.2401
 2375SOL     OW18586   4.661   4.442   5.547 -0.2125  0.0740  0.1695
 2375SOL    HW118587   4.672   4.500   5.471  2.7006 -0.6908  0.0172
 2375SOL    HW218588   0.021   4.406   5.563 -0.0949  0.4074  0.2797
 2376SOL     OW18589   2.713   1.928  13.774  0.6074  0.2128 -0.6855
 2376SOL    HW118590   2.680   1.985  13.705  0.2315 -0.3899 -0.9982
 2376SOL    HW218591   2.804   1.920  13.744  1.3371  2.0939  0.9663
 2377SOL     OW18592   0.796   0.583   7.421 -0.5028  0.1475 -0.0999
 2377SOL    HW118593   0.829   0.637   7.493  1.6144  1.9058 -2.3837
 2377SOL    HW218594   0.709   0.622   7.415 -0.4753 -0.2099 -2.6877
 2378SOL     OW18595   2.947   2.090   6.088 -0.1988 -0.8927 -0.2471
 2378SOL    HW118596   2.926   2.040   6.167 -0.3755  1.6174  1.2698
 2378SOL    HW218597   3.033   2.051   6.071  1.1792  2.0018  0.1095
 2379SOL     OW18598   1.701   4.029   3.511 -0.0006 -0.0851 -0.0520
 2379SOL    HW118599   1.687   3.950   3.562  0.1246 -1.2295 -1.7975
 2379SOL    HW218600   1.648   4.009   3.434  0.2116 -2.3713  0.3870
 2380SOL     OW18601   4.342   1.832   8.475 -0.1061  0.2183 -0.4288
 2380SOL    HW118602   4.298   1.747   8.476  1.5284 -0.6201 -0.1579
 2380SOL    HW218603   4.318   1.866   8.562  1.2715  0.7224 -0.2435
 2381SOL     OW18604   2.247   0.681  10.603  0.1541 -0.3467 -0.6936
 2381SOL    HW118605   2.216   0.754  10.549 -1.3319 -0.4189  0.0818
 2381SOL    HW218606   2.230   0.715  10.690 -1.2073  0.7637 -1.3888
 2382SOL     OW18607   0.365   0.946  11.011  0.1664 -0.1210  0.9113
 2382SOL    HW118608   0.371   1.005  11.086  1.3757 -2.0852  2.3729
 2382SOL    HW218609   0.279   0.968  10.976  1.0550  2.7194  0.4421
 2383SOL     OW18610   2.395   0.852   8.637  0.2946  0.0087  0.0938
 2383SOL    HW118611   2.491   0.855   8.636  0.3796 -0.5618  3.7704
 2383SOL    HW218612   2.386   0.824   8.546 -0.1212  1.2869 -0.2483
 2384SOL     OW18613   2.376   1.154   4.182  0.3156 -0.0937 -0.3758
 2384SOL    HW118614   2.401   1.192   4.098  0.0293 -2.3138 -1.4746
 2384SOL    HW218615   2.452   1.190   4.228 -0.4882  0.6395  0.3549
 2385SOL     OW18616   4.193   4.426   2.373  0.5707  0.3200 -0.0704
 2385SOL    HW118617   4.273   4.455   2.416  1.3097  1.4101 -2.1914
 2385SOL    HW218618   4.173   4.353   2.432  0.4380 -1.4091 -2.2551
 2386SOL     OW18619   2.585   1.101   5.616  0.0341  0.5582  1.2008
 2386SOL    HW118620   2.585   1.170   5.550  1.2260  0.7997  1.4539
 2386SOL    HW218621   2.501   1.057   5.613  0.6529 -0.4582 -1.6397
 2387SOL     OW18622   1.331   4.658   3.404  0.0594  0.4200 -0.3261
 2387SOL    HW118623   1.376   4.610   3.334  0.3711  3.3574 -2.1542
 2387SOL    HW218624   1.286   4.725   3.352 -0.5456 -0.2847 -0.7229
 2388SOL     OW18625   4.600   4.662   3.183 -0.0848 -0.0120 -0.1834
 2388SOL    HW118626   4.507   4.648   3.164  0.4140 -4.4899  0.8003
 2388SOL    HW218627   4.609   0.026   3.154  4.5671 -0.0018  1.4105
 2389SOL     OW18628   4.539   3.362   8.762 -0.0856 -0.3868  0.4468
 2389SOL    HW118629   4.582   3.278   8.745 -0.7095 -0.1954 -2.0084
 2389SOL    HW218630   4.517   3.348   8.854 -0.0839  0.5286  0.5821
 2390SOL     OW18631   4.443   0.241   8.574  0.3978 -0.3553  0.1397
 2390SOL    HW118632   4.477   0.172   8.631  3.0136  1.8745  1.2441
 2390SOL    HW218633   4.361   0.268   8.615  1.0194  0.1124  1.0567
 2391SOL     OW18634   2.526   2.646   9.419  0.1191 -0.4253 -0.8143
 2391SOL    HW118635   2.506   2.740   9.411 -0.2358 -0.4681 -0.3889
 2391SOL    HW218636   2.441   2.609   9.439  0.8408 -1.7574 -0.2296
 2392SOL     OW18637   1.033   3.879   9.608  0.1880 -0.2299 -0.7587
 2392SOL    HW118638   0.985   3.807   9.650 -2.5696  0.1472 -3.2238
 2392SOL    HW218639   1.086   3.910   9.681  0.4894  0.6325 -1.3420
 2393SOL     OW18640   4.191   1.769   7.499  0.2781 -0.1664  0.0075
 2393SOL    HW118641   4.155   1.773   7.410 -0.1657 -1.0375  0.1408
 2393SOL    HW218642   4.191   1.675   7.520 -1.3832 -0.2062 -0.1117
 2394SOL     OW18643   0.926   3.089  17.405  0.1842 -0.6593 -0.6033
 2394SOL    HW118644   0.957   3.017  17.351 -1.4853 -1.3395 -0.6564
 2394SOL    HW218645   1.006   3.108  17.454 -1.4683 -2.3576  2.6836
 2395SOL     OW18646   3.255   0.434  15.896 -0.1154 -0.3856  0.3802
 2395SOL    HW118647   3.256   0.345  15.860 -0.4107 -0.1675 -0.1625
 2395SOL    HW218648   3.262   0.481  15.813 -0.4588  0.6435  0.9438
 2396SOL     OW18649   2.131   3.409  15.466  0.4881  0.1059  0.6071
 2396SOL    HW118650   2.062   3.457  15.420  0.8192 -1.3747 -1.4289
 2396SOL    HW218651   2.201   3.419  15.402  0.7678 -1.6370  0.6620
 2397SOL     OW18652   3.214   2.162   2.594 -0.3751 -0.5124 -0.0256
 2397SOL    HW118653   3.178   2.105   2.527  1.2609 -1.0572 -0.4515
 2397SOL    HW218654   3.148   2.230   2.608  0.3447  0.2711 -0.3703
 2398SOL     OW18655   2.858   1.854  12.958 -0.4389  0.1219 -0.0857
 2398SOL    HW118656   2.799   1.870  13.032 -1.1161 -1.8731 -0.1923
 2398SOL    HW218657   2.805   1.903  12.895 -1.4247 -1.3440 -0.3982
 2399SOL     OW18658   1.786   3.822   8.108 -0.1355 -0.1612 -0.4159
 2399SOL    HW118659   1.789   3.766   8.030  2.8179 -1.2279  0.4486
 2399SOL    HW218660   1.734   3.896   8.077 -0.5948  0.0411  0.8709
 2400SOL     OW18661   3.852   0.956   1.315 -0.3855 -0.3160 -0.1832
 2400SOL    HW118662   3.867   0.954   1.221  0.2226  0.0587 -0.0955
 2400SOL    HW218663   3.768   0.912   1.299  1.6226 -3.2140 -2.7021
 2401SOL     OW18664   0.312   2.356   7.433  0.4406  0.1135 -0.5632
 2401SOL    HW118665   0.265   2.280   7.399  0.4149 -0.4832  0.8010
 2401SOL    HW218666   0.296   2.336   7.525 -0.7755  2.8786 -0.1618
 2402SOL     OW18667   3.790   0.060  17.044 -0.0560 -0.0356 -0.2910
 2402SOL    HW118668   3.747   0.043  16.961 -0.1017  0.4222 -0.3597
 2402SOL    HW218669   3.868   0.005  17.032  1.2459  2.0794 -1.4907
 2403SOL     OW18670   2.651   3.628   7.067  0.0325 -0.0511  0.4801
 2403SOL    HW118671   2.593   3.655   6.996  0.6649 -1.6110 -0.6414
 2403SOL    HW218672   2.611   3.669   7.143 -0.9464  1.8052 -1.0534
 2404SOL     OW18673   1.903   1.230   2.165 -0.3775 -0.0058  0.0362
 2404SOL    HW118674   1.895   1.297   2.232 -2.6163  0.2019 -0.4151
 2404SOL    HW218675   1.812   1.201   2.171 -0.7428  1.6200  2.4021
 2405SOL     OW18676   0.632   2.093   1.115 -0.2473  0.3467  0.0538
 2405SOL    HW118677   0.553   2.061   1.158  0.6137 -1.0832  0.5544
 2405SOL    HW218678   0.598   2.143   1.040 -2.6161 -2.0054 -0.4296
 2406SOL     OW18679   1.890   3.296   1.884 -0.3875 -0.5439  0.1552
 2406SOL    HW118680   1.942   3.375   1.869  0.8329 -1.3570  0.1277
 2406SOL    HW218681   1.912   3.274   1.975  0.7447 -1.0420 -0.2468
 2407SOL     OW18682   0.196   4.592   9.695  0.2126  0.0701  0.0237
 2407SOL    HW118683   0.191   4.613   9.788 -1.4946  3.9290 -0.9469
 2407SOL    HW218684   0.180   4.680   9.662 -0.4508 -0.4695 -1.0643
 2408SOL     OW18685   1.815   1.441  12.020 -0.5903  0.0552  0.6452
 2408SOL    HW118686   1.903   1.470  12.043 -0.0088 -0.8984 -0.3844
 2408SOL    HW218687   1.807   1.360  12.072 -1.2063 -1.0107 -1.1061
 2409SOL     OW18688   2.602   3.806   1.952  0.1439  0.0358  0.5154
 2409SOL    HW118689   2.613   3.887   1.902  0.6338  0.1976  0.8862
 2409SOL    HW218690   2.542   3.755   1.896  4.0903 -1.5271 -2.2579
 2410SOL     OW18691   1.005   0.735   3.989 -0.7592 -0.0493  0.5451
 2410SOL    HW118692   1.015   0.709   3.897  0.3246  0.4944  0.5104
 2410SOL    HW218693   1.098   0.731   4.014 -0.6313 -0.2672  0.0456
 2411SOL     OW18694   4.382   1.294   4.974  0.3881  0.4168 -0.0587
 2411SOL    HW118695   4.388   1.338   5.059 -1.2598  0.0198  0.2657
 2411SOL    HW218696   4.303   1.335   4.940 -0.0277 -0.9305 -0.7117
 2412SOL     OW18697   0.850   1.464   7.515 -0.2101  0.5839 -0.3070
 2412SOL    HW118698   0.911   1.469   7.442  2.5916 -0.1018  2.0279
 2412SOL    HW218699   0.767   1.480   7.470 -1.2440  1.6173  1.9657
 2413SOL     OW18700   0.845   2.717   2.346  0.2554  0.0302  0.4721
 2413SOL    HW118701   0.853   2.803   2.303  1.2103 -0.4450 -0.3096
 2413SOL    HW218702   0.755   2.691   2.328 -0.0678  0.9366  0.7968
 2414SOL     OW18703   2.485   0.765  11.839 -0.6422  0.0626 -0.5387
 2414SOL    HW118704   2.476   0.670  11.826  1.0640 -0.0197 -1.0136
 2414SOL    HW218705   2.396   0.780  11.871 -0.7037  0.8986 -1.1033
 2415SOL     OW18706   2.448   4.621   4.306 -0.3567 -0.2629 -0.1346
 2415SOL    HW118707   2.521   4.581   4.355 -0.2851 -0.8064 -0.6832
 2415SOL    HW218708   2.374   4.589   4.357 -0.1526  0.2574  0.4841
 2416SOL     OW18709   1.435   0.667   7.481  0.1981 -0.2203 -0.6801
 2416SOL    HW118710   1.457   0.705   7.396 -0.4915  0.1109 -0.7130
 2416SOL    HW218711   1.455   0.574   7.470  1.3794 -0.0386  0.0153
 2417SOL     OW18712   1.383   0.656   4.743  0.5996 -0.4666 -0.2822
 2417SOL    HW118713   1.393   0.563   4.761 -1.5996 -0.7930 -0.6714
 2417SOL    HW218714   1.447   0.676   4.675  1.2121  1.9024  1.0012
 2418SOL     OW18715   0.579   1.361  17.547  0.0934 -0.2125  0.0485
 2418SOL    HW118716   0.534   1.337  17.465 -0.2498  1.6029 -0.2901
 2418SOL    HW218717   0.647   1.295  17.561  0.8105  0.1196 -1.8239
 2419SOL     OW18718   2.440   0.440  15.148 -0.0205  0.0028 -0.0837
 2419SOL    HW118719   2.530   0.460  15.125  0.2243 -2.2618 -0.9992
 2419SOL    HW218720   2.401   0.499  15.083  1.3105 -0.1881 -1.0562
 2420SOL     OW18721   4.493   3.445   4.678  0.0624  0.3504  0.2845
 2420SOL    HW118722   4.483   3.512   4.746 -0.0901  0.8673 -0.2466
 2420SOL    HW218723   4.502   3.500   4.600  1.6368 -2.0366 -1.2203
 2421SOL     OW18724   1.021   3.451   6.647  0.0854  0.0970  0.0919
 2421SOL    HW118725   0.962   3.376   6.647  0.8971 -0.5429 -1.5771
 2421SOL    HW218726   0.989   3.487   6.730  1.7407 -0.2301  0.8603
 2422SOL     OW18727   2.843   2.025   9.263 -0.0639  0.1630  0.0985
 2422SOL    HW118728   2.770   2.086   9.277 -0.3038  0.0367 -0.5789
 2422SOL    HW218729   2.835   2.010   9.169  0.6121 -0.1667  0.0903
 2423SOL     OW18730   2.543   0.179   5.998  0.3108  0.2541 -0.4451
 2423SOL    HW118731   2.540   0.272   5.977 -1.2803  0.0280 -1.2369
 2423SOL    HW218732   2.622   0.171   6.052 -0.0482 -0.5989 -0.0363
 2424SOL     OW18733   4.124   2.038   4.969 -0.0266  0.0146 -0.3141
 2424SOL    HW118734   4.096   1.957   4.926  0.8555 -0.7782  0.5885
 2424SOL    HW218735   4.054   2.101   4.954 -1.5041 -1.2508  1.2504
 2425SOL     OW18736   3.767   4.174   6.829  0.2519  0.2371 -0.0695
 2425SOL    HW118737   3.738   4.153   6.740 -2.9341 -0.6250  1.1667
 2425SOL    HW218738   3.686   4.214   6.862  1.1101  0.1275  2.1741
 2426SOL     OW18739   3.012   1.623   4.025 -0.0260  0.2443 -0.6966
 2426SOL    HW118740   3.072   1.697   4.031  1.9517 -1.3792 -0.4370
 2426SOL    HW218741   2.934   1.651   3.977 -0.4919 -3.3200 -2.0118
 2427SOL     OW18742   2.477   1.471  17.146 -0.2126  0.2453  0.2276
 2427SOL    HW118743   2.407   1.445  17.206  0.4430  2.6807  2.0373
 2427SOL    HW218744   2.501   1.558  17.177 -1.3128  1.6040 -2.6460
 2428SOL     OW18745   0.348   4.233   8.419 -0.3418 -0.0674  0.8366
 2428SOL    HW118746   0.363   4.199   8.507 -1.1096 -2.4362  0.0708
 2428SOL    HW218747   0.432   4.272   8.397  1.4543 -4.3311  0.1939
 2429SOL     OW18748   3.325   3.657   4.780  0.1026 -0.3778 -0.1609
 2429SOL    HW118749   3.352   3.660   4.872 -0.7705  1.6964  0.0210
 2429SOL    HW218750   3.234   3.687   4.784  1.2718  2.9105  1.3279
 2430SOL     OW18751   2.789   2.270   8.766  0.1048 -0.0277  0.2347
 2430SOL    HW118752   2.757   2.298   8.681 -3.0254  0.2750  1.5222
 2430SOL    HW218753   2.883   2.291   8.766 -0.0829  0.7256 -3.0908
 2431SOL     OW18754   1.105   1.322   0.177  0.5434  0.0507  0.5999
 2431SOL    HW118755   1.038   1.389   0.165 -1.8211 -2.3243  0.5330
 2431SOL    HW218756   1.136   1.342   0.265  0.4066  1.0769  0.4082
 2432SOL     OW18757   0.448   2.007   4.064  0.1287  0.1309 -0.1899
 2432SOL    HW118758   0.425   2.062   4.139 -1.3941 -1.7104  0.7131
 2432SOL    HW218759   0.536   1.982   4.093 -1.2054 -3.0734  1.1951
 2433SOL     OW18760   0.629   2.349  10.885  0.3362  0.1420  0.0009
 2433SOL    HW118761   0.576   2.374  10.961 -0.5988  1.7077 -1.1711
 2433SOL    HW218762   0.564   2.327  10.818 -2.4855  2.2828  2.0509
 2434SOL     OW18763   2.117   4.416   5.456  0.1321  0.0591 -0.3505
 2434SOL    HW118764   2.131   4.370   5.373  2.9246 -1.6818  1.0711
 2434SOL    HW218765   2.108   4.508   5.433  3.0452 -0.2222 -2.5475
 2435SOL     OW18766   4.006   1.750  12.519  0.0064  0.1874  0.5390
 2435SOL    HW118767   3.968   1.803  12.589  0.8878  1.3130  0.1638
 2435SOL    HW218768   4.066   1.697  12.572  1.1601  0.1526 -0.7877
 2436SOL     OW18769   0.278   3.836   2.973 -0.3886 -0.1814  0.0726
 2436SOL    HW118770   0.252   3.767   2.913 -0.6711  0.0456 -0.0635
 2436SOL    HW218771   0.263   3.798   3.060 -1.4525  2.8119  1.2034
 2437SOL     OW18772   1.928   1.876   7.566 -0.4841  0.3006  0.3572
 2437SOL    HW118773   1.842   1.834   7.574  0.3167 -1.3583  0.2524
 2437SOL    HW218774   1.949   1.902   7.655 -1.4256 -2.1932  1.3007
 2438SOL     OW18775   0.745   2.896   1.402 -0.4607 -0.0596  0.5362
 2438SOL    HW118776   0.783   2.914   1.488  0.6911 -0.7680  0.1626
 2438SOL    HW218777   0.786   2.969   1.356 -0.6504 -0.8633 -0.8921
 2439SOL     OW18778   3.339   3.766   0.699  0.3802 -0.1117  0.1736
 2439SOL    HW118779   3.379   3.851   0.680 -0.1255  0.4759  1.7656
 2439SOL    HW218780   3.245   3.780   0.689  0.5611 -1.4965 -3.5721
 2440SOL     OW18781   4.651   1.220   5.584  0.0416 -0.6485 -0.2003
 2440SOL    HW118782   4.679   1.141   5.539  2.7114 -0.1620  0.6004
 2440SOL    HW218783   4.694   1.287   5.530  0.6008 -0.2359  0.7595
 2441SOL     OW18784   3.283   3.515   8.328  0.0396 -0.0616 -0.1433
 2441SOL    HW118785   3.354   3.578   8.340  0.7670 -0.7053 -1.0037
 2441SOL    HW218786   3.240   3.526   8.412 -0.9323  1.5228 -0.8668
 2442SOL     OW18787   3.151   4.027   2.079  0.1673 -0.4095  0.0024
 2442SOL    HW118788   3.091   3.954   2.066 -1.6412  1.0225  0.2169
 2442SOL    HW218789   3.092   4.080   2.133 -1.1728 -2.1328  0.2424
 2443SOL     OW18790   1.269   0.236   2.488 -0.4969 -0.4653  0.2164
 2443SOL    HW118791   1.337   0.241   2.555  0.2202  0.5161 -0.5957
 2443SOL    HW218792   1.325   0.206   2.416 -1.9888 -0.1534 -1.0816
 2444SOL     OW18793   3.958   2.858   4.255 -0.4035 -0.0010  0.1785
 2444SOL    HW118794   4.006   2.937   4.278 -0.3404 -0.0214  0.1144
 2444SOL    HW218795   3.875   2.870   4.302  0.0392  1.5456  0.5653
 2445SOL     OW18796   2.857   1.679   5.774 -0.3934 -0.0441 -0.3448
 2445SOL    HW118797   2.831   1.771   5.773 -2.7532 -0.6964  1.0608
 2445SOL    HW218798   2.786   1.642   5.722 -1.0999  1.0420 -0.1653
 2446SOL     OW18799   3.871   1.270  13.338  0.0996 -0.1044 -0.1454
 2446SOL    HW118800   3.783   1.233  13.331  0.6164 -1.3337 -0.0260
 2446SOL    HW218801   3.929   1.197  13.317  0.8186  0.7409 -1.0850
 2447SOL     OW18802   0.957   3.576   5.114 -0.1800 -0.0260  0.4496
 2447SOL    HW118803   0.935   3.592   5.206 -1.6942  2.4986 -0.3626
 2447SOL    HW218804   1.002   3.493   5.130  0.8312  0.2818 -0.7782
 2448SOL     OW18805   3.598   1.054   7.980 -0.2137  0.6465  0.7648
 2448SOL    HW118806   3.566   1.140   7.953  0.0375  1.3533  2.6620
 2448SOL    HW218807   3.555   1.055   8.066  0.4769  1.5085  1.1018
 2449SOL     OW18808   2.273   2.241   7.723 -0.8692 -0.6273  0.1565
 2449SOL    HW118809   2.322   2.274   7.798  1.7387 -0.4149 -1.6469
 2449SOL    HW218810   2.212   2.181   7.767 -2.1330  1.1184  0.7556
 2450SOL     OW18811   1.811   0.849  17.306 -0.2049  0.4887  0.0840
 2450SOL    HW118812   1.800   0.881  17.396 -1.0939  0.0142  0.1414
 2450SOL    HW218813   1.906   0.854  17.293 -0.2444 -2.0788 -1.0544
 2451SOL     OW18814   2.774   3.871   6.133 -0.3041 -0.1820 -0.1992
 2451SOL    HW118815   2.836   3.904   6.067 -0.1150 -1.1688 -0.5130
 2451SOL    HW218816   2.701   3.925   6.103 -0.2236  0.5425  0.8998
 2452SOL     OW18817   4.081   0.901  10.885  0.0586 -0.0296 -0.4503
 2452SOL    HW118818   4.033   0.928  10.963  1.6878  2.6286 -0.3614
 2452SOL    HW218819   4.129   0.829  10.924 -1.4634 -1.4722 -1.2670
 2453SOL     OW18820   2.299   0.212  15.449  0.1011  0.4744  0.4908
 2453SOL    HW118821   2.338   0.159  15.519 -0.9343 -1.4468 -0.3967
 2453SOL    HW218822   2.207   0.184  15.446  0.6525 -1.3064  0.4345
 2454SOL     OW18823   0.827   2.589   5.338 -0.1515  0.5880 -0.5080
 2454SOL    HW118824   0.871   2.669   5.365 -2.2405  1.5062  0.1122
 2454SOL    HW218825   0.773   2.620   5.265  0.1835 -2.4575 -2.0727
 2455SOL     OW18826   4.645   1.237   2.934  0.4931  0.6396  0.1670
 2455SOL    HW118827   4.584   1.186   2.987  1.6355 -1.4566 -0.5328
 2455SOL    HW218828   4.602   1.234   2.848 -1.7715  2.3026  1.2354
 2456SOL     OW18829   0.544   4.054   3.415 -0.2230 -0.4818  0.1412
 2456SOL    HW118830   0.593   4.009   3.484  0.9349  3.0366  1.6125
 2456SOL    HW218831   0.504   4.125   3.466  1.8818  0.2165  0.8073
 2457SOL     OW18832   4.531   2.408   5.100 -0.7031  0.5651 -0.5412
 2457SOL    HW118833   4.621   2.434   5.114 -1.3716  1.5052  2.0241
 2457SOL    HW218834   4.483   2.477   5.146 -0.6917  1.4850 -1.8968
 2458SOL     OW18835   2.047   0.820   6.224 -0.5059  0.0764  0.3388
 2458SOL    HW118836   1.977   0.828   6.289  0.3391 -0.7517  1.3520
 2458SOL    HW218837   2.100   0.892   6.258  1.1165 -0.5260 -0.8927
 2459SOL     OW18838   1.510   0.787   0.984 -0.3444  0.1420 -0.0261
 2459SOL    HW118839   1.595   0.827   0.964 -1.4624  0.8842 -3.3294
 2459SOL    HW218840   1.531   0.738   1.064 -1.4695  0.2926  0.3556
 2460SOL     OW18841   0.295   3.049   9.790 -0.3097  0.3869 -0.0802
 2460SOL    HW118842   0.275   3.078   9.701 -0.7726  0.6699  0.1118
 2460SOL    HW218843   0.270   3.131   9.832 -0.4296  0.4721 -0.3139
 2461SOL     OW18844   3.588   4.088   0.287  0.0752 -0.1856  0.0967
 2461SOL    HW118845   3.684   4.086   0.284  0.0723 -2.4460  1.4194
 2461SOL    HW218846   3.566   4.164   0.234 -2.5625 -1.2992 -0.4029
 2462SOL     OW18847   3.091   1.982   1.851  0.3928 -0.1333 -0.2324
 2462SOL    HW118848   3.121   1.955   1.764 -2.0848 -2.0320 -0.5087
 2462SOL    HW218849   3.154   2.046   1.885 -0.2439  0.2892  0.1553
 2463SOL     OW18850   3.752   0.116   4.923  0.0610 -0.2086 -0.0688
 2463SOL    HW118851   3.699   0.099   5.001 -2.6551  1.1956 -1.6114
 2463SOL    HW218852   3.798   0.193   4.954  0.8177 -1.3991  1.7410
 2464SOL     OW18853   0.616   4.590   8.116 -0.4147 -0.2487  0.1244
 2464SOL    HW118854   0.704   4.624   8.132 -1.7433  2.6122  1.3203
 2464SOL    HW218855   0.566   4.622   8.191 -0.3385  0.4379 -0.1176
 2465SOL     OW18856   3.413   0.682   2.583  0.9054  0.3239  0.2512
 2465SOL    HW118857   3.397   0.642   2.669  2.5233  1.4469  1.0662
 2465SOL    HW218858   3.326   0.703   2.549  0.9995  0.9327  0.3778
 2466SOL     OW18859   3.861   0.335   5.035 -0.2993  0.3827 -0.4204
 2466SOL    HW118860   3.932   0.354   4.973 -1.6039  0.7774 -1.8002
 2466SOL    HW218861   3.887   0.404   5.096 -2.3224  0.7235  0.0511
 2467SOL     OW18862   2.735   3.793   8.852 -0.3142 -0.0330  0.2437
 2467SOL    HW118863   2.673   3.841   8.798  0.9634 -0.2634 -1.4390
 2467SOL    HW218864   2.683   3.720   8.886 -2.2068  1.8452  1.3237
 2468SOL     OW18865   3.706   2.494  13.027  0.4399 -0.7142  0.8435
 2468SOL    HW118866   3.647   2.429  12.990  0.1212 -0.2927  0.6163
 2468SOL    HW218867   3.775   2.451  13.079  0.4161 -0.4061  1.1250
 2469SOL     OW18868   0.633   3.004   8.552  0.3289 -0.1853  0.4795
 2469SOL    HW118869   0.550   2.957   8.549 -0.5919  1.3810  1.5554
 2469SOL    HW218870   0.617   3.063   8.479 -0.8209  1.6740  2.2425
 2470SOL     OW18871   2.001   1.594   7.916 -0.3130  0.1921  0.3581
 2470SOL    HW118872   2.083   1.543   7.915  1.4909  3.0924 -0.1338
 2470SOL    HW218873   1.972   1.583   7.825 -0.8364 -0.9736  0.6649
 2471SOL     OW18874   2.721   0.930   7.514  0.0946 -0.4361 -0.2562
 2471SOL    HW118875   2.774   0.850   7.515  0.9017  0.1200  1.4256
 2471SOL    HW218876   2.630   0.900   7.506 -0.3104  1.5411 -2.7700
 2472SOL     OW18877   2.498   0.161  12.363  0.5003  0.2390 -0.4086
 2472SOL    HW118878   2.582   0.115  12.372 -0.1995 -0.7666  0.9567
 2472SOL    HW218879   2.449   0.084  12.333  0.4416 -1.1066  3.0895
 2473SOL     OW18880   0.920   2.243   2.593  0.4689  0.1070  0.5124
 2473SOL    HW118881   0.962   2.298   2.526  1.2070 -1.1323 -0.0334
 2473SOL    HW218882   0.827   2.253   2.572  0.0545 -1.4230  1.6593
 2474SOL     OW18883   3.929   0.208   0.184  0.4683  0.2938 -0.1627
 2474SOL    HW118884   3.964   0.244   0.266 -0.5227 -1.4019  1.0070
 2474SOL    HW218885   3.868   0.279   0.165 -2.1025 -1.7378  0.4450
 2475SOL     OW18886   2.986   3.366  13.681  0.1172 -0.1240  0.0322
 2475SOL    HW118887   3.024   3.295  13.629  1.4343  1.4027 -1.0612
 2475SOL    HW218888   3.054   3.432  13.667 -1.2923  1.3137 -0.0339
 2476SOL     OW18889   0.637   1.486   2.006 -0.2566  0.4418  0.3505
 2476SOL    HW118890   0.594   1.405   2.034 -0.9686  1.1384  1.2547
 2476SOL    HW218891   0.681   1.505   2.089  1.3402  4.0921 -1.3332
 2477SOL     OW18892   1.540   0.948   6.450  0.6300  0.0860  0.2571
 2477SOL    HW118893   1.506   1.037   6.448  1.0112  0.2496  0.9144
 2477SOL    HW218894   1.477   0.911   6.513  1.6864 -0.0441  1.2545
 2478SOL     OW18895   0.044   3.225  13.808 -0.0226  0.9733  0.6925
 2478SOL    HW118896   0.067   3.132  13.812 -0.9530  0.7356  0.4465
 2478SOL    HW218897   0.112   3.264  13.753 -1.0849  0.3627 -1.0465
 2479SOL     OW18898   3.673   2.821   4.381 -0.1808 -0.3481  0.4320
 2479SOL    HW118899   3.617   2.881   4.430 -1.0308 -1.5962  0.9630
 2479SOL    HW218900   3.632   2.821   4.294 -0.2031  1.7971  0.4389
 2480SOL     OW18901   3.449   0.225   7.621  0.1139  0.5596 -0.1465
 2480SOL    HW118902   3.529   0.211   7.570 -0.7133 -1.0742 -0.9909
 2480SOL    HW218903   3.457   0.320   7.621 -0.3295  0.6071 -1.4233
 2481SOL     OW18904   3.615   0.789   4.494 -0.1706 -0.0613  0.7278
 2481SOL    HW118905   3.699   0.810   4.535 -0.4272  0.9850  0.7226
 2481SOL    HW218906   3.566   0.773   4.575 -0.5925 -1.4925  0.1829
 2482SOL     OW18907   2.033   3.503   1.821 -0.2403  0.6623  0.2180
 2482SOL    HW118908   2.057   3.564   1.751  2.1236 -0.5346 -0.0165
 2482SOL    HW218909   2.122   3.486   1.854 -0.8329 -1.5015  0.7006
 2483SOL     OW18910   2.591   1.935   4.304 -0.6730 -0.1305  0.1232
 2483SOL    HW118911   2.672   1.919   4.256 -0.9563  2.3098 -1.1709
 2483SOL    HW218912   2.581   2.030   4.305  0.4448 -0.0198  0.3323
 2484SOL     OW18913   4.004   0.329  16.745  0.1827  0.3692  0.5414
 2484SOL    HW118914   3.916   0.311  16.713  0.3164  3.1937 -1.4445
 2484SOL    HW218915   4.039   0.383  16.674  0.5323 -0.1545  0.3083
 2485SOL     OW18916   2.253   2.844   4.249  0.2475  0.0717 -0.5570
 2485SOL    HW118917   2.202   2.773   4.210  1.9838 -0.9210 -1.0470
 2485SOL    HW218918   2.180   2.899   4.274 -0.1262 -0.2045 -1.0344
 2486SOL     OW18919   1.295   2.386  11.150 -0.6399  0.6830  0.0361
 2486SOL    HW118920   1.313   2.389  11.056 -0.7332 -0.9747 -0.0441
 2486SOL    HW218921   1.330   2.300  11.174  0.6607  1.5386  1.1579
 2487SOL     OW18922   1.199   3.906  15.863  0.0163 -0.1195  0.1592
 2487SOL    HW118923   1.239   3.829  15.905 -2.5079 -2.3057 -1.4378
 2487SOL    HW218924   1.110   3.876  15.844  0.0945  0.2399 -0.7773
 2488SOL     OW18925   3.529   3.174   9.672 -0.0856 -0.3526  0.7963
 2488SOL    HW118926   3.580   3.101   9.708 -0.6050 -1.5417 -0.8712
 2488SOL    HW218927   3.594   3.206   9.610 -0.0247  0.5172  1.3135
 2489SOL     OW18928   1.068   1.819   6.748 -0.4463 -0.8053  0.6136
 2489SOL    HW118929   1.004   1.885   6.719  2.3186  1.7027  0.2549
 2489SOL    HW218930   1.153   1.859   6.728 -1.0811 -0.0925 -0.6906
 2490SOL     OW18931   0.461   3.564   9.027  0.2520 -0.1947 -0.3261
 2490SOL    HW118932   0.435   3.490   8.973 -3.0880 -0.4436  1.6107
 2490SOL    HW218933   0.505   3.622   8.965  1.4581 -0.8429 -0.0664
 2491SOL     OW18934   0.961   2.196   2.191  0.2454  0.1689 -0.6306
 2491SOL    HW118935   0.908   2.141   2.248  0.8479 -0.8957 -1.0908
 2491SOL    HW218936   0.910   2.182   2.112  0.7958 -1.6758 -0.6587
 2492SOL     OW18937   3.392   1.444  15.884  0.0785 -0.1067  0.0103
 2492SOL    HW118938   3.349   1.501  15.820  1.8464 -0.9206 -1.8808
 2492SOL    HW218939   3.483   1.468  15.869  0.0446  0.7719  1.2593
 2493SOL     OW18940   4.493   3.368   9.035  0.2128 -0.2746 -0.6012
 2493SOL    HW118941   4.480   3.458   9.066  0.8184  0.1151 -1.4882
 2493SOL    HW218942   4.401   3.344   9.026  0.1007 -0.4591  1.0005
 2494SOL     OW18943   0.364   0.820  10.746 -1.0844  0.2808 -0.3129
 2494SOL    HW118944   0.401   0.753  10.805 -1.5412 -0.9844 -1.4690
 2494SOL    HW218945   0.402   0.898  10.786 -0.6508  0.8280 -1.7974
 2495SOL     OW18946   3.051   3.315   7.122 -0.5176 -0.2146 -0.0499
 2495SOL    HW118947   2.985   3.354   7.065 -0.0048  1.7885  0.7212
 2495SOL    HW218948   2.996   3.247   7.158 -0.3603  0.2191  1.0022
 2496SOL     OW18949   3.410   3.945   7.490 -0.0882  0.2718 -0.2188
 2496SOL    HW118950   3.452   3.880   7.546  1.0247  2.1748  1.1309
 2496SOL    HW218951   3.462   3.950   7.409  0.8453  0.6409  0.4020
 2497SOL     OW18952   3.378   0.065   6.593 -0.0075  0.1984 -0.3155
 2497SOL    HW118953   3.326   0.092   6.517 -1.9868  0.1809  1.0363
 2497SOL    HW218954   3.446   0.132   6.580  0.0902  0.0289 -0.6903
 2498SOL     OW18955   3.185   1.756  16.759 -0.8899 -0.1476  0.1048
 2498SOL    HW118956   3.142   1.673  16.736 -0.9505 -0.5417  1.6261
 2498SOL    HW218957   3.203   1.788  16.671  0.5054 -2.7821 -0.5771
 2499SOL     OW18958   2.439   1.747  10.835  0.1833  0.0649  0.5090
 2499SOL    HW118959   2.374   1.817  10.844  0.6471  0.3319  1.6521
 2499SOL    HW218960   2.502   1.779  10.899 -0.1025 -1.3619  1.4901
 2500SOL     OW18961   3.644   4.621   6.423  0.0310  0.2325  0.1454
 2500SOL    HW118962   3.680   4.539   6.389  1.9718  0.5007  1.5554
 2500SOL    HW218963   3.678   4.687   6.363  1.1339 -1.7239 -1.3914
 2501SOL     OW18964   0.809   0.973   9.213  0.6314  0.3638 -0.0149
 2501SOL    HW118965   0.778   0.909   9.148  2.5810 -0.0020 -0.5942
 2501SOL    HW218966   0.829   0.913   9.285 -0.0619  0.1083 -0.0296
 2502SOL     OW18967   2.846   1.668   6.662 -0.5170  0.3059 -0.0440
 2502SOL    HW118968   2.882   1.601   6.605 -1.3664 -0.2375  0.0682
 2502SOL    HW218969   2.902   1.664   6.740  0.1960 -0.9738 -0.6302
 2503SOL     OW18970   0.367   3.545   1.945 -0.2758 -0.2781 -1.0037
 2503SOL    HW118971   0.322   3.603   1.883 -1.9991  0.5763  1.0567
 2503SOL    HW218972   0.340   3.462   1.905  0.8214 -0.2467 -1.8142
 2504SOL     OW18973   1.419   3.584   0.389  0.0829  0.1111 -0.3422
 2504SOL    HW118974   1.371   3.503   0.371 -0.8510  0.7521 -0.7784
 2504SOL    HW218975   1.355   3.644   0.428  0.3207  1.6430 -2.2824
 2505SOL     OW18976   1.016   1.892   2.372 -0.0228 -0.3277  0.3636
 2505SOL    HW118977   0.979   1.805   2.354 -0.1638  0.0881 -1.3675
 2505SOL    HW218978   0.934   1.940   2.368  0.1291 -0.1087 -0.2420
 2506SOL     OW18979   3.316   0.454   5.960  0.5591 -0.2474  0.3097
 2506SOL    HW118980   3.254   0.516   5.923  0.2904  0.8706  2.6260
 2506SOL    HW218981   3.386   0.513   5.988  0.3605 -0.8512  2.1277
 2507SOL     OW18982   2.796   2.272   3.484  0.0042  0.2289  0.3049
 2507SOL    HW118983   2.752   2.328   3.420 -0.6862 -0.2674  0.3444
 2507SOL    HW218984   2.845   2.215   3.425 -1.3795  1.9205 -2.4545
 2508SOL     OW18985   0.319   1.674   2.190  0.0061 -0.1625 -0.4169
 2508SOL    HW118986   0.398   1.663   2.243 -1.1889  0.5590  1.5014
 2508SOL    HW218987   0.322   1.769   2.206  0.5639 -0.1899 -0.3669
 2509SOL     OW18988   0.101   4.158  14.354  0.2566  0.0121  0.3699
 2509SOL    HW118989   0.079   4.241  14.394  1.1505 -0.2375  1.3629
 2509SOL    HW218990   0.014   4.132  14.323  0.3856  0.1311 -0.1026
 2510SOL     OW18991   3.875   3.127  10.149 -0.2960 -0.5696 -0.0996
 2510SOL    HW118992   3.905   3.118  10.240  0.4684 -2.0221 -0.4818
 2510SOL    HW218993   3.830   3.044  10.133  2.2791 -2.0770  0.3836
 2511SOL     OW18994   0.560   3.593  12.720  0.3727  0.3754  0.4097
 2511SOL    HW118995   0.477   3.551  12.743  0.8633 -1.2825 -0.8742
 2511SOL    HW218996   0.538   3.603  12.627 -0.9193 -2.0942  0.4451
 2512SOL     OW18997   3.399   4.666  14.251 -0.7480 -0.0376 -0.1304
 2512SOL    HW118998   3.393   4.649  14.345 -1.3209 -2.3736 -0.5702
 2512SOL    HW218999   3.475   4.724  14.245 -1.1579  0.4207 -0.8772
 2513SOL     OW19000   4.330   2.943   4.325 -0.1105 -0.5080 -1.0722
 2513SOL    HW119001   4.270   2.966   4.254 -0.2467 -2.8445 -1.7020
 2513SOL    HW219002   4.400   2.906   4.271  1.3904  3.2707 -1.7534
 2514SOL     OW19003   2.533   4.703   7.765 -0.0829 -0.1986  0.6055
 2514SOL    HW119004   2.499   0.065   7.768  1.1686  0.2795  0.6990
 2514SOL    HW219005   2.512   4.667   7.679 -1.2837  0.6132  0.5591
 2515SOL     OW19006   2.212   4.648   2.351 -0.1128  0.4475  0.2026
 2515SOL    HW119007   2.257   4.591   2.413 -2.3527 -0.4457  1.0131
 2515SOL    HW219008   2.278   4.714   2.331 -0.9396  1.5929  1.3078
 2516SOL     OW19009   0.841   4.477   8.536 -0.5985 -0.0331 -0.2923
 2516SOL    HW119010   0.860   4.452   8.627 -0.7652  0.7003 -0.0606
 2516SOL    HW219011   0.772   4.412   8.525 -1.0623  0.5425 -0.7642
 2517SOL     OW19012   1.892   2.506   7.803  0.1967 -0.2110 -0.1590
 2517SOL    HW119013   1.943   2.496   7.883 -2.6866 -0.6660  1.5851
 2517SOL    HW219014   1.802   2.500   7.834  0.9810 -1.0717  1.9461
 2518SOL     OW19015   0.500   1.292   2.398 -0.1842 -0.3082 -0.1594
 2518SOL    HW119016   0.565   1.231   2.433  0.1177  0.5933  0.8428
 2518SOL    HW219017   0.551   1.361   2.355 -2.8573  0.1319 -2.6159
 2519SOL     OW19018   0.354   3.846  12.908 -0.2074  0.0729 -0.5587
 2519SOL    HW119019   0.278   3.803  12.948 -0.2175  1.5223  0.9459
 2519SOL    HW219020   0.336   3.822  12.817 -2.0732  2.3502 -0.7946
 2520SOL     OW19021   0.436   4.041   9.773  0.3492 -0.8481  0.1669
 2520SOL    HW119022   0.358   4.093   9.787  0.6922 -0.4884  0.7551
 2520SOL    HW219023   0.484   4.074   9.697 -1.0524 -0.9926 -0.7676
 2521SOL     OW19024   3.646   2.114   7.274 -0.3080  0.2863  0.0369
 2521SOL    HW119025   3.662   2.121   7.180 -1.1678  1.6384 -0.0118
 2521SOL    HW219026   3.554   2.139   7.276 -0.2249  0.5877 -0.0058
 2522SOL     OW19027   0.229   2.777   7.967 -0.2523 -0.3224  0.4776
 2522SOL    HW119028   0.203   2.855   8.017  2.3374 -1.6894  3.9507
 2522SOL    HW219029   0.163   2.716   7.998  1.3329 -0.9809  2.5364
 2523SOL     OW19030   3.044   4.510  14.848  0.2203 -0.3251 -0.0201
 2523SOL    HW119031   3.044   4.414  14.853 -2.5879 -0.2962  0.1795
 2523SOL    HW219032   3.128   4.531  14.806  0.0439 -1.7878 -1.0987
 2524SOL     OW19033   0.663   0.464   5.275 -0.3276  0.0604  0.2049
 2524SOL    HW119034   0.622   0.542   5.238 -0.6225 -0.5808 -0.8037
 2524SOL    HW219035   0.750   0.505   5.283 -0.0809 -0.4702  0.2640
 2525SOL     OW19036   4.727   2.236   6.485  0.3496 -0.8855  0.4617
 2525SOL    HW119037   0.042   2.195   6.410 -0.4879 -0.2493 -0.3611
 2525SOL    HW219038   4.645   2.189   6.503 -1.0500  1.9027  1.3171
 2526SOL     OW19039   2.527   3.203   8.825  0.0463  0.4577 -0.7313
 2526SOL    HW119040   2.449   3.252   8.853 -0.5656 -0.7631 -0.3188
 2526SOL    HW219041   2.521   3.211   8.730 -1.3641  3.6866 -0.3908
 2527SOL     OW19042   3.011   0.635   1.518  0.3180 -0.0965  0.3568
 2527SOL    HW119043   3.030   0.698   1.588  1.3560 -0.3719  0.3176
 2527SOL    HW219044   3.093   0.644   1.470  1.1484 -0.5702  1.6954
 2528SOL     OW19045   0.265   2.721   9.709  0.5212 -0.2645  0.1990
 2528SOL    HW119046   0.272   2.807   9.668  1.3855  0.2620  1.4558
 2528SOL    HW219047   0.356   2.694   9.721  1.4582  2.5634 -0.3179
 2529SOL     OW19048   2.626   1.773   0.599 -0.0177 -0.1368 -0.3472
 2529SOL    HW119049   2.688   1.843   0.618  0.4898 -1.2948  2.3561
 2529SOL    HW219050   2.690   1.705   0.617 -1.8772 -2.2490 -1.7037
 2530SOL     OW19051   3.271   2.107  16.151  0.1001  0.1853  0.4528
 2530SOL    HW119052   3.228   2.180  16.106 -0.1233 -0.0740  0.2517
 2530SOL    HW219053   3.328   2.152  16.215 -0.1071  0.5233  0.4001
 2531SOL     OW19054   2.759   2.819   1.616  0.1825 -0.3782  0.1617
 2531SOL    HW119055   2.677   2.785   1.581 -0.3782  0.2388  0.8769
 2531SOL    HW219056   2.792   2.751   1.675 -0.1745 -1.2051 -0.5903
 2532SOL     OW19057   0.417   3.353   8.018  0.4073 -0.5079  0.0864
 2532SOL    HW119058   0.345   3.378   7.960  0.6378 -1.2037 -0.5000
 2532SOL    HW219059   0.376   3.314   8.095 -1.4704  0.8070 -0.2460
 2533SOL     OW19060   2.846   0.534   5.783 -0.1332  0.1713  0.9792
 2533SOL    HW119061   2.793   0.456   5.765  0.2660  0.5215 -1.7676
 2533SOL    HW219062   2.808   0.607   5.734 -1.0270  0.3422  1.9207
 2534SOL     OW19063   4.149   4.298  14.821 -0.2541  0.4091 -0.2615
 2534SOL    HW119064   4.080   4.284  14.885 -0.9705  1.5089 -0.8003
 2534SOL    HW219065   4.182   4.211  14.802 -0.8633  0.5218 -1.7885
 2535SOL     OW19066   0.155   3.187   4.955 -0.1871  0.1666  0.1511
 2535SOL    HW119067   0.127   3.106   4.912  2.6751 -0.3337 -0.7864
 2535SOL    HW219068   0.163   3.234   4.872  0.9912  2.7520  1.7416
 2536SOL     OW19069   0.311   2.730   2.320  0.4062 -0.6320 -0.2908
 2536SOL    HW119070   0.253   2.690   2.385 -1.8891  0.6886 -1.5288
 2536SOL    HW219071   0.281   2.687   2.240  0.4806  0.1460 -0.7349
 2537SOL     OW19072   4.457   0.015   5.892 -0.5770 -0.1264 -0.2841
 2537SOL    HW119073   4.369   4.716   5.920 -1.4697  2.7908 -0.2780
 2537SOL    HW219074   4.483   4.662   5.848 -0.6451  0.2551 -1.0222
 2538SOL     OW19075   3.976   3.418  12.760 -0.3268 -0.2842  0.0745
 2538SOL    HW119076   3.901   3.389  12.813  0.5444 -2.1921  0.2847
 2538SOL    HW219077   3.971   3.366  12.680  2.1675 -0.8472  0.3067
 2539SOL     OW19078   3.993   2.070   9.113  0.1906  0.3647 -0.3517
 2539SOL    HW119079   4.044   2.084   9.192 -0.0416 -1.4878  0.1205
 2539SOL    HW219080   4.043   2.132   9.060  0.6650 -0.9118 -1.3966
 2540SOL     OW19081   1.832   1.187   4.714 -0.8409 -0.2576  0.1703
 2540SOL    HW119082   1.761   1.149   4.765 -1.0271  0.0185  0.1161
 2540SOL    HW219083   1.848   1.115   4.653  1.2128 -0.2050  0.6349
 2541SOL     OW19084   4.060   2.488   3.853  0.0304  0.4268  0.0739
 2541SOL    HW119085   3.977   2.444   3.874  0.8865 -0.5477  1.4656
 2541SOL    HW219086   4.015   2.563   3.815  0.9103  1.3082  0.7737
 2542SOL     OW19087   3.113   4.321   5.653  0.1333 -0.6494 -0.1788
 2542SOL    HW119088   3.184   4.336   5.716 -0.6674 -0.1369  0.5944
 2542SOL    HW219089   3.087   4.411   5.635  0.7734 -0.5095 -0.4004
 2543SOL     OW19090   1.533   0.362   5.082  0.0289 -0.4702  0.0254
 2543SOL    HW119091   1.520   0.418   5.159 -0.3210 -0.4109 -0.0743
 2543SOL    HW219092   1.588   0.422   5.030  0.4149  0.4939  1.5615
 2544SOL     OW19093   2.168   0.204  13.545  0.0933 -0.1937 -0.4902
 2544SOL    HW119094   2.231   0.255  13.495  0.1798  0.8137  0.6332
 2544SOL    HW219095   2.102   0.182  13.479 -0.4579 -2.6916  0.8912
 2545SOL     OW19096   2.463   1.296   4.616 -0.2326  0.5628 -0.1833
 2545SOL    HW119097   2.443   1.381   4.577  1.9783  0.4813 -1.5125
 2545SOL    HW219098   2.437   1.313   4.707 -0.3620 -2.2895  0.3423
 2546SOL     OW19099   1.774   4.433   6.119 -0.8974 -0.5390  0.1688
 2546SOL    HW119100   1.732   4.406   6.200  0.0840 -0.1490  0.8009
 2546SOL    HW219101   1.800   4.524   6.136  1.4686 -0.8177 -1.8366
 2547SOL     OW19102   3.343   3.013   7.220  0.5625 -0.2798  0.4539
 2547SOL    HW119103   3.347   3.039   7.312 -1.2142  1.0241  0.1624
 2547SOL    HW219104   3.323   2.919   7.221  0.8833 -0.3769 -1.5170
 2548SOL     OW19105   1.508   2.629  13.140 -0.3620 -1.0505  0.0609
 2548SOL    HW119106   1.460   2.558  13.182  1.3560 -0.5667  2.8151
 2548SOL    HW219107   1.566   2.578  13.084  0.9057  1.1007 -0.5860
 2549SOL     OW19108   1.376   2.926   7.440  0.1634 -0.0893 -0.5732
 2549SOL    HW119109   1.318   2.880   7.380  0.4865 -3.0935  1.4219
 2549SOL    HW219110   1.322   3.003   7.455 -0.3811 -0.4219 -0.8370
 2550SOL     OW19111   0.040   1.471  15.552 -0.1084  0.0908  0.2508
 2550SOL    HW119112   0.002   1.418  15.482  1.1385  0.2178 -0.5339
 2550SOL    HW219113   0.091   1.404  15.599  1.0366  1.3785  0.8379
 2551SOL     OW19114   0.493   0.125   9.688 -0.1380 -0.5642  0.0619
 2551SOL    HW119115   0.399   0.126   9.672  0.1847 -1.2025 -1.8876
 2551SOL    HW219116   0.503   0.072   9.768 -0.0341  2.3878  2.0026
 2552SOL     OW19117   2.968   1.551   9.302  0.2361  0.5258 -0.0728
 2552SOL    HW119118   2.978   1.645   9.315  1.1923  0.3741  0.3346
 2552SOL    HW219119   3.058   1.525   9.281 -0.4817 -1.7348 -0.3815
 2553SOL     OW19120   1.440   2.231  17.629 -0.3547 -0.4973  0.5474
 2553SOL    HW119121   1.379   2.305  17.632  0.1686 -0.1092  1.6441
 2553SOL    HW219122   1.398   2.159  17.675 -1.5848  0.8993  1.6202
 2554SOL     OW19123   0.737   1.609  14.544 -0.4785 -0.5955 -0.4094
 2554SOL    HW119124   0.754   1.687  14.597  1.6032 -0.5821 -1.0960
 2554SOL    HW219125   0.734   1.541  14.611 -1.1799  1.3797  1.5440
 2555SOL     OW19126   2.053   3.426   4.081  0.1938  0.4248  0.9286
 2555SOL    HW119127   2.085   3.489   4.016  0.9942 -0.3500  0.5759
 2555SOL    HW219128   1.968   3.460   4.109 -0.1065 -0.8847  1.5804
 2556SOL     OW19129   4.237   0.364   8.097  0.1803  0.0439 -0.4267
 2556SOL    HW119130   4.270   0.319   8.175 -1.2726 -2.1987 -1.1300
 2556SOL    HW219131   4.150   0.325   8.106 -0.0499  0.7484  0.4519
 2557SOL     OW19132   2.988   3.393   4.967  0.2112 -0.4940  0.5962
 2557SOL    HW119133   2.906   3.398   5.016  0.2443  1.5392  0.4490
 2557SOL    HW219134   2.961   3.346   4.888  0.4760  3.4291 -1.8150
 2558SOL     OW19135   3.379   0.881   5.978 -0.1208  0.1503 -0.0941
 2558SOL    HW119136   3.389   0.956   6.036 -1.5809 -0.8305  1.4336
 2558SOL    HW219137   3.289   0.853   5.995 -0.2092  0.9799  0.7590
 2559SOL     OW19138   1.159   0.332   3.613  0.8044  0.7539 -0.2543
 2559SOL    HW119139   1.160   0.407   3.672 -1.3057  1.2915 -0.8887
 2559SOL    HW219140   1.065   0.320   3.599  1.1372 -1.2685 -0.6922
 2560SOL     OW19141   3.860   2.398   4.855 -0.6391  0.1955 -0.3704
 2560SOL    HW119142   3.875   2.315   4.900  2.0445  0.2831 -1.1442
 2560SOL    HW219143   3.933   2.401   4.794 -0.0500 -0.8324  0.2968
 2561SOL     OW19144   4.395   4.075   1.842 -0.2501  0.1974  0.4055
 2561SOL    HW119145   4.474   4.128   1.855 -0.2163  0.0341  0.8684
 2561SOL    HW219146   4.407   4.023   1.762 -0.6476  0.4085  0.2060
 2562SOL     OW19147   0.221   2.054  16.230 -0.6256 -0.0709  0.2019
 2562SOL    HW119148   0.183   2.138  16.203  0.2381  0.3551  0.3105
 2562SOL    HW219149   0.213   2.060  16.325  0.1604 -1.1135  0.3319
 2563SOL     OW19150   3.612   0.184   4.383 -0.2925  0.3088  0.4898
 2563SOL    HW119151   3.642   0.134   4.458 -4.2159 -0.5552  1.4823
 2563SOL    HW219152   3.584   0.114   4.324  2.2094  1.1152 -1.6415
 2564SOL     OW19153   2.484   3.444   6.863 -0.2377  0.0677 -0.4843
 2564SOL    HW119154   2.427   3.443   6.786 -1.0035 -1.8408  0.1001
 2564SOL    HW219155   2.569   3.459   6.822  0.2990 -0.6723  0.3636
 2565SOL     OW19156   0.894   0.025  10.043 -0.3403 -0.6841 -0.6081
 2565SOL    HW119157   0.862   4.718  10.127  0.5856  0.1700  0.0980
 2565SOL    HW219158   0.984   0.049  10.064 -0.3619 -2.1530  1.2061
 2566SOL     OW19159   4.254   1.257  12.986 -0.3305  0.0963 -0.3903
 2566SOL    HW119160   4.217   1.225  13.068  1.4490 -1.9631 -0.3703
 2566SOL    HW219161   4.217   1.198  12.920  2.6739  0.8893 -2.8012
 2567SOL     OW19162   1.684   1.939   2.688  0.0344 -0.0357 -0.0911
 2567SOL    HW119163   1.634   1.916   2.766  1.0052  1.9294  1.0919
 2567SOL    HW219164   1.605   1.952   2.636  0.7725  2.0000 -0.6882
 2568SOL     OW19165   3.547   0.922   7.172  0.4476  0.0091 -0.1014
 2568SOL    HW119166   3.477   0.967   7.124 -0.3038 -0.2073  0.7855
 2568SOL    HW219167   3.623   0.979   7.160  0.6469 -0.4733 -1.1437
 2569SOL     OW19168   4.562   0.726   7.105 -0.2365 -0.0347  0.0491
 2569SOL    HW119169   4.614   0.805   7.120  0.3767 -0.0482 -2.0079
 2569SOL    HW219170   4.498   0.767   7.046  0.4769 -0.2825 -0.9029
 2570SOL     OW19171   0.212   3.004  15.552  0.3378 -0.0427  0.2819
 2570SOL    HW119172   0.229   3.012  15.646 -1.8981 -0.2314  0.7110
 2570SOL    HW219173   0.228   2.913  15.526  1.0783 -0.0229  0.6874
 2571SOL     OW19174   4.717   0.897   4.858  0.5052 -0.3255 -0.1779
 2571SOL    HW119175   4.676   0.828   4.911 -0.1089 -0.3531 -0.6890
 2571SOL    HW219176   4.649   0.962   4.839 -0.9781 -1.4615  1.2078
 2572SOL     OW19177   3.611   3.173   9.096 -0.3024  0.2656  0.0362
 2572SOL    HW119178   3.651   3.247   9.140 -1.8534  2.9064 -2.9991
 2572SOL    HW219179   3.565   3.128   9.167  1.0036 -1.3457 -0.1373
 2573SOL     OW19180   3.694   4.096  10.379  0.0609 -0.4514 -0.1679
 2573SOL    HW119181   3.739   4.012  10.394 -0.3278 -0.9290 -1.6241
 2573SOL    HW219182   3.643   4.078  10.300  2.0292 -1.3108 -1.2637
 2574SOL     OW19183   1.593   4.333   3.522 -0.3367 -0.4020 -0.4538
 2574SOL    HW119184   1.661   4.290   3.573 -0.2998  0.2879  0.0747
 2574SOL    HW219185   1.520   4.272   3.531  0.0410 -0.9567 -1.2000
 2575SOL     OW19186   1.176   2.210   7.993  0.0593 -0.3550  0.0395
 2575SOL    HW119187   1.160   2.178   7.904  3.4347  0.2730 -0.7817
 2575SOL    HW219188   1.098   2.264   8.001 -0.7202 -1.5626  0.6873
 2576SOL     OW19189   2.132   3.789   6.628 -0.0740 -0.2355  0.5864
 2576SOL    HW119190   2.046   3.758   6.656  0.5514 -1.4290  1.2040
 2576SOL    HW219191   2.130   3.767   6.535  0.6632  1.2052  0.2271
 2577SOL     OW19192   4.170   1.162   7.338  0.6117  0.0581  0.3940
 2577SOL    HW119193   4.226   1.233   7.369 -0.6807  0.4859  1.7142
 2577SOL    HW219194   4.086   1.203   7.358  1.5475  2.3999 -0.5153
 2578SOL     OW19195   4.608   4.702  12.953 -0.4263 -0.2355  0.4847
 2578SOL    HW119196   4.624   4.711  12.859  0.7565  1.9594  0.8760
 2578SOL    HW219197   4.633   4.612  12.972  1.1294 -0.0663 -0.7134
 2579SOL     OW19198   3.117   1.308   9.673  0.0836  0.3229 -0.1804
 2579SOL    HW119199   3.032   1.351   9.685 -0.0034  0.5847 -1.7403
 2579SOL    HW219200   3.156   1.384   9.629 -0.7377  0.9839  0.2289
 2580SOL     OW19201   1.658   3.226  16.340  0.0941 -0.1738  0.8644
 2580SOL    HW119202   1.734   3.284  16.343 -0.9364  1.2649 -0.7198
 2580SOL    HW219203   1.699   3.140  16.350 -0.3794 -0.6420 -1.1339
 2581SOL     OW19204   4.491   4.251  17.311  0.0344 -0.6868  0.4882
 2581SOL    HW119205   4.559   4.242  17.244  0.0399  2.4444  0.1132
 2581SOL    HW219206   4.527   4.211  17.391  0.5120  0.0162  0.6271
 2582SOL     OW19207   2.780   2.310   2.443 -0.1273  0.3748 -0.1890
 2582SOL    HW119208   2.773   2.348   2.355  0.0633  0.6648 -0.0782
 2582SOL    HW219209   2.838   2.235   2.430  0.9462  0.9056  1.5981
 2583SOL     OW19210   2.970   4.486  11.686 -0.6065 -0.2663 -0.1484
 2583SOL    HW119211   2.996   4.417  11.746 -0.6827 -0.0083  0.1829
 2583SOL    HW219212   2.881   4.461  11.659  0.0009 -0.6287 -1.8081
 2584SOL     OW19213   0.955   3.572   5.430  0.0380  0.0607  0.1805
 2584SOL    HW119214   0.873   3.581   5.381  0.4211 -1.6707 -0.8219
 2584SOL    HW219215   0.943   3.530   5.515 -0.0883  1.0112  0.6210
 2585SOL     OW19216   0.810   1.624  10.783 -0.2487  0.4279 -0.9254
 2585SOL    HW119217   0.882   1.598  10.840  0.8282 -0.0415 -2.5098
 2585SOL    HW219218   0.827   1.584  10.698  2.8277 -1.2879  0.4961
 2586SOL     OW19219   4.625   2.415  16.150 -0.1119  0.3308 -0.1040
 2586SOL    HW119220   4.676   2.409  16.070  2.7337 -0.3888  1.7527
 2586SOL    HW219221   4.551   2.466  16.117  0.2431  0.3435 -0.8584
 2587SOL     OW19222   2.244   3.186   8.667  0.4104  0.6602  0.5230
 2587SOL    HW119223   2.193   3.263   8.642  0.5985  0.7491  0.4191
 2587SOL    HW219224   2.290   3.219   8.744  1.3445  0.3836  0.0844
 2588SOL     OW19225   2.779   2.151  17.679 -0.5795 -0.3447  0.0004
 2588SOL    HW119226   2.812   2.240  17.694 -2.3692  0.5351 -1.3332
 2588SOL    HW219227   2.696   2.161   0.016 -0.3117 -2.0007  0.8287
 2589SOL     OW19228   0.782   1.171   9.383 -0.0104  0.3262 -0.1120
 2589SOL    HW119229   0.805   1.096   9.328 -1.8805  0.2018 -0.7374
 2589SOL    HW219230   0.739   1.122   9.453 -2.5577  0.4804 -1.5698
 2590SOL     OW19231   3.287   1.841  12.223 -0.3280 -0.2401 -0.0352
 2590SOL    HW119232   3.380   1.836  12.198  0.5599  3.6802  2.5673
 2590SOL    HW219233   3.252   1.871  12.139 -0.1245 -0.7821 -0.3200
 2591SOL     OW19234   0.083   0.668   8.649 -0.9065 -0.2271  0.0157
 2591SOL    HW119235   0.130   0.737   8.603  0.3342 -0.3643  1.0630
 2591SOL    HW219236   0.140   0.597   8.620 -0.0336  0.8527 -0.9550
 2592SOL     OW19237   0.514   3.463   6.108  0.0458  0.0310  0.5596
 2592SOL    HW119238   0.428   3.442   6.146  0.8954 -1.7556  1.5041
 2592SOL    HW219239   0.533   3.551   6.138 -0.5963  1.2263 -2.5803
 2593SOL     OW19240   3.015   1.358   0.036  0.3405  0.3577 -0.7086
 2593SOL    HW119241   3.003   1.276   0.083  1.1958 -0.8300 -2.5685
 2593SOL    HW219242   3.101   1.341  17.707  0.3693  0.8287 -0.8532
 2594SOL     OW19243   3.530   0.652   8.856  0.1947  0.1836 -0.0211
 2594SOL    HW119244   3.595   0.695   8.911  1.3847  0.2620 -1.4961
 2594SOL    HW219245   3.460   0.717   8.861  0.4202  0.7406 -3.5035
 2595SOL     OW19246   1.059   2.801   4.135 -0.2640  0.1078 -0.3231
 2595SOL    HW119247   1.125   2.842   4.191  0.5937  0.6003 -1.7039
 2595SOL    HW219248   1.048   2.714   4.173 -2.4935  0.3600 -0.4041
 2596SOL     OW19249   1.284   3.802   5.352  0.0990 -0.6338 -0.5472
 2596SOL    HW119250   1.251   3.719   5.319 -0.3212 -0.9494  0.6719
 2596SOL    HW219251   1.342   3.782   5.425  1.3689 -2.0833 -1.9770
 2597SOL     OW19252   3.430   2.647   5.588  0.1103 -0.2656  0.1812
 2597SOL    HW119253   3.410   2.701   5.664 -0.6680  0.2859 -0.4157
 2597SOL    HW219254   3.517   2.673   5.558 -0.3679  0.5224 -0.5179
 2598SOL     OW19255   3.172   0.555   9.058 -0.1218 -0.3159 -0.0573
 2598SOL    HW119256   3.107   0.513   9.114 -1.7397 -0.0834 -1.7653
 2598SOL    HW219257   3.179   0.492   8.986 -0.3627 -1.4443  0.9007
 2599SOL     OW19258   1.750   1.234  13.448 -0.7922  0.2268  0.5907
 2599SOL    HW119259   1.808   1.222  13.373 -1.4145  1.4456 -0.0895
 2599SOL    HW219260   1.792   1.310  13.489 -2.0427  1.1817  0.1115
 2600SOL     OW19261   4.509   0.034  10.750  0.2822 -0.1229  0.0170
 2600SOL    HW119262   4.499   0.049  10.844 -1.1512 -1.0168  0.0094
 2600SOL    HW219263   4.423   4.724  10.731 -0.5221  2.4316 -1.3261
 2601SOL     OW19264   2.576   0.807   6.448 -0.0786  0.4511 -0.2263
 2601SOL    HW119265   2.570   0.890   6.401 -0.2737  0.1586 -0.7188
 2601SOL    HW219266   2.483   0.784   6.443 -0.0997  0.3436  0.7534
 2602SOL     OW19267   3.324   1.218   7.313  0.2885 -0.3368 -0.9321
 2602SOL    HW119268   3.232   1.194   7.328  0.6152 -0.0899  1.4198
 2602SOL    HW219269   3.356   1.184   7.396 -0.8340  3.7231  1.1451
 2603SOL     OW19270   2.431   4.048   8.153  0.0877 -0.4046 -0.4591
 2603SOL    HW119271   2.501   4.114   8.150 -1.7646  1.5195 -0.9063
 2603SOL    HW219272   2.387   4.070   8.071  2.5074 -0.4410 -1.7911
 2604SOL     OW19273   4.088   4.340  16.540  0.7312 -0.4293  0.6223
 2604SOL    HW119274   4.102   4.245  16.542 -3.8510 -1.1014 -0.6823
 2604SOL    HW219275   4.023   4.350  16.471 -0.3795 -1.1241  1.5679
 2605SOL     OW19276   3.635   1.139  13.228  0.0473 -0.2254  0.3482
 2605SOL    HW119277   3.572   1.174  13.165  0.2394 -1.2329 -0.4154
 2605SOL    HW219278   3.593   1.054  13.242 -1.4015  0.6667  1.3048
 2606SOL     OW19279   0.532   2.075   5.762  0.1019  0.2442  0.2761
 2606SOL    HW119280   0.544   2.083   5.857 -0.9879 -0.3996  0.4689
 2606SOL    HW219281   0.622   2.075   5.730 -0.3101 -0.4246 -0.8570
 2607SOL     OW19282   2.575   0.263   0.987 -0.8406 -0.6573 -0.0772
 2607SOL    HW119283   2.538   0.266   1.076  0.7715  0.0721  0.5534
 2607SOL    HW219284   2.502   0.299   0.936 -0.6377 -0.2694 -0.0958
 2608SOL     OW19285   3.227   2.365  12.699 -0.1253 -0.0680 -0.6018
 2608SOL    HW119286   3.253   2.300  12.764 -0.1093  0.0882 -0.4532
 2608SOL    HW219287   3.133   2.376  12.712  0.1070 -1.0310  1.7274
 2609SOL     OW19288   3.155   0.807  12.602 -0.3261  0.3218 -0.0305
 2609SOL    HW119289   3.230   0.749  12.590 -0.7709 -0.2831  0.1294
 2609SOL    HW219290   3.182   0.892  12.567  0.8205  0.1682  0.4848
 2610SOL     OW19291   1.436   2.749   8.349  0.1439 -0.2204 -0.2802
 2610SOL    HW119292   1.436   2.741   8.444 -1.5766 -0.6586 -0.3182
 2610SOL    HW219293   1.410   2.662   8.319 -0.7929  0.4923 -1.5679
 2611SOL     OW19294   0.276   2.995   5.508  0.1744 -0.1755  0.2997
 2611SOL    HW119295   0.310   2.982   5.420 -1.4537  1.0410 -0.5038
 2611SOL    HW219296   0.319   2.924   5.556  0.6383  1.0960  1.7881
 2612SOL     OW19297   2.870   1.334   4.447  0.2462 -0.3256 -0.4502
 2612SOL    HW119298   2.886   1.321   4.354  0.1027  1.1418 -0.6734
 2612SOL    HW219299   2.838   1.248   4.474 -1.6794 -0.4176 -3.0548
 2613SOL     OW19300   2.823   0.883   3.424  0.5613  0.2472  0.3342
 2613SOL    HW119301   2.803   0.908   3.333  0.1565  0.6697  0.5381
 2613SOL    HW219302   2.894   0.822   3.404 -0.2643 -0.1850 -1.2424
 2614SOL     OW19303   3.921   1.301  11.749  0.6412  0.0579  0.5738
 2614SOL    HW119304   3.830   1.289  11.721 -0.2866  0.0099  3.6022
 2614SOL    HW219305   3.918   1.382  11.801 -3.1927  0.2797 -0.0407
 2615SOL     OW19306   1.622   1.484  11.841  0.0959 -0.4913  0.0250
 2615SOL    HW119307   1.644   1.577  11.831 -0.5673 -0.5162 -1.6690
 2615SOL    HW219308   1.678   1.464  11.916  0.5232  1.0237  0.1157
 2616SOL     OW19309   2.228   0.321   8.871 -0.2373 -0.3250 -0.0993
 2616SOL    HW119310   2.257   0.358   8.787  2.9061 -0.5542  0.8874
 2616SOL    HW219311   2.251   0.387   8.935 -0.6357 -0.1034 -0.1835
 2617SOL     OW19312   0.264   4.101   8.210 -0.2640 -0.3394  0.5020
 2617SOL    HW119313   0.279   4.153   8.289  0.0579 -1.5608  1.2467
 2617SOL    HW219314   0.304   4.021   8.243  2.4441  0.7099 -0.2651
 2618SOL     OW19315   0.593   3.778   8.478 -0.4807 -0.3155 -0.0141
 2618SOL    HW119316   0.662   3.715   8.459 -0.9987  0.0136 -2.9621
 2618SOL    HW219317   0.552   3.737   8.554 -0.0727  0.5361  0.6723
 2619SOL     OW19318   0.938   1.400   2.751  0.2727 -0.1918 -0.3067
 2619SOL    HW119319   0.947   1.449   2.833  0.4796 -0.9710  0.1329
 2619SOL    HW219320   1.003   1.451   2.702 -0.0583  0.2881 -0.2454
 2620SOL     OW19321   1.604   3.706   5.222  0.3742 -0.4789 -0.1336
 2620SOL    HW119322   1.604   3.766   5.147  0.2258  1.7150  1.6122
 2620SOL    HW219323   1.699   3.696   5.226  0.5893  0.4408 -2.6210
 2621SOL     OW19324   4.320   2.313   8.461  0.5091  0.3745  0.0728
 2621SOL    HW119325   4.413   2.313   8.437  0.2025  0.6822 -1.1046
 2621SOL    HW219326   4.330   2.288   8.553 -1.2889 -1.0808 -0.1352
 2622SOL     OW19327   3.071   1.307  11.803 -0.2872 -0.3082  0.0210
 2622SOL    HW119328   3.044   1.268  11.886  0.1952 -0.7764 -0.0396
 2622SOL    HW219329   2.993   1.352  11.772 -0.2920 -0.5145 -0.2704
 2623SOL     OW19330   3.628   3.186   6.981 -0.3410 -0.6189  0.2544
 2623SOL    HW119331   3.534   3.206   6.976 -0.1175  0.3779  0.0987
 2623SOL    HW219332   3.627   3.094   7.008  0.7444 -0.3269  1.3044
 2624SOL     OW19333   4.723   0.768   8.933 -0.5316  0.1796 -0.4843
 2624SOL    HW119334   0.068   0.783   8.994 -0.2488 -0.2257 -0.7170
 2624SOL    HW219335   0.038   0.745   8.850 -0.3747  2.0154 -0.9005
 2625SOL     OW19336   2.885   1.969  15.892 -0.0247  0.3374 -0.0793
 2625SOL    HW119337   2.826   2.034  15.930  1.8363  1.2856  1.1679
 2625SOL    HW219338   2.938   1.945  15.969 -3.1099 -1.2741  1.5377
 2626SOL     OW19339   0.520   0.797   8.828  0.9385  0.4179  0.0841
 2626SOL    HW119340   0.460   0.722   8.833  0.8495  0.3940 -1.3948
 2626SOL    HW219341   0.516   0.807   8.733  0.5401 -2.0724 -0.1824
 2627SOL     OW19342   0.434   0.498   6.852  0.6494  0.0360  0.9136
 2627SOL    HW119343   0.496   0.554   6.899  0.5125  1.7403 -0.9263
 2627SOL    HW219344   0.372   0.567   6.828  1.9555  0.9750  0.2292
 2628SOL     OW19345   3.668   2.729   9.276  0.6432 -0.6103 -0.2401
 2628SOL    HW119346   3.588   2.695   9.317  1.8953 -1.6287  1.4141
 2628SOL    HW219347   3.673   2.665   9.205 -2.0366  1.8518 -2.6316
 2629SOL     OW19348   1.217   2.525   5.818  0.4512 -0.2586  0.0876
 2629SOL    HW119349   1.245   2.617   5.814 -0.8075  0.0766 -1.2554
 2629SOL    HW219350   1.294   2.481   5.781  0.3466  1.0048 -1.6403
 2630SOL     OW19351   4.721   3.987   5.014 -0.1718 -0.1362  0.2551
 2630SOL    HW119352   4.649   4.000   4.953 -0.5590 -2.8449  0.1526
 2630SOL    HW219353   0.066   4.032   4.969  1.3195 -0.0514  2.7211
 2631SOL     OW19354   2.811   4.165   3.078  0.5016  0.2192 -0.4679
 2631SOL    HW119355   2.753   4.101   3.036  0.1103  0.9059 -0.9854
 2631SOL    HW219356   2.764   4.248   3.068  0.5147  0.0871 -1.5743
 2632SOL     OW19357   3.587   2.846   0.992 -0.1523 -0.2700  0.7909
 2632SOL    HW119358   3.568   2.940   0.994 -0.9259 -0.3602 -1.5738
 2632SOL    HW219359   3.516   2.812   0.937 -2.8894  0.3455  3.9389
 2633SOL     OW19360   3.830   3.924   7.032 -0.5371 -0.2023 -0.0360
 2633SOL    HW119361   3.810   4.016   7.016  1.9206  0.3204 -0.0079
 2633SOL    HW219362   3.916   3.922   6.991 -0.1316  1.8904  0.7244
 2634SOL     OW19363   0.041   0.062  15.060  0.1061 -0.5455 -0.1488
 2634SOL    HW119364   4.715   0.081  15.138 -0.3733 -1.8017 -0.1658
 2634SOL    HW219365   0.087   0.145  15.044 -0.0987 -0.3495  0.2603
 2635SOL     OW19366   4.032   0.931   7.626 -0.4230 -0.1748 -0.0042
 2635SOL    HW119367   4.116   0.932   7.580  0.4781 -0.1627  1.6579
 2635SOL    HW219368   4.049   0.888   7.710 -0.8043  1.2880  0.8195
 2636SOL     OW19369   0.675   3.107   6.607  0.3234  0.1483  0.5743
 2636SOL    HW119370   0.669   3.166   6.682  0.3039  1.8707 -0.7741
 2636SOL    HW219371   0.592   3.067   6.633 -0.2248  0.5367 -0.5777
 2637SOL     OW19372   2.711   2.975   7.387 -0.1387 -0.2468 -0.1886
 2637SOL    HW119373   2.698   3.046   7.325 -3.2074 -0.0038  0.7272
 2637SOL    HW219374   2.770   3.012   7.452 -0.0167  1.3945 -1.2246
 2638SOL     OW19375   0.791   0.531   9.553  0.0912 -1.1079  0.0249
 2638SOL    HW119376   0.845   0.534   9.632 -0.4660  1.4942  0.3010
 2638SOL    HW219377   0.721   0.466   9.564 -0.0951 -1.0167 -0.6255
 2639SOL     OW19378   1.280   2.792   7.830 -0.3779 -0.5181  0.2483
 2639SOL    HW119379   1.193   2.768   7.863 -0.6800 -0.3639 -0.4294
 2639SOL    HW219380   1.275   2.777   7.736 -1.5920 -1.2416  0.4234
 2640SOL     OW19381   4.292   2.906   9.030  0.2997 -0.1994 -0.5355
 2640SOL    HW119382   4.235   2.861   8.968 -0.5215 -2.0496  1.5454
 2640SOL    HW219383   4.237   2.907   9.108  1.3307 -0.5945  0.2103
 2641SOL     OW19384   1.627   0.290   6.553 -0.3091  0.5867  0.1961
 2641SOL    HW119385   1.648   0.368   6.501  0.4087  1.5347  1.8995
 2641SOL    HW219386   1.668   0.320   6.635 -0.0652 -0.7330  0.5512
 2642SOL     OW19387   0.123   3.701  16.211 -0.3759  0.4294  0.2498
 2642SOL    HW119388   0.124   3.655  16.295  0.6091 -3.8394 -2.1052
 2642SOL    HW219389   0.058   3.650  16.163  2.2968  0.0139 -2.9861
 2643SOL     OW19390   1.140   1.257   0.760  0.3840 -0.0292  0.4106
 2643SOL    HW119391   1.158   1.310   0.837  2.5960  0.4072 -0.3935
 2643SOL    HW219392   1.190   1.308   0.696  0.2964 -1.9514 -1.2191
 2644SOL     OW19393   4.549   4.409   3.338 -0.4917 -0.3646  0.6688
 2644SOL    HW119394   4.564   4.476   3.271  3.5101 -0.3280  1.6053
 2644SOL    HW219395   4.460   4.378   3.320 -0.8553  0.3886  1.1005
 2645SOL     OW19396   0.999   3.078   0.338  0.2404 -0.3864 -0.2196
 2645SOL    HW119397   1.021   3.131   0.414 -0.9427 -1.7055  1.0276
 2645SOL    HW219398   0.985   3.147   0.273 -1.5236 -0.5594 -0.0211
 2646SOL     OW19399   4.405   2.277   3.003  0.4206  0.8727 -0.2800
 2646SOL    HW119400   4.323   2.288   3.052  0.7614  3.0486 -0.1977
 2646SOL    HW219401   4.470   2.294   3.071 -0.6191 -0.5725  1.0840
 2647SOL     OW19402   0.629   4.166  14.421 -0.1166  0.6019  0.5513
 2647SOL    HW119403   0.549   4.115  14.415 -0.8077  1.7656 -0.1910
 2647SOL    HW219404   0.592   4.254  14.423 -1.1427  0.1942 -0.4564
 2648SOL     OW19405   2.260   0.791   1.965  0.5964  0.2563  0.4415
 2648SOL    HW119406   2.204   0.754   1.895 -2.6412  0.9312  2.6905
 2648SOL    HW219407   2.264   0.716   2.024  0.7038 -0.3727 -0.3569
 2649SOL     OW19408   2.275   1.638  10.647  0.5086 -0.2941  0.0824
 2649SOL    HW119409   2.358   1.672  10.680 -0.4372  0.9884  1.1488
 2649SOL    HW219410   2.235   1.714  10.605  1.1271 -0.0296 -0.0298
 2650SOL     OW19411   3.507   3.020   0.509  0.1990 -0.0846 -0.0255
 2650SOL    HW119412   3.547   2.934   0.509 -1.1156 -0.6983 -1.0217
 2650SOL    HW219413   3.508   3.033   0.604 -1.9800 -0.1913  0.0294
 2651SOL     OW19414   1.741   3.641   2.638  0.2191  0.1981  0.3141
 2651SOL    HW119415   1.725   3.675   2.726 -0.5740  1.1021 -0.1788
 2651SOL    HW219416   1.679   3.568   2.627  0.5601  0.2733 -2.0399
 2652SOL     OW19417   4.261   2.977   0.473  0.3363  0.0398 -0.6881
 2652SOL    HW119418   4.341   2.984   0.525 -0.3230  0.5917  0.2597
 2652SOL    HW219419   4.228   2.890   0.493  1.0002 -0.1734 -0.5103
 2653SOL     OW19420   1.667   4.185   0.405 -0.4055  0.0163 -0.2352
 2653SOL    HW119421   1.740   4.127   0.426 -0.4714 -0.1423 -0.4433
 2653SOL    HW219422   1.602   4.118   0.384 -0.4026 -0.3398  0.9212
 2654SOL     OW19423   0.676   4.217   9.964 -0.1715 -0.5885 -0.3282
 2654SOL    HW119424   0.702   4.306   9.986 -2.8507  0.2853 -0.7002
 2654SOL    HW219425   0.606   4.227   9.900  1.3944 -3.6292 -2.5394
 2655SOL     OW19426   3.395   3.998  16.989 -0.2339 -0.2240 -0.2958
 2655SOL    HW119427   3.317   3.976  16.937 -1.0472  1.6342  0.1419
 2655SOL    HW219428   3.362   4.032  17.072 -0.8164 -0.0288 -0.6026
 2656SOL     OW19429   4.253   1.039   4.440 -0.2648  0.0713 -0.2708
 2656SOL    HW119430   4.295   0.958   4.411 -0.3104 -0.5184  1.3206
 2656SOL    HW219431   4.302   1.099   4.384  0.8319 -0.5342  0.0296
 2657SOL     OW19432   2.806   1.561   7.909 -0.0029  0.4385 -0.6878
 2657SOL    HW119433   2.828   1.468   7.899  0.7733  0.6434 -0.8664
 2657SOL    HW219434   2.795   1.572   7.815 -3.0920  2.2467 -0.1107
 2658SOL     OW19435   4.597   0.986   7.017 -0.0119  0.4282  0.6665
 2658SOL    HW119436   4.524   1.046   7.006 -0.4450  0.1236  1.8990
 2658SOL    HW219437   4.666   1.014   6.957 -0.3725 -1.9226 -0.8297
 2659SOL     OW19438   4.275   1.959   5.681 -0.2080 -0.1291 -0.5795
 2659SOL    HW119439   4.278   1.903   5.603 -0.4271 -1.3148  0.2659
 2659SOL    HW219440   4.254   2.042   5.637 -2.6757 -0.8729 -0.8421
 2660SOL     OW19441   2.946   0.263   6.581  0.3285 -0.3770  0.9090
 2660SOL    HW119442   2.943   0.186   6.523  0.8985  1.4145 -1.4766
 2660SOL    HW219443   3.031   0.300   6.558  0.8433 -0.9882  1.7869
 2661SOL     OW19444   3.648   4.236   2.581  0.1801  0.3968 -0.0730
 2661SOL    HW119445   3.656   4.329   2.560 -0.9232  0.0006 -2.1275
 2661SOL    HW219446   3.659   4.192   2.497  1.0826  1.0624 -0.3079
 2662SOL     OW19447   2.502   2.629   6.931 -0.3292  0.2316  0.4161
 2662SOL    HW119448   2.474   2.718   6.908 -2.1452 -0.4375  0.1082
 2662SOL    HW219449   2.585   2.640   6.978  0.5038 -0.6569 -0.8324
 2663SOL     OW19450   2.933   4.674   4.650  0.4867 -0.3072 -0.0093
 2663SOL    HW119451   2.911   4.658   4.742  0.7564  0.7811  0.2499
 2663SOL    HW219452   2.855   4.721   4.620  3.4273  2.8754 -2.5849
 2664SOL     OW19453   0.688   0.967  15.391  0.0811  0.0082 -0.3790
 2664SOL    HW119454   0.703   1.048  15.342  0.9153  0.1194  0.0582
 2664SOL    HW219455   0.767   0.916  15.373 -0.2816 -0.4992 -0.5156
 2665SOL     OW19456   1.350   3.830  16.349  0.0188 -0.7803  0.1912
 2665SOL    HW119457   1.317   3.741  16.336 -0.1898 -0.7515  0.5351
 2665SOL    HW219458   1.416   3.826  16.280  1.9745  0.7183  2.0081
 2666SOL     OW19459   2.743   2.210   7.300  0.3295  0.4365 -0.2656
 2666SOL    HW119460   2.783   2.281   7.350 -1.6154  2.2223 -1.2018
 2666SOL    HW219461   2.696   2.265   7.238 -2.8960  0.1440  1.9007
 2667SOL     OW19462   3.000   0.957   2.153 -0.0115  0.5167  0.3376
 2667SOL    HW119463   2.962   0.975   2.239 -1.9408 -2.7710  0.1478
 2667SOL    HW219464   2.930   0.911   2.106 -1.2134  1.1678  1.4734
 2668SOL     OW19465   2.859   3.083   5.125  0.2020 -0.2392  0.2669
 2668SOL    HW119466   2.854   3.117   5.035 -0.7380  0.6706  0.6583
 2668SOL    HW219467   2.945   3.041   5.122  1.0213  1.4248  0.4816
 2669SOL     OW19468   3.234   2.388  16.677 -0.4899  0.0652 -0.2021
 2669SOL    HW119469   3.261   2.299  16.696 -0.8370 -0.1636 -0.7763
 2669SOL    HW219470   3.320   2.429  16.680 -0.8334  0.7572  0.1957
 2670SOL     OW19471   3.673   1.633   0.343 -0.1840  0.2038 -0.6670
 2670SOL    HW119472   3.685   1.727   0.353 -0.3968  0.1134  0.4236
 2670SOL    HW219473   3.754   1.607   0.386 -0.9452  0.0527  0.6951
 2671SOL     OW19474   0.617   4.658  13.773 -0.0821  0.2477 -0.4614
 2671SOL    HW119475   0.544   4.679  13.715  0.9254 -0.1273 -1.8914
 2671SOL    HW219476   0.649   4.578  13.731  0.0619 -0.0123  0.1415
 2672SOL     OW19477   0.771   0.130   5.533 -0.5066 -0.1110  0.0094
 2672SOL    HW119478   0.677   0.147   5.528 -0.5949 -0.3285  0.8997
 2672SOL    HW219479   0.798   0.222   5.531 -0.7635 -0.0236  0.5105
 2673SOL     OW19480   2.420   1.199  10.161  0.1365 -0.0576 -0.0209
 2673SOL    HW119481   2.438   1.141  10.235 -0.1539  1.7055  1.4429
 2673SOL    HW219482   2.347   1.247  10.201 -0.8566 -1.7982  0.2563
 2674SOL     OW19483   3.731   0.132   1.412  0.3833  0.1004 -0.1120
 2674SOL    HW119484   3.673   0.059   1.435 -0.5003  0.2391 -1.8928
 2674SOL    HW219485   3.740   0.131   1.316 -0.4784 -1.7617 -0.1760
 2675SOL     OW19486   1.536   4.388   3.944  0.1116 -0.0137  0.0155
 2675SOL    HW119487   1.549   4.369   4.037 -0.3252 -0.8832 -0.0952
 2675SOL    HW219488   1.623   4.409   3.911  1.5870 -1.8121  2.7368
 2676SOL     OW19489   0.128   4.239   1.153  0.0452 -0.2001 -0.3560
 2676SOL    HW119490   0.086   4.162   1.114  1.8572  0.1572 -2.9869
 2676SOL    HW219491   0.124   4.214   1.246 -1.0607 -1.8387 -0.8503
 2677SOL     OW19492   3.473   4.429   9.082 -0.2603  0.4615 -0.3710
 2677SOL    HW119493   3.448   4.430   9.174  0.9971  1.3973 -0.0454
 2677SOL    HW219494   3.424   4.351   9.056  2.9682 -2.2821  1.7112
 2678SOL     OW19495   2.509   0.469   3.266  0.0777 -0.2504  0.4201
 2678SOL    HW119496   2.415   0.477   3.279  0.1274 -0.2794  0.7922
 2678SOL    HW219497   2.545   0.500   3.349 -0.4063  4.0886 -1.0009
 2679SOL     OW19498   3.155   0.267  16.698  0.2956 -0.0205  0.1698
 2679SOL    HW119499   3.181   0.287  16.787 -1.6993 -3.1511  1.4795
 2679SOL    HW219500   3.070   0.311  16.687  0.6679  0.1699 -2.0628
 2680SOL     OW19501   3.128   2.869   3.899  0.6268  0.0694  0.5580
 2680SOL    HW119502   3.094   2.929   3.833 -0.6862 -0.6392  0.6004
 2680SOL    HW219503   3.158   2.927   3.969  0.6826  1.1982 -0.3953
 2681SOL     OW19504   3.843   1.221   7.955 -0.4041 -0.1342  0.3107
 2681SOL    HW119505   3.796   1.145   7.989  0.4923 -0.7427  0.1814
 2681SOL    HW219506   3.834   1.209   7.861 -0.4430  1.7565  0.0778
 2682SOL     OW19507   4.626   3.088   8.757 -0.6804  0.0128 -0.0826
 2682SOL    HW119508   4.661   3.030   8.825  1.5681  2.3035  0.6978
 2682SOL    HW219509   4.675   3.057   8.681 -1.6386 -1.1406 -0.2386
 2683SOL     OW19510   4.072   2.783  14.125 -0.0205  0.0608 -0.1682
 2683SOL    HW119511   4.125   2.713  14.164 -2.9508 -0.8156  2.2265
 2683SOL    HW219512   4.005   2.730  14.081 -0.8817  0.7210  0.3448
 2684SOL     OW19513   2.032   3.270  12.168 -0.0186  0.3934  0.1855
 2684SOL    HW119514   2.127   3.276  12.171 -0.1922  3.3343 -0.0803
 2684SOL    HW219515   2.013   3.310  12.083 -4.3663  0.2016  1.0812
 2685SOL     OW19516   1.071   4.283   7.732 -0.6674  0.4683 -0.1119
 2685SOL    HW119517   1.126   4.235   7.670  2.1031  0.9753  1.9419
 2685SOL    HW219518   0.980   4.262   7.711 -0.4470  1.1188 -1.7154
 2686SOL     OW19519   4.605   2.009   2.226  0.0184 -0.7811  0.1600
 2686SOL    HW119520   4.520   2.054   2.229  0.1963 -0.3211 -1.7740
 2686SOL    HW219521   4.584   1.933   2.172  1.4748 -2.0539  1.3582
 2687SOL     OW19522   1.341   0.645   2.153  0.1184  0.1977  0.2506
 2687SOL    HW119523   1.389   0.567   2.127 -0.4153 -1.2712  3.6767
 2687SOL    HW219524   1.406   0.710   2.125  1.1498 -1.5464 -1.3673
 2688SOL     OW19525   0.371   1.291   4.498  0.1647 -0.5351 -0.1850
 2688SOL    HW119526   0.276   1.282   4.486 -0.0505 -0.8378  1.7189
 2688SOL    HW219527   0.407   1.260   4.415 -2.7700 -0.1356 -1.5941
 2689SOL     OW19528   4.486   4.500   2.427 -0.0284 -0.1664 -0.7091
 2689SOL    HW119529   4.518   4.422   2.383 -0.5344 -1.6895  1.6338
 2689SOL    HW219530   4.568   4.542   2.453 -1.9771  1.4061  2.9985
 2690SOL     OW19531   3.212   2.621   2.976 -0.1839 -0.4830 -0.3081
 2690SOL    HW119532   3.173   2.654   3.057  0.2763 -0.0317 -0.2681
 2690SOL    HW219533   3.241   2.705   2.941 -1.4439  0.2352  0.3720
 2691SOL     OW19534   1.125   4.620  11.940  0.0964 -0.3620 -0.4502
 2691SOL    HW119535   1.134   4.629  12.035 -1.3897  1.7262 -0.4988
 2691SOL    HW219536   1.199   4.676  11.917 -0.5625 -0.2196 -2.2384
 2692SOL     OW19537   2.348   2.611   7.526 -0.2640  0.7077  0.7317
 2692SOL    HW119538   2.294   2.630   7.603 -1.4407 -0.4295  0.1667
 2692SOL    HW219539   2.421   2.673   7.532  0.1442  0.4056 -1.1134
 2693SOL     OW19540   0.528   3.807   2.874 -1.0418 -0.0662 -0.2807
 2693SOL    HW119541   0.456   3.835   2.930  0.1673 -3.2528  2.8302
 2693SOL    HW219542   0.494   3.811   2.785  0.9516 -1.1874 -1.1107
 2694SOL     OW19543   3.091   1.793   8.101  0.5821  0.0365  0.7073
 2694SOL    HW119544   3.039   1.852   8.156 -0.3298  0.2331 -0.3732
 2694SOL    HW219545   3.169   1.841   8.073  1.1418 -1.6943 -0.6959
 2695SOL     OW19546   2.359   2.109   6.029  0.2293 -0.1079 -0.5789
 2695SOL    HW119547   2.349   2.202   6.010  1.1417  0.2426  0.7019
 2695SOL    HW219548   2.450   2.086   6.008  0.4523 -1.2162  1.6327
 2696SOL     OW19549   3.254   1.981   2.170 -0.0682  0.4653  0.2090
 2696SOL    HW119550   3.312   1.917   2.129 -1.3812 -2.0230  2.1938
 2696SOL    HW219551   3.207   2.030   2.102  2.5894  1.0236 -1.2358
 2697SOL     OW19552   3.286   1.479   2.918 -0.3975  0.3279 -0.0778
 2697SOL    HW119553   3.213   1.445   2.970 -0.0222 -0.5249 -0.0986
 2697SOL    HW219554   3.346   1.491   2.992  0.9188 -1.7958 -0.8091
 2698SOL     OW19555   4.627   2.473   2.510  0.3246  0.1619 -0.4311
 2698SOL    HW119556   4.584   2.441   2.589 -2.1038  1.7934 -1.1091
 2698SOL    HW219557   4.604   2.398   2.454  1.5569  0.0662 -0.8105
 2699SOL     OW19558   1.154   2.942  10.772 -0.4634  0.1076 -0.3366
 2699SOL    HW119559   1.108   2.996  10.708  0.1431 -1.1898 -1.8583
 2699SOL    HW219560   1.228   2.914  10.718 -1.4169 -0.2668 -1.4537
 2700SOL     OW19561   2.070   2.900  16.751  0.2997  0.0775 -0.4382
 2700SOL    HW119562   2.013   2.858  16.816  0.8772  0.1302  0.0928
 2700SOL    HW219563   2.000   2.941  16.699  2.4571  2.3518 -1.5501
 2701SOL     OW19564   1.315   2.618  10.878  0.8318 -0.1163 -0.1183
 2701SOL    HW119565   1.273   2.666  10.949  2.8702  0.4000  0.7581
 2701SOL    HW219566   1.361   2.684  10.826 -1.8886  2.0377  0.2204
 2702SOL     OW19567   0.989   2.499   5.969 -0.0089  0.4462  0.4005
 2702SOL    HW119568   0.986   2.591   5.997  0.8565  0.1702  1.4294
 2702SOL    HW219569   1.059   2.499   5.904  0.2233  0.5361  0.6492
 2703SOL     OW19570   4.130   3.227   1.091  0.0047  0.2092 -0.0575
 2703SOL    HW119571   4.099   3.300   1.144 -1.6634 -0.4871 -0.0943
 2703SOL    HW219572   4.186   3.272   1.027  0.9610  0.4057  0.9159
 2704SOL     OW19573   1.684   2.498   9.083 -0.3200 -0.7362 -0.1388
 2704SOL    HW119574   1.607   2.444   9.064 -0.7078 -0.8629  1.7399
 2704SOL    HW219575   1.727   2.472   9.002  2.5641  3.1012  0.1940
 2705SOL     OW19576   3.693   2.582  14.298 -0.1330  0.2059  0.5658
 2705SOL    HW119577   3.738   2.610  14.377  0.3645 -0.1398  0.4020
 2705SOL    HW219578   3.681   2.487  14.307 -0.1880  0.2671  1.1231
 2706SOL     OW19579   4.567   0.399  11.733  0.0139  0.0068  0.2594
 2706SOL    HW119580   4.615   0.479  11.712 -0.1290 -0.9471 -3.6246
 2706SOL    HW219581   4.485   0.442  11.708 -0.1826 -1.0176 -0.8242
 2707SOL     OW19582   2.545   2.371  12.522  0.0895  0.1285 -0.6004
 2707SOL    HW119583   2.517   2.285  12.491  1.4599 -0.5676  0.1082
 2707SOL    HW219584   2.465   2.399  12.567  0.6024 -2.1237  1.6614
 2708SOL     OW19585   4.127   2.156   1.832  0.4014 -0.7326 -0.2405
 2708SOL    HW119586   4.110   2.247   1.809 -0.0385 -0.4685  1.1083
 2708SOL    HW219587   4.190   2.168   1.903  1.1131 -1.1508 -0.8010
 2709SOL     OW19588   2.823   2.392  13.226 -0.0938 -0.2071  0.4434
 2709SOL    HW119589   2.821   2.321  13.290 -2.5734 -0.5113  0.0358
 2709SOL    HW219590   2.873   2.350  13.157 -0.6344  1.8152 -1.1910
 2710SOL     OW19591   3.284   4.575   9.385  0.3914  0.5278  0.3778
 2710SOL    HW119592   3.317   4.642   9.445  1.1969  0.4999 -0.0276
 2710SOL    HW219593   3.227   4.624   9.325  1.5109  0.2427 -0.9203
 2711SOL     OW19594   4.656   3.641   8.741  0.0709 -0.1323  0.0883
 2711SOL    HW119595   4.624   3.705   8.804  0.0790 -0.4679  0.4313
 2711SOL    HW219596   4.603   3.563   8.757  0.3773 -0.4582 -0.4539
 2712SOL     OW19597   4.319   1.018   0.773 -0.1554 -0.6622 -0.7562
 2712SOL    HW119598   4.243   0.965   0.750 -0.5677 -0.8380  0.9918
 2712SOL    HW219599   4.294   1.089   0.714  0.8420 -0.0171 -0.4028
 2713SOL     OW19600   1.732   4.185   7.457  0.1134  0.0422 -0.7987
 2713SOL    HW119601   1.811   4.238   7.470 -1.4163  2.6364 -2.1627
 2713SOL    HW219602   1.693   4.195   7.544 -0.3928 -0.0571 -1.0110
 2714SOL     OW19603   1.735   1.713   2.538  0.7903  0.5321 -0.4050
 2714SOL    HW119604   1.652   1.695   2.493  0.7338 -2.5672  0.9276
 2714SOL    HW219605   1.725   1.798   2.581  0.1588  0.9577 -1.4034
 2715SOL     OW19606   3.891   1.282   9.929  0.0549 -0.7516 -0.0985
 2715SOL    HW119607   3.943   1.213   9.888 -0.5799 -0.3302 -1.5899
 2715SOL    HW219608   3.852   1.225   9.995 -0.3999 -0.2391  0.0711
 2716SOL     OW19609   1.202   2.449  17.690 -0.1181 -0.3131  0.0448
 2716SOL    HW119610   1.183   2.510   0.052  1.4600 -0.3906  0.5228
 2716SOL    HW219611   1.173   2.503  17.616  0.9913  1.0831  0.6424
 2717SOL     OW19612   3.220   0.259   1.908  0.2086  0.2717  0.0390
 2717SOL    HW119613   3.211   0.315   1.831  0.9759  2.4693  1.5539
 2717SOL    HW219614   3.225   0.318   1.983 -0.4064 -0.4173  0.6332
 2718SOL     OW19615   1.818   1.479   1.917  0.1460  0.2771 -0.3298
 2718SOL    HW119616   1.742   1.506   1.969 -0.1011  3.9770 -2.6205
 2718SOL    HW219617   1.789   1.485   1.826 -1.2390 -0.6118  0.0504
 2719SOL     OW19618   3.930   1.520   7.240  0.0788  0.1219  0.5102
 2719SOL    HW119619   3.981   1.601   7.231  0.7778 -0.5143 -1.2739
 2719SOL    HW219620   3.855   1.536   7.183  2.3554 -0.3941 -2.6419
 2720SOL     OW19621   4.597   1.376   4.308  0.3535  0.1892  0.3064
 2720SOL    HW119622   4.632   1.464   4.293 -0.9013  0.8145  1.1119
 2720SOL    HW219623   4.507   1.387   4.279 -0.2519 -0.7781  1.8743
 2721SOL     OW19624   3.281   4.338   8.172 -0.3630  0.0051 -0.2293
 2721SOL    HW119625   3.357   4.358   8.227 -1.2354  1.6019  0.3756
 2721SOL    HW219626   3.331   4.330   8.090  0.2827 -1.5261  0.3005
 2722SOL     OW19627   0.711   0.431   7.872  0.3944  0.5233  0.1476
 2722SOL    HW119628   0.687   0.373   7.944  1.4549  1.4818  1.2580
 2722SOL    HW219629   0.633   0.486   7.876 -0.9328 -1.5133  2.2733
 2723SOL     OW19630   2.139   4.612   0.041  0.0197  0.2480  0.0632
 2723SOL    HW119631   2.061   4.557   0.039 -0.3338  0.8040 -1.4567
 2723SOL    HW219632   2.104   4.687   0.089  0.3486 -0.5583  1.5497
 2724SOL     OW19633   3.079   1.120   0.671  0.0601  0.0657 -0.8822
 2724SOL    HW119634   3.081   1.039   0.621 -1.5245 -0.6483  0.2488
 2724SOL    HW219635   3.154   1.167   0.633  0.8688 -0.8820 -0.4659
 2725SOL     OW19636   2.611   1.325   6.137 -0.0174  0.0668 -0.0069
 2725SOL    HW119637   2.544   1.373   6.186 -0.9688 -1.9337  0.6384
 2725SOL    HW219638   2.561   1.245   6.121 -0.1151  0.3147 -0.9055
 2726SOL     OW19639   1.831   0.135   8.949 -0.7146 -0.6862 -0.4348
 2726SOL    HW119640   1.784   0.106   8.871  0.3302  0.8534 -1.6409
 2726SOL    HW219641   1.899   0.195   8.918 -1.8504  1.5223  1.3647
 2727SOL     OW19642   0.000   0.613   3.745  0.1366  0.1971 -0.4598
 2727SOL    HW119643   4.720   0.626   3.839  0.8059  2.5092 -0.7218
 2727SOL    HW219644   4.661   0.546   3.726  0.4657 -0.1917 -0.2244
 2728SOL     OW19645   1.724   0.140   3.078  0.6627  0.0645 -0.0273
 2728SOL    HW119646   1.736   0.131   2.983  1.4527  0.7952  0.0050
 2728SOL    HW219647   1.777   0.065   3.104  0.6236 -0.0436 -0.2588
 2729SOL     OW19648   3.125   0.013   8.850 -0.3207  0.1893  0.9768
 2729SOL    HW119649   3.099   0.105   8.847  1.9639  0.8489  1.6285
 2729SOL    HW219650   3.069   4.717   8.776 -0.1448  1.8301  0.3334
 2730SOL     OW19651   2.496   0.542  13.044 -0.1311  0.1445  0.2540
 2730SOL    HW119652   2.424   0.560  12.982  0.0917 -0.2264 -0.1133
 2730SOL    HW219653   2.441   0.548  13.122  0.4362 -0.5220  0.6958
 2731SOL     OW19654   1.443   3.751   7.853 -0.8598  0.3162 -0.5570
 2731SOL    HW119655   1.355   3.715   7.865  0.0955 -3.2615 -4.0435
 2731SOL    HW219656   1.472   3.685   7.788 -1.8702 -0.6205 -0.0543
 2732SOL     OW19657   2.910   4.164   9.183 -0.0831 -0.3562  0.0026
 2732SOL    HW119658   2.876   4.144   9.270 -0.7373 -1.2196 -0.4553
 2732SOL    HW219659   2.842   4.228   9.161 -0.9006 -1.2199  0.0244
 2733SOL     OW19660   3.847   4.651  12.504 -0.3061  0.0059  0.3635
 2733SOL    HW119661   3.929   4.673  12.548  0.4397  1.1458 -1.5855
 2733SOL    HW219662   3.830   4.584  12.571  0.5781  0.7673  1.3549
 2734SOL     OW19663   0.939   1.582   3.410 -0.0600  0.0091 -0.5561
 2734SOL    HW119664   0.969   1.673   3.413 -2.1013  0.6209  1.1491
 2734SOL    HW219665   0.866   1.583   3.349 -0.0416 -1.1957 -0.6113
 2735SOL     OW19666   1.656   4.463   5.825  0.5719  0.1029  0.5497
 2735SOL    HW119667   1.639   4.492   5.915 -0.8610 -2.3355  1.0791
 2735SOL    HW219668   1.705   4.382   5.841 -0.8656 -0.6618  1.1354
 2736SOL     OW19669   1.204   2.656   3.952 -0.3866 -1.1055 -0.2222
 2736SOL    HW119670   1.207   2.720   3.880  0.6359 -0.6099  0.2488
 2736SOL    HW219671   1.116   2.674   3.984  0.2518 -1.1464  1.5602
 2737SOL     OW19672   1.643   2.013   4.432 -0.1515 -0.2234 -0.0410
 2737SOL    HW119673   1.586   2.006   4.355  0.1235 -2.5125 -0.0208
 2737SOL    HW219674   1.726   2.039   4.392  2.0492 -2.1594  3.3041
 2738SOL     OW19675   2.924   2.373  17.186  0.4361  0.1447 -0.3392
 2738SOL    HW119676   2.876   2.360  17.267  2.1676 -0.9226  0.5167
 2738SOL    HW219677   3.006   2.340  17.223  1.3090  1.3238 -1.2290
 2739SOL     OW19678   3.615   0.646   1.789 -0.1751 -0.6972  0.3598
 2739SOL    HW119679   3.568   0.598   1.857 -0.7323  1.6308  1.6139
 2739SOL    HW219680   3.674   0.705   1.835 -0.8768 -0.8198  1.4335
 2740SOL     OW19681   1.233   1.378  12.260  0.3791  0.5079  0.1412
 2740SOL    HW119682   1.312   1.371  12.205  0.5408  0.0288  0.4297
 2740SOL    HW219683   1.192   1.450  12.212  0.5913  0.4830 -0.0803
 2741SOL     OW19684   0.677   2.576  10.686  0.0430 -0.0948 -0.0503
 2741SOL    HW119685   0.683   2.516  10.760 -1.1122  1.6578  1.4920
 2741SOL    HW219686   0.686   2.516  10.613  2.0874  0.2791 -0.0910
 2742SOL     OW19687   3.147   4.108   7.295 -0.0071  0.5537  0.3405
 2742SOL    HW119688   3.225   4.155   7.322  2.5432 -1.7022 -3.0831
 2742SOL    HW219689   3.186   4.048   7.232 -1.1880 -1.4831  1.5288
 2743SOL     OW19690   4.129   2.352  14.710 -0.2586 -0.1709  0.2094
 2743SOL    HW119691   4.160   2.427  14.658  0.5406  0.2296  1.2689
 2743SOL    HW219692   4.194   2.285  14.691 -0.6228 -0.4779  0.0509
 2744SOL     OW19693   2.976   3.712   8.810  0.2811  0.1980  0.4198
 2744SOL    HW119694   3.021   3.793   8.789  0.2429  0.2351  0.4790
 2744SOL    HW219695   2.888   3.744   8.831  0.1281 -0.6128  1.0283
 2745SOL     OW19696   4.081   1.630  14.665 -0.5224  0.0011  0.3924
 2745SOL    HW119697   3.999   1.581  14.657 -1.6289  1.9716 -0.2555
 2745SOL    HW219698   4.104   1.615  14.757 -1.5757 -0.1550  0.6352
 2746SOL     OW19699   4.671   0.998   2.426  0.4015  0.7262 -0.8993
 2746SOL    HW119700   4.618   1.018   2.348  0.4040 -0.1702 -1.1331
 2746SOL    HW219701   0.009   0.933   2.397  2.4148  2.6376 -0.6489
 2747SOL     OW19702   0.342   4.470   4.981  0.4852 -0.0798 -0.1409
 2747SOL    HW119703   0.268   4.463   4.920 -1.2949 -2.0735  2.2288
 2747SOL    HW219704   0.400   4.419   4.925  1.4561  1.6092 -0.6452
 2748SOL     OW19705   2.036   1.640  10.335  0.1538 -0.2185  0.0180
 2748SOL    HW119706   1.973   1.570  10.319 -0.8756  0.1084  2.6295
 2748SOL    HW219707   2.059   1.655  10.243 -0.3607 -1.9420 -0.4023
 2749SOL     OW19708   3.948   2.015   7.651  0.2729 -0.0496 -0.2827
 2749SOL    HW119709   4.037   2.001   7.684  0.5520  4.2902  0.8303
 2749SOL    HW219710   3.894   2.035   7.727  0.3603 -0.9433  0.0111
 2750SOL     OW19711   1.033   1.147   7.232 -0.0943 -0.4185  0.0195
 2750SOL    HW119712   0.982   1.170   7.155 -0.8662  0.4639  0.7797
 2750SOL    HW219713   1.096   1.083   7.200  0.8779  0.2402  0.5613
 2751SOL     OW19714   3.190   1.584   2.324  0.0721 -0.0776 -0.1369
 2751SOL    HW119715   3.133   1.579   2.401 -0.0506  0.7797 -0.1717
 2751SOL    HW219716   3.275   1.551   2.352 -1.1509 -3.4236 -0.3120
 2752SOL     OW19717   0.290   3.599  10.118  0.7443 -0.0748  0.9792
 2752SOL    HW119718   0.367   3.544  10.115  1.8241  1.4749  0.1511
 2752SOL    HW219719   0.320   3.679  10.161  0.2675  1.8546 -2.3106
 2753SOL     OW19720   1.323   1.736   5.004 -0.1262 -0.1792  0.3147
 2753SOL    HW119721   1.323   1.829   5.025  1.2552  0.4133 -2.3761
 2753SOL    HW219722   1.235   1.727   4.969 -0.2847  1.1666  0.3715
 2754SOL     OW19723   2.542   1.470  16.870  0.6897 -0.2706  0.5658
 2754SOL    HW119724   2.533   1.434  16.958 -0.7079 -0.1806  0.4520
 2754SOL    HW219725   2.517   1.559  16.897  1.9137  0.2104  0.0946
 2755SOL     OW19726   4.008   3.088   6.511 -0.3972 -0.1980  0.3271
 2755SOL    HW119727   3.921   3.130   6.508 -0.2266 -0.1537 -3.9193
 2755SOL    HW219728   4.049   3.151   6.570 -1.3707 -0.3884  1.2054
 2756SOL     OW19729   2.204   4.331   6.523 -0.2764 -0.0942  1.0046
 2756SOL    HW119730   2.211   4.371   6.610 -1.2200  2.5801 -0.1577
 2756SOL    HW219731   2.126   4.275   6.524  0.0897 -0.5885  1.9427
 2757SOL     OW19732   1.274   3.281  13.501 -0.2846  0.0887  0.1055
 2757SOL    HW119733   1.299   3.199  13.545 -2.7453 -1.0598 -0.6426
 2757SOL    HW219734   1.180   3.269  13.493  0.0599 -1.7836 -1.2107
 2758SOL     OW19735   1.144   1.012  13.774 -0.2722  0.3105 -0.4787
 2758SOL    HW119736   1.184   1.022  13.860  1.9028 -0.6659 -1.3775
 2758SOL    HW219737   1.196   1.078  13.728  1.8704 -0.7764  0.4164
 2759SOL     OW19738   3.923   0.064   7.393  0.4350  0.3226 -0.3525
 2759SOL    HW119739   3.896   0.016   7.315 -2.2361  2.4737 -0.7822
 2759SOL    HW219740   4.011   0.083   7.361  0.4789  2.7949  1.2515
 2760SOL     OW19741   2.706   0.431   5.081  0.1054 -0.3362 -0.6817
 2760SOL    HW119742   2.613   0.451   5.096  1.1770  3.8713  0.4018
 2760SOL    HW219743   2.716   0.467   4.993 -2.1723  0.3358 -0.6736
 2761SOL     OW19744   4.178   3.947  13.964  0.0780  0.2620 -0.3642
 2761SOL    HW119745   4.222   3.998  13.895 -1.3381  0.9604 -0.7462
 2761SOL    HW219746   4.231   3.867  13.964  1.0445  0.9137  1.6092
 2762SOL     OW19747   2.412   4.316   8.335  0.3224  0.4263 -0.2205
 2762SOL    HW119748   2.383   4.229   8.309 -0.5153  0.9320 -0.9584
 2762SOL    HW219749   2.419   4.314   8.431  0.2990  0.0822 -0.2256
 2763SOL     OW19750   4.608   3.510   9.321 -0.6963  0.3471 -0.3199
 2763SOL    HW119751   4.625   3.562   9.243 -1.9190 -0.1148 -0.8887
 2763SOL    HW219752   4.633   3.575   9.387 -1.3859 -1.9872  2.2788
 2764SOL     OW19753   0.992   2.223   4.182  0.6785  0.4234 -0.3822
 2764SOL    HW119754   0.925   2.182   4.236  0.3296 -1.1369 -1.9871
 2764SOL    HW219755   1.037   2.148   4.142  0.3115 -0.3441  0.6415
 2765SOL     OW19756   1.058   1.333   3.103  0.2289  0.2729 -0.2196
 2765SOL    HW119757   0.967   1.327   3.076  0.3090 -0.8144 -0.2541
 2765SOL    HW219758   1.039   1.364   3.192 -2.5276 -1.9914  0.0036
 2766SOL     OW19759   2.047   1.912   2.297  1.1657  0.6030 -0.2800
 2766SOL    HW119760   2.006   1.843   2.245 -0.8730  0.1428  1.9613
 2766SOL    HW219761   2.100   1.870   2.365 -1.2942 -2.5736 -0.3427
 2767SOL     OW19762   3.928   4.569   1.311 -0.4307 -0.1994  0.5746
 2767SOL    HW119763   3.849   4.549   1.261  1.1790  1.2790 -2.6326
 2767SOL    HW219764   3.992   4.508   1.274  0.6991  0.4320  1.4987
 2768SOL     OW19765   0.601   2.318   4.304 -0.1855  0.3970 -0.4926
 2768SOL    HW119766   0.645   2.299   4.387 -0.4598 -0.3510 -0.5201
 2768SOL    HW219767   0.538   2.246   4.303 -2.1528  2.1231 -0.8918
 2769SOL     OW19768   0.159   3.495   1.708  0.4613  0.5839 -0.2600
 2769SOL    HW119769   0.119   3.486   1.622  0.3166 -0.6283 -0.0703
 2769SOL    HW219770   0.197   3.408   1.721 -2.2096 -0.4540  0.6631
 2770SOL     OW19771   2.984   2.199   5.122  0.8619 -0.3246  0.0516
 2770SOL    HW119772   2.990   2.284   5.079 -0.0842 -0.7228 -0.8597
 2770SOL    HW219773   2.895   2.196   5.157  0.7447  0.2276 -0.2054
 2771SOL     OW19774   4.218   4.296   7.434  0.0979 -0.3467 -0.1925
 2771SOL    HW119775   4.150   4.284   7.368  0.2872  1.3182 -0.6898
 2771SOL    HW219776   4.168   4.306   7.515 -1.3454 -0.8761 -1.0326
 2772SOL     OW19777   1.593   4.537  13.906  0.6228 -0.4063 -0.2042
 2772SOL    HW119778   1.604   4.519  13.812 -1.4336 -1.8440 -0.1578
 2772SOL    HW219779   1.542   4.460  13.930  0.8352  0.2240  2.2652
 2773SOL     OW19780   3.495   1.995   7.681 -0.8803  0.2592 -0.7793
 2773SOL    HW119781   3.531   1.964   7.598  0.1479  0.7858 -0.5297
 2773SOL    HW219782   3.462   1.917   7.725  0.7158  0.4543  0.7830
 2774SOL     OW19783   1.223   3.498   1.801  0.6472  0.5311  0.9032
 2774SOL    HW119784   1.231   3.502   1.705 -2.0707  2.0060  0.7309
 2774SOL    HW219785   1.245   3.585   1.834 -1.4976  0.4755  2.4315
 2775SOL     OW19786   4.328   2.873   3.067 -0.4804  0.3621  0.0501
 2775SOL    HW119787   4.376   2.832   2.995 -1.3788  0.7444 -0.7628
 2775SOL    HW219788   4.314   2.807   3.134  1.7800  0.2180  0.3918
 2776SOL     OW19789   1.323   0.563   3.899 -0.4064  0.1510 -0.4979
 2776SOL    HW119790   1.249   0.581   3.841 -1.6887 -2.1966  0.3996
 2776SOL    HW219791   1.295   0.609   3.978  2.3961  1.7500 -0.4544
 2777SOL     OW19792   3.474   4.408   2.296 -0.1837  0.3165  0.1781
 2777SOL    HW119793   3.423   4.330   2.318 -0.3613  0.1093 -0.9651
 2777SOL    HW219794   3.429   4.442   2.219  0.7197  1.0962 -0.0092
 2778SOL     OW19795   1.871   1.908   6.539 -0.2284 -0.3369  0.2000
 2778SOL    HW119796   1.964   1.929   6.529 -0.6525  0.6770 -1.5026
 2778SOL    HW219797   1.877   1.819   6.506  0.6582 -1.1589  2.5333
 2779SOL     OW19798   2.262   0.762  15.144  0.5186 -0.7111  0.2464
 2779SOL    HW119799   2.288   0.826  15.078  0.3831  2.0443  2.8176
 2779SOL    HW219800   2.342   0.747  15.195  1.3687  3.0108  0.0659
 2780SOL     OW19801   0.509   1.489   4.260 -0.3881 -0.4674  0.4664
 2780SOL    HW119802   0.416   1.472   4.271 -0.2451 -1.0763  0.7734
 2780SOL    HW219803   0.522   1.461   4.169 -0.0476 -0.3740  0.4839
 2781SOL     OW19804   2.648   2.535   5.250  0.3776 -0.2269 -0.2597
 2781SOL    HW119805   2.690   2.541   5.164 -0.0844 -0.3029 -0.4910
 2781SOL    HW219806   2.707   2.593   5.299  1.8434 -1.7790 -0.1955
 2782SOL     OW19807   1.945   0.203   5.084  0.0988 -0.3181 -0.2692
 2782SOL    HW119808   2.032   0.231   5.114 -1.2215  0.2875  3.0019
 2782SOL    HW219809   1.895   0.253   5.149  1.0201 -0.9629  0.9416
 2783SOL     OW19810   0.136   0.723  12.707 -0.6032 -0.3706 -0.2675
 2783SOL    HW119811   0.136   0.730  12.802 -2.3259  1.3121 -0.4070
 2783SOL    HW219812   0.222   0.760  12.687 -1.7111  2.5758  0.4698
 2784SOL     OW19813   4.424   2.706   5.634  0.6477 -0.1082 -0.1231
 2784SOL    HW119814   4.377   2.790   5.631  1.1238  0.2513  2.4640
 2784SOL    HW219815   4.463   2.703   5.546  3.2387 -1.3645  1.0666
 2785SOL     OW19816   2.527   4.553   6.113  0.1665 -0.5515 -0.1410
 2785SOL    HW119817   2.489   4.609   6.181  1.0003  0.9811 -0.9468
 2785SOL    HW219818   2.455   4.565   6.051  0.5849 -0.4081 -0.6038
 2786SOL     OW19819   1.992   2.984  10.235 -0.1434 -0.2271  0.0338
 2786SOL    HW119820   1.900   2.961  10.244  0.4474 -2.3750  0.5299
 2786SOL    HW219821   1.986   3.026  10.149 -1.1541  0.9258  0.6683
 2787SOL     OW19822   0.145   2.300   3.911  0.3344 -0.3324 -0.0942
 2787SOL    HW119823   0.052   2.314   3.896  0.2091 -0.9621  0.1079
 2787SOL    HW219824   0.172   2.232   3.850 -0.1826 -1.0131  0.4512
 2788SOL     OW19825   3.411   3.940   6.316  0.5791 -0.6118  0.2576
 2788SOL    HW119826   3.436   3.881   6.386  0.0236  0.3580  1.2712
 2788SOL    HW219827   3.316   3.930   6.322  0.3718  1.1902  0.1232
 2789SOL     OW19828   2.553   4.446   6.684 -0.7512  0.0690  0.1081
 2789SOL    HW119829   2.545   4.352   6.700  2.6882 -0.2642 -0.0787
 2789SOL    HW219830   2.610   4.451   6.608  0.8244  0.3990  1.3060
 2790SOL     OW19831   0.995   2.998   4.799 -0.4606  0.0891 -0.0865
 2790SOL    HW119832   1.090   2.987   4.791 -0.5526 -0.4502 -0.4132
 2790SOL    HW219833   0.961   3.038   4.720 -3.1797 -0.8824  0.5964
 2791SOL     OW19834   2.433   2.826   7.988 -0.2569  0.2034  0.0638
 2791SOL    HW119835   2.518   2.801   7.952 -0.1405 -1.0006  1.2055
 2791SOL    HW219836   2.413   2.900   7.931 -0.4533  1.0864  1.2829
 2792SOL     OW19837   1.001   1.550   0.537  0.0973  0.1379 -0.2912
 2792SOL    HW119838   1.051   1.565   0.457  2.0238  0.0478  0.8811
 2792SOL    HW219839   0.974   1.459   0.524  3.1944 -1.0222  1.3441
 2793SOL     OW19840   4.679   3.726  10.315  0.2926  0.3056 -0.2650
 2793SOL    HW119841   4.724   3.646  10.341  3.3889  2.1961  0.1454
 2793SOL    HW219842   0.016   3.787  10.350 -1.0452  2.4823 -1.5470
 2794SOL     OW19843   1.156   4.431  13.060  0.1525  0.1864  0.0273
 2794SOL    HW119844   1.148   4.497  12.992  1.2123 -1.4675 -1.6999
 2794SOL    HW219845   1.070   4.390  13.055  0.2155  0.2545 -1.4294
 2795SOL     OW19846   1.068   0.405   8.590 -0.2151 -0.2382 -0.1033
 2795SOL    HW119847   1.121   0.338   8.547  0.1181 -0.7068  1.0418
 2795SOL    HW219848   1.134   0.469   8.615  0.8647 -2.2098  2.1116
 2796SOL     OW19849   2.936   0.722   7.500  0.0045  0.6729 -0.0922
 2796SOL    HW119850   2.944   0.746   7.593 -0.1108 -2.0336  0.6018
 2796SOL    HW219851   3.025   0.741   7.470 -0.2866  0.8490 -0.8449
 2797SOL     OW19852   4.187   1.225   8.877 -0.2662 -0.5380 -0.0514
 2797SOL    HW119853   4.108   1.278   8.872 -0.7258 -1.3681 -1.5120
 2797SOL    HW219854   4.179   1.175   8.959 -0.2276 -1.1668 -0.4310
 2798SOL     OW19855   3.964   0.667   7.266 -0.5723 -0.1324 -0.2272
 2798SOL    HW119856   3.968   0.681   7.172  1.9783  1.0269  0.0465
 2798SOL    HW219857   3.918   0.583   7.265  0.3866 -0.6358 -1.3640
 2799SOL     OW19858   1.010   2.178   7.338 -0.1335 -0.0254  0.0231
 2799SOL    HW119859   0.933   2.152   7.289 -0.2338 -1.4006  0.9002
 2799SOL    HW219860   1.054   2.093   7.334  0.6937  0.4118 -0.3921
 2800SOL     OW19861   2.239   0.705   0.134 -0.0908 -0.3904  0.2718
 2800SOL    HW119862   2.297   0.779   0.113  0.4699 -1.0162 -0.3678
 2800SOL    HW219863   2.258   0.710   0.228  1.7105 -1.0579 -0.0559
 2801SOL     OW19864   3.532   1.025   0.387  0.1263 -0.0593 -0.2099
 2801SOL    HW119865   3.601   0.966   0.419  0.5684  1.2531  1.2522
 2801SOL    HW219866   3.456   0.988   0.433  0.4397 -1.5956 -0.9296
 2802SOL     OW19867   1.377   2.276   6.382 -1.0570  0.1613  0.4835
 2802SOL    HW119868   1.332   2.361   6.392 -0.5672  0.2494  1.8859
 2802SOL    HW219869   1.398   2.276   6.288  1.1269  2.1601  0.9802
 2803SOL     OW19870   1.902   2.177   2.893  0.6604  0.5792  0.0937
 2803SOL    HW119871   1.898   2.214   2.805 -0.0779  1.0977  0.3555
 2803SOL    HW219872   1.989   2.136   2.886 -0.9024 -2.2680 -2.3382
 2804SOL     OW19873   3.456   1.294   8.462 -0.5472 -0.0845  1.2015
 2804SOL    HW119874   3.377   1.326   8.419 -0.4958 -0.9958  0.4375
 2804SOL    HW219875   3.466   1.347   8.541  0.9714 -0.6600  1.3922
 2805SOL     OW19876   4.114   2.018   4.017  0.2528  0.5541  0.0127
 2805SOL    HW119877   4.063   1.937   4.010  0.5055  0.3058  1.1375
 2805SOL    HW219878   4.195   2.000   3.970  0.4044  1.0084  0.1039
 2806SOL     OW19879   3.250   3.471   6.992 -0.3091  0.1784  0.2276
 2806SOL    HW119880   3.291   3.527   7.058 -2.5178  2.5620 -0.4327
 2806SOL    HW219881   3.169   3.446   7.036 -0.8404  3.4767  1.1205
 2807SOL     OW19882   3.684   3.698   3.199  0.7574  0.5995  0.0826
 2807SOL    HW119883   3.643   3.679   3.284  0.4398 -0.0310 -0.2156
 2807SOL    HW219884   3.638   3.770   3.154 -0.4740  0.2927  0.8417
 2808SOL     OW19885   4.014   0.315   6.827 -0.3623  0.1680 -0.0351
 2808SOL    HW119886   4.071   0.283   6.896 -0.5828 -0.4641 -0.1476
 2808SOL    HW219887   4.061   0.304   6.744 -1.5584 -2.1236 -0.3961
 2809SOL     OW19888   3.629   2.422   3.513 -0.4146  0.3595 -0.0852
 2809SOL    HW119889   3.538   2.393   3.519 -0.9846  1.9012 -1.1423
 2809SOL    HW219890   3.622   2.513   3.542 -1.6477  0.7994 -1.7579
 2810SOL     OW19891   0.518   4.587   8.386  0.1077  0.2523 -0.1826
 2810SOL    HW119892   0.586   4.522   8.401 -0.1289  0.4087  1.5648
 2810SOL    HW219893   0.457   4.574   8.459  1.4940  1.3036  1.1576
 2811SOL     OW19894   0.377   1.307   7.482 -0.2142 -0.3740 -0.5192
 2811SOL    HW119895   0.420   1.277   7.562 -1.3605 -0.4128  0.0754
 2811SOL    HW219896   0.284   1.320   7.498  0.4798  1.0874  2.3416
 2812SOL     OW19897   4.273   0.863  11.938 -0.0580 -0.1322 -0.7027
 2812SOL    HW119898   4.272   0.779  11.892 -4.4313 -0.3643 -0.1407
 2812SOL    HW219899   4.358   0.891  11.903  0.2385 -1.3540 -0.9798
 2813SOL     OW19900   4.209   4.351   8.026 -0.0195  0.4204 -0.1311
 2813SOL    HW119901   4.159   4.310   8.096  1.1896  1.3501  1.2546
 2813SOL    HW219902   4.253   4.279   7.981  0.1464 -0.9779  2.2689
 2814SOL     OW19903   3.191   0.493   4.602  0.0371 -0.2738 -0.2439
 2814SOL    HW119904   3.283   0.501   4.580  0.4865 -1.2944  1.3112
 2814SOL    HW219905   3.170   0.576   4.646 -2.7642 -0.9077 -0.3543
 2815SOL     OW19906   0.831   2.406   2.982  0.7320 -0.2066  1.0239
 2815SOL    HW119907   0.889   2.348   2.934 -1.1511 -1.7070  0.5569
 2815SOL    HW219908   0.883   2.486   2.988  0.8753 -0.1406 -1.2884
 2816SOL     OW19909   3.178   3.743   2.000  0.1028  0.7666 -0.0002
 2816SOL    HW119910   3.094   3.710   2.032 -0.1476  0.4000 -1.0290
 2816SOL    HW219911   3.240   3.720   2.069  0.6547  0.8345 -0.4695
 2817SOL     OW19912   2.936   1.062   9.321  0.8957  0.1664  0.0201
 2817SOL    HW119913   2.893   1.143   9.297  0.5824  0.0597  0.2194
 2817SOL    HW219914   2.907   1.056   9.412 -0.6603  1.3758 -0.4161
 2818SOL     OW19915   3.833   0.570   1.092  0.4543 -0.4089 -0.3496
 2818SOL    HW119916   3.778   0.491   1.097 -0.5719  0.2851 -0.5281
 2818SOL    HW219917   3.872   0.550   1.007  0.7195  2.9600 -0.9972
 2819SOL     OW19918   3.395   1.134   7.557  0.2212  0.3599 -0.5981
 2819SOL    HW119919   3.425   1.055   7.511  0.9581  0.3753 -0.1495
 2819SOL    HW219920   3.348   1.087   7.626 -1.5161 -0.2826 -2.2180
 2820SOL     OW19921   4.198   1.915   7.719  0.1166 -0.2328  0.5200
 2820SOL    HW119922   4.282   1.887   7.756  0.9635  1.9166  0.2657
 2820SOL    HW219923   4.188   1.851   7.649 -1.3479  0.0883  0.4374
 2821SOL     OW19924   3.848   1.326   5.965  0.0714  0.3565  0.1269
 2821SOL    HW119925   3.808   1.251   6.008 -0.9064  0.6499 -0.2664
 2821SOL    HW219926   3.836   1.286   5.879  0.8479  1.7262 -0.6269
 2822SOL     OW19927   0.511   3.126   7.878 -0.1536  0.3383 -0.1080
 2822SOL    HW119928   0.487   3.076   7.956  0.6525 -0.0767 -0.1227
 2822SOL    HW219929   0.486   3.215   7.903  1.4086  0.5204  0.7856
 2823SOL     OW19930   3.947   4.172   2.256  0.4488 -0.0441  0.4906
 2823SOL    HW119931   4.025   4.142   2.303  0.3776 -0.1482  0.5418
 2823SOL    HW219932   3.992   4.208   2.179 -0.3062  0.2569  0.1887
 2824SOL     OW19933   1.841   1.369  14.267 -0.4119  0.7122 -0.1696
 2824SOL    HW119934   1.807   1.380  14.178 -0.1419  0.4794 -0.3022
 2824SOL    HW219935   1.863   1.458  14.294  1.7887 -0.0823  0.5968
 2825SOL     OW19936   3.894   4.048   9.394  0.2181 -0.4030 -0.2904
 2825SOL    HW119937   3.905   4.054   9.489 -0.1325  1.7448 -0.3907
 2825SOL    HW219938   3.856   4.134   9.382  0.3054 -0.6787 -2.6036
 2826SOL     OW19939   2.664   0.171  17.077 -0.0395  0.8272 -0.3644
 2826SOL    HW119940   2.600   0.157  17.007  0.0007 -1.3913  0.0232
 2826SOL    HW219941   2.696   0.260  17.063 -0.1009  0.7453 -1.0093
 2827SOL     OW19942   0.140   3.873   9.658 -0.7461  0.2111 -0.8378
 2827SOL    HW119943   0.118   3.866   9.565 -2.5524  0.5919 -0.4219
 2827SOL    HW219944   0.160   3.965   9.647  3.4972 -0.6395 -0.2515
 2828SOL     OW19945   4.243   0.544  15.339  0.8717  0.0345 -0.2365
 2828SOL    HW119946   4.331   0.523  15.370  1.1566  0.1836 -0.9479
 2828SOL    HW219947   4.204   0.595  15.410 -0.4441 -1.0263 -0.1875
 2829SOL     OW19948   2.368   3.541   3.431  0.0337  0.7881 -0.3181
 2829SOL    HW119949   2.357   3.450   3.458  2.6134  0.1511 -1.4397
 2829SOL    HW219950   2.426   3.571   3.501 -3.2619  1.6381  2.0414
 2830SOL     OW19951   0.470   2.951   5.273  0.2282 -0.1230 -0.3049
 2830SOL    HW119952   0.489   3.044   5.286 -1.0242  0.0278  0.4516
 2830SOL    HW219953   0.416   2.942   5.194  0.4368  0.3654 -0.5038
 2831SOL     OW19954   1.415   1.935   6.887  0.3703  0.6072 -0.4165
 2831SOL    HW119955   1.360   1.922   6.964  0.6870  0.0499 -0.2859
 2831SOL    HW219956   1.459   2.014   6.920  0.4607  1.0685 -1.6303
 2832SOL     OW19957   0.965   0.775   2.209  0.3701 -0.3924 -0.4900
 2832SOL    HW119958   0.928   0.724   2.281 -3.3119  1.9671 -0.7145
 2832SOL    HW219959   1.002   0.851   2.254  0.1125 -0.7547  0.3326
 2833SOL     OW19960   4.006   4.274   5.126  0.5527 -0.2428  0.4670
 2833SOL    HW119961   4.098   4.250   5.129  0.8081  0.7202  0.2625
 2833SOL    HW219962   4.002   4.367   5.147 -2.7001 -0.6818  1.7410
 2834SOL     OW19963   1.486   1.995  12.717  0.3019 -0.6885 -0.1981
 2834SOL    HW119964   1.493   2.080  12.760 -2.3609  0.1430 -1.4299
 2834SOL    HW219965   1.577   1.969  12.701  0.1723  0.2154 -2.4256
 2835SOL     OW19966   3.085   1.402   4.154  0.4321 -0.3010 -0.1818
 2835SOL    HW119967   3.064   1.461   4.227  1.7470  1.9496 -1.6269
 2835SOL    HW219968   3.070   1.474   4.093 -0.9604  1.6331  2.4505
 2836SOL     OW19969   3.442   4.141   9.609  0.0738  0.0256 -0.3443
 2836SOL    HW119970   3.403   4.103   9.530 -2.1254 -1.0449  1.2636
 2836SOL    HW219971   3.371   4.200   9.634 -0.1243 -0.0600 -0.7022
 2837SOL     OW19972   4.572   4.459   9.687 -0.1035 -0.6107  0.0118
 2837SOL    HW119973   4.639   4.464   9.619 -0.4805 -1.2146 -0.4024
 2837SOL    HW219974   4.515   4.531   9.661 -0.4900 -1.7710 -2.4218
 2838SOL     OW19975   3.968   4.230   5.974 -0.8091  0.0161  0.2135
 2838SOL    HW119976   4.005   4.270   6.053 -1.5135  0.0087  0.5484
 2838SOL    HW219977   4.026   4.258   5.903 -1.7338  0.7969 -0.2267
 2839SOL     OW19978   2.858   1.748  17.297  0.3008 -0.1925  0.4845
 2839SOL    HW119979   2.834   1.832  17.337 -0.8896 -0.3460  0.0876
 2839SOL    HW219980   2.848   1.773  17.205 -2.5932 -1.7383  0.3816
 2840SOL     OW19981   3.985   4.191   9.145 -0.1370  0.5346 -0.0359
 2840SOL    HW119982   3.914   4.137   9.180 -1.5406  1.7347 -1.0287
 2840SOL    HW219983   4.063   4.147   9.180  0.3764  0.5520 -1.1730
 2841SOL     OW19984   1.754   0.766   8.493  0.3263 -0.4975 -0.1328
 2841SOL    HW119985   1.751   0.720   8.577 -1.7885  0.6701  0.4259
 2841SOL    HW219986   1.670   0.810   8.491  0.3561 -0.3649  1.1045
 2842SOL     OW19987   4.522   3.806   8.195 -0.5903  0.1261  0.4669
 2842SOL    HW119988   4.604   3.764   8.171  0.4840  0.4863  3.4135
 2842SOL    HW219989   4.556   3.873   8.255 -2.2299  0.7084  0.7564
 2843SOL     OW19990   4.256   1.464  16.926  0.3895 -0.0910 -0.3649
 2843SOL    HW119991   4.197   1.428  16.993  3.6978  1.4114  3.4155
 2843SOL    HW219992   4.206   1.493  16.850 -2.2978  1.1557  1.8511
 2844SOL     OW19993   0.594   1.786  10.880  0.0338  0.6712 -0.0072
 2844SOL    HW119994   0.620   1.878  10.891  2.9632 -0.3224  1.1910
 2844SOL    HW219995   0.682   1.751  10.868 -1.1461 -2.4122  0.2978
 2845SOL     OW19996   1.997   3.083  17.128  0.0482  0.1094 -0.4122
 2845SOL    HW119997   2.046   3.009  17.163  1.2991  0.1779 -1.9974
 2845SOL    HW219998   2.003   3.136  17.207 -0.1721 -1.7465  0.8358
 2846SOL     OW19999   1.498   0.742   3.526  0.0211  0.1008 -0.6655
 2846SOL    HW120000   1.565   0.678   3.503 -0.9190 -1.0563 -0.1476
 2846SOL    HW220001   1.548   0.823   3.539  0.5146 -0.6784  2.2463
 2847SOL     OW20002   2.320   1.849   5.065  0.3444 -0.0453 -1.2499
 2847SOL    HW120003   2.392   1.911   5.076  0.8820 -0.3864 -2.8000
 2847SOL    HW220004   2.253   1.883   5.124  1.9135  2.0661 -0.6989
 2848SOL     OW20005   4.549   3.578   1.395  0.1314 -0.2978 -0.1864
 2848SOL    HW120006   4.528   3.671   1.403 -0.0866 -0.2226 -1.7400
 2848SOL    HW220007   4.644   3.573   1.389  0.1375 -2.1785  1.3996
 2849SOL     OW20008   1.296   0.339  12.820  0.0990 -0.1947  0.1344
 2849SOL    HW120009   1.222   0.392  12.849 -0.2115 -1.1139  1.0104
 2849SOL    HW220010   1.268   0.265  12.766  0.6835  1.5261 -2.5239
 2850SOL     OW20011   2.169   1.753  12.168  0.0571 -0.9399 -0.0491
 2850SOL    HW120012   2.141   1.837  12.132 -1.1153 -0.9336  0.9091
 2850SOL    HW220013   2.233   1.791  12.229 -0.7328 -1.9965  1.4336
 2851SOL     OW20014   4.504   3.280   9.391  0.4082 -0.2808 -0.5035
 2851SOL    HW120015   4.567   3.251   9.457 -1.8954 -1.5284  1.1633
 2851SOL    HW220016   4.538   3.366   9.369 -0.1108 -0.4170 -1.8087
 2852SOL     OW20017   4.426   2.579   6.561 -0.3058 -0.5156 -0.0906
 2852SOL    HW120018   4.415   2.493   6.520  0.9026 -3.1973  5.2526
 2852SOL    HW220019   4.514   2.596   6.529 -1.1504  0.3596 -1.9753
 2853SOL     OW20020   3.039   1.727   7.789  0.1957 -0.1270  0.0138
 2853SOL    HW120021   3.074   1.816   7.795 -0.9715  0.2296  1.3016
 2853SOL    HW220022   2.980   1.723   7.863  1.5257 -1.0791  1.0217
 2854SOL     OW20023   2.156   1.080  11.382 -0.0216  0.4889  0.0405
 2854SOL    HW120024   2.203   1.004  11.416  0.3909  0.0629 -1.4503
 2854SOL    HW220025   2.201   1.151  11.427 -0.5908  0.5385  0.5231
 2855SOL     OW20026   1.317   2.074   5.315 -0.3489 -0.3068  0.4654
 2855SOL    HW120027   1.324   1.992   5.364  2.0275  0.0276  0.6506
 2855SOL    HW220028   1.222   2.080   5.326  0.0889  3.2013  2.1746
 2856SOL     OW20029   4.572   0.594   3.179 -0.1670 -0.4758 -0.0266
 2856SOL    HW120030   4.634   0.537   3.134  0.6259 -0.6831  1.3189
 2856SOL    HW220031   4.529   0.533   3.240 -0.8769  1.2351  1.1947
 2857SOL     OW20032   1.031   1.267   1.584 -0.1729 -0.0191 -0.3271
 2857SOL    HW120033   0.945   1.282   1.624 -0.1755 -2.2133  0.4771
 2857SOL    HW220034   1.027   1.174   1.604 -2.9946  0.6196  2.1495
 2858SOL     OW20035   2.941   3.518  14.195  0.1189  0.2496 -0.1378
 2858SOL    HW120036   2.944   3.466  14.275 -1.4016 -0.8963 -0.8038
 2858SOL    HW220037   3.032   3.513  14.167  0.1504  0.5809 -0.0993
 2859SOL     OW20038   1.629   3.958   4.324  0.1453 -0.0024 -0.8601
 2859SOL    HW120039   1.637   3.945   4.419  1.1456 -1.5461 -1.1460
 2859SOL    HW220040   1.721   3.952   4.296  0.4477 -1.5416  0.4261
 2860SOL     OW20041   0.895   3.140   7.524  0.1676  0.3213  0.3917
 2860SOL    HW120042   0.834   3.148   7.598 -0.6159  0.6804 -0.2932
 2860SOL    HW220043   0.840   3.074   7.481 -0.0869  2.1469 -2.0502
 2861SOL     OW20044   4.617   3.007   0.361 -0.0951  0.4301  0.0069
 2861SOL    HW120045   4.559   3.083   0.352  0.5551  1.0227  0.8243
 2861SOL    HW220046   4.605   2.990   0.454  0.3607  0.2651  0.0344
 2862SOL     OW20047   1.830   2.568   1.459  0.2354  0.1607 -0.3859
 2862SOL    HW120048   1.884   2.490   1.465 -0.2163 -0.1584 -0.4613
 2862SOL    HW220049   1.881   2.627   1.404  0.3708 -1.1274 -1.6541
 2863SOL     OW20050   0.252   3.790   4.341 -0.4088 -0.5638 -0.1779
 2863SOL    HW120051   0.221   3.768   4.429  0.6101  0.9749  0.5642
 2863SOL    HW220052   0.329   3.838   4.369  0.7058 -2.6550  0.3179
 2864SOL     OW20053   1.959   3.193  15.512  0.0719 -0.2244 -0.2692
 2864SOL    HW120054   2.021   3.151  15.454  1.0243 -1.1024  1.3779
 2864SOL    HW220055   1.986   3.284  15.503  2.5140 -1.1939 -2.7540
 2865SOL     OW20056   2.733   2.105   4.942 -0.0215  0.3150 -0.6066
 2865SOL    HW120057   2.734   2.158   5.022  1.2871 -0.3537 -0.1754
 2865SOL    HW220058   2.748   2.017   4.978 -0.3977  0.7666  0.6523
 2866SOL     OW20059   1.150   0.064   3.271 -0.1066  0.0655  0.3505
 2866SOL    HW120060   1.121   0.023   3.189  2.8676 -1.4830  0.0583
 2866SOL    HW220061   1.071   0.107   3.302  0.2467  0.7352  0.3241
 2867SOL     OW20062   0.594   0.622   8.298  0.2201  0.2624  0.0312
 2867SOL    HW120063   0.569   0.641   8.208 -0.5323 -1.0933 -0.0481
 2867SOL    HW220064   0.619   0.530   8.299 -0.9866 -0.0456  1.4846
 2868SOL     OW20065   0.022   4.551   7.479  0.0198 -0.6473  0.1443
 2868SOL    HW120066   0.019   4.531   7.572  0.3738  1.5190  0.6356
 2868SOL    HW220067   0.114   4.534   7.462 -0.1675 -2.5028  1.0497
 2869SOL     OW20068   1.142   1.121   7.730 -0.3017  0.2591  0.3603
 2869SOL    HW120069   1.144   1.164   7.645  2.2125 -1.1890 -0.3350
 2869SOL    HW220070   1.142   1.203   7.779  0.1156  0.5073 -0.0536
 2870SOL     OW20071   2.059   3.577   3.649 -0.4168  0.1644  0.1024
 2870SOL    HW120072   2.008   3.553   3.726  0.4393  2.8322  1.4788
 2870SOL    HW220073   2.079   3.669   3.667  0.5371 -0.6779  3.3562
 2871SOL     OW20074   2.288   0.960  14.882 -0.0667 -0.7649 -0.6697
 2871SOL    HW120075   2.303   0.983  14.791 -0.5033  1.0942 -0.2654
 2871SOL    HW220076   2.196   0.981  14.898  0.1929 -0.2194  0.0536
 2872SOL     OW20077   4.464   2.446   9.026 -0.6817  0.1744  0.2676
 2872SOL    HW120078   4.554   2.435   9.059  0.1681  0.9158 -1.7988
 2872SOL    HW220079   4.419   2.451   9.111  0.8085  2.7501  0.8984
 2873SOL     OW20080   2.704   0.450   8.972  0.0349  0.2100  0.2175
 2873SOL    HW120081   2.758   0.529   8.970  1.0866 -0.5461 -0.8840
 2873SOL    HW220082   2.620   0.494   8.965 -0.6386 -1.4168 -1.7738
 2874SOL     OW20083   3.591   3.164   4.131 -0.6459 -0.2343 -0.7628
 2874SOL    HW120084   3.542   3.196   4.056 -2.2017  0.8658  0.7105
 2874SOL    HW220085   3.526   3.176   4.200 -0.3076 -2.1958 -0.1176
 2875SOL     OW20086   3.790   0.802   8.194 -0.2279  0.1226  0.1498
 2875SOL    HW120087   3.811   0.863   8.265 -0.8176 -0.2253  0.6270
 2875SOL    HW220088   3.834   0.724   8.227  0.4263  1.1019  1.5970
 2876SOL     OW20089   0.319   2.262   5.971 -0.0149  0.3154  0.6440
 2876SOL    HW120090   0.244   2.270   5.913 -0.4722 -1.4024  0.9908
 2876SOL    HW220091   0.357   2.348   5.954  2.1718 -0.9383 -0.7860
 2877SOL     OW20092   1.910   0.573   7.016  0.0887  0.1367  0.3926
 2877SOL    HW120093   1.998   0.539   7.005 -0.8701 -2.2326 -0.0954
 2877SOL    HW220094   1.925   0.666   7.032 -1.7847  0.6573 -0.7789
 2878SOL     OW20095   3.150   2.454  11.297 -0.3764  0.8817 -0.4951
 2878SOL    HW120096   3.208   2.433  11.223 -0.0770  2.3009 -0.6577
 2878SOL    HW220097   3.160   2.545  11.323 -0.5326  1.6644 -3.1306
 2879SOL     OW20098   3.745   2.307  14.955 -0.3513  0.6748  0.1610
 2879SOL    HW120099   3.824   2.259  14.980  0.0579  0.7506 -0.9736
 2879SOL    HW220100   3.735   2.274  14.866  0.1170  2.3660 -0.5148
 2880SOL     OW20101   0.955   0.653   8.128 -0.0170  0.6152  0.8081
 2880SOL    HW120102   0.943   0.638   8.034 -0.2208 -0.9372  1.0790
 2880SOL    HW220103   0.936   0.746   8.136  0.2068  0.4936  2.6739
 2881SOL     OW20104   4.175   4.361   8.953  0.0800  0.1170 -0.3819
 2881SOL    HW120105   4.144   4.305   9.024  1.6197  0.1990  0.3549
 2881SOL    HW220106   4.116   4.339   8.881 -0.7333  1.8758 -0.2467
 2882SOL     OW20107   2.029   3.136   5.394  0.1021  0.4374  0.1457
 2882SOL    HW120108   2.085   3.062   5.417  1.3231  0.9875 -1.0384
 2882SOL    HW220109   2.070   3.206   5.444 -1.0050  0.5295  0.9207
 2883SOL     OW20110   0.345   2.014   0.901  0.5027  0.9300 -0.4464
 2883SOL    HW120111   0.264   1.981   0.861 -0.1008  0.7627  0.8941
 2883SOL    HW220112   0.398   1.935   0.907  1.7368  1.8369  0.5228
 2884SOL     OW20113   4.202   1.888  13.574  0.1324 -0.2415 -0.0140
 2884SOL    HW120114   4.219   1.794  13.576  0.1016 -0.2517 -0.2594
 2884SOL    HW220115   4.178   1.917  13.486  3.4161 -0.1240 -0.8887
 2885SOL     OW20116   0.554   0.162  15.664  0.4018  0.0627 -0.2035
 2885SOL    HW120117   0.512   0.243  15.635 -1.2150 -0.9224 -0.5941
 2885SOL    HW220118   0.571   0.135  15.574  0.5667 -0.1154 -0.1189
 2886SOL     OW20119   2.093   2.460   2.347 -0.0774  1.3690  0.2713
 2886SOL    HW120120   2.150   2.387   2.320 -0.8383  1.0238 -0.4190
 2886SOL    HW220121   2.071   2.489   2.259 -1.9464 -0.3190  0.1770
 2887SOL     OW20122   2.815   0.223   6.244  0.6084 -0.2726 -0.5200
 2887SOL    HW120123   2.791   0.310   6.275  1.7693 -0.0670 -0.2052
 2887SOL    HW220124   2.823   0.246   6.151 -1.1877 -1.7055 -1.0223
 2888SOL     OW20125   2.183   0.461  10.463 -0.4402 -0.4264 -0.1470
 2888SOL    HW120126   2.266   0.452  10.417  0.7444 -0.5904  2.0257
 2888SOL    HW220127   2.197   0.544  10.508 -0.2382 -1.1886  1.1883
 2889SOL     OW20128   2.800   2.835   4.053  0.5970  0.3121  0.1266
 2889SOL    HW120129   2.716   2.834   4.007  0.5143 -2.6452  0.3776
 2889SOL    HW220130   2.804   2.918   4.101  0.7450  1.3202 -1.6168
 2890SOL     OW20131   2.472   1.872   3.420 -0.1947  0.2936 -0.1806
 2890SOL    HW120132   2.485   1.950   3.366  3.1213  0.2272  0.5348
 2890SOL    HW220133   2.543   1.883   3.484  0.4570 -1.1320 -0.6721
 2891SOL     OW20134   3.312   4.565  15.634  0.2548  0.5508  0.1811
 2891SOL    HW120135   3.394   4.527  15.602 -0.3983 -1.1832  0.6114
 2891SOL    HW220136   3.282   4.485  15.677  0.5258 -0.9294 -2.4114
 2892SOL     OW20137   0.236   1.089   6.217  0.5673  0.0593 -0.1211
 2892SOL    HW120138   0.218   1.167   6.270 -1.4304  0.3193 -1.1992
 2892SOL    HW220139   0.212   1.024   6.283  0.2519  0.9217  0.6062
 2893SOL     OW20140   0.594   2.079   6.014  0.0771  0.4256 -0.7605
 2893SOL    HW120141   0.524   2.128   6.057  0.8099  0.4203  0.4342
 2893SOL    HW220142   0.653   2.044   6.080  0.8984  0.3567 -1.5289
 2894SOL     OW20143   2.118   3.810   7.902  0.1956  0.1219  0.1982
 2894SOL    HW120144   2.087   3.879   7.843  2.3568  0.8398 -0.0962
 2894SOL    HW220145   2.090   3.726   7.866 -0.9149  0.2893  0.6761
 2895SOL     OW20146   1.903   3.535   8.105  0.1583 -0.8816 -0.0818
 2895SOL    HW120147   1.922   3.533   8.011 -1.4789 -1.1863 -0.4057
 2895SOL    HW220148   1.808   3.530   8.102  0.0698  1.5684 -1.8166
 2896SOL     OW20149   3.491   0.130   6.933 -0.0049  0.2307  0.2607
 2896SOL    HW120150   3.459   0.220   6.924  0.2877  0.4774  1.6786
 2896SOL    HW220151   3.563   0.122   6.870 -0.4600  1.3369 -0.3839
 2897SOL     OW20152   1.133   3.922  16.749 -0.0787  0.0456  0.2847
 2897SOL    HW120153   1.097   3.836  16.773 -1.4374  0.7232  0.6918
 2897SOL    HW220154   1.116   3.929  16.656  1.8717 -1.0856 -0.1618
 2898SOL     OW20155   4.611   3.505  15.826  0.5888 -0.1366  0.1856
 2898SOL    HW120156   4.606   3.515  15.731 -0.0287 -2.1440  0.0033
 2898SOL    HW220157   4.599   3.412  15.847  0.5513  0.0351  0.9181
 2899SOL     OW20158   2.367   3.153  17.187 -0.0875 -0.2473  0.4342
 2899SOL    HW120159   2.306   3.080  17.175  3.2315 -2.9017 -0.3009
 2899SOL    HW220160   2.446   3.099  17.186 -1.4243 -2.2064 -1.0015
 2900SOL     OW20161   0.503   4.483   9.758  0.3663 -0.3826  0.1473
 2900SOL    HW120162   0.563   4.483   9.683 -1.0139  1.5428 -0.9738
 2900SOL    HW220163   0.416   4.482   9.717  0.2656 -0.1267  0.3577
 2901SOL     OW20164   4.312   3.509   9.518 -0.2043 -0.1255  0.0166
 2901SOL    HW120165   4.251   3.529   9.588 -0.5754 -0.1665 -0.2916
 2901SOL    HW220166   4.321   3.414   9.530  0.2401 -0.2068 -0.9076
 2902SOL     OW20167   4.501   4.444   6.076 -0.1993  0.5611  0.2395
 2902SOL    HW120168   4.416   4.461   6.117 -0.4370 -2.3413  0.9512
 2902SOL    HW220169   4.521   4.353   6.099  0.5543  0.9278  1.0583
 2903SOL     OW20170   3.601   2.367   0.377 -0.6497 -0.8077 -0.6561
 2903SOL    HW120171   3.688   2.346   0.411 -1.0254 -2.7504 -0.8899
 2903SOL    HW220172   3.615   2.450   0.332 -0.2079 -0.0899  0.8052
 2904SOL     OW20173   1.619   2.971   1.638 -0.4416 -0.2778 -0.2657
 2904SOL    HW120174   1.705   2.930   1.641 -0.6572 -0.5908  1.2230
 2904SOL    HW220175   1.639   3.048   1.691 -1.1128 -0.5089  0.3218
 2905SOL     OW20176   0.689   3.797   5.055 -0.2112 -0.4760  0.3766
 2905SOL    HW120177   0.740   3.850   4.994 -0.9653 -0.1267  0.0596
 2905SOL    HW220178   0.639   3.743   4.994  0.5257  0.6598 -1.2405
 2906SOL     OW20179   3.772   3.394   7.136 -0.0169 -0.5309  0.2762
 2906SOL    HW120180   3.714   3.345   7.078 -0.7898  2.1486 -1.1653
 2906SOL    HW220181   3.858   3.355   7.120 -0.4511 -1.2437 -0.2992
 2907SOL     OW20182   0.601   3.392   7.726 -0.5701  0.0962 -0.0900
 2907SOL    HW120183   0.559   3.473   7.699  1.5283  0.6954 -1.5422
 2907SOL    HW220184   0.614   3.399   7.821 -1.3407 -1.3251  0.1197
 2908SOL     OW20185   0.884   2.962   5.788  0.5684 -0.1182 -0.1682
 2908SOL    HW120186   0.865   3.030   5.853  2.1300 -0.8209  1.0063
 2908SOL    HW220187   0.875   3.006   5.703 -0.6474 -1.2145 -0.6204
 2909SOL     OW20188   3.062   2.267   8.705 -0.5809 -0.0843  0.2791
 2909SOL    HW120189   3.139   2.323   8.697 -0.9251  0.1687 -1.2019
 2909SOL    HW220190   3.074   2.220   8.787 -2.2440 -1.0163 -0.0075
 2910SOL     OW20191   3.443   2.051   8.491 -0.3038 -0.8363 -0.0404
 2910SOL    HW120192   3.400   2.108   8.427  0.0515 -2.3997 -1.6974
 2910SOL    HW220193   3.496   2.120   8.530  2.0012 -2.2473 -0.6639
 2911SOL     OW20194   1.218   0.916   8.652 -0.0608 -0.2301  0.2722
 2911SOL    HW120195   1.259   1.000   8.674  0.2908 -1.1456  3.1598
 2911SOL    HW220196   1.173   0.931   8.569  2.5719  2.2454 -0.7006
 2912SOL     OW20197   0.842   1.137   5.131  0.2708 -0.2467 -0.6578
 2912SOL    HW120198   0.795   1.213   5.165  1.3331  0.3118 -0.4181
 2912SOL    HW220199   0.904   1.118   5.202  1.3017  3.1151 -0.6326
 2913SOL     OW20200   2.529   2.396   9.266 -0.2996  1.0236  0.4456
 2913SOL    HW120201   2.578   2.472   9.297 -0.4724  0.9366  0.9309
 2913SOL    HW220202   2.456   2.440   9.222 -2.1925 -0.7283  1.8391
 2914SOL     OW20203   2.091   4.557  11.048  0.1754  0.5992 -0.4033
 2914SOL    HW120204   2.146   4.632  11.027  0.9488  0.6204  1.7727
 2914SOL    HW220205   2.005   4.577  11.009 -0.1094 -2.0792 -1.1619
 2915SOL     OW20206   1.816   3.984   8.771 -0.0666  0.1342 -0.3987
 2915SOL    HW120207   1.801   3.906   8.717  1.2048  0.0464 -0.6357
 2915SOL    HW220208   1.894   3.960   8.820 -0.5562 -1.4244 -0.3915
 2916SOL     OW20209   4.259   3.598  16.775 -0.7605  0.2543  0.0773
 2916SOL    HW120210   4.302   3.522  16.736  0.2818  0.8380  0.0852
 2916SOL    HW220211   4.175   3.561  16.801 -0.1829  0.2537  1.9566
 2917SOL     OW20212   3.499   3.605  17.449  0.8559 -0.2672 -0.1370
 2917SOL    HW120213   3.575   3.555  17.478 -0.1829 -1.1993  0.9558
 2917SOL    HW220214   3.494   3.671  17.518 -0.7843  0.0248 -0.5183
 2918SOL     OW20215   4.088   1.330   7.080  0.5226  0.1865 -0.2114
 2918SOL    HW120216   4.027   1.381   7.134 -0.1845 -0.9940  0.1082
 2918SOL    HW220217   4.152   1.312   7.149  0.6240 -0.0964 -0.3793
 2919SOL     OW20218   2.081   4.011   7.684  0.0504 -0.4439 -0.8563
 2919SOL    HW120219   2.125   3.970   7.610  4.4241  1.8274  0.4820
 2919SOL    HW220220   2.127   4.095   7.693 -1.9391  0.4110  1.3878
 2920SOL     OW20221   2.383   3.396  10.773 -0.2987  0.0456  0.8929
 2920SOL    HW120222   2.466   3.438  10.752 -0.8087  0.4450 -0.3432
 2920SOL    HW220223   2.344   3.455  10.837 -1.1491  0.2544  0.1971
 2921SOL     OW20224   4.627   0.787   0.806  0.0576  0.7910  0.3484
 2921SOL    HW120225   4.566   0.740   0.748  0.9676  0.1783 -0.1167
 2921SOL    HW220226   4.640   0.863   0.749  2.2899  0.1311 -0.0239
 2922SOL     OW20227   0.521   4.109   6.384  0.4213 -0.4807 -0.4580
 2922SOL    HW120228   0.587   4.142   6.445 -0.3736  0.3362 -0.0361
 2922SOL    HW220229   0.531   4.014   6.391  0.2008 -0.4574  0.1655
 2923SOL     OW20230   2.359   3.894   5.302  0.1312 -0.3087  0.4898
 2923SOL    HW120231   2.412   3.970   5.325  2.8994 -1.9726 -0.3839
 2923SOL    HW220232   2.286   3.922   5.357  1.5804  1.7276  1.4208
 2924SOL     OW20233   0.381   4.683   7.044 -0.0553  0.0055  0.2312
 2924SOL    HW120234   0.390   0.050   7.032  0.9341 -0.2450 -0.9621
 2924SOL    HW220235   0.452   4.677   7.109 -0.0266  0.7656  0.2744
 2925SOL     OW20236   2.916   3.858   5.587 -0.3754 -0.4100 -0.3153
 2925SOL    HW120237   2.901   3.886   5.678  0.2821 -2.2117  0.3529
 2925SOL    HW220238   2.826   3.836   5.563 -0.3597 -0.9937  0.1461
 2926SOL     OW20239   3.120   0.910   6.899  0.2372  0.6413  0.4973
 2926SOL    HW120240   3.111   0.829   6.850 -2.4269  0.8721  0.5807
 2926SOL    HW220241   3.037   0.906   6.946  0.1169  0.8606  0.3046
 2927SOL     OW20242   4.650   3.773   4.739 -0.0718  0.4330  0.0938
 2927SOL    HW120243   4.590   3.831   4.786  1.1121  0.0418  2.0772
 2927SOL    HW220244   4.584   3.741   4.677  0.8229 -0.1099 -0.5779
 2928SOL     OW20245   4.343   3.123  14.524 -0.3551 -0.2996 -0.3237
 2928SOL    HW120246   4.423   3.107  14.475 -1.1337 -0.6232 -1.4864
 2928SOL    HW220247   4.377   3.193  14.580  1.5468 -0.0794 -1.7705
 2929SOL     OW20248   2.303   3.356   2.980  0.2751 -0.3949 -0.4407
 2929SOL    HW120249   2.394   3.351   3.010  0.5358  0.1590 -1.1300
 2929SOL    HW220250   2.269   3.268   2.965  1.8930 -1.1634  0.4691
 2930SOL     OW20251   2.309   2.149  13.218  0.1315  0.0116 -0.9270
 2930SOL    HW120252   2.402   2.142  13.239  0.0731 -0.0831 -0.7046
 2930SOL    HW220253   2.274   2.075  13.268  0.6117  0.3285 -0.1302
 2931SOL     OW20254   1.736   1.642   5.789  0.5593 -0.7862  0.8198
 2931SOL    HW120255   1.734   1.729   5.750  1.0598 -0.8155  0.7229
 2931SOL    HW220256   1.645   1.641   5.819  0.0257  0.7761 -0.7537
 2932SOL     OW20257   1.326   4.212   6.216  0.5613  0.0405  0.4723
 2932SOL    HW120258   1.333   4.293   6.164 -0.4977  0.7636  1.4498
 2932SOL    HW220259   1.351   4.228   6.307  2.3264  1.3543 -0.2407
 2933SOL     OW20260   1.665   1.650   5.130 -0.0439  0.3851 -0.2419
 2933SOL    HW120261   1.645   1.737   5.097  1.2573  0.8896  0.3039
 2933SOL    HW220262   1.699   1.661   5.219  0.1428 -1.1376 -0.1293
 2934SOL     OW20263   1.788   2.341   8.880 -0.4033  0.6110 -0.5239
 2934SOL    HW120264   1.810   2.306   8.794 -2.1570 -1.8032  0.0176
 2934SOL    HW220265   1.765   2.257   8.920  1.1963  1.2632  1.7488
 2935SOL     OW20266   3.902   0.974   4.149  0.6253  0.2510 -0.4947
 2935SOL    HW120267   3.978   0.920   4.127  0.0552 -0.6276 -0.3194
 2935SOL    HW220268   3.889   1.037   4.079 -0.8620 -0.5474 -0.9336
 2936SOL     OW20269   1.322   2.253   6.734  0.4334 -0.1853 -0.0493
 2936SOL    HW120270   1.283   2.320   6.679  1.1289 -1.2521 -1.8274
 2936SOL    HW220271   1.282   2.276   6.818  1.3796 -1.4555  0.7538
 2937SOL     OW20272   3.129   4.227  14.939  0.2323  0.2388  0.3445
 2937SOL    HW120273   3.222   4.244  14.956  0.3675 -0.3385  0.1779
 2937SOL    HW220274   3.127   4.241  14.845  0.5120  0.5251  0.3820
 2938SOL     OW20275   2.352   2.542   9.134 -0.0533  0.2179  0.7152
 2938SOL    HW120276   2.273   2.569   9.180 -0.5625  0.8174 -0.4957
 2938SOL    HW220277   2.340   2.587   9.050 -0.0303  0.7118  0.9779
 2939SOL     OW20278   1.091   0.600   3.751 -0.1462  0.0412 -0.2004
 2939SOL    HW120279   1.005   0.627   3.717  0.5236  1.4244 -0.8127
 2939SOL    HW220280   1.145   0.624   3.676  1.7827 -2.2685  0.4506
 2940SOL     OW20281   0.570   1.269   7.265 -0.4985  0.3810  0.1222
 2940SOL    HW120282   0.587   1.330   7.336  1.5442 -1.4587  1.2039
 2940SOL    HW220283   0.488   1.231   7.294 -0.3195 -1.2913 -1.5602
 2941SOL     OW20284   4.584   4.549   1.868  0.1997 -0.3268  0.7722
 2941SOL    HW120285   4.606   4.538   1.775 -1.4387 -0.5539  0.4203
 2941SOL    HW220286   4.660   4.593   1.907  1.6668 -1.5226 -0.7175
 2942SOL     OW20287   2.102   3.295   5.072 -0.4361  0.2290 -0.0181
 2942SOL    HW120288   2.123   3.206   5.100 -2.1455 -0.9696 -2.4821
 2942SOL    HW220289   2.183   3.344   5.088 -0.7731  0.8731 -0.3097
 2943SOL     OW20290   3.762   0.908   0.689 -0.4945  0.6444  0.4924
 2943SOL    HW120291   3.730   0.827   0.650  1.7460  1.3677 -2.8462
 2943SOL    HW220292   3.845   0.869   0.718 -0.6342  0.6743  0.9413
 2944SOL     OW20293   1.479   2.953   3.998  0.5881  0.1710  0.0433
 2944SOL    HW120294   1.507   3.013   4.068 -2.6344 -0.4418  1.8267
 2944SOL    HW220295   1.446   3.023   3.942 -1.1272  0.2317  1.1519
 2945SOL     OW20296   0.196   1.745   8.572  0.1756  0.0346 -0.3177
 2945SOL    HW120297   0.174   1.825   8.525  0.4000 -0.1920 -0.8161
 2945SOL    HW220298   0.264   1.779   8.630  0.2675 -0.1906 -0.2923
 2946SOL     OW20299   3.569   4.632   1.465 -0.2084  0.3237  0.2956
 2946SOL    HW120300   3.620   4.552   1.474 -0.7583  0.2669  2.7302
 2946SOL    HW220301   3.593   4.656   1.554 -0.0033 -0.4630  0.4501
 2947SOL     OW20302   1.793   1.333   3.119  0.0750 -0.3691  0.1958
 2947SOL    HW120303   1.714   1.289   3.152  0.8335 -1.1486  0.9862
 2947SOL    HW220304   1.810   1.400   3.184  2.2450 -1.5559  0.8521
 2948SOL     OW20305   3.692   1.650   3.419 -0.0450 -0.2608 -0.2990
 2948SOL    HW120306   3.777   1.690   3.437 -1.2275  0.7547  3.0174
 2948SOL    HW220307   3.708   1.562   3.454  0.3810 -0.2786 -0.5378
 2949SOL     OW20308   4.479   3.531   7.534  0.3350  0.2461  0.0867
 2949SOL    HW120309   4.405   3.545   7.476  0.2491 -1.3104 -0.1860
 2949SOL    HW220310   4.486   3.610   7.587  0.2033 -0.0614  0.5608
 2950SOL     OW20311   0.103   2.498   5.669 -0.2701  0.1688  0.3467
 2950SOL    HW120312   0.077   2.574   5.722 -3.0027  0.6853 -1.7709
 2950SOL    HW220313   0.047   2.429   5.704  0.4194  0.1162  1.3451
 2951SOL     OW20314   3.309   0.273  17.439  0.2850  0.2434  0.7392
 2951SOL    HW120315   3.259   0.215  17.497  0.7585  1.0228  1.9276
 2951SOL    HW220316   3.236   0.298  17.382 -1.0672 -2.7891  1.1323
 2952SOL     OW20317   3.299   4.406   6.916  0.0059 -0.0240  0.2844
 2952SOL    HW120318   3.304   4.498   6.942 -1.0310 -0.2774  1.3731
 2952SOL    HW220319   3.326   4.412   6.825  0.8184  0.0048  0.5232
 2953SOL     OW20320   3.414   1.752   4.661 -0.4220  0.0374  0.1385
 2953SOL    HW120321   3.440   1.766   4.752 -0.6731 -0.4447  0.2843
 2953SOL    HW220322   3.443   1.832   4.617 -0.7998 -0.2886 -0.7207
 2954SOL     OW20323   0.501   3.546  13.936  0.2882  0.2877  0.3976
 2954SOL    HW120324   0.525   3.490  13.862  0.3679 -3.9034  3.5925
 2954SOL    HW220325   0.411   3.527  13.963  1.5804 -2.1875  2.9654
 2955SOL     OW20326   3.795   3.308   3.303 -0.4164  0.6234 -0.3438
 2955SOL    HW120327   3.880   3.336   3.270 -0.4167 -0.2975 -1.1340
 2955SOL    HW220328   3.829   3.230   3.347 -1.2718  0.5588  0.1989
 2956SOL     OW20329   4.326   0.504   9.609  0.1517 -0.3894 -0.2953
 2956SOL    HW120330   4.285   0.588   9.591  1.3824  0.7990  2.4514
 2956SOL    HW220331   4.347   0.518   9.702  1.2601 -0.6416 -0.5035
 2957SOL     OW20332   0.408   0.178   1.612 -0.3686  0.3800 -0.4567
 2957SOL    HW120333   0.460   0.128   1.674 -0.9614  0.8565  0.4169
 2957SOL    HW220334   0.473   0.246   1.596 -0.4080  0.6149  0.4317
 2958SOL     OW20335   3.307   3.107   5.026 -0.4354  0.8201 -0.1920
 2958SOL    HW120336   3.271   3.178   5.079 -0.4368 -0.0513  0.9783
 2958SOL    HW220337   3.292   3.132   4.935 -1.1497 -0.3469 -0.3918
 2959SOL     OW20338   3.590   2.238   5.633 -0.1983 -0.2776 -0.5012
 2959SOL    HW120339   3.620   2.308   5.575 -0.1146 -0.7475 -1.0135
 2959SOL    HW220340   3.532   2.294   5.685 -1.0102 -2.5324  1.0096
 2960SOL     OW20341   4.077   2.157   6.273  0.1836  0.3399 -0.2248
 2960SOL    HW120342   4.017   2.214   6.226  0.8458 -0.3355 -1.8859
 2960SOL    HW220343   4.070   2.179   6.366 -1.7127  1.7752 -0.7269
 2961SOL     OW20344   2.075   2.436   5.517 -0.1403  0.0244  0.0075
 2961SOL    HW120345   2.058   2.496   5.590  0.0915 -2.1063  1.8028
 2961SOL    HW220346   2.135   2.486   5.461 -0.0350 -1.0346 -0.8267
 2962SOL     OW20347   1.066   2.744  15.088  0.6639  0.1141  0.7322
 2962SOL    HW120348   1.142   2.799  15.108  0.6894  0.3734 -0.0666
 2962SOL    HW220349   1.100   2.697  15.011  2.1661  1.9431  0.2828
 2963SOL     OW20350   2.047   3.857   8.862  0.0743  0.1886  0.4309
 2963SOL    HW120351   2.006   3.773   8.845 -1.8490  1.5317 -1.5556
 2963SOL    HW220352   2.137   3.831   8.883 -0.3670  1.3033  3.7957
 2964SOL     OW20353   2.005   0.300   6.020 -0.0778 -0.3096  0.2688
 2964SOL    HW120354   1.936   0.286   5.955  0.2374  0.3841 -0.2166
 2964SOL    HW220355   1.975   0.376   6.070 -0.0592  1.1461 -1.9466
 2965SOL     OW20356   2.103   2.327   8.781  0.0897  0.0733 -0.2952
 2965SOL    HW120357   2.048   2.304   8.706 -0.5142 -2.4356  0.9226
 2965SOL    HW220358   2.194   2.329   8.750  0.3832  0.1600  0.5594
 2966SOL     OW20359   2.054   2.862  15.430  0.2427  0.0290  0.3016
 2966SOL    HW120360   2.090   2.951  15.427 -1.5459  0.6361 -2.3334
 2966SOL    HW220361   2.098   2.822  15.355 -0.0331  2.1798 -1.0172
 2967SOL     OW20362   2.065   4.027   6.120 -0.0587 -0.2302 -0.2603
 2967SOL    HW120363   2.021   4.028   6.035  1.1619  1.2699 -0.8807
 2967SOL    HW220364   2.033   4.110   6.156 -0.2160 -0.3741 -0.0623
 2968SOL     OW20365   1.230   2.017   4.459 -0.1071  0.7629 -0.4666
 2968SOL    HW120366   1.295   2.019   4.388  1.8019  0.4990  1.2820
 2968SOL    HW220367   1.153   1.991   4.409  0.3198  0.0898 -0.7702
 2969SOL     OW20368   1.789   2.507  16.833 -0.6684 -0.4064  0.5033
 2969SOL    HW120369   1.704   2.470  16.857 -1.1322  0.2653 -0.0790
 2969SOL    HW220370   1.842   2.464  16.900 -0.8952  1.1357  1.6812
 2970SOL     OW20371   0.530   2.677   3.289  0.4930 -0.1922 -0.0627
 2970SOL    HW120372   0.552   2.760   3.247  0.1154 -0.0307  0.0526
 2970SOL    HW220373   0.503   2.711   3.374 -0.8200 -1.8407  0.1815
 2971SOL     OW20374   1.728   3.724  16.412 -0.7945 -0.2696 -0.2015
 2971SOL    HW120375   1.727   3.809  16.369 -1.6873  0.2694  0.9095
 2971SOL    HW220376   1.819   3.716  16.440 -0.8911  0.4770  0.3186
 2972SOL     OW20377   1.558   2.322   7.567 -0.2449 -0.0070 -0.1499
 2972SOL    HW120378   1.582   2.360   7.652 -0.0745  0.2189 -0.3024
 2972SOL    HW220379   1.602   2.237   7.573 -1.2204 -0.3933  1.5549
 2973SOL     OW20380   4.268   2.809   4.741 -0.0315  0.1293 -0.0385
 2973SOL    HW120381   4.332   2.779   4.805 -0.4144  1.7394  1.1194
 2973SOL    HW220382   4.184   2.813   4.788 -0.4179 -0.9593 -0.6433
 2974SOL     OW20383   1.394   4.093  16.718 -0.1291 -0.3304  0.4511
 2974SOL    HW120384   1.409   4.000  16.699  0.1261  0.1824 -1.8115
 2974SOL    HW220385   1.299   4.099  16.709 -0.0874  1.5962  1.2046
 2975SOL     OW20386   2.452   2.700  14.635 -0.0473  0.0631  0.2437
 2975SOL    HW120387   2.401   2.619  14.627 -1.3194  1.0322 -1.7153
 2975SOL    HW220388   2.482   2.683  14.723 -0.2500 -1.4332  0.0244
 2976SOL     OW20389   4.337   3.601   3.670 -0.1495  0.2908  0.0250
 2976SOL    HW120390   4.425   3.636   3.686  0.5417 -1.4763  0.1102
 2976SOL    HW220391   4.331   3.616   3.576  0.0799 -1.6273 -0.3083
 2977SOL     OW20392   1.132   0.955   5.060 -0.2866 -0.1634  0.0018
 2977SOL    HW120393   1.154   1.047   5.074 -1.3535 -0.0913  1.1541
 2977SOL    HW220394   1.194   0.927   4.992  0.7549  1.4397  0.2835
 2978SOL     OW20395   1.983   3.818   4.742  0.4296  0.0377  1.0105
 2978SOL    HW120396   1.936   3.765   4.678  2.7924  2.1534 -2.4380
 2978SOL    HW220397   1.923   3.886   4.772 -0.6732 -0.5831  0.1918
 2979SOL     OW20398   2.642   1.851   6.002  0.5078 -0.5509  0.3840
 2979SOL    HW120399   2.737   1.840   5.997  0.2238 -1.9076 -1.7779
 2979SOL    HW220400   2.629   1.946   6.001 -1.2278 -0.8077 -0.8307
 2980SOL     OW20401   0.311   3.705   6.222  0.0936 -0.0597 -0.3245
 2980SOL    HW120402   0.259   3.769   6.270  2.2904  0.3093  1.5569
 2980SOL    HW220403   0.247   3.634   6.225 -0.7111  0.6316 -0.9568
 2981SOL     OW20404   0.221   3.013   4.631  0.1175 -0.4207  0.3122
 2981SOL    HW120405   0.189   2.978   4.714 -0.5318 -1.6102 -0.4397
 2981SOL    HW220406   0.168   3.093   4.628  1.0053  0.0734 -2.0897
 2982SOL     OW20407   1.969   3.567   5.261  0.4883 -0.1933 -0.3290
 2982SOL    HW120408   1.981   3.607   5.175  0.6040 -0.2077 -0.3196
 2982SOL    HW220409   1.892   3.514   5.241  1.3334 -1.9094  0.8972
 2983SOL     OW20410   2.667   0.396   3.045 -0.2804 -0.4091 -0.0902
 2983SOL    HW120411   2.624   0.411   2.961  3.1241 -2.3004 -2.1828
 2983SOL    HW220412   2.603   0.415   3.113 -0.3725 -0.6712 -0.1063
 2984SOL     OW20413   0.175   1.325   6.007 -0.5851  0.0492 -0.3112
 2984SOL    HW120414   0.129   1.374   5.938 -0.6769 -0.0926 -0.3517
 2984SOL    HW220415   0.134   1.239   6.006  2.0711 -1.1535 -3.6538
 2985SOL     OW20416   2.829   1.073   5.757 -0.4531 -0.9006 -1.0462
 2985SOL    HW120417   2.746   1.079   5.709 -1.4994  2.5800  1.2463
 2985SOL    HW220418   2.810   1.007   5.823  3.2158 -1.4188 -0.5631
 2986SOL     OW20419   4.495   1.171   1.800 -0.2227 -0.4736  0.0227
 2986SOL    HW120420   4.545   1.206   1.874  0.8265  0.4624 -1.1316
 2986SOL    HW220421   4.542   1.090   1.780 -0.8322 -0.1372 -2.7783
 2987SOL     OW20422   3.199   1.968   3.395 -0.5862  0.3840 -0.3489
 2987SOL    HW120423   3.252   1.958   3.316  0.6655 -2.9373  0.9162
 2987SOL    HW220424   3.254   1.912   3.450  0.1003  0.2468 -1.1826
 2988SOL     OW20425   2.980   0.841   5.384 -0.3249  0.5970 -0.3260
 2988SOL    HW120426   3.048   0.832   5.317 -0.4526 -2.7036  0.0246
 2988SOL    HW220427   2.942   0.918   5.342 -0.1095 -0.1278 -1.8441
 2989SOL     OW20428   2.416   4.640  11.971 -0.1999 -0.4359 -0.3970
 2989SOL    HW120429   2.485   4.647  11.905  0.9249  0.7830  0.9278
 2989SOL    HW220430   2.386   4.550  11.957  0.3158 -0.7854  0.7885
 2990SOL     OW20431   1.996   0.822  14.933 -0.2054 -0.1789  0.0476
 2990SOL    HW120432   1.919   0.836  14.878 -0.4310  0.9756  0.6481
 2990SOL    HW220433   1.949   0.774  15.002  0.5338  0.2686  0.8643
 2991SOL     OW20434   2.527   2.113  12.451  0.2829  0.2544  0.2433
 2991SOL    HW120435   2.481   2.043  12.498 -0.6327  0.2445 -0.6561
 2991SOL    HW220436   2.598   2.071  12.402  1.3885  0.9637  1.2508
 2992SOL     OW20437   0.710   1.946   5.460 -0.6532  0.0918 -0.9858
 2992SOL    HW120438   0.725   1.991   5.544 -0.1947 -2.5030  0.3268
 2992SOL    HW220439   0.697   2.018   5.399  1.5452  0.1619 -1.3774
 2993SOL     OW20440   0.880   0.127   8.774 -0.5532  0.0967  0.1432
 2993SOL    HW120441   0.793   0.164   8.793 -1.5157 -1.5093 -1.1117
 2993SOL    HW220442   0.933   0.179   8.834 -0.3423 -0.7781  0.7165
 2994SOL     OW20443   0.793   2.805   8.657  0.1180  0.3336 -0.8905
 2994SOL    HW120444   0.739   2.870   8.613  0.7699  1.5693  0.1254
 2994SOL    HW220445   0.866   2.858   8.689  1.0650 -1.2924 -0.3110
 2995SOL     OW20446   3.928   1.283   7.387 -0.4879 -0.1952 -0.3579
 2995SOL    HW120447   3.895   1.362   7.345 -0.8895 -0.0612  0.2115
 2995SOL    HW220448   3.851   1.226   7.383 -1.5373  1.0486  2.5451
 2996SOL     OW20449   4.356   1.597  10.563  0.0653 -0.1194  0.3622
 2996SOL    HW120450   4.439   1.613  10.608 -0.4152 -0.2626  1.3025
 2996SOL    HW220451   4.369   1.635  10.476  0.7288 -1.8082 -0.2827
 2997SOL     OW20452   0.225   3.629   2.821 -0.4299  0.5721 -0.3318
 2997SOL    HW120453   0.266   3.581   2.749  1.2880  1.3584  0.0962
 2997SOL    HW220454   0.245   3.565   2.890  1.5994 -0.1182 -1.5663
 2998SOL     OW20455   4.467   2.545   4.492  0.0590 -0.5014 -0.3589
 2998SOL    HW120456   4.448   2.637   4.511 -1.7084 -0.9440  0.0274
 2998SOL    HW220457   4.533   2.554   4.424 -3.1705  0.1171 -3.3963
 2999SOL     OW20458   0.071   3.104  14.137  0.3646  0.2926  0.6319
 2999SOL    HW120459   0.083   3.055  14.219  1.9440  0.8005  0.6935
 2999SOL    HW220460   0.053   3.032  14.076 -1.5924  1.2901  0.0240
 3000SOL     OW20461   3.697   1.266   2.838 -0.0308  0.4992 -0.6150
 3000SOL    HW120462   3.606   1.237   2.840  1.0202 -2.7762  0.5498
 3000SOL    HW220463   3.700   1.260   2.743 -0.6412  1.0057 -0.6725
 3001SOL     OW20464   4.179   3.202   7.595 -0.4469 -0.0874  0.6803
 3001SOL    HW120465   4.207   3.173   7.508 -0.7519 -1.2509  0.9704
 3001SOL    HW220466   4.199   3.126   7.650 -4.0671  0.0432  2.1993
 3002SOL     OW20467   0.037   3.072   3.324  0.4484 -0.2400  0.2953
 3002SOL    HW120468   0.104   3.038   3.383  1.0823  0.3088 -0.1211
 3002SOL    HW220469   0.093   3.130   3.273 -1.3776 -3.1581 -5.0440
 3003SOL     OW20470   4.538   4.011   9.491  0.4485 -0.7957  0.1794
 3003SOL    HW120471   4.537   4.048   9.580  0.1352 -0.2849 -0.0346
 3003SOL    HW220472   4.463   3.953   9.501 -0.0164 -0.3422 -0.7927
 3004SOL     OW20473   2.319   2.932   4.885 -0.1638 -0.5860 -0.3868
 3004SOL    HW120474   2.396   2.967   4.930 -1.3977 -0.8445  1.9108
 3004SOL    HW220475   2.242   2.971   4.925  1.2701 -0.8161  2.5999
 3005SOL     OW20476   0.659   3.936   9.989  0.4550 -0.2534  0.2818
 3005SOL    HW120477   0.683   4.027  10.006 -1.3548  0.3799 -0.5338
 3005SOL    HW220478   0.598   3.955   9.918  0.8275  0.1079  0.0540
 3006SOL     OW20479   4.302   1.798   1.555  0.2790  0.1601  0.8430
 3006SOL    HW120480   4.290   1.816   1.461 -0.7456  0.4885  1.0324
 3006SOL    HW220481   4.233   1.858   1.584  2.7310  3.5411 -0.3094
 3007SOL     OW20482   3.658   3.524   5.690  0.0471  1.0474 -0.2258
 3007SOL    HW120483   3.737   3.576   5.674  0.2141  1.4314  1.8118
 3007SOL    HW220484   3.663   3.488   5.602  2.3000 -1.5513  0.9653
 3008SOL     OW20485   2.863   2.429   7.462 -0.2183 -0.1956 -0.1742
 3008SOL    HW120486   2.798   2.461   7.400  0.9734  2.8951  0.1424
 3008SOL    HW220487   2.900   2.510   7.498 -1.4789  0.0843  0.5060
 3009SOL     OW20488   1.724   4.481   7.610 -0.1686  0.5622  0.2547
 3009SOL    HW120489   1.678   4.400   7.633  0.1122 -0.2108 -1.8994
 3009SOL    HW220490   1.810   4.457   7.645 -0.6443 -0.2923  0.8399
 3010SOL     OW20491   1.245   1.402  14.369  0.2376  0.5118 -0.0718
 3010SOL    HW120492   1.242   1.471  14.436  0.0365 -0.7795  1.2516
 3010SOL    HW220493   1.223   1.324  14.420  1.2432 -0.0992 -0.5756
 3011SOL     OW20494   4.320   2.101  13.904 -0.0956  0.2334  0.4263
 3011SOL    HW120495   4.257   2.173  13.904  0.3366  0.5964 -1.3646
 3011SOL    HW220496   4.314   2.060  13.991  0.7776  1.5645  1.1126
 3012SOL     OW20497   1.659   2.992   7.389 -0.0643  0.3805 -0.3340
 3012SOL    HW120498   1.565   3.006   7.392  0.0446  1.3907 -1.5337
 3012SOL    HW220499   1.659   2.914   7.332 -2.0276 -1.5433  2.3074
 3013SOL     OW20500   0.508   3.637   8.714  0.3678 -0.0218 -0.0229
 3013SOL    HW120501   0.559   3.556   8.706 -0.1940 -0.4048  0.2245
 3013SOL    HW220502   0.421   3.608   8.742  1.4259 -2.4208  0.8144
 3014SOL     OW20503   0.535   0.534   2.342  0.1942  0.7270 -0.0263
 3014SOL    HW120504   0.573   0.516   2.256 -0.4994 -1.8734  0.2052
 3014SOL    HW220505   0.491   0.449   2.353  0.1971  0.7827  0.4220
 3015SOL     OW20506   0.501   2.989   9.312 -0.4248  0.5911 -0.2113
 3015SOL    HW120507   0.426   2.939   9.278 -1.8350  0.9763  2.3092
 3015SOL    HW220508   0.529   3.034   9.232  1.8671 -0.7844 -0.1655
 3016SOL     OW20509   2.841   1.495  11.247 -0.0133 -0.0594  0.1077
 3016SOL    HW120510   2.861   1.407  11.279 -0.4508 -0.4470 -0.6959
 3016SOL    HW220511   2.867   1.550  11.321  1.0488  0.3842 -0.6034
 3017SOL     OW20512   0.180   0.633  15.595 -0.2994  0.3689  0.1814
 3017SOL    HW120513   0.106   0.577  15.571 -0.0939 -0.3159  1.1612
 3017SOL    HW220514   0.255   0.576  15.608  0.0771  1.2178  1.7472
 3018SOL     OW20515   0.685   3.814  11.773  0.0047  0.5868  0.1117
 3018SOL    HW120516   0.596   3.787  11.798  0.0956 -2.7259 -3.2087
 3018SOL    HW220517   0.687   3.789  11.681 -0.6008 -1.3514  0.6380
 3019SOL     OW20518   0.789   0.886   5.734 -0.4290  0.4376 -0.3958
 3019SOL    HW120519   0.742   0.867   5.653 -0.6681  1.7079 -0.5652
 3019SOL    HW220520   0.830   0.967   5.704  1.6783 -0.7405 -0.6969
 3020SOL     OW20521   1.418   1.493   2.620 -0.2129  0.4767 -0.3061
 3020SOL    HW120522   1.506   1.469   2.594  0.4464  3.4759 -0.8608
 3020SOL    HW220523   1.438   1.556   2.690 -0.6513  0.0017  0.2538
 3021SOL     OW20524   0.574   0.042  14.485  0.3877  0.1121 -0.2797
 3021SOL    HW120525   0.585   0.131  14.518 -1.2220 -0.8356  2.8060
 3021SOL    HW220526   0.591   0.051  14.391 -1.2655 -1.1235 -0.7036
 3022SOL     OW20527   3.456   1.797  15.563 -0.2063  0.3489  0.0256
 3022SOL    HW120528   3.546   1.766  15.554 -0.2561  0.3471 -0.4806
 3022SOL    HW220529   3.440   1.781  15.656 -2.9451  0.5943 -0.4201
 3023SOL     OW20530   2.239   0.627   2.570  0.4800  0.2015  0.3285
 3023SOL    HW120531   2.145   0.642   2.574  0.6218  0.8291  1.3285
 3023SOL    HW220532   2.262   0.547   2.617  1.8378  0.4582  0.1112
 3024SOL     OW20533   2.619   3.911   9.136 -0.0016 -0.1388  0.1060
 3024SOL    HW120534   2.599   3.966   9.212 -0.8007 -0.2442 -0.0226
 3024SOL    HW220535   2.696   3.862   9.164  0.7383  1.3486  0.6960
 3025SOL     OW20536   3.504   0.471  15.240  0.0638  0.1147 -0.2654
 3025SOL    HW120537   3.562   0.538  15.206 -0.9961  0.7145 -0.8842
 3025SOL    HW220538   3.438   0.535  15.267 -0.8538  0.4074 -3.2360
 3026SOL     OW20539   4.355   3.700   4.775 -0.3823 -0.3270 -0.0662
 3026SOL    HW120540   4.324   3.745   4.854  2.0329  1.8863 -0.3823
 3026SOL    HW220541   4.306   3.618   4.768 -1.3356  0.0692  1.9261
 3027SOL     OW20542   3.471   0.896   3.590  0.2325  0.1780 -0.1819
 3027SOL    HW120543   3.469   0.863   3.500 -2.5689 -0.1324 -0.0331
 3027SOL    HW220544   3.406   0.966   3.575 -0.1013 -0.1220 -0.1349
 3028SOL     OW20545   0.085   1.120   9.217 -0.0150  0.6168 -0.6248
 3028SOL    HW120546   0.133   1.184   9.269 -2.0250  0.3879  1.5062
 3028SOL    HW220547   0.116   1.140   9.129  2.6878  0.8985  0.4132
 3029SOL     OW20548   3.179   3.761   6.804 -0.4252 -0.3420  0.2655
 3029SOL    HW120549   3.225   3.721   6.879 -1.5705 -0.2895  0.9940
 3029SOL    HW220550   3.121   3.821   6.851 -1.5699 -0.7015 -0.6903
 3030SOL     OW20551   4.186   0.719  15.572 -0.4854  0.2936 -0.0561
 3030SOL    HW120552   4.268   0.679  15.600 -1.0442 -0.2595  0.7954
 3030SOL    HW220553   4.152   0.735  15.660 -1.7044 -0.9244 -0.3080
 3031SOL     OW20554   0.368   3.622  13.540  0.0864  0.1034 -0.2472
 3031SOL    HW120555   0.439   3.571  13.581  1.0701 -0.9945 -3.3343
 3031SOL    HW220556   0.407   3.705  13.513 -0.1891  0.7872  1.4208
 3032SOL     OW20557   0.024   0.296  10.183 -0.5181  0.2206  0.2075
 3032SOL    HW120558   4.675   0.352  10.169  0.4995  1.7428  0.6301
 3032SOL    HW220559   0.084   0.361  10.221 -1.1471  1.2059 -0.4800
 3033SOL     OW20560   1.609   0.089   1.938  0.2010 -0.4162 -0.3154
 3033SOL    HW120561   1.549   0.099   2.012 -1.9401 -1.0180 -1.9526
 3033SOL    HW220562   1.559   0.027   1.884 -0.5085  1.8109 -2.2243
 3034SOL     OW20563   3.415   0.761  17.702 -0.1449 -0.5504  0.0110
 3034SOL    HW120564   3.406   0.675  17.661  0.6916  0.0995 -1.5430
 3034SOL    HW220565   3.436   0.725   0.079  1.1837 -2.1920 -1.0044
 3035SOL     OW20566   3.602   4.201   3.752  0.0228 -0.4618 -0.1032
 3035SOL    HW120567   3.592   4.284   3.706 -2.7901 -0.8182 -0.1610
 3035SOL    HW220568   3.521   4.166   3.716 -1.2602  2.4727 -0.0861
 3036SOL     OW20569   1.007   1.133   5.646 -0.2206  0.2032 -0.1796
 3036SOL    HW120570   0.956   1.157   5.723  1.5580  1.7151  0.5288
 3036SOL    HW220571   1.009   1.215   5.596  0.7881  0.5038  0.3604
 3037SOL     OW20572   0.211   2.510   8.490  0.3217 -0.2341  0.1560
 3037SOL    HW120573   0.155   2.436   8.511 -1.3551  1.3938  1.3680
 3037SOL    HW220574   0.286   2.489   8.546  1.7264  0.2259 -1.5386
 3038SOL     OW20575   4.126   1.697   3.192  0.0281  0.9602  0.1230
 3038SOL    HW120576   4.221   1.698   3.191  0.1173 -3.9610 -0.4455
 3038SOL    HW220577   4.104   1.783   3.157  0.9938  1.1835  0.0721
 3039SOL     OW20578   4.244   2.402   4.395 -0.0280 -0.2974 -0.1545
 3039SOL    HW120579   4.319   2.456   4.369 -0.2670  0.1966  0.1666
 3039SOL    HW220580   4.274   2.315   4.370 -1.0652  0.0488 -2.5884
 3040SOL     OW20581   3.499   0.018   4.210  0.3226  0.2367  0.1283
 3040SOL    HW120582   3.507   0.042   4.118  1.5477  0.6545  0.3470
 3040SOL    HW220583   3.411   4.709   4.221 -0.5494  1.9948 -1.2481
 3041SOL     OW20584   1.987   2.654  14.737 -0.1054 -0.2746  0.2938
 3041SOL    HW120585   1.943   2.711  14.799 -0.9998 -0.5086 -0.1170
 3041SOL    HW220586   2.080   2.665  14.757  0.0129  1.7608 -1.3298
 3042SOL     OW20587   2.670   4.270   2.856  0.1918 -0.2038  0.5447
 3042SOL    HW120588   2.710   4.225   2.782  0.2016 -0.3188  0.6193
 3042SOL    HW220589   2.576   4.258   2.845 -0.1427  1.6702  1.2488
 3043SOL     OW20590   1.673   4.128  13.996 -0.0073 -0.9653 -0.2920
 3043SOL    HW120591   1.593   4.173  13.970  0.2743  0.4095  1.2274
 3043SOL    HW220592   1.737   4.171  13.939  0.6829 -1.3462  0.1991
 3044SOL     OW20593   1.912   3.665   0.279  0.1193  0.2957  0.2474
 3044SOL    HW120594   1.921   3.570   0.291  0.0833  0.3037  0.3329
 3044SOL    HW220595   1.822   3.677   0.309  0.0909 -0.6368  0.5385
 3045SOL     OW20596   3.374   1.468  15.594 -0.3379 -0.7729 -0.2092
 3045SOL    HW120597   3.436   1.477  15.521  1.0411  0.1695  1.0756
 3045SOL    HW220598   3.289   1.483  15.551 -1.4110 -3.0411  1.1276
 3046SOL     OW20599   1.401   3.909  11.944  0.3686 -0.2383  0.0733
 3046SOL    HW120600   1.351   3.981  11.903  0.0826 -0.8789 -0.7079
 3046SOL    HW220601   1.342   3.835  11.932 -1.1937  0.7351  1.7715
 3047SOL     OW20602   0.743   1.580   3.198  0.2706  0.9150 -0.1412
 3047SOL    HW120603   0.660   1.537   3.178 -0.0210  1.0078  0.8415
 3047SOL    HW220604   0.787   1.583   3.113 -1.0546  1.5601 -0.8038
 3048SOL     OW20605   0.696   0.025   4.970  0.4893  0.2048 -0.8903
 3048SOL    HW120606   0.624   4.719   5.024  0.5362 -0.8092 -1.4500
 3048SOL    HW220607   0.699   0.116   4.998  2.9992  1.0913 -4.0879
 3049SOL     OW20608   3.260   0.231  12.821 -0.0691 -0.1891  0.1188
 3049SOL    HW120609   3.206   0.180  12.761  0.4820  1.9954 -2.2250
 3049SOL    HW220610   3.340   0.212  12.773 -0.3895  1.5760 -1.1272
 3050SOL     OW20611   0.867   2.923  11.406  0.0901  0.0207 -0.5513
 3050SOL    HW120612   0.921   2.876  11.342  0.7729  0.0350  0.0120
 3050SOL    HW220613   0.796   2.860  11.392  0.7878 -0.8887 -0.0645
 3051SOL     OW20614   0.580   2.226   6.234  0.5049 -0.5020 -0.2106
 3051SOL    HW120615   0.629   2.206   6.313 -0.2365  1.4201  0.7320
 3051SOL    HW220616   0.655   2.262   6.186 -1.6897  3.4979 -0.6464
 3052SOL     OW20617   1.511   0.771   8.158 -0.4000  0.0589 -0.0027
 3052SOL    HW120618   1.487   0.681   8.180  2.9130  0.2086  4.2130
 3052SOL    HW220619   1.453   0.787   8.084 -1.4251 -0.4624  0.6851
 3053SOL     OW20620   1.573   1.283   5.581  0.6307 -0.0222  0.3643
 3053SOL    HW120621   1.634   1.357   5.582  0.4210  0.1428  1.1170
 3053SOL    HW220622   1.602   1.240   5.661 -0.3585 -0.9004  0.2428
 3054SOL     OW20623   1.634   1.331   4.419  0.3651  0.0735  0.1064
 3054SOL    HW120624   1.723   1.316   4.385  0.2789 -2.2557  0.9351
 3054SOL    HW220625   1.655   1.417   4.456 -1.9998  0.5611  0.2737
 3055SOL     OW20626   0.835   3.523  12.053 -0.2259 -0.6790 -0.6967
 3055SOL    HW120627   0.873   3.572  12.125  0.6349 -0.9935 -0.9335
 3055SOL    HW220628   0.905   3.467  12.018  1.1220 -0.4581  1.6358
 3056SOL     OW20629   4.003   3.343   4.953  0.0850 -0.2762  0.1998
 3056SOL    HW120630   3.930   3.366   4.896 -0.5660  2.4193  2.1060
 3056SOL    HW220631   4.067   3.333   4.883 -1.7151 -1.5006 -1.2977
 3057SOL     OW20632   4.393   3.419   8.544 -0.0638 -0.9475 -0.0740
 3057SOL    HW120633   4.444   3.399   8.621  0.3151 -0.7775 -0.2826
 3057SOL    HW220634   4.421   3.359   8.475 -1.0463 -0.1100 -1.2111
 3058SOL     OW20635   3.609   3.954   8.697  0.1069 -0.2703 -0.3130
 3058SOL    HW120636   3.539   4.017   8.680  0.1783 -0.3692 -0.9837
 3058SOL    HW220637   3.680   3.987   8.640 -1.0594  0.9350 -1.0922
 3059SOL     OW20638   1.549   2.839   1.414  0.8084  0.0290 -0.3208
 3059SOL    HW120639   1.531   2.883   1.498  0.4450 -0.8029  0.0335
 3059SOL    HW220640   1.616   2.778   1.444  0.7271  0.3229  0.4831
 3060SOL     OW20641   1.955   2.993   9.214  0.2531  0.1953 -0.1821
 3060SOL    HW120642   1.958   3.086   9.192  1.5718 -0.3121 -2.0599
 3060SOL    HW220643   1.869   2.972   9.178  0.0776  1.3385 -0.4278
 3061SOL     OW20644   4.671   4.282   0.687 -0.2580 -0.8585 -0.7178
 3061SOL    HW120645   4.716   4.275   0.772  0.6864  0.2563 -1.1274
 3061SOL    HW220646   4.587   4.306   0.726 -0.6014  0.2974 -2.1820
 3062SOL     OW20647   2.390   0.368  12.260  0.1645  0.4913  0.2786
 3062SOL    HW120648   2.446   0.303  12.301 -1.6049 -1.5899 -0.5644
 3062SOL    HW220649   2.310   0.368  12.313 -0.1194 -1.3863 -0.1595
 3063SOL     OW20650   4.219   3.354   3.828 -0.1203  0.2019 -0.3411
 3063SOL    HW120651   4.221   3.396   3.914  0.4232  2.1854 -1.3169
 3063SOL    HW220652   4.287   3.287   3.835 -0.7787 -0.3819  0.4484
 3064SOL     OW20653   4.165   4.612   5.471 -0.6826  0.0539  0.2037
 3064SOL    HW120654   4.181   4.518   5.465 -1.5747  0.1198 -3.4150
 3064SOL    HW220655   4.103   4.627   5.399  1.0631  2.3819 -0.8094
 3065SOL     OW20656   0.926   0.082  14.630  0.7017 -0.4218 -0.3961
 3065SOL    HW120657   1.021   0.071  14.623  0.4842 -1.9623 -1.0449
 3065SOL    HW220658   0.891   0.050  14.547 -0.6969 -0.0313  0.0394
 3066SOL     OW20659   3.521   1.928  16.802  0.5121  0.6026  0.1477
 3066SOL    HW120660   3.528   1.845  16.755 -0.8035 -0.8785  2.5451
 3066SOL    HW220661   3.454   1.898  16.864  0.4417  1.9423  0.7207
 3067SOL     OW20662   1.354   1.984  13.780  0.4068 -0.0764  0.1183
 3067SOL    HW120663   1.312   2.063  13.814  2.9284  1.0600  0.5823
 3067SOL    HW220664   1.439   1.997  13.820 -0.1465  2.5535  0.4119
 3068SOL     OW20665   1.590   3.599   3.707  0.0514 -0.0029  0.3830
 3068SOL    HW120666   1.594   3.578   3.614  0.6552 -2.0163  0.8665
 3068SOL    HW220667   1.517   3.544   3.734  0.4266  0.7920  3.0068
 3069SOL     OW20668   1.003   1.285   4.943 -0.4539 -0.0656 -0.5104
 3069SOL    HW120669   0.938   1.283   5.013 -0.6664  0.9055 -0.6780
 3069SOL    HW220670   1.078   1.252   4.994  0.0140 -0.5239 -1.4934
 3070SOL     OW20671   0.591   2.939   4.128  0.5763 -0.1796  0.0834
 3070SOL    HW120672   0.602   2.975   4.216  0.2187 -0.9946  0.4638
 3070SOL    HW220673   0.676   2.896   4.118  2.4237  3.6238 -0.3832
 3071SOL     OW20674   1.925   0.324   7.721  0.0878 -0.7889 -0.4863
 3071SOL    HW120675   1.961   0.296   7.637  1.0822  0.4470 -0.4636
 3071SOL    HW220676   2.009   0.338   7.765 -0.9623 -0.4832  1.4353
 3072SOL     OW20677   2.840   4.431  15.087 -0.1534 -0.3032 -0.7737
 3072SOL    HW120678   2.840   4.424  14.992 -0.9976  0.4050 -0.8284
 3072SOL    HW220679   2.777   4.501  15.107  0.3055 -0.2834  0.6317
 3073SOL     OW20680   0.704   3.029   9.469  0.4137  0.4236  0.2420
 3073SOL    HW120681   0.781   2.979   9.444  0.4230 -0.0332  1.1630
 3073SOL    HW220682   0.637   2.988   9.414  1.5365  0.1465 -0.9192
 3074SOL     OW20683   3.497   3.008   4.488  0.0901  0.4457  0.1490
 3074SOL    HW120684   3.448   3.029   4.409  2.0366 -0.2175 -1.2332
 3074SOL    HW220685   3.469   3.075   4.551 -1.9479 -0.5543  0.3194
 3075SOL     OW20686   0.720   0.360  14.311 -0.5736  0.0776 -0.4553
 3075SOL    HW120687   0.688   0.361  14.401  0.6589 -2.3213  0.0160
 3075SOL    HW220688   0.698   0.271  14.285 -1.3756  0.5157 -1.2844
 3076SOL     OW20689   1.022   1.130   6.757 -0.4060  0.2847 -0.4209
 3076SOL    HW120690   0.941   1.150   6.710 -1.0077  2.0600  1.3529
 3076SOL    HW220691   1.027   1.035   6.759 -0.4609  0.3266  1.3790
 3077SOL     OW20692   1.919   2.075   2.596 -0.6265  0.1128 -0.4733
 3077SOL    HW120693   1.870   2.127   2.533 -1.0119 -1.8692 -1.7959
 3077SOL    HW220694   1.847   2.023   2.632 -0.7782  0.8653  0.3162
 3078SOL     OW20695   3.086   1.510   8.222 -0.6768 -0.7801 -0.1541
 3078SOL    HW120696   3.035   1.434   8.193  1.7263 -1.0920 -3.6310
 3078SOL    HW220697   3.094   1.557   8.139  0.5929 -0.8573 -0.0765
 3079SOL     OW20698   2.900   3.082   3.356  0.1048 -0.7322  0.5859
 3079SOL    HW120699   2.851   3.000   3.358 -1.0142 -0.1118 -1.3367
 3079SOL    HW220700   2.831   3.141   3.389  0.9903  1.3187 -1.2151
 3080SOL     OW20701   1.624   2.145   6.176  0.7930  0.2804  0.0665
 3080SOL    HW120702   1.686   2.211   6.204  1.4775 -1.1868  2.0480
 3080SOL    HW220703   1.692   2.080   6.159 -0.9108 -2.1775  2.5175
 3081SOL     OW20704   2.773   0.169   5.047 -0.5277 -0.5031  0.1429
 3081SOL    HW120705   2.730   0.253   5.065  1.0710  0.5126 -0.7486
 3081SOL    HW220706   2.740   0.118   5.122 -0.0510  2.8235  2.6303
 3082SOL     OW20707   3.332   1.900   3.695 -0.1793 -0.4871 -0.2787
 3082SOL    HW120708   3.314   1.876   3.604  0.6073 -1.0555 -0.2787
 3082SOL    HW220709   3.304   1.825   3.747 -2.5797  0.3227 -0.3834
 3083SOL     OW20710   4.522   3.640   9.071  0.0277 -0.3373  0.0781
 3083SOL    HW120711   4.460   3.687   9.016 -0.5781  0.5134  1.4746
 3083SOL    HW220712   4.583   3.709   9.099  0.2342 -1.1511  1.6127
 3084SOL     OW20713   1.861   3.005   4.225  0.0143 -0.5470  0.1137
 3084SOL    HW120714   1.903   2.946   4.288  0.7048  0.4722  0.5968
 3084SOL    HW220715   1.800   2.948   4.176  1.1897 -1.7939  0.0973
 3085SOL     OW20716   1.768   0.163   5.502  0.5371 -0.1423 -0.0246
 3085SOL    HW120717   1.768   0.082   5.553 -1.1833  0.1393  0.4016
 3085SOL    HW220718   1.694   0.210   5.540 -1.4460 -2.6032 -0.9120
 3086SOL     OW20719   1.162   0.412   3.214 -0.0690  1.1771  0.2416
 3086SOL    HW120720   1.103   0.440   3.284  0.4513  0.6376  0.9072
 3086SOL    HW220721   1.111   0.338   3.183  0.5860  0.3848  1.0080
 3087SOL     OW20722   2.679   2.168   4.216  0.0006 -0.4522 -0.2979
 3087SOL    HW120723   2.722   2.209   4.291 -1.5473 -1.2893  1.0540
 3087SOL    HW220724   2.752   2.136   4.163 -0.4365  0.2807 -1.3443
 3088SOL     OW20725   0.537   1.954   3.693  0.3348 -0.3933  0.1761
 3088SOL    HW120726   0.559   1.971   3.602  0.4955  0.4213  0.3675
 3088SOL    HW220727   0.468   1.889   3.681  0.3603 -0.3536 -0.1832
 3089SOL     OW20728   4.353   0.763   4.323 -0.2170  0.2477  0.4431
 3089SOL    HW120729   4.298   0.736   4.396 -1.2782 -0.8743 -0.7664
 3089SOL    HW220730   4.300   0.739   4.246  0.1791 -1.2470  0.6430
 3090SOL     OW20731   0.897   3.012  12.307  0.3725  0.6226  0.2363
 3090SOL    HW120732   0.872   3.018  12.399  0.5801 -1.2623  0.4052
 3090SOL    HW220733   0.991   3.030  12.314  0.3128  0.6837  0.8813
 3091SOL     OW20734   4.678   0.977   8.647 -0.5171 -0.1559 -0.3808
 3091SOL    HW120735   4.598   1.006   8.691 -0.9347 -0.0442 -1.2014
 3091SOL    HW220736   0.006   1.054   8.661  1.8796 -2.1802  1.3259
 3092SOL     OW20737   4.290   0.991   5.051  0.0704 -0.0655 -0.2948
 3092SOL    HW120738   4.380   1.000   5.084 -0.4085  4.1286 -0.1332
 3092SOL    HW220739   4.262   1.082   5.057  2.4973  0.7142 -0.7505
 3093SOL     OW20740   0.605   0.822   3.681 -0.2316  0.0696 -0.5787
 3093SOL    HW120741   0.600   0.800   3.588 -0.7970  1.1382 -0.7992
 3093SOL    HW220742   0.513   0.808   3.704 -0.2108  0.4401 -0.2689
 3094SOL     OW20743   1.168   1.425   3.585 -0.0932  0.5325 -0.4295
 3094SOL    HW120744   1.097   1.465   3.534 -1.2632 -1.1346 -0.1048
 3094SOL    HW220745   1.214   1.492   3.636 -1.4439  0.3352  1.0392
 3095SOL     OW20746   3.501   1.889   1.760 -0.1082 -0.0869 -0.2879
 3095SOL    HW120747   3.539   1.822   1.704 -0.5350 -1.6777  1.3151
 3095SOL    HW220748   3.542   1.964   1.716  2.3104 -1.7774 -0.9205
 3096SOL     OW20749   3.313   0.723   3.756  0.5678 -0.1301 -0.4445
 3096SOL    HW120750   3.377   0.780   3.713  1.6554 -0.5599  0.6029
 3096SOL    HW220751   3.370   0.662   3.803  1.2643  1.6814  1.0978
 3097SOL     OW20752   2.655   2.247   7.633 -0.6013  0.1679 -0.2996
 3097SOL    HW120753   2.658   2.157   7.601 -0.7913  0.3280 -0.7594
 3097SOL    HW220754   2.582   2.281   7.582  0.4396  1.1253 -1.1425
 3098SOL     OW20755   2.383   1.826   3.893  0.0242  0.6612 -0.2181
 3098SOL    HW120756   2.472   1.858   3.878  0.0722  0.2386 -0.8036
 3098SOL    HW220757   2.339   1.910   3.899 -0.6574  0.3503 -0.8865
 3099SOL     OW20758   1.412   2.329  14.771 -0.2522 -0.3239  0.3950
 3099SOL    HW120759   1.461   2.247  14.772  0.3415  0.0492  2.5416
 3099SOL    HW220760   1.376   2.334  14.683 -0.0473 -1.5853  0.2416
 3100SOL     OW20761   3.699   0.162   3.062 -0.2066 -0.0752 -0.1273
 3100SOL    HW120762   3.657   0.169   2.976 -2.3812  0.5993  0.9905
 3100SOL    HW220763   3.791   0.170   3.037 -0.3444 -0.6344 -0.8131
 3101SOL     OW20764   3.972   3.080   4.439  0.1307 -0.5180  0.5480
 3101SOL    HW120765   4.027   3.150   4.475 -0.0094 -2.1016  3.8628
 3101SOL    HW220766   3.922   3.116   4.366  0.5868 -0.0530  0.4635
 3102SOL     OW20767   2.761   2.719   4.578  0.3747 -0.5848  0.9011
 3102SOL    HW120768   2.666   2.714   4.569  0.3159  0.6262  0.8757
 3102SOL    HW220769   2.790   2.711   4.487  0.9592  1.0824  0.9378
 3103SOL     OW20770   1.269   2.809   3.726  0.1762  0.2475  0.2863
 3103SOL    HW120771   1.354   2.852   3.718 -0.3737  0.7814 -2.8497
 3103SOL    HW220772   1.248   2.791   3.634 -1.6465 -3.6489  1.5154
 3104SOL     OW20773   4.035   2.049   5.954 -0.0678  0.0013 -0.0105
 3104SOL    HW120774   4.004   2.078   5.869  0.4632  1.1558  0.1808
 3104SOL    HW220775   4.058   2.129   6.003  3.1328 -0.7177 -0.3700
 3105SOL     OW20776   1.879   3.172   7.359  0.3239 -0.4172 -0.5491
 3105SOL    HW120777   1.792   3.133   7.354 -0.5401  1.6360 -1.1956
 3105SOL    HW220778   1.933   3.097   7.332 -2.0146 -1.3562 -2.6060
 3106SOL     OW20779   3.218   0.447  15.590  0.4920  0.1074  0.4605
 3106SOL    HW120780   3.187   0.537  15.587 -0.6605 -0.2663  1.1584
 3106SOL    HW220781   3.311   0.456  15.569  0.0235  1.8942 -0.8747
 3107SOL     OW20782   0.562   0.764   9.143  0.5990  0.5831  0.3709
 3107SOL    HW120783   0.500   0.830   9.174 -0.7090 -1.0296  1.1368
 3107SOL    HW220784   0.501   0.692   9.131 -0.2797  1.2534  0.9067
 3108SOL     OW20785   1.658   1.909   3.344  0.1536 -0.1400  0.4137
 3108SOL    HW120786   1.691   1.948   3.262  1.6883  1.2484  1.6740
 3108SOL    HW220787   1.627   1.826   3.309  0.6337 -0.1150 -0.0678
 3109SOL     OW20788   0.960   3.010   7.807 -0.1415 -0.3400 -0.2125
 3109SOL    HW120789   0.993   2.976   7.725  1.2631  2.2419 -0.7088
 3109SOL    HW220790   0.871   3.042   7.787  0.0447  0.4856  0.2534
 3110SOL     OW20791   3.764   3.249   5.819  0.1114 -0.1068 -0.5218
 3110SOL    HW120792   3.750   3.154   5.817  1.5180 -0.3380  0.4619
 3110SOL    HW220793   3.718   3.276   5.740  1.6744  3.0498 -0.3355
 3111SOL     OW20794   3.330   1.417   7.701 -0.8066  0.3641  0.0992
 3111SOL    HW120795   3.376   1.393   7.620 -0.4222  1.3819  0.0024
 3111SOL    HW220796   3.254   1.362   7.685  1.0487 -1.9879 -0.5361
 3112SOL     OW20797   0.936   0.508  14.374  0.1405 -0.3101 -0.7330
 3112SOL    HW120798   0.871   0.445  14.344 -2.2505  1.3541  0.9298
 3112SOL    HW220799   0.947   0.481  14.465  0.6449  3.2351  0.2633
 3113SOL     OW20800   0.918   0.783   4.979 -0.2851 -0.2000 -0.2899
 3113SOL    HW120801   0.988   0.754   4.920  0.0978  0.9638 -0.4226
 3113SOL    HW220802   0.967   0.828   5.048  0.8361 -0.6006 -0.8252
 3114SOL     OW20803   0.210   3.372  14.784  0.9868 -0.3832  0.6653
 3114SOL    HW120804   0.255   3.348  14.703 -0.4313  0.4796 -0.3816
 3114SOL    HW220805   0.272   3.428  14.830  0.0300  0.0762  1.4069
 3115SOL     OW20806   3.881   1.710   3.644  0.0277 -0.2695  0.0772
 3115SOL    HW120807   3.806   1.767   3.661  1.3346  1.6946 -0.7060
 3115SOL    HW220808   3.918   1.757   3.569 -1.1663  2.1575  1.0424
 3116SOL     OW20809   0.374   1.584   6.569 -0.0113  0.3578 -0.1360
 3116SOL    HW120810   0.360   1.634   6.489  1.6904  1.3755  0.2069
 3116SOL    HW220811   0.460   1.543   6.556 -0.4776 -0.3958 -0.8677
 3117SOL     OW20812   1.872   0.466   1.733 -0.0195 -0.1648  0.2464
 3117SOL    HW120813   1.907   0.381   1.757  2.4538  0.6921 -0.3917
 3117SOL    HW220814   1.869   0.461   1.638 -1.4699  0.8510  0.2353
 3118SOL     OW20815   0.871   1.046   1.076  0.2502  0.2806  0.0766
 3118SOL    HW120816   0.825   1.052   0.992 -2.1222 -0.0677  1.3804
 3118SOL    HW220817   0.801   1.069   1.137  1.2610  4.4653 -0.3400
 3119SOL     OW20818   0.368   2.479   6.609 -0.3322 -0.2538 -0.1773
 3119SOL    HW120819   0.394   2.416   6.542 -1.4410 -0.8517 -0.0474
 3119SOL    HW220820   0.381   2.432   6.692 -0.3930 -0.6889 -0.4145
 3120SOL     OW20821   2.127   3.189   6.903  0.0001  0.9463  0.5415
 3120SOL    HW120822   2.112   3.272   6.949  0.3269  0.0721  2.2397
 3120SOL    HW220823   2.044   3.150   6.931 -0.1634 -0.2835 -1.6983
 3121SOL     OW20824   3.357   4.542   2.090  0.2304  0.0219 -0.0056
 3121SOL    HW120825   3.410   4.512   2.016 -1.7803  2.5374 -2.4769
 3121SOL    HW220826   3.355   4.636   2.070 -1.6882 -0.2833 -1.2344
 3122SOL     OW20827   3.579   2.389   8.243 -0.7664  0.2969  0.2950
 3122SOL    HW120828   3.674   2.404   8.247 -0.5143 -1.4450  0.5145
 3122SOL    HW220829   3.554   2.391   8.335 -0.8597 -1.6881  0.2982
 3123SOL     OW20830   0.427   3.186   9.556 -0.4296 -0.5535  0.2936
 3123SOL    HW120831   0.378   3.111   9.521 -1.3239 -0.3062  1.0200
 3123SOL    HW220832   0.399   3.245   9.486  1.0013 -2.0054 -1.5032
 3124SOL     OW20833   3.188   3.100  17.623  0.3337 -0.7280 -0.0665
 3124SOL    HW120834   3.280   3.082  17.604  1.0775  1.4233  1.6545
 3124SOL    HW220835   3.191   3.116   0.008  1.3396  2.6767 -0.6978
 3125SOL     OW20836   3.662   3.021   8.878  0.0720  0.3848  0.2221
 3125SOL    HW120837   3.571   2.992   8.868 -0.4290  2.5663 -1.7523
 3125SOL    HW220838   3.662   3.060   8.966 -3.2670 -0.4451  0.6015
 3126SOL     OW20839   1.691   0.340   1.926 -0.7055  0.2504 -0.1211
 3126SOL    HW120840   1.669   0.251   1.897 -1.9420  0.7581 -0.7520
 3126SOL    HW220841   1.766   0.354   1.869 -0.2612  1.9553  0.9081
 3127SOL     OW20842   0.680   2.672   8.293 -0.1131  0.2785  0.2600
 3127SOL    HW120843   0.594   2.669   8.250  1.4093 -0.0922 -2.7555
 3127SOL    HW220844   0.668   2.741   8.359 -1.8616 -0.7917  1.0611
 3128SOL     OW20845   2.587   3.523   6.381 -0.2306 -0.1925 -0.2839
 3128SOL    HW120846   2.682   3.530   6.377 -0.2540  0.6492  0.6144
 3128SOL    HW220847   2.553   3.604   6.342  0.9196  0.4983  0.1536
 3129SOL     OW20848   3.529   3.032   5.625 -0.0194  0.2576  0.3343
 3129SOL    HW120849   3.468   2.959   5.634  0.0872  0.0408 -0.6151
 3129SOL    HW220850   3.465   3.102   5.627 -1.6239 -1.1731 -1.2084
 3130SOL     OW20851   2.604   2.000   2.080  0.1581  0.3177  0.3244
 3130SOL    HW120852   2.538   2.054   2.038 -1.2321 -1.6280 -0.0065
 3130SOL    HW220853   2.588   2.031   2.169  0.0723  1.3312 -0.0460
 3131SOL     OW20854   3.698   2.016   2.152 -0.6681  0.0786 -0.2120
 3131SOL    HW120855   3.613   2.044   2.120 -0.7920  0.7527  0.7093
 3131SOL    HW220856   3.757   2.022   2.077  2.7312 -1.7025  2.3107
 3132SOL     OW20857   0.322   1.596   3.700  0.2487  0.4268  0.0262
 3132SOL    HW120858   0.319   1.501   3.695  0.1392  0.3089  2.8135
 3132SOL    HW220859   0.386   1.607   3.629 -0.2184  1.6184 -0.2275
 3133SOL     OW20860   3.015   4.672  10.644 -0.5915  0.6412  0.3176
 3133SOL    HW120861   2.991   0.006  10.574 -0.3518 -0.1394 -0.4499
 3133SOL    HW220862   2.939   4.616  10.653 -1.8340  2.3090  0.2209
 3134SOL     OW20863   3.623   0.913   4.236  0.6509 -0.0239 -0.7374
 3134SOL    HW120864   3.621   0.878   4.325  0.2554  2.0377  0.0622
 3134SOL    HW220865   3.715   0.939   4.231  0.4923  0.4908 -0.9853
 3135SOL     OW20866   1.679   2.921   9.766 -0.0962  0.8206  0.2086
 3135SOL    HW120867   1.584   2.935   9.761  0.2739  2.4990 -1.7367
 3135SOL    HW220868   1.695   2.889   9.678  0.2244  2.3445 -0.2957
 3136SOL     OW20869   2.539   3.453   4.622 -0.2370 -0.1771  0.2591
 3136SOL    HW120870   2.525   3.548   4.629  0.2098 -0.2017  1.4687
 3136SOL    HW220871   2.524   3.440   4.529 -0.4838  0.7477  0.1711
 3137SOL     OW20872   1.814   1.831  10.099 -0.3718  0.0920 -0.1234
 3137SOL    HW120873   1.827   1.777  10.177 -0.0414 -0.3644 -0.4920
 3137SOL    HW220874   1.751   1.895  10.133 -1.5057 -1.2214  0.2683
 3138SOL     OW20875   0.782   2.681   7.690 -0.1888  0.9578 -0.3114
 3138SOL    HW120876   0.860   2.626   7.685 -0.5401  0.6748 -2.6531
 3138SOL    HW220877   0.818   2.754   7.640  0.3835  1.2358  0.5101
 3139SOL     OW20878   4.617   3.673   5.426 -0.2514  0.6644  0.2252
 3139SOL    HW120879   4.709   3.659   5.449 -0.7376  0.5283  2.1070
 3139SOL    HW220880   4.619   3.657   5.332  1.0142  0.6239  0.2552
 3140SOL     OW20881   4.418   1.173  16.278  0.0828 -0.3860  0.3710
 3140SOL    HW120882   4.510   1.186  16.303 -0.4375  1.3949  1.3225
 3140SOL    HW220883   4.401   1.260  16.242  1.2613  0.1355  1.0630
 3141SOL     OW20884   2.409   2.500  15.301 -0.4458  0.2024 -0.4149
 3141SOL    HW120885   2.424   2.483  15.208 -3.6145 -1.9579 -0.5059
 3141SOL    HW220886   2.497   2.469  15.322 -0.5408  0.8591  0.9586
 3142SOL     OW20887   2.691   4.450   4.720  0.0264 -0.5518 -0.2603
 3142SOL    HW120888   2.727   4.362   4.710  0.1884 -0.4225 -0.8538
 3142SOL    HW220889   2.704   4.449   4.815  2.7422 -1.1317 -0.6149
 3143SOL     OW20890   4.575   1.502   1.897  0.0789  0.2114  0.1103
 3143SOL    HW120891   4.539   1.482   1.811  0.3753  1.7404 -0.3596
 3143SOL    HW220892   4.510   1.564   1.931 -0.7020 -0.7998  0.4603
 3144SOL     OW20893   3.294   1.054  15.115  0.8107  0.1597 -0.4135
 3144SOL    HW120894   3.224   0.991  15.135 -0.4807  1.7134 -0.0516
 3144SOL    HW220895   3.266   1.073  15.026 -0.1250 -0.6343 -0.2965
 3145SOL     OW20896   2.208   1.611   8.503 -0.4743 -0.0502 -0.4368
 3145SOL    HW120897   2.253   1.659   8.433  0.3110  0.4171  0.3956
 3145SOL    HW220898   2.141   1.574   8.445 -3.1566  0.9528  1.9603
 3146SOL     OW20899   2.668   3.434   1.722 -0.0574  0.7009  0.3216
 3146SOL    HW120900   2.670   3.447   1.627 -0.2512  0.9038  0.3434
 3146SOL    HW220901   2.758   3.411   1.742  0.0702  1.0690  0.1789
 3147SOL     OW20902   0.757   2.962   3.913  0.5337 -0.3448 -0.2655
 3147SOL    HW120903   0.757   2.870   3.939 -0.3665  0.5181  2.7975
 3147SOL    HW220904   0.681   2.991   3.963  0.2292 -0.4195 -0.6797
 3148SOL     OW20905   1.744   2.665  14.345 -0.1671 -0.4133  0.6995
 3148SOL    HW120906   1.655   2.699  14.350 -0.1715 -0.6167  2.0238
 3148SOL    HW220907   1.724   2.577  14.377 -0.3946 -1.0280 -1.1472
 3149SOL     OW20908   2.430   1.308   3.592  0.3110  0.3254 -0.2816
 3149SOL    HW120909   2.406   1.377   3.655  1.7734  0.9471 -0.4021
 3149SOL    HW220910   2.362   1.245   3.615  1.3517 -1.0426 -0.9564
 3150SOL     OW20911   1.311   1.730   0.018 -0.2012 -0.2880  0.1957
 3150SOL    HW120912   1.241   1.753  17.666  1.8086  0.3598 -1.8343
 3150SOL    HW220913   1.273   1.761   0.101 -0.3175  1.7372 -0.6157
 3151SOL     OW20914   1.256   3.253   2.723 -0.4542 -0.1192 -0.0793
 3151SOL    HW120915   1.329   3.314   2.714 -1.5075  0.7667 -2.5007
 3151SOL    HW220916   1.291   3.172   2.685  0.2099 -0.1362  0.5766
 3152SOL     OW20917   3.405   2.597   6.010  0.3600 -0.3931 -0.7458
 3152SOL    HW120918   3.452   2.679   5.997 -0.7227  0.3468 -0.0183
 3152SOL    HW220919   3.375   2.598   6.101 -0.6387 -1.3033 -1.0568
 3153SOL     OW20920   0.580   4.120   5.529 -0.1512  0.5097  0.6415
 3153SOL    HW120921   0.597   4.107   5.435  0.0645  1.4040  0.5544
 3153SOL    HW220922   0.661   4.169   5.544 -0.9183  1.4279  1.7398
 3154SOL     OW20923   1.097   3.421  11.993  0.3838  0.4983 -0.3441
 3154SOL    HW120924   1.085   3.329  11.968 -0.2216  0.5997 -0.4170
 3154SOL    HW220925   1.127   3.409  12.083  0.3144 -1.6930 -0.6105
 3155SOL     OW20926   2.335   1.317   8.221 -0.3229 -0.1394 -0.0260
 3155SOL    HW120927   2.392   1.383   8.261 -0.4622  0.5410 -0.9613
 3155SOL    HW220928   2.300   1.362   8.144  2.0806  3.6874  1.1140
 3156SOL     OW20929   4.574   3.231   3.805 -0.2872  0.1847 -0.5022
 3156SOL    HW120930   4.638   3.239   3.735 -0.5719 -1.2661 -0.9302
 3156SOL    HW220931   4.533   3.147   3.783 -1.0750  0.5888 -0.6079
 3157SOL     OW20932   3.755   1.350   0.754 -0.1261 -0.7466  0.0273
 3157SOL    HW120933   3.728   1.405   0.827 -0.9896  0.8361 -1.4716
 3157SOL    HW220934   3.828   1.403   0.719 -1.3591  0.2022 -1.1101
 3158SOL     OW20935   3.005   1.442   5.992  0.0097 -0.0244 -0.3486
 3158SOL    HW120936   2.988   1.361   5.945 -2.5183  1.7482 -2.4888
 3158SOL    HW220937   3.034   1.507   5.928 -1.6173  0.1498 -0.9146
 3159SOL     OW20938   1.997   1.647   5.662  0.3115 -0.1166 -0.5562
 3159SOL    HW120939   1.984   1.573   5.604 -1.7460  0.0549 -0.3424
 3159SOL    HW220940   1.984   1.617   5.752  2.0663  0.3628 -0.1380
 3160SOL     OW20941   1.819   1.980  13.748  0.7523 -0.0793 -0.5730
 3160SOL    HW120942   1.873   2.055  13.721  2.0469 -0.3822  1.1305
 3160SOL    HW220943   1.889   1.933  13.794 -0.8577 -3.6690 -1.8065
 3161SOL     OW20944   4.050   0.138  15.031  0.5229  0.1522  0.2774
 3161SOL    HW120945   4.079   0.126  14.941 -1.6496 -2.5099 -0.0585
 3161SOL    HW220946   4.118   0.194  15.068 -0.8781  0.9607  1.6401
 3162SOL     OW20947   3.463   1.640   9.162  0.0263  0.0735  0.2987
 3162SOL    HW120948   3.556   1.619   9.171  0.1922  1.0758  0.8283
 3162SOL    HW220949   3.462   1.726   9.204  1.8100 -0.7624  2.0500
 3163SOL     OW20950   2.406   0.165  15.198  0.6528  0.5350 -0.1870
 3163SOL    HW120951   2.438   0.252  15.174 -0.2922  1.1065  0.6523
 3163SOL    HW220952   2.384   0.170  15.291  0.6188  1.6284 -0.2596
 3164SOL     OW20953   1.618   3.644   9.206 -0.7630 -0.1740  0.3874
 3164SOL    HW120954   1.585   3.648   9.295 -0.4620  0.5971  0.4703
 3164SOL    HW220955   1.709   3.615   9.219 -0.2557  0.6750 -1.1864
 3165SOL     OW20956   0.721   1.435   2.253  0.4023 -0.1656  0.2103
 3165SOL    HW120957   0.805   1.394   2.231  0.6179  0.7538 -0.7058
 3165SOL    HW220958   0.738   1.449   2.346 -0.3693 -1.3267  0.5240
 3166SOL     OW20959   1.873   4.331   7.856 -0.3247 -0.4205  0.4870
 3166SOL    HW120960   1.866   4.295   7.944 -0.3493 -3.1336 -0.6257
 3166SOL    HW220961   1.938   4.274   7.815 -0.0200 -1.4799  2.4745
 3167SOL     OW20962   1.416   2.088  16.064 -0.7392  0.2243  0.4130
 3167SOL    HW120963   1.438   1.995  16.074  2.3011  1.0018  0.8943
 3167SOL    HW220964   1.503   2.127  16.065  0.2211 -1.9051  1.3260
 3168SOL     OW20965   3.334   3.694  12.900 -0.3148 -0.0132 -0.2757
 3168SOL    HW120966   3.339   3.713  12.994  2.2895  0.9145 -0.6065
 3168SOL    HW220967   3.239   3.694  12.885 -0.0911 -3.3150 -1.8332
 3169SOL     OW20968   1.239   1.032   5.703 -0.0825  0.1879  0.0341
 3169SOL    HW120969   1.265   1.123   5.713 -2.8217  1.0499 -0.5489
 3169SOL    HW220970   1.147   1.045   5.678  0.7687  1.7907 -2.1926
 3170SOL     OW20971   0.406   0.469  11.369  0.2254  0.3885 -0.1716
 3170SOL    HW120972   0.375   0.520  11.294 -1.5561  0.8301  0.8601
 3170SOL    HW220973   0.390   0.384  11.328 -0.7234 -0.0976  1.2083
 3171SOL     OW20974   1.538   3.315  16.072  0.3573 -0.6093 -0.0765
 3171SOL    HW120975   1.553   3.368  16.150 -0.5877 -0.9676  0.3505
 3171SOL    HW220976   1.583   3.372  16.011  0.3736  0.1556  0.6608
 3172SOL     OW20977   1.748   2.818   4.058  0.0153 -0.5442 -0.1168
 3172SOL    HW120978   1.744   2.728   4.091 -3.4805 -0.0462  0.8696
 3172SOL    HW220979   1.685   2.817   3.986 -1.5381  2.1438  1.1981
 3173SOL     OW20980   0.392   0.270   8.428  0.2378 -0.3329  0.7491
 3173SOL    HW120981   0.469   0.327   8.422  0.9192 -1.1956  1.2055
 3173SOL    HW220982   0.422   0.201   8.487 -0.1877  0.0424  1.4102
 3174SOL     OW20983   0.845   4.178   7.603 -0.2635 -0.2687 -0.2110
 3174SOL    HW120984   0.828   4.087   7.624 -0.1014 -0.3305 -0.3407
 3174SOL    HW220985   0.856   4.177   7.508 -0.8292  0.8028 -0.2958
 3175SOL     OW20986   4.331   2.375   8.801 -0.0248  0.8692  0.2155
 3175SOL    HW120987   4.405   2.396   8.858  1.1689 -1.2366 -0.5470
 3175SOL    HW220988   4.333   2.459   8.755  3.0184  0.7613  0.1782
 3176SOL     OW20989   2.082   1.860   8.174  0.2557  0.2813 -0.2769
 3176SOL    HW120990   2.012   1.809   8.215 -1.7563  4.0442  0.9272
 3176SOL    HW220991   2.027   1.932   8.144  1.2362  1.0420 -0.2253
 3177SOL     OW20992   0.125   3.636   9.151  0.3601 -0.5596 -0.6855
 3177SOL    HW120993   0.093   3.554   9.115  0.2056 -0.4911 -0.7047
 3177SOL    HW220994   0.130   3.698   9.078 -3.2198  0.0808 -0.3892
 3178SOL     OW20995   1.889   4.423  11.809 -0.4394 -0.1152 -0.5056
 3178SOL    HW120996   1.907   4.447  11.718 -0.2730 -0.4406 -0.5592
 3178SOL    HW220997   1.920   4.333  11.807 -1.8555 -0.6201  0.1453
 3179SOL     OW20998   1.349   1.559   9.596  0.3978  0.2426 -0.6608
 3179SOL    HW120999   1.314   1.517   9.675 -1.8231  1.5591 -0.9611
 3179SOL    HW221000   1.299   1.508   9.532  1.4643  1.8570 -2.7803
 3180SOL     OW21001   1.379   4.094   7.391 -0.0928  0.3498 -0.2452
 3180SOL    HW121002   1.443   4.040   7.437 -1.1761 -0.3051  0.4746
 3180SOL    HW221003   1.323   4.126   7.461  0.6038 -0.5939  0.7519
 3181SOL     OW21004   4.226   1.890   6.406 -0.0656 -0.3796  0.2356
 3181SOL    HW121005   4.297   1.912   6.345  0.6444 -0.9506  0.8503
 3181SOL    HW221006   4.157   1.895   6.340  0.0923 -1.5750 -0.0334
 3182SOL     OW21007   1.888   1.911   9.400 -0.3628 -0.4131 -0.7603
 3182SOL    HW121008   1.859   1.839   9.456  2.0773  0.4784  1.6375
 3182SOL    HW221009   1.845   1.894   9.316  1.8129 -0.7659 -1.8002
 3183SOL     OW21010   2.306   2.122  13.967 -0.4286  0.4614  0.1298
 3183SOL    HW121011   2.261   2.113  14.051 -0.9610  0.1794 -0.1886
 3183SOL    HW221012   2.397   2.107  13.992 -0.3325  0.7551 -0.0370
 3184SOL     OW21013   1.782   0.874   0.072  0.0725  0.2250 -0.0237
 3184SOL    HW121014   1.763   0.781   0.076 -3.1737  0.8909  0.3299
 3184SOL    HW221015   1.867   0.868   0.029  0.4227 -0.7757  0.8179
 3185SOL     OW21016   2.806   1.207   8.735 -1.1997 -0.2306 -0.1052
 3185SOL    HW121017   2.734   1.261   8.701  1.3125  3.3513  0.3118
 3185SOL    HW221018   2.840   1.163   8.656  2.2205  2.1866  0.0501
 3186SOL     OW21019   1.953   1.643  16.429 -0.2195 -0.3051  0.0678
 3186SOL    HW121020   1.989   1.566  16.383 -1.9005 -1.0574  0.0038
 3186SOL    HW221021   2.036   1.688  16.445  0.2602 -0.9121 -0.6918
 3187SOL     OW21022   1.842   1.128   9.927  0.3328  0.1939  0.2062
 3187SOL    HW121023   1.912   1.080   9.882 -0.7501 -2.6530  1.5848
 3187SOL    HW221024   1.763   1.109   9.876 -0.2964  0.3648  1.1207
 3188SOL     OW21025   4.607   0.603   2.806  0.2409  0.5460 -0.1057
 3188SOL    HW121026   4.531   0.639   2.851 -1.3106 -0.5521 -1.8620
 3188SOL    HW221027   4.598   0.507   2.807 -2.2093  0.7607 -1.1718
 3189SOL     OW21028   3.275   0.975   0.066  0.1189  0.3398 -0.5752
 3189SOL    HW121029   3.318   0.900   0.025  2.5280  0.0975  2.4730
 3189SOL    HW221030   3.346   1.037   0.078 -2.8923  4.1983 -2.4805
 3190SOL     OW21031   2.956   2.109   2.412  0.4966  0.1422  0.2776
 3190SOL    HW121032   2.915   2.064   2.338  1.2966 -2.4522  1.4127
 3190SOL    HW221033   3.020   2.040   2.431  0.9406  0.8950  1.4693
 3191SOL     OW21034   0.944   0.050   3.931 -0.3740  0.0576 -0.1580
 3191SOL    HW121035   1.023   0.098   3.904 -0.2874 -0.5451 -0.9964
 3191SOL    HW221036   0.950   0.061   4.026  1.8801  1.5077 -0.4403
 3192SOL     OW21037   4.562   2.368   0.517 -0.2350 -0.0066  0.4739
 3192SOL    HW121038   4.577   2.345   0.426  3.6917  0.3345  1.0679
 3192SOL    HW221039   4.539   2.286   0.561  2.6170  0.4448  2.8093
 3193SOL     OW21040   3.998   2.329   2.766  0.1266  0.1834 -0.4377
 3193SOL    HW121041   3.962   2.318   2.678  0.3588  1.5778 -0.6972
 3193SOL    HW221042   3.950   2.257   2.808  0.9982  0.0782  0.3681
 3194SOL     OW21043   1.117   1.475   6.299  0.2607  0.6171  0.3087
 3194SOL    HW121044   1.119   1.422   6.220 -1.3762 -2.4775  2.3630
 3194SOL    HW221045   1.173   1.550   6.280  1.1346  0.2343  1.3035
 3195SOL     OW21046   4.592   0.469   7.926  0.1508  0.0681 -0.1127
 3195SOL    HW121047   4.509   0.434   7.893  1.1704 -0.4024 -2.1700
 3195SOL    HW221048   4.560   0.476   8.017  1.1588  1.6095  0.1088
 3196SOL     OW21049   0.798   4.254   8.983  0.0263 -0.4809 -0.0417
 3196SOL    HW121050   0.814   4.291   9.070 -1.2723 -1.6032  0.6764
 3196SOL    HW221051   0.776   4.165   9.009  1.7181 -0.8489  0.1028
 3197SOL     OW21052   0.305   1.251  15.279 -0.1564 -0.0405 -0.1079
 3197SOL    HW121053   0.342   1.163  15.271 -0.9030 -0.3244 -0.3853
 3197SOL    HW221054   0.218   1.222  15.306  0.3321 -0.7332  0.7251
 3198SOL     OW21055   0.229   1.051  12.840  0.1986 -0.4373 -0.4830
 3198SOL    HW121056   0.153   1.109  12.832  2.9683  3.2259 -0.2695
 3198SOL    HW221057   0.232   1.009  12.754  1.8063 -1.0307 -0.1348
 3199SOL     OW21058   0.157   3.732  12.071 -0.4316  0.4561  0.1538
 3199SOL    HW121059   0.190   3.744  11.982 -2.5784 -1.5660 -0.9309
 3199SOL    HW221060   0.065   3.747  12.049  0.4704  2.1727 -2.4795
 3200SOL     OW21061   1.149   1.511   7.580  0.5632  0.2122 -0.7201
 3200SOL    HW121062   1.127   1.418   7.574  1.1619 -0.1316  2.3036
 3200SOL    HW221063   1.085   1.535   7.647 -1.5779 -0.6942 -2.4764
 3201SOL     OW21064   1.216   4.107   8.086  0.5536 -0.2673 -0.1167
 3201SOL    HW121065   1.241   4.172   8.151 -0.4769 -1.2172  1.2213
 3201SOL    HW221066   1.207   4.033   8.146 -4.8943 -0.3821 -1.0519
 3202SOL     OW21067   2.283   0.616  12.873 -0.4685 -0.2911 -0.8803
 3202SOL    HW121068   2.231   0.686  12.834  0.0104  0.0815 -0.8518
 3202SOL    HW221069   2.257   0.537  12.826  0.5840  0.2953 -2.4502
 3203SOL     OW21070   1.678   2.479   2.942  0.1324  0.6361 -0.1042
 3203SOL    HW121071   1.771   2.491   2.964  0.5427  0.7642 -1.8782
 3203SOL    HW221072   1.638   2.514   3.022  2.5411  2.7707  0.1979
 3204SOL     OW21073   1.748   1.353   6.943 -0.5703 -0.5352  0.0817
 3204SOL    HW121074   1.733   1.414   7.015 -2.4940 -1.2703  0.3214
 3204SOL    HW221075   1.762   1.268   6.984  0.9045  0.8875  2.4923
 3205SOL     OW21076   3.841   0.303   4.312  0.0419 -0.0138 -0.3803
 3205SOL    HW121077   3.764   0.272   4.359 -0.5358 -0.7968 -1.8675
 3205SOL    HW221078   3.801   0.306   4.226  0.1056  1.8118 -0.3352
 3206SOL     OW21079   0.939   1.897  11.750  0.2779  0.0409  0.5012
 3206SOL    HW121080   0.941   1.818  11.695 -2.4050 -1.1779  2.1440
 3206SOL    HW221081   0.910   1.959  11.683 -0.9633  1.4333  2.3213
 3207SOL     OW21082   2.826   3.777   9.251  0.1076 -0.2060  0.1555
 3207SOL    HW121083   2.882   3.700   9.263 -0.8192 -0.9099 -0.0883
 3207SOL    HW221084   2.833   3.817   9.338 -2.4321  1.9923 -0.6563
 3208SOL     OW21085   3.631   2.137   1.668 -0.0630  0.1634  0.4468
 3208SOL    HW121086   3.687   2.061   1.651 -1.1742 -0.4810 -0.3084
 3208SOL    HW221087   3.695   2.208   1.666 -0.5135  0.5673  0.5221
 3209SOL     OW21088   2.857   0.518   6.698 -0.1146  0.3166 -0.1823
 3209SOL    HW121089   2.869   0.438   6.648  0.3980 -0.1610  0.6881
 3209SOL    HW221090   2.832   0.570   6.622  0.2697 -0.7857 -1.0546
 3210SOL     OW21091   1.241   4.170  11.836  0.4634  0.1866  0.6450
 3210SOL    HW121092   1.194   4.086  11.832 -2.1512  1.7439 -1.3117
 3210SOL    HW221093   1.172   4.220  11.880  1.0278  1.0068  0.5980
 3211SOL     OW21094   3.419   2.730   4.171  0.0110  0.1573 -0.0258
 3211SOL    HW121095   3.342   2.685   4.136  0.1613  1.2599 -1.8210
 3211SOL    HW221096   3.409   2.807   4.115 -1.8934  0.4543  0.7325
 3212SOL     OW21097   4.424   2.764   3.606  0.7547  0.0349 -0.1168
 3212SOL    HW121098   4.455   2.674   3.616 -1.7570 -0.6911  1.2442
 3212SOL    HW221099   4.487   2.803   3.546  0.8154  0.5169  0.2599
 3213SOL     OW21100   3.575   2.121   0.894  0.5823 -0.4633 -0.0732
 3213SOL    HW121101   3.490   2.162   0.908  0.5864  0.0947 -1.7014
 3213SOL    HW221102   3.584   2.129   0.799 -0.5420  1.4010 -0.0272
 3214SOL     OW21103   2.467   2.427   2.720  0.3008 -0.4565  0.2062
 3214SOL    HW121104   2.373   2.440   2.734  0.3307  0.2836 -0.3062
 3214SOL    HW221105   2.492   2.518   2.734 -0.6737 -0.3758  1.4365
 3215SOL     OW21106   1.906   2.616   3.071  0.0005 -0.0408 -0.3314
 3215SOL    HW121107   1.989   2.650   3.037  0.8261 -0.2251  1.4955
 3215SOL    HW221108   1.932   2.541   3.124 -0.4626 -1.2986 -1.9166
 3216SOL     OW21109   3.823   4.703  13.283  0.1860  0.2173 -0.2096
 3216SOL    HW121110   3.729   4.693  13.297  0.0534 -0.5669 -1.5622
 3216SOL    HW221111   3.861   4.697  13.370 -0.3256  0.7588  0.0533
 3217SOL     OW21112   2.138   4.080   4.280  0.1724  0.2432  0.3782
 3217SOL    HW121113   2.194   4.049   4.351 -0.4283 -1.0953  0.2742
 3217SOL    HW221114   2.181   4.033   4.208 -1.3069 -1.8304  0.8451
 3218SOL     OW21115   1.292   2.395   3.983  0.0557  0.5572 -0.6699
 3218SOL    HW121116   1.278   2.489   3.974 -1.5146  0.2467 -1.3870
 3218SOL    HW221117   1.253   2.372   4.068  0.6829 -0.4193 -0.6510
 3219SOL     OW21118   2.113   3.416   8.662 -0.5861  0.1254 -0.6739
 3219SOL    HW121119   2.031   3.465   8.662  0.5626  2.0405  1.5518
 3219SOL    HW221120   2.173   3.489   8.646  0.1008 -0.3675 -0.3265
 3220SOL     OW21121   4.000   2.398   5.243 -0.2614  0.2735  0.3354
 3220SOL    HW121122   3.959   2.371   5.325 -0.0886  0.5816  0.5255
 3220SOL    HW221123   3.949   2.478   5.225 -0.1777  0.1173 -0.6129
 3221SOL     OW21124   2.971   4.149  13.835  0.0452 -0.3606  0.3406
 3221SOL    HW121125   2.929   4.082  13.889  0.0626 -1.4517 -0.9893
 3221SOL    HW221126   2.986   4.221  13.897  1.2458  0.6605 -1.1328
 3222SOL     OW21127   2.838   1.994  17.411  0.6148 -0.1297  0.5040
 3222SOL    HW121128   2.846   2.036  17.497 -0.6142  0.5322  0.2918
 3222SOL    HW221129   2.778   2.052  17.364 -1.7253 -3.0533 -0.1466
 3223SOL     OW21130   4.314   4.605   6.725 -0.4606 -1.0209 -0.5198
 3223SOL    HW121131   4.241   4.559   6.765 -1.5654  0.5109 -0.7786
 3223SOL    HW221132   4.333   4.559   6.643  1.3859  0.6493 -1.0550
 3224SOL     OW21133   0.465   2.340  14.122 -0.1135  0.1577 -0.6446
 3224SOL    HW121134   0.425   2.299  14.199 -0.1128  0.0362 -0.7101
 3224SOL    HW221135   0.469   2.429  14.157 -4.2767  0.5327 -1.1165
 3225SOL     OW21136   3.965   1.539   4.221 -0.2294 -0.5521 -0.3342
 3225SOL    HW121137   4.035   1.603   4.223 -0.9034  0.1286  1.8747
 3225SOL    HW221138   4.005   1.465   4.267 -1.1709 -1.6474 -1.2524
 3226SOL     OW21139   1.765   4.613   0.632 -0.0257 -0.0212  0.6001
 3226SOL    HW121140   1.722   4.693   0.661 -1.1217 -0.3313 -0.1999
 3226SOL    HW221141   1.722   4.587   0.551  1.3322  1.1153 -0.4676
 3227SOL     OW21142   2.340   4.687  12.235  0.3333 -0.2156 -0.0690
 3227SOL    HW121143   2.346   4.701  12.141  2.2402 -2.1464 -0.2245
 3227SOL    HW221144   2.251   4.720  12.249  0.0674 -0.5562 -0.9769
 3228SOL     OW21145   2.533   0.656   8.957  0.3312 -0.1213  0.2261
 3228SOL    HW121146   2.445   0.633   8.928  0.8188 -0.1641 -1.2073
 3228SOL    HW221147   2.536   0.752   8.960 -0.5250 -0.1450  2.3039
 3229SOL     OW21148   0.238   0.452  10.007  0.4713  0.1777  0.1778
 3229SOL    HW121149   0.299   0.396  10.055 -0.7344 -0.3245  1.1141
 3229SOL    HW221150   0.193   0.487  10.084  2.1186 -2.0017  2.1285
 3230SOL     OW21151   1.403   1.128   4.755 -0.4841  0.4033 -0.2207
 3230SOL    HW121152   1.445   1.075   4.687  0.7820  1.4074 -0.2309
 3230SOL    HW221153   1.374   1.209   4.713 -0.4366  2.1134  3.0819
 3231SOL     OW21154   2.079   2.397   5.133  0.1017  0.1379 -0.1546
 3231SOL    HW121155   2.009   2.417   5.194 -0.2065 -1.5242  0.0064
 3231SOL    HW221156   2.131   2.327   5.171  1.9915  1.5432 -0.0954
 3232SOL     OW21157   3.548   2.719   5.278  0.0186 -0.4095 -0.1242
 3232SOL    HW121158   3.467   2.673   5.299  0.2975 -1.3651 -1.1783
 3232SOL    HW221159   3.521   2.780   5.209  0.7209 -1.8553 -1.6773
 3233SOL     OW21160   3.292   0.085   9.044  0.3762  0.5143  0.2414
 3233SOL    HW121161   3.216   0.061   8.990  1.9387 -0.6391 -1.4584
 3233SOL    HW221162   3.266   0.057   9.132  1.6310 -1.7749 -0.1080
 3234SOL     OW21163   1.453   2.554  17.128 -0.2691  0.2255  0.4492
 3234SOL    HW121164   1.395   2.478  17.119  0.3665 -0.4152  1.8705
 3234SOL    HW221165   1.440   2.604  17.047 -1.8062 -0.6770  0.1234
 3235SOL     OW21166   4.288   0.469   2.539 -0.5834  0.0187  0.4262
 3235SOL    HW121167   4.299   0.564   2.541 -4.1989  0.4676 -0.0463
 3235SOL    HW221168   4.214   0.471   2.477 -0.1497 -1.2529 -0.1523
 3236SOL     OW21169   2.698   2.789  10.093 -0.0753 -0.4701  0.0936
 3236SOL    HW121170   2.771   2.774  10.034 -0.4377  3.6330 -1.4111
 3236SOL    HW221171   2.663   2.701  10.102 -1.1392  0.0840  1.4214
 3237SOL     OW21172   1.775   1.196   1.739 -0.2739  0.1042  0.2571
 3237SOL    HW121173   1.766   1.290   1.722 -2.9759 -0.2656 -0.2962
 3237SOL    HW221174   1.868   1.182   1.722 -0.2597  1.0222 -0.4430
 3238SOL     OW21175   1.455   0.223   2.717 -0.5967  0.0546 -0.2497
 3238SOL    HW121176   1.517   0.295   2.728 -0.6912  0.2670 -1.1965
 3238SOL    HW221177   1.508   0.156   2.675  0.7255  2.2540 -2.0263
 3239SOL     OW21178   0.264   4.145   6.494  0.0231 -0.0443  0.2332
 3239SOL    HW121179   0.342   4.133   6.440 -0.0880  0.9345 -0.1438
 3239SOL    HW221180   0.311   4.188   6.565 -0.2490  1.2328 -0.3634
 3240SOL     OW21181   1.845   3.656   3.236 -0.3856  0.0416  0.0613
 3240SOL    HW121182   1.754   3.672   3.211 -0.2347 -0.6605 -0.9512
 3240SOL    HW221183   1.878   3.619   3.153 -1.0271 -0.3582 -0.0152
 3241SOL     OW21184   1.821   4.011   4.829  0.2121 -0.6449  0.0034
 3241SOL    HW121185   1.755   4.080   4.820  0.1115 -0.8101 -0.5324
 3241SOL    HW221186   1.859   4.028   4.915  1.1557  0.6558 -0.6720
 3242SOL     OW21187   1.852   3.217  10.089  0.4638  0.2705  0.0451
 3242SOL    HW121188   1.779   3.278  10.091 -0.8101 -1.2437  0.3500
 3242SOL    HW221189   1.910   3.256  10.155  2.7163 -1.6705 -0.7771
 3243SOL     OW21190   1.706   2.480   5.571  0.5159  0.8829  0.0619
 3243SOL    HW121191   1.649   2.519   5.504 -2.2853 -0.5398  1.6558
 3243SOL    HW221192   1.696   2.386   5.558 -0.4475  0.9350  0.3883
 3244SOL     OW21193   0.518   0.701  13.199  0.0460 -0.0647  0.2266
 3244SOL    HW121194   0.532   0.707  13.105 -1.6648 -0.9822 -0.0974
 3244SOL    HW221195   0.539   0.789  13.230 -0.4836 -0.8560  2.8947
 3245SOL     OW21196   2.813   3.423   9.079  0.1028 -0.2819  0.1991
 3245SOL    HW121197   2.822   3.344   9.132  1.3042  0.1121  0.5783
 3245SOL    HW221198   2.866   3.476   9.138 -1.7093  2.5561 -0.7362
 3246SOL     OW21199   4.299   3.435  14.815  0.0425  0.3728  0.1264
 3246SOL    HW121200   4.365   3.405  14.751  0.2136  1.6994 -0.3188
 3246SOL    HW221201   4.250   3.489  14.753 -0.2208 -1.4055 -1.2246
 3247SOL     OW21202   3.715   4.205  10.641 -0.3641 -0.1794  0.0754
 3247SOL    HW121203   3.640   4.151  10.665 -0.4238 -0.9369 -1.7937
 3247SOL    HW221204   3.722   4.187  10.547  0.1903  0.7793 -0.0690
 3248SOL     OW21205   2.213   2.240   1.776 -0.3418  0.3736 -0.0229
 3248SOL    HW121206   2.263   2.307   1.728 -1.0847  1.5903  0.9130
 3248SOL    HW221207   2.126   2.280   1.770 -0.7955 -0.7876 -1.1757
 3249SOL     OW21208   0.991   2.582   4.340  0.3468 -0.4406  0.2275
 3249SOL    HW121209   0.991   2.555   4.432 -2.8618 -0.9569  0.0960
 3249SOL    HW221210   0.896   2.575   4.325  0.1841  3.1616 -0.5395
 3250SOL     OW21211   2.380   4.472   5.672 -0.3147  0.1202  0.2651
 3250SOL    HW121212   2.395   4.417   5.749  0.8380  0.1220  0.0396
 3250SOL    HW221213   2.360   4.562   5.698 -0.1905  0.1801  0.1576
 3251SOL     OW21214   1.651   0.227   7.015  0.1029 -0.0251 -0.2503
 3251SOL    HW121215   1.606   0.171   7.078 -1.1685  0.9114 -0.3248
 3251SOL    HW221216   1.628   0.185   6.933  0.7526 -1.9928  0.5765
 3252SOL     OW21217   3.388   4.350   3.144  0.3858  0.2953  0.2488
 3252SOL    HW121218   3.311   4.404   3.162 -0.1826 -1.7621  4.0161
 3252SOL    HW221219   3.372   4.324   3.053  1.8276 -2.3683  0.7373
 3253SOL     OW21220   1.455   3.814  14.236 -0.2452  0.1827 -0.1664
 3253SOL    HW121221   1.532   3.870  14.227 -0.6365  0.7886  0.3165
 3253SOL    HW221222   1.459   3.764  14.317  1.7946  1.4810  0.5355
 3254SOL     OW21223   1.713   4.172   5.850 -0.2194 -0.7343 -0.6342
 3254SOL    HW121224   1.790   4.116   5.867 -0.4054 -1.1067 -1.0068
 3254SOL    HW221225   1.638   4.131   5.892 -1.1563  0.0756 -1.5129
 3255SOL     OW21226   3.504   2.256   3.797  0.4466 -0.1054 -0.7795
 3255SOL    HW121227   3.516   2.252   3.892 -3.6399 -0.4314 -0.2503
 3255SOL    HW221228   3.522   2.347   3.775  0.7556  0.1523  0.5493
 3256SOL     OW21229   1.333   4.430   5.965 -0.0758 -0.1834 -0.3515
 3256SOL    HW121230   1.332   4.484   5.885  4.1216  1.8501  0.9187
 3256SOL    HW221231   1.334   4.506   6.024 -1.2723 -0.5826  0.1783
 3257SOL     OW21232   0.577   4.526   2.571  0.1950 -0.3115  0.1266
 3257SOL    HW121233   0.496   4.552   2.614  0.5464 -1.3185  1.3851
 3257SOL    HW221234   0.573   4.440   2.614  0.5359 -0.8206 -0.8375
 3258SOL     OW21235   2.094   0.962  13.405 -0.1139 -0.2806  0.1246
 3258SOL    HW121236   2.141   1.023  13.348 -3.0616  2.1925  0.2601
 3258SOL    HW221237   2.142   0.880  13.403 -3.9010 -2.5264  0.0572
 3259SOL     OW21238   1.484   0.412   8.845  0.0018 -0.8409  0.4715
 3259SOL    HW121239   1.512   0.364   8.923  1.5672  2.0521  1.7139
 3259SOL    HW221240   1.400   0.448   8.872  0.8136  1.9438 -0.6691
 3260SOL     OW21241   2.511   4.221   7.452  0.0548  0.6622 -0.1864
 3260SOL    HW121242   2.516   4.129   7.426 -0.4247 -0.0378  2.1615
 3260SOL    HW221243   2.506   4.260   7.365 -3.0884  1.1258  0.2073
 3261SOL     OW21244   4.507   1.883  13.545 -0.3637 -0.0737 -0.1130
 3261SOL    HW121245   4.596   1.883  13.581 -0.0449  0.7048 -0.8993
 3261SOL    HW221246   4.525   1.877  13.451  3.8210  1.3876  0.6209
 3262SOL     OW21247   2.194   1.245  17.421  0.1937  0.3519 -0.3020
 3262SOL    HW121248   2.194   1.324  17.367  2.1432  0.3560 -0.2821
 3262SOL    HW221249   2.103   1.214  17.419  1.3000 -2.9832  1.5301
 3263SOL     OW21250   1.078   4.570   5.734 -0.0640  0.4285 -0.4621
 3263SOL    HW121251   1.040   4.504   5.676  1.5283 -0.9454  0.0752
 3263SOL    HW221252   1.172   4.555   5.725 -0.4387 -1.9402 -0.4199
 3264SOL     OW21253   1.461   4.246   8.908 -0.0855  0.1329  0.1596
 3264SOL    HW121254   1.499   4.240   8.995  0.4404  0.0349 -0.0756
 3264SOL    HW221255   1.531   4.297   8.868 -0.8370 -0.4447 -1.8930
 3265SOL     OW21256   2.232   2.565  11.002  0.3169 -0.0405 -0.2772
 3265SOL    HW121257   2.275   2.512  11.069  1.1973  1.3890  0.2769
 3265SOL    HW221258   2.184   2.495  10.957  0.2725  0.5124 -1.0722
 3266SOL     OW21259   0.300   4.487   6.742 -0.5432 -0.5208 -0.3672
 3266SOL    HW121260   0.384   4.466   6.782 -1.6298  0.2930  2.3572
 3266SOL    HW221261   0.319   4.576   6.711  3.0915 -1.1466  0.0185
 3267SOL     OW21262   1.026   2.177   6.144 -0.0202  0.4469  0.4734
 3267SOL    HW121263   1.004   2.220   6.227  1.0297  0.3666  0.7941
 3267SOL    HW221264   0.963   2.226   6.091  1.9479  1.4589 -0.9495
 3268SOL     OW21265   0.813   0.806   9.452 -0.2825 -0.0008 -0.0479
 3268SOL    HW121266   0.736   0.833   9.502  0.6007 -2.0250  2.4031
 3268SOL    HW221267   0.829   0.718   9.485 -2.0101 -0.3044 -0.0342
 3269SOL     OW21268   1.147   4.255   6.624  0.4250  0.0490 -0.3504
 3269SOL    HW121269   1.135   4.251   6.719  0.3363  0.0518 -0.3614
 3269SOL    HW221270   1.060   4.219   6.606  0.4663  0.5684 -1.5426
 3270SOL     OW21271   1.027   2.378   3.217  0.2448 -0.3115  0.0772
 3270SOL    HW121272   1.056   2.290   3.194  2.1374  0.5997 -1.0305
 3270SOL    HW221273   0.954   2.392   3.157 -0.5065  0.9953  1.3029
 3271SOL     OW21274   0.046   2.468   0.658 -0.3275 -0.1446  0.0397
 3271SOL    HW121275   0.125   2.414   0.648 -0.8462 -0.6851 -1.1125
 3271SOL    HW221276   4.709   2.416   0.611  0.1558  1.5728 -2.5068
 3272SOL     OW21277   4.019   3.181  12.528  0.9039 -0.1034 -0.3917
 3272SOL    HW121278   4.063   3.120  12.469  0.0813 -1.2739  0.1816
 3272SOL    HW221279   4.088   3.213  12.585  0.2355 -2.5714  1.8385
 3273SOL     OW21280   0.758   0.208   3.760  0.8159 -0.3501 -0.0779
 3273SOL    HW121281   0.746   0.146   3.688  0.2975 -0.5601  0.1829
 3273SOL    HW221282   0.816   0.157   3.817  1.5426  0.0249 -0.4889
 3274SOL     OW21283   0.915   1.221   7.012  0.1315  0.0561  0.6754
 3274SOL    HW121284   0.825   1.237   6.985  1.1313 -0.3288 -2.9238
 3274SOL    HW221285   0.952   1.175   6.937 -0.2407 -0.9276  1.0996
 3275SOL     OW21286   4.188   0.128   6.376  0.5023  0.7172 -0.5518
 3275SOL    HW121287   4.279   0.097   6.368 -0.3147 -1.9925  0.6265
 3275SOL    HW221288   4.195   0.184   6.453  1.4585  0.8106 -0.7013
 3276SOL     OW21289   3.600   3.291   7.366  0.1995 -0.0090  0.2972
 3276SOL    HW121290   3.667   3.321   7.304 -0.6762  1.0299 -0.1418
 3276SOL    HW221291   3.541   3.367   7.365 -1.4644 -1.3466 -1.1865
 3277SOL     OW21292   1.021   0.013   6.001  0.0508  0.0209  0.0478
 3277SOL    HW121293   0.987   4.686   5.929 -0.8284 -0.6777  0.9845
 3277SOL    HW221294   0.951   0.018   6.066 -0.8200  0.4393 -0.9179
 3278SOL     OW21295   0.246   2.443   8.176 -0.0048  0.0372  0.0160
 3278SOL    HW121296   0.207   2.359   8.154  0.3421  0.1964 -1.2004
 3278SOL    HW221297   0.171   2.502   8.185  1.1450  1.4749  0.2944
 3279SOL     OW21298   3.999   4.204   4.871 -0.0232 -0.2491 -0.8916
 3279SOL    HW121299   3.985   4.242   4.958  2.1303  1.3524 -1.2334
 3279SOL    HW221300   3.939   4.249   4.811  2.8316  0.5568 -3.1081
 3280SOL     OW21301   3.577   2.269  13.676 -0.8600 -0.2607 -1.1962
 3280SOL    HW121302   3.581   2.342  13.615  1.2431 -0.3657 -1.1781
 3280SOL    HW221303   3.483   2.269  13.692 -0.6389  1.2471  0.0299
 3281SOL     OW21304   1.404   3.665   6.434  0.0213 -0.5292 -0.2636
 3281SOL    HW121305   1.403   3.649   6.340 -2.2130 -0.8688 -0.1666
 3281SOL    HW221306   1.399   3.761   6.440 -0.2016 -0.4408 -2.0245
 3282SOL     OW21307   2.931   2.387  15.142 -0.2834 -0.4600 -0.1366
 3282SOL    HW121308   2.987   2.463  15.126 -1.6477  0.0088 -2.5766
 3282SOL    HW221309   2.862   2.414  15.082  0.2049  1.6378  0.2411
 3283SOL     OW21310   4.331   3.267   4.384 -0.3004  0.0558 -0.1563
 3283SOL    HW121311   4.354   3.359   4.398 -0.8719  0.1853 -0.0592
 3283SOL    HW221312   4.265   3.253   4.453  0.3088  0.4871  0.5134
 3284SOL     OW21313   2.726   4.199   4.155  0.1805  0.0371  0.1363
 3284SOL    HW121314   2.779   4.183   4.076  0.8374 -1.6129  0.9135
 3284SOL    HW221315   2.769   4.141   4.218  1.8271  1.1554  0.0525
 3285SOL     OW21316   2.551   0.893   7.823 -0.1649  0.0863  0.1888
 3285SOL    HW121317   2.492   0.833   7.870 -0.9742  1.4357  0.8885
 3285SOL    HW221318   2.627   0.898   7.881 -1.5035  2.5306  1.7739
 3286SOL     OW21319   0.997   0.391   6.503 -0.7638 -0.7722 -0.1156
 3286SOL    HW121320   1.037   0.375   6.588  2.1269  3.6324 -0.6305
 3286SOL    HW221321   0.985   0.300   6.475  0.0641 -0.4013 -1.7136
 3287SOL     OW21322   1.918   3.444  17.332  0.9974  0.2864  0.2442
 3287SOL    HW121323   1.931   3.538  17.318  0.4542  0.2268 -0.6905
 3287SOL    HW221324   1.927   3.415  17.241  0.9086 -2.4897  1.1034
 3288SOL     OW21325   4.137   1.526   0.250 -0.0086 -0.6058 -0.3076
 3288SOL    HW121326   4.120   1.432   0.248 -1.1973 -0.4424  1.2314
 3288SOL    HW221327   4.074   1.548   0.319  0.1752 -1.9374  0.2879
 3289SOL     OW21328   1.451   4.675   5.254 -0.4623 -0.3504 -0.0577
 3289SOL    HW121329   1.436   4.687   5.348  1.3174  2.4500 -0.1659
 3289SOL    HW221330   1.508   0.017   5.221 -3.4799  2.5825  0.8811
 3290SOL     OW21331   3.442   0.643   1.180  0.8319 -0.1196  0.3072
 3290SOL    HW121332   3.348   0.654   1.196  0.8953  1.1570 -0.1881
 3290SOL    HW221333   3.441   0.678   1.091 -1.5242 -0.5364  0.1513
 3291SOL     OW21334   3.934   0.978   5.895  0.0426  0.2594  0.2726
 3291SOL    HW121335   3.859   0.922   5.914 -0.4381 -0.0476 -2.5291
 3291SOL    HW221336   3.906   0.977   5.803  0.8693 -0.5875  0.0210
 3292SOL     OW21337   1.920   0.571   6.167 -0.4039  0.5917  0.0421
 3292SOL    HW121338   1.961   0.656   6.175 -1.1651  1.0215 -0.5927
 3292SOL    HW221339   1.833   0.596   6.136 -0.4475  0.0695 -0.2691
 3293SOL     OW21340   0.205   3.625   6.955  0.3214  0.5328 -0.2892
 3293SOL    HW121341   0.111   3.645   6.952  0.8933  2.5746 -3.8848
 3293SOL    HW221342   0.206   3.586   6.868 -1.5341 -1.0172  0.3668
 3294SOL     OW21343   1.886   0.098   6.783  0.6110 -0.0938 -0.1904
 3294SOL    HW121344   1.921   0.185   6.768  0.1292  0.0841 -0.2805
 3294SOL    HW221345   1.922   0.057   6.704 -1.8221  1.9260 -2.3366
 3295SOL     OW21346   3.259   1.271   1.867  0.3474 -0.5271 -0.4437
 3295SOL    HW121347   3.244   1.357   1.828 -2.1505 -1.0590 -0.6539
 3295SOL    HW221348   3.177   1.260   1.916 -0.1123 -1.4286 -1.4170
 3296SOL     OW21349   3.935   0.489  14.242 -0.5511 -0.0797 -0.2942
 3296SOL    HW121350   3.966   0.503  14.153  2.0764  1.1249  0.7924
 3296SOL    HW221351   3.992   0.543  14.297 -2.9277  0.9866  1.0846
 3297SOL     OW21352   2.762   2.676   2.110  0.4922  0.2458 -0.1006
 3297SOL    HW121353   2.710   2.636   2.180  1.1591  2.1418  1.4825
 3297SOL    HW221354   2.727   2.765   2.111 -1.7728 -0.6786  3.2016
 3298SOL     OW21355   2.119   4.663   7.601 -0.1201  0.0031  0.2068
 3298SOL    HW121356   2.211   4.653   7.576 -0.8979  0.0367 -2.6836
 3298SOL    HW221357   2.116   4.630   7.690 -0.5130  0.8104  0.4900
 3299SOL     OW21358   3.793   3.616  17.424  0.1233 -0.2535  0.0924
 3299SOL    HW121359   3.885   3.615  17.449 -0.3470  1.6062  1.9413
 3299SOL    HW221360   3.797   3.691  17.365  2.7553  0.1167  0.7509
 3300SOL     OW21361   1.906   0.574   7.399 -0.4917  0.6069 -0.3580
 3300SOL    HW121362   1.996   0.580   7.366 -0.3993 -1.1136 -0.4263
 3300SOL    HW221363   1.880   0.504   7.339 -0.6634 -0.7581  1.2874
 3301SOL     OW21364   2.054   2.482   0.942  0.0160  0.1830  0.4527
 3301SOL    HW121365   2.056   2.408   0.882 -2.3780  1.3470 -1.0694
 3301SOL    HW221366   2.030   2.437   1.024  1.7495 -0.4199  0.6383
 3302SOL     OW21367   0.769   2.323   8.651  0.4485 -0.3857 -0.0620
 3302SOL    HW121368   0.839   2.274   8.608  1.0875 -1.6606  2.4109
 3302SOL    HW221369   0.729   2.248   8.695 -0.1509 -0.8532 -1.4145
 3303SOL     OW21370   0.878   1.751   4.693 -0.4150  0.2686 -0.5264
 3303SOL    HW121371   0.908   1.712   4.611  0.1354 -1.4398  0.5072
 3303SOL    HW221372   0.886   1.678   4.754 -2.0560 -1.3737 -2.2605
 3304SOL     OW21373   2.564   3.478  17.461 -0.1523  0.4315 -0.0273
 3304SOL    HW121374   2.581   3.508  17.371 -1.2666 -1.4122 -0.8676
 3304SOL    HW221375   2.592   3.387  17.454 -0.8711  0.2032  0.0955
 3305SOL     OW21376   2.915   1.359   5.611 -0.1854 -0.2210 -0.4364
 3305SOL    HW121377   2.863   1.392   5.538 -1.7439  0.7426  1.1177
 3305SOL    HW221378   2.845   1.334   5.672 -0.1578  3.5704  1.1558
 3306SOL     OW21379   3.889   3.360   2.878 -0.0445  0.2091 -0.3554
 3306SOL    HW121380   3.903   3.421   2.805  0.1383 -1.3339 -1.5967
 3306SOL    HW221381   3.793   3.360   2.879 -0.0511  1.3164 -0.2490
 3307SOL     OW21382   1.128   0.824  13.390  0.1876 -0.0859  0.4629
 3307SOL    HW121383   1.129   0.873  13.472 -2.6787 -1.7832  1.5263
 3307SOL    HW221384   1.123   0.896  13.327 -0.4297 -0.9599 -0.4853
 3308SOL     OW21385   2.253   4.169   3.038 -0.4980 -0.0487 -0.3660
 3308SOL    HW121386   2.259   4.119   3.119 -1.6419 -0.9776 -0.8507
 3308SOL    HW221387   2.163   4.143   3.016 -0.0678 -2.2232  0.4607
 3309SOL     OW21388   2.015   4.197   7.316 -0.2059 -0.5694  0.1623
 3309SOL    HW121389   1.923   4.174   7.303 -0.4973 -0.0072  1.2159
 3309SOL    HW221390   2.052   4.186   7.229  0.1662 -1.4478  0.4266
 3310SOL     OW21391   0.851   2.734   3.632 -0.6325 -0.2314 -0.6972
 3310SOL    HW121392   0.765   2.725   3.674  0.2482 -1.8983  0.7276
 3310SOL    HW221393   0.843   2.659   3.573 -3.1331 -0.8603  0.4135
 3311SOL     OW21394   1.537   0.120   3.648  0.3684  0.5330 -0.3789
 3311SOL    HW121395   1.572   0.094   3.562  0.4320  0.4323 -0.3217
 3311SOL    HW221396   1.567   0.048   3.702 -0.2496  1.3791  1.0849
 3312SOL     OW21397   1.935   2.411   7.041  0.1472 -1.4434 -0.0034
 3312SOL    HW121398   1.947   2.338   6.980 -0.2237  0.0615 -1.8661
 3312SOL    HW221399   1.927   2.371   7.128 -1.5108  1.2034  1.0612
 3313SOL     OW21400   1.334   4.130   4.709  0.8259 -0.1655  0.0485
 3313SOL    HW121401   1.349   4.077   4.631 -2.5875  0.3097 -0.9326
 3313SOL    HW221402   1.239   4.145   4.704  0.7365 -0.0152  2.0567
 3314SOL     OW21403   3.087   4.206   3.670  0.5094 -0.4817  0.7312
 3314SOL    HW121404   3.030   4.130   3.658  1.7023 -1.3473  0.5682
 3314SOL    HW221405   3.040   4.269   3.615  0.4421  0.1537  1.5177
 3315SOL     OW21406   3.581   3.905   4.089 -0.3358 -0.0635  0.4244
 3315SOL    HW121407   3.501   3.954   4.066 -1.8972 -2.1334  1.4445
 3315SOL    HW221408   3.599   3.953   4.170  1.3473  0.3640 -0.2138
 3316SOL     OW21409   0.086   4.704   8.032  0.2610 -0.1138  0.5841
 3316SOL    HW121410   0.145   4.719   8.106  1.0126 -3.3664  0.6348
 3316SOL    HW221411   0.132   4.647   7.970 -0.5974 -0.6691  0.4629
 3317SOL     OW21412   3.673   0.853   6.849  0.4607 -0.3719 -0.5666
 3317SOL    HW121413   3.723   0.773   6.834 -0.0952 -0.5315 -1.6262
 3317SOL    HW221414   3.701   0.887   6.933  1.0857 -0.2512 -0.8211
 3318SOL     OW21415   3.975   0.520  12.848 -0.3419  0.4174  0.0849
 3318SOL    HW121416   3.926   0.513  12.930  0.6912 -1.5943  0.5383
 3318SOL    HW221417   3.914   0.474  12.789 -0.9446 -0.7609  1.6373
 3319SOL     OW21418   0.140   4.655   9.984 -0.4725 -0.0462  0.5852
 3319SOL    HW121419   0.059   4.605   9.992 -0.2628 -0.6149 -1.0018
 3319SOL    HW221420   0.178   4.639  10.070  1.3838 -1.0076 -0.4241
 3320SOL     OW21421   1.345   3.343  16.979  0.4503  0.5061 -0.4924
 3320SOL    HW121422   1.410   3.413  16.971  1.2318 -0.2963 -1.1993
 3320SOL    HW221423   1.398   3.264  16.975 -2.6638 -1.5814 -0.5758
 3321SOL     OW21424   3.887   4.437   5.413  0.5458 -0.4441  0.1480
 3321SOL    HW121425   3.856   4.486   5.337  1.4390 -0.3766 -0.1693
 3321SOL    HW221426   3.810   4.416   5.467  0.5340 -0.9112 -0.0492
 3322SOL     OW21427   1.792   2.832   4.544 -0.1265  0.0248  0.3566
 3322SOL    HW121428   1.755   2.754   4.504 -0.8866 -0.1793  1.4573
 3322SOL    HW221429   1.861   2.795   4.598 -0.7171 -2.0340 -0.3214
 3323SOL     OW21430   1.349   2.636  16.581  0.0975  0.0129 -0.2689
 3323SOL    HW121431   1.377   2.674  16.498  3.1002 -0.0224  0.7233
 3323SOL    HW221432   1.437   2.635  16.620 -0.7003  0.7975  1.5617
 3324SOL     OW21433   1.851   1.953   4.769  0.0136 -0.0605  0.7452
 3324SOL    HW121434   1.932   1.993   4.739  0.4240 -1.1250  0.4095
 3324SOL    HW221435   1.868   1.877   4.713 -0.9825 -0.7500  1.3668
 3325SOL     OW21436   3.704   4.228   2.012 -0.1387 -0.1255  0.0299
 3325SOL    HW121437   3.749   4.307   2.044 -2.6253  1.3523 -0.1416
 3325SOL    HW221438   3.778   4.210   1.953  0.6175  0.5965  0.7486
 3326SOL     OW21439   3.768   1.689   2.643  0.2947 -0.4499  0.1626
 3326SOL    HW121440   3.775   1.601   2.607 -1.3077  0.1541 -1.6002
 3326SOL    HW221441   3.756   1.744   2.566  0.9957 -0.8431 -0.2322
 3327SOL     OW21442   0.214   3.818   3.887 -0.1800  0.1131 -0.4062
 3327SOL    HW121443   0.190   3.908   3.866 -0.7497 -0.1667 -0.9412
 3327SOL    HW221444   0.160   3.759   3.834 -1.0340  0.7540 -0.2519
 3328SOL     OW21445   2.040   1.667  10.080 -0.7566 -0.2458  0.2886
 3328SOL    HW121446   1.964   1.716  10.051 -0.0774  0.7021  0.1081
 3328SOL    HW221447   2.049   1.602  10.010  1.2686 -0.5507  0.8194
 3329SOL     OW21448   4.219   3.713   7.690  0.1220  0.2757  0.6185
 3329SOL    HW121449   4.216   3.618   7.674  2.0448  0.0646  1.4730
 3329SOL    HW221450   4.130   3.734   7.663  0.1849 -0.0285  0.1713
 3330SOL     OW21451   1.159   2.494  13.768 -0.3262  0.4699 -0.6629
 3330SOL    HW121452   1.079   2.546  13.772 -0.1433  0.7650 -0.7975
 3330SOL    HW221453   1.225   2.563  13.760  0.3670 -0.2643 -1.2951
 3331SOL     OW21454   0.022   0.370   7.024  0.0438 -0.3686  0.4017
 3331SOL    HW121455   0.079   0.428   7.075 -2.2564 -0.0445  2.6491
 3331SOL    HW221456   0.024   0.295   7.084  0.1298  0.2495  1.1784
 3332SOL     OW21457   2.312   1.465   3.234  0.1652  0.0641 -0.1433
 3332SOL    HW121458   2.324   1.414   3.153  0.2214  2.0550 -1.3778
 3332SOL    HW221459   2.287   1.390   3.288 -1.4627  2.1830  2.0559
 3333SOL     OW21460   1.327   3.123   9.518  0.2642  0.0011 -0.6532
 3333SOL    HW121461   1.289   3.148   9.434  0.8913 -3.4620 -1.9650
 3333SOL    HW221462   1.385   3.197   9.536 -0.7023  0.4829  0.4798
 3334SOL     OW21463   3.849   1.294  17.541 -0.0837 -0.5695  0.0145
 3334SOL    HW121464   3.785   1.223  17.532 -0.8952 -0.0133  1.4315
 3334SOL    HW221465   3.812   1.332  17.620 -0.8033 -0.7759 -0.2262
 3335SOL     OW21466   1.182   3.572   2.947 -0.0719 -0.3787  0.1715
 3335SOL    HW121467   1.151   3.534   3.029  2.7000 -2.3488  0.3197
 3335SOL    HW221468   1.094   3.580   2.910  0.8513 -1.7168 -2.3075
 3336SOL     OW21469   2.266   4.491   3.773 -0.2832  0.2902 -0.2568
 3336SOL    HW121470   2.237   4.511   3.862 -1.0125  0.6399 -0.5740
 3336SOL    HW221471   2.216   4.556   3.724  1.7142  1.2027 -1.1131
 3337SOL     OW21472   4.383   2.026   4.861  0.9008 -0.1651 -0.5832
 3337SOL    HW121473   4.302   2.020   4.913  1.2316 -0.5539 -0.1142
 3337SOL    HW221474   4.412   2.113   4.890 -0.3456 -0.3884  1.3846
 3338SOL     OW21475   1.329   3.159   4.829  0.0929  0.3839  0.2844
 3338SOL    HW121476   1.284   3.080   4.798 -1.4149  0.8756  1.2244
 3338SOL    HW221477   1.397   3.128   4.889  0.8724 -0.4052 -0.9898
 3339SOL     OW21478   1.627   4.176   2.785  0.1229  0.0354  0.7972
 3339SOL    HW121479   1.540   4.192   2.820 -0.0596 -1.3029  0.9448
 3339SOL    HW221480   1.602   4.173   2.692  0.7573 -0.3945  0.6358
 3340SOL     OW21481   3.853   3.178   4.225 -0.1129 -0.2729  0.0741
 3340SOL    HW121482   3.887   3.160   4.138 -0.6540  0.6604 -0.3291
 3340SOL    HW221483   3.761   3.191   4.201  0.3499  0.9585 -0.9998
 3341SOL     OW21484   1.514   0.027   9.503 -0.0305 -0.6240  0.1599
 3341SOL    HW121485   1.455   0.023   9.578  0.1774  2.1972  0.4554
 3341SOL    HW221486   1.504   0.119   9.481  0.6954 -0.9533 -1.5153
 3342SOL     OW21487   2.519   3.175   8.045  0.0318 -0.1848 -0.0633
 3342SOL    HW121488   2.605   3.136   8.026  0.1795  0.1088 -0.0108
 3342SOL    HW221489   2.457   3.119   7.999 -1.5234  1.9461 -0.5826
 3343SOL     OW21490   1.142   4.368  15.759  0.7747 -0.0889  0.2893
 3343SOL    HW121491   1.200   4.440  15.783 -0.8207  1.2010  0.2545
 3343SOL    HW221492   1.186   4.287  15.787  0.3118 -0.1607  0.8070
 3344SOL     OW21493   0.823   0.028  13.433 -0.2783  0.1438 -0.2075
 3344SOL    HW121494   0.769   0.036  13.511  0.7734  0.2193  0.5064
 3344SOL    HW221495   0.889   0.097  13.432 -0.4910  0.3435 -1.5560
 3345SOL     OW21496   1.902   3.107   4.741  0.2699 -0.1065  0.0343
 3345SOL    HW121497   1.944   3.191   4.761 -0.6584  0.0594  1.2507
 3345SOL    HW221498   1.812   3.132   4.761  0.4179 -1.0017  1.8351
 3346SOL     OW21499   0.879   1.144   2.891 -0.3005  0.5736 -0.0777
 3346SOL    HW121500   0.907   1.068   2.839 -0.3925 -0.2640  1.0865
 3346SOL    HW221501   0.871   1.210   2.823  2.4043 -0.4360 -1.3598
 3347SOL     OW21502   0.619   4.039   8.586  0.4762  0.7496 -0.4481
 3347SOL    HW121503   0.604   3.948   8.562  0.3698  0.8837 -0.8863
 3347SOL    HW221504   0.690   4.053   8.523  1.2765 -1.4118 -0.0350
 3348SOL     OW21505   3.286   4.020   3.020  0.1596  0.5107 -0.3472
 3348SOL    HW121506   3.207   3.998   2.970  0.3732  0.6157 -0.7360
 3348SOL    HW221507   3.324   4.097   2.977  2.0008 -0.2673 -0.1102
 3349SOL     OW21508   2.133   4.617  10.441 -0.4209  0.3600  0.1775
 3349SOL    HW121509   2.189   4.689  10.473 -0.1989 -0.6319  2.0282
 3349SOL    HW221510   2.108   4.653  10.356  0.6388  0.4698 -0.0895
 3350SOL     OW21511   1.523   4.367   0.542  0.2658  0.2264  0.3893
 3350SOL    HW121512   1.490   4.295   0.596 -0.3370 -0.4079 -0.8114
 3350SOL    HW221513   1.597   4.321   0.501  0.7705  1.1454  0.2719
 3351SOL     OW21514   3.055   2.629  14.235  0.1989  0.5224  0.4717
 3351SOL    HW121515   2.967   2.602  14.263 -0.8650  2.3468 -1.1226
 3351SOL    HW221516   3.078   2.700  14.294 -0.9147  0.3563  1.1104
 3352SOL     OW21517   1.024   0.568   3.403 -0.0535 -0.6456  0.2444
 3352SOL    HW121518   0.949   0.612   3.362  0.9522 -0.4360 -1.3890
 3352SOL    HW221519   0.971   0.524   3.469 -1.4227  0.1379 -0.3153
 3353SOL     OW21520   4.136   2.886   9.266 -0.2882 -0.1502 -0.3005
 3353SOL    HW121521   4.085   2.965   9.246 -2.9724 -2.1591 -1.4077
 3353SOL    HW221522   4.076   2.818   9.298  0.1319 -1.7968 -3.0029
 3354SOL     OW21523   0.376   4.078  14.412 -0.3953 -0.1422  0.3633
 3354SOL    HW121524   0.372   4.076  14.508 -2.7700 -1.7005  0.2396
 3354SOL    HW221525   0.293   4.109  14.376  1.1794  3.3964 -0.1935
 3355SOL     OW21526   0.065   1.655   5.267 -0.4861  0.4042  0.5214
 3355SOL    HW121527   0.017   1.658   5.350 -0.4451 -0.0635  0.5627
 3355SOL    HW221528   0.057   1.748   5.243  0.1852 -0.1159 -1.7339
 3356SOL     OW21529   1.394   0.959   2.426  0.1938  0.4977 -0.2371
 3356SOL    HW121530   1.448   0.947   2.348  1.3495  0.8807  0.4881
 3356SOL    HW221531   1.338   1.030   2.395 -2.1443 -1.2499  0.0369
 3357SOL     OW21532   1.427   3.211   1.405  0.3060  0.2401  0.2703
 3357SOL    HW121533   1.516   3.197   1.372  0.1448  0.2548 -0.1732
 3357SOL    HW221534   1.386   3.263   1.336 -0.6527  2.1170  2.2708
 3358SOL     OW21535   4.615   1.734  10.611  0.3057  0.5925  0.2847
 3358SOL    HW121536   4.615   1.782  10.694 -1.5600 -0.8834  1.1367
 3358SOL    HW221537   4.690   1.776  10.568  1.4337  0.7120  2.3549
 3359SOL     OW21538   3.656   2.421   5.447  0.1049 -0.8706  0.2826
 3359SOL    HW121539   3.665   2.515   5.465 -0.7423 -0.8421  0.5698
 3359SOL    HW221540   3.577   2.411   5.395  0.2588 -2.9925  0.4606
 3360SOL     OW21541   1.751   0.853   4.790 -0.0369  0.0014  0.0842
 3360SOL    HW121542   1.798   0.896   4.719  1.2064  0.9142  1.4622
 3360SOL    HW221543   1.704   0.926   4.829  0.8569 -0.0826  1.3484
 3361SOL     OW21544   1.852   1.206   5.043  0.1266 -0.4185  0.4427
 3361SOL    HW121545   1.833   1.295   5.016 -1.8368 -0.6463  1.0959
 3361SOL    HW221546   1.779   1.157   5.004  0.2894 -1.4966  1.4793
 3362SOL     OW21547   3.289   1.517   0.441  0.1058  0.2365 -0.2233
 3362SOL    HW121548   3.281   1.583   0.509  2.0486  0.1936  0.0557
 3362SOL    HW221549   3.299   1.574   0.365 -2.5235 -0.8518 -1.4066
 3363SOL     OW21550   1.026   2.758   7.944 -0.5111  0.4373 -0.1338
 3363SOL    HW121551   0.947   2.719   7.982 -0.6428  1.5898  0.7778
 3363SOL    HW221552   1.009   2.851   7.934 -1.8250  0.3755  1.5843
 3364SOL     OW21553   1.591   3.343  10.169 -0.3530 -0.0903  0.0380
 3364SOL    HW121554   1.575   3.410  10.103  0.9559 -1.9374 -2.1314
 3364SOL    HW221555   1.584   3.272  10.106  0.6389 -1.6882  1.6975
 3365SOL     OW21556   2.509   1.346  13.145 -0.6007  0.3873  0.0668
 3365SOL    HW121557   2.472   1.287  13.081 -0.6397 -0.1291  0.5658
 3365SOL    HW221558   2.591   1.299  13.162  0.6189  1.8557 -1.6760
 3366SOL     OW21559   4.367   1.596   7.215 -0.2297  0.6331 -0.3283
 3366SOL    HW121560   4.363   1.676   7.164  1.8969 -0.4818 -2.2203
 3366SOL    HW221561   4.443   1.607   7.272 -2.3010  0.4645  2.5068
 3367SOL     OW21562   0.431   4.237   5.868  0.0429 -0.7524  0.1123
 3367SOL    HW121563   0.525   4.243   5.850 -0.2113  0.2695 -0.8993
 3367SOL    HW221564   0.436   4.272   5.956 -0.2201  0.0308 -0.1848
 3368SOL     OW21565   1.898   2.956   8.451  0.2901 -0.4414  0.4649
 3368SOL    HW121566   1.811   2.997   8.446 -0.0427 -1.2642 -0.4721
 3368SOL    HW221567   1.874   2.865   8.436  1.3258 -0.6324 -0.0266
 3369SOL     OW21568   1.441   0.366   3.562 -0.3340  0.1485  0.5942
 3369SOL    HW121569   1.350   0.393   3.571 -0.4861  0.4658 -1.9920
 3369SOL    HW221570   1.440   0.272   3.582 -0.0785  0.4321  1.9449
 3370SOL     OW21571   4.022   4.210   1.372  0.3188 -0.1573  0.4086
 3370SOL    HW121572   3.928   4.204   1.387 -0.0922  0.3850 -2.0332
 3370SOL    HW221573   4.037   4.273   1.302  2.1326 -0.6978  0.3008
 3371SOL     OW21574   3.897   2.000   1.955  0.0217  0.6204  0.0670
 3371SOL    HW121575   3.864   2.024   1.868  2.1666  0.8178 -0.6977
 3371SOL    HW221576   3.987   2.032   1.949  0.3270 -0.1447  0.5678
 3372SOL     OW21577   1.588   1.347   2.792 -0.0467 -0.2178 -0.5072
 3372SOL    HW121578   1.611   1.279   2.855 -3.7503  0.7668  1.9144
 3372SOL    HW221579   1.517   1.296   2.752 -2.6748  1.9582  1.3727
 3373SOL     OW21580   0.557   0.876   2.876 -0.1046 -0.3874  0.4012
 3373SOL    HW121581   0.498   0.867   2.801  1.3137  0.2220 -0.8038
 3373SOL    HW221582   0.647   0.860   2.848 -0.6382 -1.2482 -0.8457
 3374SOL     OW21583   4.094   2.999   0.967 -0.0803 -0.0872 -0.3416
 3374SOL    HW121584   4.126   3.082   1.003  0.3096 -0.8721  1.1263
 3374SOL    HW221585   4.054   3.029   0.886 -0.0133  1.4519  0.1998
 3375SOL     OW21586   4.030   2.823  10.687  0.3415  0.8756 -0.1097
 3375SOL    HW121587   4.078   2.884  10.631 -0.0242  1.2305 -0.0367
 3375SOL    HW221588   3.941   2.859  10.693  0.3623  0.6330  1.5625
 3376SOL     OW21589   2.582   2.392   6.777 -0.0483  0.2811  0.3012
 3376SOL    HW121590   2.528   2.470   6.787 -0.9778 -0.1712 -1.1546
 3376SOL    HW221591   2.571   2.366   6.685 -0.9873 -1.0715  0.7943
 3377SOL     OW21592   4.317   0.513   3.436  0.1130  0.1779  0.0025
 3377SOL    HW121593   4.405   0.497   3.400  0.3458  2.7653 -0.5569
 3377SOL    HW221594   4.311   0.604   3.408  1.0122  0.4514  0.7185
 3378SOL     OW21595   2.139   0.619   1.400  0.1443 -0.1286 -0.6636
 3378SOL    HW121596   2.180   0.624   1.314  2.1012 -1.7251  0.1979
 3378SOL    HW221597   2.186   0.552   1.450 -2.8690 -1.0635  0.9642
 3379SOL     OW21598   0.021   2.638   4.945  0.5620  0.1806  0.1974
 3379SOL    HW121599   0.036   2.568   5.009  1.5123 -0.7621 -1.0674
 3379SOL    HW221600   0.041   2.597   4.861  1.1457  2.5481 -0.8116
 3380SOL     OW21601   1.629   4.151  10.381 -0.2319  0.1838 -0.2138
 3380SOL    HW121602   1.637   4.245  10.368  0.2918  0.2097  0.2952
 3380SOL    HW221603   1.700   4.144  10.445 -0.5874 -0.6512  0.0923
 3381SOL     OW21604   3.695   3.116  11.954 -0.0633  0.1729 -0.1658
 3381SOL    HW121605   3.647   3.071  11.884 -0.7959  0.5301  0.1097
 3381SOL    HW221606   3.784   3.081  11.954 -0.7861 -1.6225  0.8244
 3382SOL     OW21607   2.443   1.247   7.100  0.6223  0.2552 -0.4515
 3382SOL    HW121608   2.488   1.224   7.019  0.4647  0.3754 -0.5746
 3382SOL    HW221609   2.456   1.341   7.113  1.8793 -0.3951  3.0625
 3383SOL     OW21610   1.262   0.142   5.879  0.1825 -0.0923 -0.4809
 3383SOL    HW121611   1.200   0.092   5.933  0.4545  1.5789  1.3420
 3383SOL    HW221612   1.200   0.194   5.828 -0.4297 -1.4081 -1.0961
 3384SOL     OW21613   3.457   0.771   1.436  0.2732 -0.5205  1.2525
 3384SOL    HW121614   3.539   0.723   1.448  0.3907 -0.8001 -0.7034
 3384SOL    HW221615   3.416   0.731   1.359 -0.3841  0.5417  1.0627
 3385SOL     OW21616   0.757   3.740   7.894  0.2343  0.8038 -0.3333
 3385SOL    HW121617   0.670   3.749   7.935  0.4059 -2.1638  0.7050
 3385SOL    HW221618   0.762   3.646   7.878  0.7318  0.4230  1.9747
 3386SOL     OW21619   4.226   0.360  14.853 -0.3295  0.5083 -0.7458
 3386SOL    HW121620   4.205   0.418  14.780 -0.4972 -1.0565 -1.9459
 3386SOL    HW221621   4.163   0.387  14.920  0.6221  0.4992  0.1722
 3387SOL     OW21622   4.007   0.320   8.815  0.1674  0.2402  0.3226
 3387SOL    HW121623   3.944   0.256   8.851  0.5620  0.1390  0.8313
 3387SOL    HW221624   4.071   0.262   8.773  0.0371 -0.8813  1.6581
 3388SOL     OW21625   3.949   0.479   7.767 -0.7488  0.6134 -0.0337
 3388SOL    HW121626   4.014   0.549   7.764 -1.0621  0.9426  1.0321
 3388SOL    HW221627   4.008   0.407   7.744 -0.8997  0.4588  0.0616
 3389SOL     OW21628   2.253   3.092   3.038  0.2055  0.1600 -0.3697
 3389SOL    HW121629   2.161   3.066   3.048  0.6384 -1.6389 -1.1135
 3389SOL    HW221630   2.271   3.125   3.127 -2.7445 -0.1895  0.3653
 3390SOL     OW21631   0.717   2.545   2.719 -0.2370  0.3588 -0.8092
 3390SOL    HW121632   0.701   2.463   2.672 -0.1557 -0.4311  0.5559
 3390SOL    HW221633   0.810   2.566   2.711 -0.4970  2.4820  1.9385
 3391SOL     OW21634   2.960   3.751   7.632 -0.4704  0.3153 -0.1675
 3391SOL    HW121635   3.012   3.693   7.688 -0.5487 -0.4596 -0.8908
 3391SOL    HW221636   3.027   3.784   7.572 -3.3553 -1.1623 -4.2889
 3392SOL     OW21637   4.504   1.782   2.986 -0.2928  0.1169  0.0801
 3392SOL    HW121638   4.476   1.859   3.036  1.3151 -0.6412  2.1784
 3392SOL    HW221639   4.491   1.716   3.054 -1.0229 -0.8510 -1.0079
 3393SOL     OW21640   0.104   2.985  11.805  0.2693  0.4559  0.3591
 3393SOL    HW121641   0.116   3.056  11.869 -1.6961  2.8667 -1.9414
 3393SOL    HW221642   0.053   2.923  11.857 -1.3478 -0.3150 -2.1880
 3394SOL     OW21643   4.095   0.790  15.798 -0.2159  0.0168 -0.0060
 3394SOL    HW121644   4.045   0.868  15.821 -2.7878 -1.4587 -0.6281
 3394SOL    HW221645   4.027   0.725  15.816  0.8285 -1.1677 -0.3531
 3395SOL     OW21646   0.980   1.348   4.685  0.2785 -0.0182 -0.3880
 3395SOL    HW121647   1.004   1.304   4.766  1.6061  0.9482 -0.2778
 3395SOL    HW221648   0.887   1.327   4.674 -0.0080  1.2437 -0.3356
 3396SOL     OW21649   3.466   2.740   8.943  0.4478  0.2586 -0.1243
 3396SOL    HW121650   3.524   2.720   9.016  1.8923  2.8282 -0.5873
 3396SOL    HW221651   3.386   2.691   8.964 -0.9073  2.4807 -0.1376
 3397SOL     OW21652   4.677   3.435   3.969 -0.3379 -0.1789  0.5975
 3397SOL    HW121653   0.017   3.369   3.981 -0.0992 -0.0603 -0.1032
 3397SOL    HW221654   4.612   3.386   3.918  1.2404 -1.1328 -0.4779
 3398SOL     OW21655   4.084   3.101   5.714 -0.3819  0.8806 -0.4648
 3398SOL    HW121656   4.068   3.164   5.785 -0.6049  0.7727 -0.4184
 3398SOL    HW221657   3.998   3.090   5.673 -0.5527 -0.1019  0.1536
 3399SOL     OW21658   4.196   4.292   2.116  0.1138 -0.0770  0.3871
 3399SOL    HW121659   4.233   4.374   2.085  0.0141  0.5538  1.9553
 3399SOL    HW221660   4.217   4.300   2.209  1.6113 -0.0335  0.0392
 3400SOL     OW21661   4.368   2.125   8.103 -0.0889  0.3792  0.5810
 3400SOL    HW121662   4.276   2.129   8.075 -0.3372  1.0357  1.4646
 3400SOL    HW221663   4.383   2.214   8.136  1.0019  0.8172 -1.1357
 3401SOL     OW21664   2.070   1.109  15.630 -0.1351 -0.2172 -0.4124
 3401SOL    HW121665   2.136   1.138  15.692 -2.5794  0.2618  1.9611
 3401SOL    HW221666   2.107   1.024  15.609 -0.3864 -0.6627  0.9837
 3402SOL     OW21667   3.693   3.581   7.465  0.2309  0.0572  0.4913
 3402SOL    HW121668   3.730   3.651   7.411 -3.2789  0.7348 -1.0595
 3402SOL    HW221669   3.631   3.536   7.407  1.2726  0.4945 -0.9593
 3403SOL     OW21670   2.534   0.107   3.701 -0.0979  0.1533 -1.1851
 3403SOL    HW121671   2.518   0.200   3.713 -0.9376 -0.3582  1.5206
 3403SOL    HW221672   2.509   0.074   3.787  0.9160 -0.3695 -1.0785
 3404SOL     OW21673   4.146   3.660   5.387  0.2200 -0.4004  0.5943
 3404SOL    HW121674   4.232   3.700   5.377 -0.5420  1.2316  0.6751
 3404SOL    HW221675   4.164   3.581   5.335  0.3081  1.3907 -2.0634
 3405SOL     OW21676   2.782   0.158   6.830  0.2491 -0.0510 -0.1481
 3405SOL    HW121677   2.823   0.218   6.768  0.1055 -1.0067 -1.1850
 3405SOL    HW221678   2.808   0.076   6.787 -0.2522 -1.0664  1.4745
 3406SOL     OW21679   1.804   4.074  11.602  0.7973  0.0927  0.0547
 3406SOL    HW121680   1.763   4.156  11.575 -0.7648 -0.1762  1.5555
 3406SOL    HW221681   1.769   4.020  11.531  0.8453 -0.4211  0.4216
 3407SOL     OW21682   2.872   0.357  11.325 -0.8488  0.5727  0.2596
 3407SOL    HW121683   2.938   0.390  11.264  1.1656 -0.1216  2.0705
 3407SOL    HW221684   2.891   0.419  11.396  2.3075  1.3669 -1.2716
 3408SOL     OW21685   0.086   2.797   2.739  0.2247 -0.4234  0.5177
 3408SOL    HW121686   0.062   2.705   2.744  0.1532 -0.3797  0.9438
 3408SOL    HW221687   0.044   2.823   2.657 -0.7467 -0.6584  0.9400
 3409SOL     OW21688   4.105   2.936   6.200  0.1839  0.1954  0.3218
 3409SOL    HW121689   4.073   2.980   6.279  1.9406 -0.7927  1.5879
 3409SOL    HW221690   4.040   2.966   6.137 -1.0093 -1.9679  0.5105
 3410SOL     OW21691   2.164   0.091   5.965  0.0940 -0.1548 -0.2406
 3410SOL    HW121692   2.097   0.110   5.900 -1.1884 -1.7047  0.6396
 3410SOL    HW221693   2.142   0.171   6.012 -0.5838 -0.6712  0.3221
 3411SOL     OW21694   3.617   2.363   9.468 -0.3115 -0.0255  0.5339
 3411SOL    HW121695   3.703   2.389   9.434 -0.4807 -1.5970 -1.1280
 3411SOL    HW221696   3.561   2.380   9.392  0.6731  1.9430  0.2712
 3412SOL     OW21697   0.049   4.130   7.691  0.0903  0.1646  0.3907
 3412SOL    HW121698   0.008   4.060   7.640  1.5869  0.2269 -0.9172
 3412SOL    HW221699   0.139   4.098   7.697 -0.2098 -0.7571 -0.0796
 3413SOL     OW21700   2.596   4.159  13.609  0.2970 -0.5237  0.2571
 3413SOL    HW121701   2.555   4.118  13.533 -1.1717  0.5463  0.4711
 3413SOL    HW221702   2.553   4.106  13.676 -2.1665  1.7280  0.4737
 3414SOL     OW21703   3.721   1.128   7.358 -0.0412 -0.0090 -0.0224
 3414SOL    HW121704   3.746   1.105   7.268  2.2335  0.1413  0.5827
 3414SOL    HW221705   3.647   1.188   7.343  0.8950  1.0488 -0.3831
 3415SOL     OW21706   2.487   2.102   3.250  0.0197  0.1581 -0.0950
 3415SOL    HW121707   2.528   2.187   3.237  0.0590  0.2982  0.9369
 3415SOL    HW221708   2.517   2.058   3.170 -0.8330 -0.3709 -0.1259
 3416SOL     OW21709   4.454   4.387   2.983  0.8894 -0.3859 -0.2170
 3416SOL    HW121710   4.385   4.321   2.986  0.8273 -0.2954  0.4264
 3416SOL    HW221711   4.460   4.415   2.892 -1.8664 -1.0278 -0.5943
 3417SOL     OW21712   3.114   0.227   6.828 -0.1497 -0.1648  0.0805
 3417SOL    HW121713   3.146   0.243   6.739  0.6421 -0.2580  0.3480
 3417SOL    HW221714   3.060   0.306   6.833 -0.0184 -0.1578  1.2791
 3418SOL     OW21715   1.487   0.712   1.491  0.7666  0.1361  0.2524
 3418SOL    HW121716   1.440   0.741   1.570 -1.1297  0.3519 -0.9579
 3418SOL    HW221717   1.469   0.778   1.425  2.9818 -1.7234 -2.2011
 3419SOL     OW21718   3.451   0.340   7.254  0.1474 -0.2774 -1.1978
 3419SOL    HW121719   3.542   0.368   7.252  0.6549 -1.6289  3.5338
 3419SOL    HW221720   3.428   0.387   7.173  0.9122 -1.4211 -2.0793
 3420SOL     OW21721   0.677   4.083   4.555 -0.1985 -0.0661 -0.4926
 3420SOL    HW121722   0.675   4.178   4.564 -1.3536 -0.2245  0.9497
 3420SOL    HW221723   0.726   4.068   4.474 -0.9256  2.2658 -1.3529
 3421SOL     OW21724   1.633   2.794   3.225  0.1819  0.5739 -0.2346
 3421SOL    HW121725   1.670   2.718   3.271 -2.3663 -0.6676 -0.2390
 3421SOL    HW221726   1.701   2.862   3.218  0.9734 -0.2024 -0.0770
 3422SOL     OW21727   0.188   4.194   1.888  0.0264  0.3934  0.0324
 3422SOL    HW121728   0.141   4.147   1.958  1.5864 -1.1411  0.0540
 3422SOL    HW221729   0.198   4.121   1.827 -0.6863 -0.2140  0.6239
 3423SOL     OW21730   2.463   0.655   1.633 -0.2316  0.1532  0.0049
 3423SOL    HW121731   2.388   0.598   1.653 -1.0387  1.4552  0.6717
 3423SOL    HW221732   2.516   0.650   1.713  0.2990 -1.4554 -0.4489
 3424SOL     OW21733   3.160   3.429   8.628  0.0615 -0.1237 -0.2140
 3424SOL    HW121734   3.168   3.338   8.657 -1.7439 -0.2890 -0.2339
 3424SOL    HW221735   3.223   3.479   8.680  0.6529  0.1404 -1.1964
 3425SOL     OW21736   4.096   3.661   1.946  0.9050 -0.0378 -0.4723
 3425SOL    HW121737   4.048   3.736   1.912 -1.2771 -1.2809 -0.1317
 3425SOL    HW221738   4.077   3.596   1.878  0.4757 -0.3692 -0.0422
 3426SOL     OW21739   2.107   0.178   2.481  0.1299  0.0840  0.0792
 3426SOL    HW121740   2.150   0.126   2.414  3.0345 -0.5595  2.4188
 3426SOL    HW221741   2.069   0.111   2.539  3.7751  0.4174  2.9024
 3427SOL     OW21742   2.898   3.187   4.741  0.0991  0.3265 -0.0364
 3427SOL    HW121743   2.830   3.124   4.714 -2.0900  2.5841  0.1819
 3427SOL    HW221744   2.975   3.131   4.749 -2.3417 -3.2231 -1.1322
 3428SOL     OW21745   0.916   3.852   8.818 -0.5316  0.3691 -0.0456
 3428SOL    HW121746   0.976   3.878   8.887 -1.2911 -3.6769  2.1476
 3428SOL    HW221747   0.831   3.858   8.861 -0.7729  0.3290 -0.5075
 3429SOL     OW21748   3.199   2.555  13.511  0.4631  0.4424  0.0958
 3429SOL    HW121749   3.279   2.559  13.564  0.3175  2.6302  0.1466
 3429SOL    HW221750   3.179   2.461  13.518  0.6808  0.2421 -1.8756
 3430SOL     OW21751   3.845   3.616   6.077 -0.1174  0.1267  0.0068
 3430SOL    HW121752   3.893   3.587   6.000  1.5527  0.7173  0.8290
 3430SOL    HW221753   3.869   3.555   6.147 -1.8590  0.5534  0.9860
 3431SOL     OW21754   4.551   2.760   8.190 -0.4242 -0.0709  0.2421
 3431SOL    HW121755   4.597   2.700   8.249 -0.6981  2.1884  2.7573
 3431SOL    HW221756   4.489   2.700   8.150 -1.0817  0.3676  0.6012
 3432SOL     OW21757   1.447   1.664   6.854  0.1859 -0.2830  0.1552
 3432SOL    HW121758   1.459   1.654   6.759 -0.4550 -2.0065  0.2515
 3432SOL    HW221759   1.439   1.758   6.866 -0.2053 -0.1870 -0.8503
 3433SOL     OW21760   0.870   0.999   3.906 -0.3009  0.5594  0.0994
 3433SOL    HW121761   0.954   0.958   3.885  0.3057  1.5404  0.6120
 3433SOL    HW221762   0.840   1.017   3.817 -0.0847 -1.3031 -0.3553
 3434SOL     OW21763   2.763   4.550  17.519 -0.2539  0.1498 -0.2671
 3434SOL    HW121764   2.836   4.510  17.472  2.3385  1.3822  2.6752
 3434SOL    HW221765   2.734   4.616  17.456 -0.2879 -0.7701 -1.2075
 3435SOL     OW21766   0.927   3.682  15.707 -0.3728 -0.0397 -0.1313
 3435SOL    HW121767   0.896   3.757  15.758 -0.6616  0.8633 -1.6564
 3435SOL    HW221768   0.951   3.619  15.776 -3.2739  0.9993  1.8151
 3436SOL     OW21769   1.724   1.975   5.742  0.5082 -0.0106  0.3812
 3436SOL    HW121770   1.719   1.966   5.837  0.2164  0.9011  0.4514
 3436SOL    HW221771   1.818   1.988   5.733  0.7742 -1.5617  0.9629
 3437SOL     OW21772   0.379   1.504  15.789 -1.1647  0.1977 -0.1044
 3437SOL    HW121773   0.332   1.549  15.719  0.5500  0.9894 -0.7335
 3437SOL    HW221774   0.391   1.423  15.738  0.8937  1.2110 -1.2133
 3438SOL     OW21775   2.184   0.517   6.988  0.2257  0.7828  0.3350
 3438SOL    HW121776   2.232   0.443   6.950  0.2048  0.6600  0.5500
 3438SOL    HW221777   2.263   0.571   6.990 -0.0775  1.3661 -2.8177
 3439SOL     OW21778   0.901   0.737   8.669  0.1564 -0.4779  0.7377
 3439SOL    HW121779   0.929   0.647   8.655 -2.3565 -1.4019  1.7250
 3439SOL    HW221780   0.819   0.741   8.620  0.8935  0.5756 -0.4346
 3440SOL     OW21781   0.938   4.143  10.898 -0.5256  0.4042 -0.1138
 3440SOL    HW121782   1.003   4.186  10.954 -1.1085 -1.0043  1.6525
 3440SOL    HW221783   0.985   4.155  10.815 -0.0005  1.3219  0.3151
 3441SOL     OW21784   0.977   4.254   3.491 -0.7964 -0.4107 -0.0730
 3441SOL    HW121785   0.901   4.233   3.546  0.0800 -1.0628  0.8755
 3441SOL    HW221786   1.029   4.307   3.552  0.4541 -2.5908  0.7479
 3442SOL     OW21787   0.753   0.856   8.961  0.1796  0.0487  0.4248
 3442SOL    HW121788   0.700   0.886   8.887  0.7450  1.5623  0.6360
 3442SOL    HW221789   0.687   0.832   9.025  0.8341 -0.5722  0.8637
 3443SOL     OW21790   0.057   4.038  11.214  0.9762  0.4324  0.4383
 3443SOL    HW121791   0.104   3.963  11.177 -1.2299 -1.4336  1.4997
 3443SOL    HW221792   0.051   4.089  11.132 -0.6021 -1.5094 -0.6429
 3444SOL     OW21793   2.237   1.759   5.397  0.7811  0.4293  0.1918
 3444SOL    HW121794   2.268   1.720   5.478  0.3456  0.1250  0.2103
 3444SOL    HW221795   2.248   1.853   5.411  0.5607  0.1501  2.1614
 3445SOL     OW21796   0.142   1.548   5.566 -0.2752  0.1587  0.4750
 3445SOL    HW121797   0.094   1.623   5.530  1.1537  0.7128 -0.2936
 3445SOL    HW221798   0.233   1.559   5.538  0.3533  3.1947  3.6865
 3446SOL     OW21799   4.395   2.117   8.689  1.0734  0.3442 -0.0324
 3446SOL    HW121800   4.332   2.045   8.698  1.5529  0.0195  0.7337
 3446SOL    HW221801   4.358   2.175   8.756  1.4685 -1.4593  1.7884
 3447SOL     OW21802   3.875   0.258   1.753 -0.3707 -0.5258 -0.0518
 3447SOL    HW121803   3.780   0.255   1.764 -0.3299  0.6357  0.6870
 3447SOL    HW221804   3.878   0.290   1.663  2.6681  0.5576  0.4139
 3448SOL     OW21805   1.343   3.539   8.368 -0.2056 -0.0721 -0.3763
 3448SOL    HW121806   1.287   3.499   8.301 -0.7468 -1.4026  0.8725
 3448SOL    HW221807   1.325   3.498   8.452  1.7298 -0.0425  0.0458
 3449SOL     OW21808   2.338   3.739   0.105  0.5062  0.1767  0.4512
 3449SOL    HW121809   2.375   3.664   0.059 -1.1067 -0.3143 -0.0630
 3449SOL    HW221810   2.246   3.735   0.079  0.8708  0.2731 -0.8710
 3450SOL     OW21811   1.350   2.226  12.148 -0.1314  0.3513  0.0550
 3450SOL    HW121812   1.334   2.134  12.125 -2.0467  0.7291 -0.1028
 3450SOL    HW221813   1.321   2.228  12.239  3.9249 -0.8142  1.4116
 3451SOL     OW21814   3.168   4.322  13.468 -0.7858  0.3698 -0.0504
 3451SOL    HW121815   3.168   4.236  13.511 -1.2202 -1.0629 -2.9367
 3451SOL    HW221816   3.079   4.321  13.435 -1.6690 -0.6455  2.3739
 3452SOL     OW21817   0.348   4.088  13.627 -0.3349 -0.1223  0.2277
 3452SOL    HW121818   0.285   4.022  13.657 -0.4593  1.4382  3.3690
 3452SOL    HW221819   0.381   4.059  13.542 -0.5838 -1.4075  0.5639
 3453SOL     OW21820   0.656   4.075   6.622 -0.2607 -0.3203 -0.7167
 3453SOL    HW121821   0.674   3.983   6.642  1.2937 -0.3453 -2.2730
 3453SOL    HW221822   0.589   4.080   6.690  0.7633  0.7388  0.2148
 3454SOL     OW21823   4.299   3.864   2.784 -0.0695 -0.1962  0.1405
 3454SOL    HW121824   4.292   3.812   2.704  0.3468  1.2512 -0.8278
 3454SOL    HW221825   4.359   3.813   2.838 -1.2206 -1.8717 -0.1565
 3455SOL     OW21826   0.837   1.972  14.083  0.0319 -0.5815 -0.5550
 3455SOL    HW121827   0.773   2.018  14.029 -2.4113 -0.7359  2.2775
 3455SOL    HW221828   0.796   1.888  14.098  1.4738 -1.5078 -1.7465
 3456SOL     OW21829   3.117   4.162  15.272 -0.7817  0.3821  0.2282
 3456SOL    HW121830   3.024   4.177  15.288 -0.5421 -0.0273  2.0728
 3456SOL    HW221831   3.112   4.140  15.179 -0.0374 -2.5943  0.8722
 3457SOL     OW21832   3.550   0.443   8.010 -0.1954 -0.4652  0.3031
 3457SOL    HW121833   3.545   0.531   8.045  2.4031 -0.2259  0.0318
 3457SOL    HW221834   3.645   0.448   8.003 -0.1544 -1.0979  0.4256
 3458SOL     OW21835   4.222   0.374  10.476 -0.0326  0.4492  0.1883
 3458SOL    HW121836   4.278   0.452  10.478 -0.3568  0.7158 -1.6227
 3458SOL    HW221837   4.298   0.315  10.478 -2.2126 -2.4449 -2.4152
 3459SOL     OW21838   3.365   4.129   4.271  0.1644 -0.2534  0.7797
 3459SOL    HW121839   3.358   4.116   4.176  1.7326  0.4980  0.5682
 3459SOL    HW221840   3.313   4.049   4.281 -0.1389 -0.3749 -1.8426
 3460SOL     OW21841   3.306   3.668   4.116  0.5930 -0.5436 -0.1777
 3460SOL    HW121842   3.295   3.757   4.150 -1.5648 -0.9374  0.1091
 3460SOL    HW221843   3.229   3.656   4.060  1.8406 -2.8173 -1.4071
 3461SOL     OW21844   0.468   0.280   0.740 -0.3132  0.1674 -0.5556
 3461SOL    HW121845   0.511   0.326   0.667 -1.9472  2.8691  0.1622
 3461SOL    HW221846   0.386   0.326   0.756  0.3693  1.1018  0.2482
 3462SOL     OW21847   2.008   0.134   7.277  0.2309 -0.1850 -0.8211
 3462SOL    HW121848   2.041   0.176   7.198 -1.5157 -1.0897 -2.0290
 3462SOL    HW221849   1.943   0.075   7.239 -0.2808  0.4279 -0.8992
 3463SOL     OW21850   1.737   1.236   3.415 -0.4013  0.6253  0.1963
 3463SOL    HW121851   1.821   1.239   3.460 -1.7671  0.7990  2.7811
 3463SOL    HW221852   1.708   1.146   3.432  0.7809  0.3475  0.7436
 3464SOL     OW21853   2.052   0.766  15.905  0.1832 -0.3448  0.7352
 3464SOL    HW121854   2.133   0.724  15.934  1.6563  1.5872 -0.5589
 3464SOL    HW221855   1.994   0.694  15.931 -0.1280 -1.1190 -2.1543
 3465SOL     OW21856   1.109   3.479   5.878  0.4423 -0.0617  0.4415
 3465SOL    HW121857   1.054   3.539   5.929  0.7457 -0.6988  1.5229
 3465SOL    HW221858   1.150   3.426   5.946 -0.3040 -0.2065  0.7867
 3466SOL     OW21859   1.896   1.541   7.264 -0.3230  0.0860 -0.2583
 3466SOL    HW121860   1.893   1.597   7.186  0.3906  0.1186 -0.2592
 3466SOL    HW221861   1.821   1.567   7.317 -0.1118 -0.2482  0.2042
 3467SOL     OW21862   0.266   1.881  15.867 -0.5551  0.3209  0.7745
 3467SOL    HW121863   0.309   1.802  15.833 -0.0773  1.2333 -0.7512
 3467SOL    HW221864   0.227   1.913  15.785  0.2100 -0.3454  0.1543
 3468SOL     OW21865   3.140   0.872   9.215  0.3496 -0.0472  0.6493
 3468SOL    HW121866   3.054   0.898   9.185  1.1364  1.1897 -0.5009
 3468SOL    HW221867   3.128   0.842   9.306 -1.6860  0.0443  0.4032
 3469SOL     OW21868   2.190   0.888   7.688  0.2358  0.9776 -0.6554
 3469SOL    HW121869   2.116   0.845   7.733  1.0958  2.8070  2.4952
 3469SOL    HW221870   2.155   0.946   7.620  0.0802  2.4405  0.6745
 3470SOL     OW21871   2.875   4.201  14.906 -0.1620  0.2239 -0.2340
 3470SOL    HW121872   2.961   4.169  14.934 -0.7069  0.1723  1.3711
 3470SOL    HW221873   2.891   4.225  14.815  0.1553 -0.9894 -0.4991
 3471SOL     OW21874   1.020   3.421  10.200 -0.0572 -0.3433  0.2602
 3471SOL    HW121875   1.026   3.478  10.277 -0.7927  1.2761 -0.8761
 3471SOL    HW221876   1.095   3.452  10.150 -0.7667  0.5602 -0.2580
 3472SOL     OW21877   1.122   2.699   1.007  0.6731  0.4790  0.2308
 3472SOL    HW121878   1.153   2.768   1.066 -1.6639 -0.1454  2.1662
 3472SOL    HW221879   1.076   2.640   1.066 -0.8500 -0.3251 -1.7752
 3473SOL     OW21880   1.281   1.300  11.154  0.5198  0.1257  0.3869
 3473SOL    HW121881   1.289   1.331  11.244 -0.6056 -0.0120  0.5378
 3473SOL    HW221882   1.318   1.212  11.160  1.9791  0.9688  3.3191
 3474SOL     OW21883   3.270   3.991   9.398  0.4592 -0.1548 -0.0261
 3474SOL    HW121884   3.215   4.052   9.447 -0.0663  1.3291 -2.4774
 3474SOL    HW221885   3.229   3.988   9.312  0.0856  0.8234  0.1150
 3475SOL     OW21886   1.845   0.332   5.293 -0.5273 -0.3322  0.1071
 3475SOL    HW121887   1.814   0.296   5.375 -1.5656  0.8015  0.2177
 3475SOL    HW221888   1.780   0.403   5.288  1.7259  1.6750 -1.0116
 3476SOL     OW21889   2.812   2.714   5.391 -0.3647 -0.8742 -0.1607
 3476SOL    HW121890   2.900   2.749   5.371 -1.1119  0.3990 -1.2369
 3476SOL    HW221891   2.782   2.763   5.468  0.2799  0.5219 -0.7849
 3477SOL     OW21892   1.003   1.056   5.337 -0.2240 -0.1147  0.2882
 3477SOL    HW121893   1.090   1.094   5.322  0.2326 -1.3643 -0.2025
 3477SOL    HW221894   1.010   1.043   5.431  0.3254  3.1737  0.7176
 3478SOL     OW21895   4.204   3.589   5.656  0.5341 -0.1670  0.0767
 3478SOL    HW121896   4.179   3.624   5.570  0.2213 -0.5626  0.0052
 3478SOL    HW221897   4.297   3.578   5.640  0.3162 -1.0932 -0.5970
 3479SOL     OW21898   3.336   4.707   1.832 -0.0434  0.5473  0.1280
 3479SOL    HW121899   3.344   0.065   1.789  0.6451  0.3901 -0.0545
 3479SOL    HW221900   3.420   4.670   1.804 -0.2048  1.7932 -1.9631
 3480SOL     OW21901   0.008   2.428   7.677 -0.2529  0.0087 -0.0061
 3480SOL    HW121902   4.671   2.386   7.620 -0.9191  0.2300  0.5754
 3480SOL    HW221903   0.025   2.511   7.632 -2.3426  0.1066 -0.6048
 3481SOL     OW21904   2.326   2.639   6.355 -0.4952  0.5775  0.0087
 3481SOL    HW121905   2.369   2.703   6.299 -0.5638 -2.5408 -3.6380
 3481SOL    HW221906   2.373   2.657   6.436 -0.9140 -3.5443  1.1746
 3482SOL     OW21907   2.585   1.216  17.561 -0.2394 -0.5286  0.0344
 3482SOL    HW121908   2.559   1.271  17.487 -0.5026  0.4586  0.8639
 3482SOL    HW221909   2.522   1.144  17.554 -2.1347  1.1049  0.5351
 3483SOL     OW21910   0.698   0.788   8.505 -0.3549  0.1760  0.3307
 3483SOL    HW121911   0.645   0.852   8.456  0.5359  1.1075  0.5645
 3483SOL    HW221912   0.685   0.709   8.454 -0.8620 -0.0290  0.7852
 3484SOL     OW21913   2.496   4.079  17.230  0.2097 -0.3618  0.1193
 3484SOL    HW121914   2.431   4.134  17.274  0.9812 -0.8504  1.8585
 3484SOL    HW221915   2.493   4.006  17.291  0.5281 -0.4884 -0.0117
 3485SOL     OW21916   0.893   2.513  17.350 -0.1775  0.2133 -0.2212
 3485SOL    HW121917   0.847   2.590  17.317  0.5342  0.9163  0.4525
 3485SOL    HW221918   0.963   2.553  17.402  0.0594  0.4649 -0.7402
 3486SOL     OW21919   3.965   4.461  16.753  0.1743  0.0792  0.4249
 3486SOL    HW121920   3.882   4.482  16.709 -0.2486  0.9039  1.6134
 3486SOL    HW221921   4.018   4.424  16.683  0.0390  1.6648 -0.4909
 3487SOL     OW21922   1.944   2.393   0.096  0.4576 -0.7280  0.0118
 3487SOL    HW121923   1.877   2.350   0.043 -0.8799  1.8114 -0.3608
 3487SOL    HW221924   1.896   2.439   0.165  0.2454  0.8852 -1.2213
 3488SOL     OW21925   3.635   1.192   2.546 -1.0386  0.3112 -0.2324
 3488SOL    HW121926   3.682   1.118   2.582 -0.0555  0.6118 -0.9021
 3488SOL    HW221927   3.576   1.140   2.490 -0.9844 -0.7275  0.6841
 3489SOL     OW21928   3.227   0.167   5.826  0.5503  0.5948  1.0848
 3489SOL    HW121929   3.215   0.119   5.908  0.6201  1.0559  1.3604
 3489SOL    HW221930   3.305   0.218   5.845  1.6103 -1.3431  1.9088
 3490SOL     OW21931   2.588   1.116  16.571 -0.7678  0.1932  0.2104
 3490SOL    HW121932   2.532   1.064  16.514 -0.6257 -1.6977  1.7903
 3490SOL    HW221933   2.597   1.198  16.522 -0.5098 -0.0977 -0.2275
 3491SOL     OW21934   4.055   0.176   9.491 -0.3692 -0.5338 -0.0769
 3491SOL    HW121935   4.009   0.200   9.410 -1.0547 -0.8965  0.1997
 3491SOL    HW221936   4.117   0.112   9.458  1.9473  1.3363  0.6996
 3492SOL     OW21937   3.319   0.653  15.289 -0.6969 -0.4690 -0.1077
 3492SOL    HW121938   3.272   0.668  15.207 -2.3970  1.2153  1.1750
 3492SOL    HW221939   3.255   0.692  15.348 -0.4006  1.3903 -0.9915
 3493SOL     OW21940   2.683   1.140  13.038  0.0699 -0.3035 -0.3338
 3493SOL    HW121941   2.645   1.054  13.052 -1.2356  0.4214  0.6286
 3493SOL    HW221942   2.656   1.166  12.949 -0.0095 -2.1831 -0.8477
 3494SOL     OW21943   0.025   0.988  13.211  0.6086 -0.1799  0.2881
 3494SOL    HW121944   4.676   0.950  13.167  0.2785 -0.0138  0.7152
 3494SOL    HW221945   4.718   1.078  13.208  1.5957  0.2092  0.7381
 3495SOL     OW21946   2.360   3.520  17.649 -0.0525  0.3428  0.3686
 3495SOL    HW121947   2.394   3.514  17.560  0.9688  0.4212  0.7583
 3495SOL    HW221948   2.268   3.499  17.632  0.2729  0.0130 -0.9808
 3496SOL     OW21949   3.956   3.044   4.922  0.8732 -0.2604  0.5659
 3496SOL    HW121950   4.002   3.113   4.873 -1.4884  0.7658 -0.1892
 3496SOL    HW221951   3.894   3.019   4.854  1.7576 -0.0555 -0.3208
 3497SOL     OW21952   1.750   3.289   8.429 -0.0360 -0.0410  0.1030
 3497SOL    HW121953   1.683   3.221   8.423 -1.4726  1.4897 -1.0889
 3497SOL    HW221954   1.711   3.364   8.384 -0.3846 -1.2347 -1.5623
 3498SOL     OW21955   1.535   4.431   6.760  0.7487  1.0261 -0.3309
 3498SOL    HW121956   1.624   4.396   6.768  0.1265 -0.0233  1.7488
 3498SOL    HW221957   1.490   4.415   6.842  0.9790 -1.5174 -0.7001
 3499SOL     OW21958   3.742   2.550   5.857 -0.1361  0.1004 -0.0409
 3499SOL    HW121959   3.705   2.483   5.916  0.2014  1.1460  1.3460
 3499SOL    HW221960   3.807   2.591   5.914 -0.4440  0.6700 -0.1034
 3500SOL     OW21961   0.973   3.579   2.634 -0.5494  0.3189  0.2112
 3500SOL    HW121962   0.938   3.571   2.545 -0.1278 -1.7765  0.2452
 3500SOL    HW221963   0.894   3.601   2.684 -1.1585  1.0232 -1.0592
 3501SOL     OW21964   2.304   3.684   6.058 -0.1368 -0.2463  0.0407
 3501SOL    HW121965   2.222   3.644   6.027 -0.0511  1.4324 -2.3603
 3501SOL    HW221966   2.329   3.656   6.146 -0.0166 -1.3492 -0.3523
 3502SOL     OW21967   2.145   4.684   3.658 -0.9697  0.1626 -0.0969
 3502SOL    HW121968   2.065   0.007   3.668 -1.1293  0.0114 -0.6294
 3502SOL    HW221969   2.208   0.024   3.684 -1.3510  0.3189  0.4005
 3503SOL     OW21970   1.172   3.237   4.221  0.1098 -0.0724  0.0854
 3503SOL    HW121971   1.186   3.206   4.310 -1.2632 -0.6522  0.1135
 3503SOL    HW221972   1.077   3.232   4.209  0.3784 -0.7364 -1.8699
 3504SOL     OW21973   3.578   3.393  17.161  0.0974  0.0460  0.2430
 3504SOL    HW121974   3.665   3.425  17.135  0.3421  0.0748  1.0806
 3504SOL    HW221975   3.583   3.390  17.257  0.0608 -3.0199  0.1511
 3505SOL     OW21976   3.820   0.545   8.951  0.1702 -0.3180  0.0565
 3505SOL    HW121977   3.820   0.492   9.031  0.7584  0.2233  0.4117
 3505SOL    HW221978   3.766   0.497   8.889 -0.5263 -0.5841  0.8609
 3506SOL     OW21979   3.161   0.913   7.520 -0.0070 -0.1634 -0.3440
 3506SOL    HW121980   3.246   0.900   7.477 -2.0248 -2.1908 -3.7067
 3506SOL    HW221981   3.160   0.840   7.583 -0.3882  0.7322  0.6787
 3507SOL     OW21982   1.013   1.620   7.785  0.4442  0.4985  0.2413
 3507SOL    HW121983   1.077   1.607   7.855 -1.5272  1.1509  2.1821
 3507SOL    HW221984   0.965   1.681   7.841  1.0110 -0.5033  1.8227
 3508SOL     OW21985   2.282   3.029   6.570 -0.3270  0.3591 -0.3250
 3508SOL    HW121986   2.302   2.984   6.652 -0.2597  1.4324  0.2410
 3508SOL    HW221987   2.356   3.084   6.544  0.7031 -0.2646  1.2814
 3509SOL     OW21988   1.816   3.481   8.645  0.1312 -0.2658  0.2289
 3509SOL    HW121989   1.805   3.413   8.579  1.4735 -0.3600  0.1004
 3509SOL    HW221990   1.735   3.480   8.697  0.1999 -0.3494  0.3344
 3510SOL     OW21991   4.573   1.915   8.397 -0.2814  0.0178  0.0319
 3510SOL    HW121992   4.487   1.896   8.432 -1.6185 -0.2269 -3.3444
 3510SOL    HW221993   4.626   1.835   8.395 -0.0209  0.1883 -0.0071
 3511SOL     OW21994   4.081   2.130   5.268  0.5481 -0.0003  0.6395
 3511SOL    HW121995   4.082   2.038   5.242 -1.9816 -0.2581  1.4221
 3511SOL    HW221996   4.113   2.170   5.187  3.6609 -0.1223  1.8157
 3512SOL     OW21997   1.997   3.683   2.515  0.0417 -0.2051 -0.3094
 3512SOL    HW121998   1.917   3.690   2.568 -0.3571 -1.8280 -0.7015
 3512SOL    HW221999   1.968   3.697   2.425  0.4752  4.3476  0.2561
 3513SOL     OW22000   0.237   4.096   7.461 -0.0132 -0.1016 -0.0234
 3513SOL    HW122001   0.308   4.078   7.398  0.2232  2.6221 -0.5518
 3513SOL    HW222002   0.160   4.098   7.405  1.9490 -0.0391 -2.7432
 3514SOL     OW22003   2.490   1.125   7.940 -0.3649  0.3517  0.1079
 3514SOL    HW122004   2.394   1.130   7.938 -0.4173 -1.0930 -1.8978
 3514SOL    HW222005   2.506   1.054   7.877  0.5896  0.4023  0.3000
 3515SOL     OW22006   1.284   2.679   9.744 -0.2726 -0.5089 -0.2143
 3515SOL    HW122007   1.362   2.731   9.728  0.1747 -1.0339  0.2686
 3515SOL    HW222008   1.245   2.728   9.816  0.7775 -0.0061  0.0098
 3516SOL     OW22009   3.057   1.565   7.150  0.5307  0.0359 -0.6269
 3516SOL    HW122010   3.047   1.538   7.241 -3.2688  0.4435 -0.9233
 3516SOL    HW222011   3.151   1.577   7.137  0.5691  1.9230  1.4453
 3517SOL     OW22012   1.609   1.417   8.236 -0.1403  0.3513  0.1044
 3517SOL    HW122013   1.695   1.444   8.204 -0.1151  0.6185  0.4027
 3517SOL    HW222014   1.563   1.500   8.250  1.3747  1.5270 -1.8012
 3518SOL     OW22015   2.640   0.000   5.249 -0.3662  0.4335  0.1840
 3518SOL    HW122016   2.603   4.669   5.315 -0.4019 -0.7625 -0.9022
 3518SOL    HW222017   2.602   4.694   5.168 -0.7980 -1.2863  1.0915
 3519SOL     OW22018   1.162   2.869   2.444  0.1668 -0.1614  0.1683
 3519SOL    HW122019   1.143   2.777   2.463  0.3264 -0.6102 -1.8482
 3519SOL    HW222020   1.075   2.907   2.455  0.0506  0.5692 -3.1388
 3520SOL     OW22021   0.711   3.138   7.711  0.2645 -0.0820 -0.3571
 3520SOL    HW122022   0.638   3.107   7.765  0.1517  1.6722  0.4894
 3520SOL    HW222023   0.676   3.226   7.699  1.7193  0.3866 -1.2100
 3521SOL     OW22024   3.672   1.287   5.735 -0.0086 -0.3611 -0.5996
 3521SOL    HW122025   3.668   1.380   5.714 -0.6365 -0.6097 -1.5724
 3521SOL    HW222026   3.640   1.253   5.652 -0.6766  0.7254 -0.7822
 3522SOL     OW22027   2.067   4.634   5.237 -0.2472  0.2108  0.5301
 3522SOL    HW122028   1.977   4.664   5.246 -0.0887  1.0007 -0.6006
 3522SOL    HW222029   2.063   4.577   5.161 -0.9948  0.9377  0.0251
 3523SOL     OW22030   3.547   0.295   6.592  0.7754 -0.7250  0.1173
 3523SOL    HW122031   3.628   0.244   6.601  2.6104  1.9876 -1.2547
 3523SOL    HW222032   3.557   0.346   6.673  0.1451  0.3198 -0.4777
 3524SOL     OW22033   3.064   4.327   8.816  0.2509  0.6142  0.5351
 3524SOL    HW122034   2.997   4.394   8.829 -1.5141 -0.6507 -2.0342
 3524SOL    HW222035   3.104   4.320   8.903  0.7917 -1.9423  0.0758
 3525SOL     OW22036   4.286   2.757  10.926 -0.3200  0.2585 -0.5484
 3525SOL    HW122037   4.291   2.761  10.830 -3.5658 -0.7131 -0.7895
 3525SOL    HW222038   4.227   2.829  10.950  2.5936  2.1087  0.9054
 3526SOL     OW22039   1.125   4.530  10.130 -0.1083  0.0410  0.0202
 3526SOL    HW122040   1.193   4.530  10.197  1.6006 -1.9564 -1.7069
 3526SOL    HW222041   1.052   4.484  10.171  0.4025 -0.5656  0.2518
 3527SOL     OW22042   3.998   2.542   4.247  0.1294 -0.0626 -0.6216
 3527SOL    HW122043   3.979   2.499   4.164  1.3428 -0.8568 -0.4920
 3527SOL    HW222044   3.999   2.635   4.223  0.7411  0.0595 -0.1520
 3528SOL     OW22045   1.747   2.863   6.301  0.5874  0.2443  0.0504
 3528SOL    HW122046   1.830   2.815   6.303  0.8665  0.7369  0.2600
 3528SOL    HW222047   1.683   2.792   6.309  0.6501  0.1300 -0.4757
 3529SOL     OW22048   3.412   2.979   0.770  0.2916  0.4157  0.4276
 3529SOL    HW122049   3.368   3.038   0.832  1.7021  0.3055  1.5290
 3529SOL    HW222050   3.345   2.912   0.761 -0.8742  1.5244  0.7494
 3530SOL     OW22051   0.014   2.927   9.887  0.0907  0.3387  0.0370
 3530SOL    HW122052   0.007   3.012   9.844 -0.7225  0.2196 -0.0636
 3530SOL    HW222053   4.677   2.875   9.838 -1.7015 -0.7855  3.5786
 3531SOL     OW22054   3.834   2.622   0.935 -0.1140  0.3015  0.1532
 3531SOL    HW122055   3.901   2.682   0.969 -1.2914 -0.6386  4.0566
 3531SOL    HW222056   3.759   2.681   0.947 -1.3160 -0.8668 -1.6650
 3532SOL     OW22057   3.785   1.776   5.966 -0.3315 -0.0602 -0.6485
 3532SOL    HW122058   3.719   1.728   6.016 -0.8783 -0.4491 -1.7595
 3532SOL    HW222059   3.737   1.841   5.915  1.1965  2.6407  1.3542
 3533SOL     OW22060   1.839   0.617   8.270 -0.4467 -0.0403  0.5199
 3533SOL    HW122061   1.909   0.581   8.323 -1.1640  0.9018  2.1178
 3533SOL    HW222062   1.801   0.675   8.337 -0.4690 -2.1274  2.2881
 3534SOL     OW22063   1.256   1.390   8.965  0.1958 -0.0574 -0.0701
 3534SOL    HW122064   1.270   1.343   9.047  0.3396 -0.0741 -0.1039
 3534SOL    HW222065   1.305   1.471   8.983 -0.6883  0.1994  1.1709
 3535SOL     OW22066   4.628   2.534   6.992  0.0235  0.0532  0.1255
 3535SOL    HW122067   4.663   2.600   6.932  2.2128 -1.4976 -0.3230
 3535SOL    HW222068   4.608   2.466   6.928 -1.1956  0.0747  0.4874
 3536SOL     OW22069   0.239   3.376  13.493  0.6810  0.1627 -0.3215
 3536SOL    HW122070   0.195   3.322  13.427  0.1537 -1.7044  1.5534
 3536SOL    HW222071   0.307   3.411  13.435  1.1951 -0.0576  0.1450
 3537SOL     OW22072   1.341   1.521  13.627  0.7201 -0.7784  0.0872
 3537SOL    HW122073   1.368   1.582  13.559 -1.8761  1.2753  0.8883
 3537SOL    HW222074   1.331   1.572  13.708  0.9726 -2.1869  1.0156
 3538SOL     OW22075   2.204   1.790   2.740 -0.0705  0.1161  0.0418
 3538SOL    HW122076   2.287   1.765   2.699 -0.1115  1.1381 -0.6453
 3538SOL    HW222077   2.144   1.749   2.677 -0.6992 -2.4151  2.2732
 3539SOL     OW22078   2.653   3.550  10.735  0.0471  0.6008 -0.3536
 3539SOL    HW122079   2.715   3.477  10.742  0.2318  0.8231  0.2955
 3539SOL    HW222080   2.698   3.633  10.744 -0.4861  0.8564 -0.0024
 3540SOL     OW22081   2.847   3.294  16.561 -0.0151  0.1732 -0.0388
 3540SOL    HW122082   2.795   3.348  16.501 -1.2931  0.4476  1.2909
 3540SOL    HW222083   2.902   3.364  16.596  0.8785 -0.1647 -0.7761
 3541SOL     OW22084   2.483   2.787   1.782 -0.2657 -0.3714 -0.1327
 3541SOL    HW122085   2.547   2.716   1.784 -0.2732 -0.3615  0.4157
 3541SOL    HW222086   2.439   2.776   1.867 -1.5814  0.5322 -0.6981
 3542SOL     OW22087   0.920   3.865   2.770  0.0165  0.2780 -0.4213
 3542SOL    HW122088   0.845   3.815   2.736 -0.7369  0.6990  0.6128
 3542SOL    HW222089   0.937   3.914   2.689 -0.3731  1.0495 -0.0364
 3543SOL     OW22090   1.055   2.598   4.928  0.3949 -0.0392  0.2364
 3543SOL    HW122091   1.061   2.521   4.985 -2.3981 -0.1791  0.3493
 3543SOL    HW222092   1.120   2.585   4.860  1.2331 -0.3828  1.0946
 3544SOL     OW22093   3.044   3.712   8.480 -0.4484 -0.1126  0.4348
 3544SOL    HW122094   3.063   3.805   8.466 -0.7223 -0.1307 -0.0266
 3544SOL    HW222095   3.002   3.685   8.398  0.1935 -1.2552  0.4814
 3545SOL     OW22096   0.508   2.887   0.307  0.0539  0.0147 -0.0392
 3545SOL    HW122097   0.524   2.959   0.246  1.1106  0.3942  0.6815
 3545SOL    HW222098   0.594   2.893   0.350  0.1968  2.0123 -0.5899
 3546SOL     OW22099   3.776   4.251  10.920 -0.3317  0.6995  0.1549
 3546SOL    HW122100   3.711   4.306  10.876 -1.3868 -0.1526  0.6651
 3546SOL    HW222101   3.850   4.255  10.858  1.0631  1.9772  1.8878
 3547SOL     OW22102   4.678   4.092  10.396  0.0583 -0.1308 -0.2123
 3547SOL    HW122103   4.707   4.006  10.425 -2.8805 -0.7434  0.9627
 3547SOL    HW222104   0.019   4.143  10.440  0.8253 -0.8587 -0.5665
 3548SOL     OW22105   0.795   2.896  11.696  0.4807  0.1188  0.6101
 3548SOL    HW122106   0.711   2.931  11.666 -0.1069 -2.3621 -0.5745
 3548SOL    HW222107   0.834   2.938  11.620 -1.1788 -0.8823 -0.7834
 3549SOL     OW22108   4.596   1.068   2.168 -0.7264  0.0636  0.1397
 3549SOL    HW122109   4.546   1.021   2.101 -0.6063 -2.6236  1.9577
 3549SOL    HW222110   4.628   1.137   2.110 -3.0321  1.3027  0.3548
 3550SOL     OW22111   0.776   2.083   7.217 -1.0909  0.3885  0.1639
 3550SOL    HW122112   0.772   2.090   7.121 -0.7295 -1.5648  0.0093
 3550SOL    HW222113   0.699   2.133   7.244 -0.1843  0.9220  1.7357
 3551SOL     OW22114   3.033   4.713   5.334 -0.1135 -0.4696  0.6132
 3551SOL    HW122115   3.045   0.072   5.374 -1.3896 -0.1895  0.3883
 3551SOL    HW222116   2.957   4.727   5.278 -0.9396 -2.1355  1.3128
 3552SOL     OW22117   3.641   1.911   5.066 -0.1908 -0.0431  0.0911
 3552SOL    HW122118   3.617   1.968   5.139 -0.8821 -1.3720  0.9143
 3552SOL    HW222119   3.710   1.860   5.109 -1.3028 -2.3952 -0.8960
 3553SOL     OW22120   4.312   2.440   5.954  0.5959  0.6313  0.5263
 3553SOL    HW122121   4.338   2.531   5.947 -2.2322  1.4192  0.1993
 3553SOL    HW222122   4.371   2.402   5.888  1.8953  1.2421  1.3399
 3554SOL     OW22123   0.335   1.678   2.805  0.0106  0.1834 -0.3378
 3554SOL    HW122124   0.372   1.675   2.716 -0.2263  0.6736 -0.4541
 3554SOL    HW222125   0.300   1.588   2.806  1.0121 -0.1992 -0.0720
 3555SOL     OW22126   2.984   3.887   6.527  0.3647 -0.3870 -0.7907
 3555SOL    HW122127   2.962   3.873   6.619  1.6032  0.2837 -0.4071
 3555SOL    HW222128   2.914   3.949   6.505  0.6221  0.0779 -0.2808
 3556SOL     OW22129   2.484   2.449   3.845  0.4604 -0.2075  0.1299
 3556SOL    HW122130   2.573   2.415   3.835  0.5044 -0.3173  0.8483
 3556SOL    HW222131   2.449   2.366   3.876 -0.0809  0.3180  0.9359
 3557SOL     OW22132   1.674   2.917  10.060 -0.3330 -0.0363  0.2365
 3557SOL    HW122133   1.664   2.862  10.138  0.7332  0.2738  0.5911
 3557SOL    HW222134   1.600   2.877  10.015  0.7149 -0.3377 -1.2052
 3558SOL     OW22135   4.607   2.302   3.172 -0.1149 -0.3311 -0.2806
 3558SOL    HW122136   4.682   2.347   3.134 -0.8347 -0.1348 -1.4753
 3558SOL    HW222137   4.637   2.288   3.262 -1.5956 -1.6357  0.0005
 3559SOL     OW22138   0.508   2.459   5.121  0.9017 -0.1245 -0.2516
 3559SOL    HW122139   0.574   2.527   5.103  2.1005 -0.7550  1.7350
 3559SOL    HW222140   0.483   2.500   5.204 -0.1323  0.7967 -1.0252
 3560SOL     OW22141   3.585   3.734  10.047  0.5465  0.1825  0.2756
 3560SOL    HW122142   3.577   3.726   9.952  2.0055 -2.5000  0.3768
 3560SOL    HW222143   3.546   3.652  10.076  0.0065  0.2479 -0.2550
 3561SOL     OW22144   0.706   4.202   7.330  1.3385  0.1424 -0.2067
 3561SOL    HW122145   0.776   4.265   7.342  1.3906  0.0960 -0.2668
 3561SOL    HW222146   0.738   4.143   7.261  1.1043  2.4321 -2.2705
 3562SOL     OW22147   2.861   1.008   8.266 -0.3189 -0.1168 -0.1622
 3562SOL    HW122148   2.937   0.971   8.222  0.0401  1.0785 -0.5451
 3562SOL    HW222149   2.820   1.072   8.207  1.0252 -1.0227 -2.0751
 3563SOL     OW22150   1.856   2.219   6.663 -0.1882 -0.1801 -0.2591
 3563SOL    HW122151   1.795   2.237   6.590 -2.1688  0.0939  1.4702
 3563SOL    HW222152   1.815   2.140   6.697 -1.4815  1.3519  1.6950
 3564SOL     OW22153   1.189   1.532   4.294  0.0839  0.4996  0.2374
 3564SOL    HW122154   1.217   1.598   4.358 -0.8180  1.5629 -0.4528
 3564SOL    HW222155   1.266   1.478   4.282  0.8769  1.5494  0.6271
 3565SOL     OW22156   2.347   4.157  11.192  0.2718  0.1430  0.3161
 3565SOL    HW122157   2.272   4.097  11.189  0.1736  0.3070 -0.3857
 3565SOL    HW222158   2.380   4.154  11.282  1.5387  3.8064 -0.0251
 3566SOL     OW22159   3.858   4.154   1.762  0.3430 -0.3555  0.5100
 3566SOL    HW122160   3.910   4.212   1.707 -0.0524 -1.2842 -0.8221
 3566SOL    HW222161   3.789   4.122   1.704  0.5382 -0.4254  0.3207
 3567SOL     OW22162   1.798   2.527   5.809 -0.2527  0.1160  0.3577
 3567SOL    HW122163   1.868   2.580   5.772  1.3541 -1.0109  1.7329
 3567SOL    HW222164   1.762   2.498   5.726  2.0676 -0.4640 -0.4516
 3568SOL     OW22165   2.639   2.824   4.915 -0.4134 -0.4084  0.1027
 3568SOL    HW122166   2.620   2.863   5.001  0.0892  0.5234 -0.2018
 3568SOL    HW222167   2.569   2.759   4.920 -0.4427 -0.2472  1.7752
 3569SOL     OW22168   0.347   0.788   5.670  0.4232  0.0581 -0.6849
 3569SOL    HW122169   0.395   0.740   5.737  0.7967 -0.6260 -1.4563
 3569SOL    HW222170   0.283   0.726   5.636  1.2492 -0.6859 -0.8880
 3570SOL     OW22171   1.737   4.619   0.339  0.5705 -0.1006  0.4450
 3570SOL    HW122172   1.642   4.613   0.341  0.5033  0.2728 -1.5229
 3570SOL    HW222173   1.756   4.713   0.338  1.2171 -0.2237  0.8911
 3571SOL     OW22174   2.493   2.842   8.554  0.5062  0.2037 -0.2761
 3571SOL    HW122175   2.408   2.825   8.593 -0.0285  0.7002 -1.2197
 3571SOL    HW222176   2.486   2.935   8.532 -2.2994  0.1811  0.5805
 3572SOL     OW22177   3.999   2.546  12.663 -0.1748 -0.0864  0.3501
 3572SOL    HW122178   4.071   2.558  12.724  2.3965  1.5460 -3.0175
 3572SOL    HW222179   3.934   2.613  12.686  0.2645 -0.5820  2.9958
 3573SOL     OW22180   2.614   3.569   8.956 -0.2635 -0.1064 -0.3663
 3573SOL    HW122181   2.609   3.481   8.918  0.1265 -0.7110  1.0082
 3573SOL    HW222182   2.666   3.550   9.034 -1.6915  0.9129  0.8341
 3574SOL     OW22183   4.678   4.487   8.151  0.3541 -0.2411 -0.1392
 3574SOL    HW122184   0.020   4.529   8.101  0.8461 -0.0282  0.7154
 3574SOL    HW222185   4.724   4.426   8.208 -1.1636 -0.5142  0.7949
 3575SOL     OW22186   0.792   4.557  15.018 -0.0854  0.4932  0.1417
 3575SOL    HW122187   0.757   4.496  15.083  1.6648 -1.0824 -0.3775
 3575SOL    HW222188   0.867   4.506  14.988 -0.8051 -0.3848 -0.1443
 3576SOL     OW22189   0.001   0.693   1.038 -0.1306 -0.5493 -0.0947
 3576SOL    HW122190   4.640   0.689   1.074 -1.1781 -2.6891 -2.9335
 3576SOL    HW222191   4.710   0.722   0.949  0.4269  2.1862  0.6710
 3577SOL     OW22192   3.925   2.755   9.375  0.4422  0.7037  0.1261
 3577SOL    HW122193   3.940   2.661   9.364  0.4499  0.6619  0.4861
 3577SOL    HW222194   3.835   2.753   9.344 -0.4297  0.5145  2.6533
 3578SOL     OW22195   4.206   3.084   3.537  0.5928  0.0376 -0.1182
 3578SOL    HW122196   4.143   3.155   3.524 -0.1240 -0.2152  2.1546
 3578SOL    HW222197   4.222   3.071   3.443  1.2173  2.0890 -0.3167
 3579SOL     OW22198   0.257   3.592   4.108  0.2403 -0.3968  0.1471
 3579SOL    HW122199   0.278   3.660   4.044  1.9813 -2.0656 -1.0406
 3579SOL    HW222200   0.272   3.626   4.196  3.3092 -0.6855 -0.2635
 3580SOL     OW22201   2.641   4.021   7.083  0.0994 -0.3010 -0.0396
 3580SOL    HW122202   2.691   4.068   7.016 -1.8016  0.1418 -1.1401
 3580SOL    HW222203   2.709   3.986   7.142 -0.3654  0.2636  0.8384
 3581SOL     OW22204   2.572   4.044   5.400 -0.5763 -0.7499  0.0412
 3581SOL    HW122205   2.616   4.128   5.386  0.6582 -1.3200  0.4924
 3581SOL    HW222206   2.566   4.042   5.495 -0.4533 -0.7401  0.0483
 3582SOL     OW22207   0.519   1.223  13.630  0.5499 -1.4463  0.2408
 3582SOL    HW122208   0.566   1.209  13.548  1.3355 -2.5540  0.8798
 3582SOL    HW222209   0.431   1.190  13.613 -0.0924  1.4357 -2.0000
 3583SOL     OW22210   2.173   1.531   4.269 -0.1598 -0.0442  0.1751
 3583SOL    HW122211   2.085   1.567   4.277 -0.0223  0.0595  1.2812
 3583SOL    HW222212   2.210   1.614   4.240  1.8196 -0.7755  0.6254
 3584SOL     OW22213   4.615   1.128  11.613 -0.2297 -0.6931 -0.6031
 3584SOL    HW122214   4.572   1.133  11.528 -1.5331 -0.4445  0.0801
 3584SOL    HW222215   4.676   1.201  11.602 -0.5721 -0.2047  0.7079
 3585SOL     OW22216   4.269   4.083   5.396 -0.1713  0.3453  0.0571
 3585SOL    HW122217   4.236   4.171   5.415  1.3349  0.9586 -0.1724
 3585SOL    HW222218   4.354   4.083   5.439 -0.4754 -0.3823  0.6563
 3586SOL     OW22219   0.300   3.951  12.173  0.0137  0.3047  0.9978
 3586SOL    HW122220   0.241   3.886  12.135  0.4690  1.1964 -1.2034
 3586SOL    HW222221   0.383   3.904  12.182 -0.4079 -0.6481 -0.1040
 3587SOL     OW22222   1.959   3.936   4.427  0.1145 -0.0399 -0.0122
 3587SOL    HW122223   2.026   3.906   4.366 -0.3456  0.5567 -0.8010
 3587SOL    HW222224   1.930   3.853   4.465 -1.1245  1.6605  2.7316
 3588SOL     OW22225   0.950   3.975   5.314 -0.5479 -0.0895  0.4905
 3588SOL    HW122226   0.978   3.972   5.223 -0.7591 -0.5727  0.4402
 3588SOL    HW222227   1.008   4.039   5.354 -1.1076  0.8529 -0.2181
 3589SOL     OW22228   0.008   0.984   5.455 -0.1039  0.0476  0.4877
 3589SOL    HW122229   0.040   0.944   5.373  1.6400  1.0542  0.6748
 3589SOL    HW222230   0.001   0.904   5.508 -0.7562  0.8763  1.6445
 3590SOL     OW22231   0.990   1.491   9.836 -0.0593  0.5923  0.6487
 3590SOL    HW122232   1.085   1.489   9.850  0.1354  3.4393 -0.2440
 3590SOL    HW222233   0.980   1.416   9.778  0.3536  0.6501  0.5000
 3591SOL     OW22234   1.947   1.574  10.742 -0.1843 -0.0882 -0.6551
 3591SOL    HW122235   1.959   1.638  10.812 -3.8638  1.3604 -1.3523
 3591SOL    HW222236   1.959   1.635  10.669 -0.6982 -0.0400 -0.7009
 3592SOL     OW22237   0.645   1.747   5.993  0.4476 -0.1158 -0.2479
 3592SOL    HW122238   0.673   1.809   6.060 -1.8901  2.3926 -1.5813
 3592SOL    HW222239   0.716   1.683   5.999  1.2440  0.9256  1.4858
 3593SOL     OW22240   3.214   0.378   1.627  0.3119  0.3130  0.1149
 3593SOL    HW122241   3.270   0.445   1.587  1.5112 -0.8571 -0.1710
 3593SOL    HW222242   3.155   0.355   1.555  3.7638  1.5112 -3.0572
 3594SOL     OW22243   3.195   1.372  15.053  0.9361 -0.0318  0.3254
 3594SOL    HW122244   3.217   1.369  14.960 -0.8369  0.8937 -0.1313
 3594SOL    HW222245   3.113   1.421  15.047  0.5356 -0.6435  0.8647
 3595SOL     OW22246   2.515   1.277   7.537 -0.1627 -0.2351  0.3268
 3595SOL    HW122247   2.454   1.332   7.585 -0.3098  0.7499 -0.9933
 3595SOL    HW222248   2.469   1.234   7.465 -0.4465  1.1908 -0.3432
 3596SOL     OW22249   2.792   2.639   9.372  0.0271 -0.6027  0.2452
 3596SOL    HW122250   2.831   2.553   9.390  0.4410 -0.6894 -1.0611
 3596SOL    HW222251   2.699   2.620   9.380  0.1099 -1.7947 -1.5651
 3597SOL     OW22252   4.517   2.518   3.508  0.4053  0.1957  0.3626
 3597SOL    HW122253   4.473   2.433   3.508  1.3671 -0.3144 -0.5949
 3597SOL    HW222254   4.606   2.488   3.489  1.0375  0.9200  2.2408
 3598SOL     OW22255   2.971   0.122   3.883  0.4824 -0.2417  0.1303
 3598SOL    HW122256   3.061   0.115   3.852  0.6992  3.1494 -0.0330
 3598SOL    HW222257   2.919   0.171   3.819  1.4877  2.0905  1.0710
 3599SOL     OW22258   2.276   0.284   7.334 -0.0318  0.1518 -0.5964
 3599SOL    HW122259   2.205   0.245   7.387  0.9445 -2.1916 -0.9962
 3599SOL    HW222260   2.232   0.365   7.309 -1.5614 -0.9598 -1.5748
 3600SOL     OW22261   2.725   1.140   7.677 -0.1887 -0.0904 -0.0516
 3600SOL    HW122262   2.728   1.061   7.624  1.1161  0.2886 -0.5404
 3600SOL    HW222263   2.643   1.182   7.651  0.5771  2.0872  0.9793
 3601SOL     OW22264   0.165   2.867   0.707 -0.4403  0.2502 -0.2805
 3601SOL    HW122265   0.221   2.881   0.631 -0.3637  0.4591 -0.1822
 3601SOL    HW222266   0.231   2.830   0.766 -0.4593  2.0226  0.8534
 3602SOL     OW22267   3.122   3.103   2.404  0.2430 -0.1602 -0.2014
 3602SOL    HW122268   3.079   3.179   2.363  1.2042  0.0720 -0.7682
 3602SOL    HW222269   3.190   3.156   2.445 -0.2693 -1.3329  2.1554
 3603SOL     OW22270   0.370   3.077  11.176  0.0892 -0.0543  0.3400
 3603SOL    HW122271   0.328   3.088  11.261 -0.8691  1.1100 -0.2912
 3603SOL    HW222272   0.423   2.999  11.191 -1.9402 -1.3898  0.3821
 3604SOL     OW22273   2.379   1.244   9.903  0.8499 -0.2110 -0.1476
 3604SOL    HW122274   2.398   1.212   9.991  1.4990  2.0647  0.5329
 3604SOL    HW222275   2.341   1.166   9.863  0.9686 -0.7786  0.8387
 3605SOL     OW22276   2.356   2.624  11.445 -0.0968 -0.3280  0.1817
 3605SOL    HW122277   2.413   2.666  11.381  0.0231  0.3839  0.7534
 3605SOL    HW222278   2.361   2.690  11.514 -0.3197 -0.7939  0.6395
 3606SOL     OW22279   1.928   4.028   2.719  0.3702 -0.0203  0.1983
 3606SOL    HW122280   1.934   3.970   2.794 -0.5786 -0.7950 -0.3314
 3606SOL    HW222281   1.891   4.105   2.763 -0.1609  1.1931 -2.3521
 3607SOL     OW22282   1.517   4.727   2.527  0.5017 -0.0537 -0.5060
 3607SOL    HW122283   1.598   0.004   2.578  0.3189  0.6151 -0.2782
 3607SOL    HW222284   1.538   4.675   2.449  0.5008 -0.5195 -0.1965
 3608SOL     OW22285   4.479   1.600   3.229 -0.3477  0.0114 -0.6908
 3608SOL    HW122286   4.420   1.553   3.287 -1.0325  1.6947 -0.0156
 3608SOL    HW222287   4.509   1.676   3.278  0.9940 -2.1587  1.8288
 3609SOL     OW22288   3.821   1.698  14.830  0.1404  1.1376  0.1434
 3609SOL    HW122289   3.828   1.663  14.741 -2.5312  1.4926 -0.1838
 3609SOL    HW222290   3.727   1.707  14.844  0.4380  2.0174  1.6273
 3610SOL     OW22291   3.726   3.341   5.251 -0.1820 -0.0818  0.2411
 3610SOL    HW122292   3.803   3.390   5.223  0.7187 -0.3951  2.0826
 3610SOL    HW222293   3.726   3.266   5.191  1.5340 -0.4363  0.6669
 3611SOL     OW22294   4.507   4.205   5.078  0.0992  0.3161 -0.4909
 3611SOL    HW122295   4.482   4.226   4.988  0.9512  5.0971  0.4040
 3611SOL    HW222296   4.593   4.245   5.088  1.5578 -3.4166  1.8234
 3612SOL     OW22297   1.062   2.031   2.672 -0.4282 -0.3368 -0.1997
 3612SOL    HW122298   1.147   2.074   2.672 -0.4328 -0.3390  0.4117
 3612SOL    HW222299   0.996   2.096   2.649 -0.3268 -0.5144 -0.9907
 3613SOL     OW22300   2.863   3.714   4.659 -0.3269  0.0832  0.2974
 3613SOL    HW122301   2.844   3.622   4.680 -1.1992  0.0969 -0.4317
 3613SOL    HW222302   2.816   3.730   4.578 -0.4271 -1.7026 -0.0112
 3614SOL     OW22303   2.741   0.879   5.991  0.2251  0.1134  0.9917
 3614SOL    HW122304   2.648   0.857   6.002  0.2787 -0.1710  0.8809
 3614SOL    HW222305   2.751   0.955   6.049  1.4415  1.5057 -1.0663
 3615SOL     OW22306   2.272   2.544   5.377 -0.4620 -0.7976  0.4519
 3615SOL    HW122307   2.310   2.601   5.310 -2.0966 -0.0759  0.1154
 3615SOL    HW222308   2.342   2.549   5.442 -1.6516 -0.4626  1.7179
 3616SOL     OW22309   2.033   1.199  10.634  0.3567  0.0310  0.1712
 3616SOL    HW122310   2.093   1.270  10.612  3.5869 -2.1433  2.0635
 3616SOL    HW222311   1.988   1.201  10.550  0.2407 -0.4679  0.2249
 3617SOL     OW22312   2.619   0.909  11.646  0.5081  0.6043  0.2608
 3617SOL    HW122313   2.564   0.858  11.706  1.5131 -0.6724  0.0970
 3617SOL    HW222314   2.703   0.897  11.690  2.1373  0.4208 -2.8771
 3618SOL     OW22315   2.052   2.386   3.205  0.1030 -0.5322 -0.4580
 3618SOL    HW122316   2.103   2.336   3.141 -0.3970 -0.9788 -0.5109
 3618SOL    HW222317   2.026   2.322   3.271 -0.3185 -0.5993 -0.6833
 3619SOL     OW22318   4.483   1.101   7.635 -0.4029 -0.0917  0.1546
 3619SOL    HW122319   4.576   1.085   7.617 -0.1788  2.0313 -0.6003
 3619SOL    HW222320   4.477   1.142   7.722  0.2084  0.1171  0.0983
 3620SOL     OW22321   0.860   4.582   8.849  0.2520  0.2999  0.0944
 3620SOL    HW122322   0.924   4.535   8.797 -1.6052  1.0914 -2.8788
 3620SOL    HW222323   0.871   4.673   8.823  0.7915  0.4041  0.6721
 3621SOL     OW22324   0.393   3.068   3.910  0.1242  0.3825  0.1202
 3621SOL    HW122325   0.445   3.103   3.982  0.5669 -1.0576  0.4913
 3621SOL    HW222326   0.316   3.052   3.965  1.1426 -2.6267  0.6440
 3622SOL     OW22327   3.927   4.117   9.662 -0.0410 -0.8596 -0.3539
 3622SOL    HW122328   3.840   4.152   9.680  0.1815 -1.2598  1.4358
 3622SOL    HW222329   3.984   4.191   9.680  0.7461 -1.5971  0.2287
 3623SOL     OW22330   2.068   1.475  12.126  0.0343  0.5805 -0.4102
 3623SOL    HW122331   2.018   1.458  12.206 -1.1960  2.6386 -0.7155
 3623SOL    HW222332   2.104   1.560  12.152  0.5220  0.1987  0.1567
 3624SOL     OW22333   1.915   3.334   5.928 -0.0557  0.2496 -0.3919
 3624SOL    HW122334   1.840   3.318   5.870 -2.3261  0.9986  2.3361
 3624SOL    HW222335   1.951   3.246   5.934  0.4540  0.4238 -0.9421
 3625SOL     OW22336   0.788   2.720   4.639  0.1133  0.1230  0.0883
 3625SOL    HW122337   0.852   2.780   4.602  0.1394 -0.9328 -1.6020
 3625SOL    HW222338   0.831   2.634   4.642 -0.0020  0.0271 -1.1331
 3626SOL     OW22339   0.228   3.834   2.155 -0.2610 -0.0223  0.5159
 3626SOL    HW122340   0.186   3.790   2.229  0.4989  0.3296  1.1528
 3626SOL    HW222341   0.306   3.779   2.154  0.5353  1.1558 -1.0682
 3627SOL     OW22342   0.947   0.398   7.042 -0.0434 -0.1341 -0.1334
 3627SOL    HW122343   0.929   0.491   7.056  0.9167  0.3268 -1.8950
 3627SOL    HW222344   0.866   0.357   7.071 -0.8774  0.8407 -1.0768
 3628SOL     OW22345   4.627   2.128  17.529 -0.2168  0.0041 -0.1100
 3628SOL    HW122346   4.579   2.072  17.468 -0.6526 -0.2198  0.4377
 3628SOL    HW222347   4.717   2.094  17.526  0.0248  0.6620 -0.3234
 3629SOL     OW22348   4.682   2.932   2.539 -0.1064  0.6040 -0.1042
 3629SOL    HW122349   4.706   2.927   2.447 -1.9325 -2.1655 -0.4416
 3629SOL    HW222350   4.629   2.854   2.555  1.2607 -0.4407 -0.6502
 3630SOL     OW22351   3.906   2.390   6.726  0.0631 -0.3617 -0.5790
 3630SOL    HW122352   3.921   2.481   6.699  1.8288  0.2229  2.3328
 3630SOL    HW222353   3.971   2.337   6.680 -0.1676  0.1151 -1.4634
 3631SOL     OW22354   4.675   4.652   2.163 -1.4145 -0.3367 -0.1017
 3631SOL    HW122355   4.704   4.671   2.073 -0.9374 -1.5176 -0.2035
 3631SOL    HW222356   4.583   4.636   2.144 -1.6981  2.2046 -0.8983
 3632SOL     OW22357   0.917   3.286   4.118 -0.2615  0.0820  0.4471
 3632SOL    HW122358   0.931   3.376   4.088  0.4479 -0.1560  0.0844
 3632SOL    HW222359   0.841   3.268   4.062  0.7515 -2.6431 -0.0664
 3633SOL     OW22360   4.365   0.598  10.525  0.4063 -0.6668 -0.2709
 3633SOL    HW122361   4.323   0.665  10.470 -0.0653  0.2402  1.1904
 3633SOL    HW222362   4.452   0.636  10.529 -1.1126  2.8165  0.0234
 3634SOL     OW22363   4.278   3.561  15.077 -0.3190 -0.1223 -0.3591
 3634SOL    HW122364   4.289   3.539  14.985  1.3197 -0.2496 -0.1383
 3634SOL    HW222365   4.255   3.480  15.123 -1.3307 -0.2231 -1.0428
 3635SOL     OW22366   3.135   3.138   7.998  0.0952  0.2474 -0.1478
 3635SOL    HW122367   3.180   3.219   8.024 -0.7309  0.2487  1.2875
 3635SOL    HW222368   3.069   3.184   7.947 -0.5932 -0.7562 -0.1626
 3636SOL     OW22369   3.720   1.199   9.199  0.3263  0.1623 -0.0813
 3636SOL    HW122370   3.745   1.127   9.141 -0.3454 -0.0865 -0.0676
 3636SOL    HW222371   3.798   1.255   9.198 -1.3894  2.5389  0.0483
 3637SOL     OW22372   1.330   3.865  13.048  0.1926  0.0750 -0.3153
 3637SOL    HW122373   1.306   3.951  13.082  0.9539 -0.6168  2.0095
 3637SOL    HW222374   1.362   3.814  13.123 -1.4769  0.5980  0.7500
 3638SOL     OW22375   1.636   2.958   4.759  0.0966  0.3739  0.5394
 3638SOL    HW122376   1.685   2.903   4.820 -0.2077 -0.2305  0.2451
 3638SOL    HW222377   1.668   2.927   4.674  0.5301 -2.0632  1.6035
 3639SOL     OW22378   3.306   3.696   2.326  0.3813  0.0996 -0.5094
 3639SOL    HW122379   3.373   3.629   2.315 -2.2736 -2.6184 -0.0631
 3639SOL    HW222380   3.225   3.646   2.335 -1.4320  3.0723 -0.5763
 3640SOL     OW22381   3.108   2.555   2.461 -0.5559 -0.0233 -0.6448
 3640SOL    HW122382   3.092   2.481   2.520 -2.8922  0.1354 -1.0947
 3640SOL    HW222383   3.054   2.535   2.385 -2.2933 -1.5147  0.9859
 3641SOL     OW22384   2.997   0.410   2.070 -0.4100 -0.1384 -0.1692
 3641SOL    HW122385   2.993   0.505   2.080 -0.5214 -0.1865  0.2519
 3641SOL    HW222386   3.089   0.402   2.098 -0.9305  0.0135  1.6051
 3642SOL     OW22387   1.954   0.491  12.043  0.3755  0.1585 -0.3325
 3642SOL    HW122388   1.967   0.519  11.952 -0.9444 -0.2896 -0.6590
 3642SOL    HW222389   2.044   0.464  12.061  1.0971  2.8718  0.1481
 3643SOL     OW22390   4.613   2.841   6.577  0.3243 -0.2800 -0.6534
 3643SOL    HW122391   4.521   2.864   6.576  1.0984  2.8383  1.1343
 3643SOL    HW222392   4.641   2.867   6.489  1.5554 -1.7038 -0.6899
 3644SOL     OW22393   4.472   2.966   0.640  0.2179  0.2404 -0.1333
 3644SOL    HW122394   4.483   2.904   0.712  0.2072 -1.3290 -1.4829
 3644SOL    HW222395   4.551   3.019   0.644  0.7916 -0.6886  0.5463
 3645SOL     OW22396   2.382   0.839  12.745 -0.6261 -0.9256 -0.2988
 3645SOL    HW122397   2.287   0.846  12.752 -0.4195 -2.3494  3.6739
 3645SOL    HW222398   2.381   0.756  12.792  0.6331 -1.3925 -1.0818
 3646SOL     OW22399   0.106   2.341  16.303 -0.0263 -0.5593  0.1224
 3646SOL    HW122400   0.093   2.301  16.389 -0.2399  0.5468  0.6017
 3646SOL    HW222401   0.017   2.365  16.277  0.4279  2.1696  1.1049
 3647SOL     OW22402   0.981   1.229  14.137  0.2152 -0.8071 -0.0018
 3647SOL    HW122403   1.050   1.292  14.160  0.2092 -0.5024 -0.7900
 3647SOL    HW222404   1.030   1.162  14.088 -2.6329 -2.1233 -1.0334
 3648SOL     OW22405   0.954   1.309  11.157  0.2643  0.7793  0.6274
 3648SOL    HW122406   0.862   1.296  11.135  0.3119  2.2860 -0.4656
 3648SOL    HW222407   0.999   1.238  11.113 -1.4961  0.4382 -0.6065
 3649SOL     OW22408   4.359   1.085   5.369 -0.2735  0.1891 -0.2745
 3649SOL    HW122409   4.399   1.052   5.289  0.0494 -0.9424  0.3511
 3649SOL    HW222410   4.411   1.163   5.389  0.7966 -1.0751  1.9566
 3650SOL     OW22411   1.166   1.222   2.578  0.8415  0.3985  0.1558
 3650SOL    HW122412   1.215   1.211   2.496 -0.3336  0.3711 -0.5539
 3650SOL    HW222413   1.150   1.317   2.580 -0.8259  0.1212  0.4522
 3651SOL     OW22414   2.505   3.460  12.848  0.9378  0.0070 -0.7635
 3651SOL    HW122415   2.456   3.541  12.834 -0.5520 -0.8713 -0.5566
 3651SOL    HW222416   2.435   3.409  12.888  2.9247 -0.2199  2.4238
 3652SOL     OW22417   3.795   3.513  16.010  0.3922 -0.0426  0.2098
 3652SOL    HW122418   3.703   3.517  15.984  0.9632  4.5659 -1.0614
 3652SOL    HW222419   3.824   3.541  15.924  0.6190  1.0583  0.6439
 3653SOL     OW22420   4.517   1.681   2.593 -0.5985  0.1463  0.1423
 3653SOL    HW122421   4.448   1.720   2.647 -1.9992 -1.2268 -0.6441
 3653SOL    HW222422   4.515   1.590   2.625 -1.1071 -0.0007 -0.2933
 3654SOL     OW22423   3.446   0.483   7.538  0.8049 -0.7696  0.2624
 3654SOL    HW122424   3.478   0.573   7.541  0.3921 -0.6220  0.3260
 3654SOL    HW222425   3.464   0.452   7.449 -1.4491 -1.3453 -0.0008
 3655SOL     OW22426   4.014   2.516  12.388 -0.2500 -0.0507  0.5708
 3655SOL    HW122427   4.015   2.481  12.477 -0.9721 -1.5723 -0.0420
 3655SOL    HW222428   3.936   2.570  12.399 -0.9930 -1.6423  3.0865
 3656SOL     OW22429   3.491   3.360   8.926  0.6583  0.4212  0.5116
 3656SOL    HW122430   3.491   3.297   8.854  1.1302 -0.8362  1.6070
 3656SOL    HW222431   3.541   3.304   8.985  0.7361 -1.5062 -1.3803
 3657SOL     OW22432   1.750   3.336  15.651  0.2167  0.0986  0.9985
 3657SOL    HW122433   1.768   3.282  15.574 -0.0403  0.8142  0.4313
 3657SOL    HW222434   1.803   3.288  15.714  0.6854 -0.9295 -0.1734
 3658SOL     OW22435   2.213   4.129   4.979  0.3298  0.1263 -0.6659
 3658SOL    HW122436   2.185   4.132   4.888 -0.5776 -2.6756 -0.4855
 3658SOL    HW222437   2.303   4.098   4.971  0.3430 -0.5661  1.9014
 3659SOL     OW22438   3.334   3.631   2.868  0.1341 -0.4848  0.4715
 3659SOL    HW122439   3.364   3.712   2.910 -0.3441 -0.6734  1.1646
 3659SOL    HW222440   3.272   3.673   2.809  0.0974  0.5725  1.2702
 3660SOL     OW22441   4.383   2.956   6.177 -0.1194 -0.0109 -0.5175
 3660SOL    HW122442   4.287   2.954   6.178 -0.0631 -2.1031  1.6212
 3660SOL    HW222443   4.403   2.862   6.184 -2.0763 -0.3791  0.0657
 3661SOL     OW22444   2.811   0.630   3.653  0.1645 -0.0988  0.2931
 3661SOL    HW122445   2.904   0.650   3.645 -0.0895  1.1502  0.4557
 3661SOL    HW222446   2.796   0.658   3.743  4.0303  0.7007  0.6940
 3662SOL     OW22447   4.590   4.503   8.572 -0.0570 -0.3831  0.1270
 3662SOL    HW122448   4.556   4.428   8.522 -0.1216 -2.7332  3.6990
 3662SOL    HW222449   4.534   4.577   8.550 -0.0435 -0.8634 -1.4969
 3663SOL     OW22450   0.842   1.559  10.509  0.1494  1.0927 -0.2024
 3663SOL    HW122451   0.767   1.597  10.463 -1.7321 -0.0783  1.8966
 3663SOL    HW222452   0.901   1.541  10.436 -0.2763  1.1809 -0.5670
 3664SOL     OW22453   2.314   0.645  12.070 -0.0734 -0.1004 -0.3104
 3664SOL    HW122454   2.257   0.709  12.026 -0.1513  1.8098  2.6011
 3664SOL    HW222455   2.270   0.566  12.041  0.8438 -1.3710  1.7769
 3665SOL     OW22456   4.355   3.111   8.876  0.2869  0.3580 -0.2222
 3665SOL    HW122457   4.309   3.045   8.928 -2.5681  1.8222 -0.8619
 3665SOL    HW222458   4.436   3.068   8.852  0.5171  1.0564 -0.6927
 3666SOL     OW22459   1.421   2.081   4.270 -0.0339  0.1693  0.0073
 3666SOL    HW122460   1.339   2.127   4.251 -1.2144 -2.7385 -1.8984
 3666SOL    HW222461   1.445   2.066   4.178 -0.1078  0.2278 -0.0209
 3667SOL     OW22462   0.251   0.514   3.615  0.6583  0.0507  0.5815
 3667SOL    HW122463   0.268   0.439   3.671  1.5410  1.9296  2.8308
 3667SOL    HW222464   0.190   0.568   3.665  0.0002  1.5105 -1.7893
 3668SOL     OW22465   2.096   1.266  13.477  0.3070 -0.5553 -0.2315
 3668SOL    HW122466   2.018   1.316  13.451  0.4001 -0.9287 -1.2541
 3668SOL    HW222467   2.136   1.227  13.399 -1.4515 -0.9814 -0.9129
 3669SOL     OW22468   0.553   4.204   7.694 -0.2546 -0.1499  0.1215
 3669SOL    HW122469   0.642   4.224   7.721 -0.3270  1.7566 -1.0445
 3669SOL    HW222470   0.513   4.146   7.759 -1.4972  0.2798 -0.2413
 3670SOL     OW22471   1.518   2.762  10.318 -0.7137  0.2424  0.2893
 3670SOL    HW122472   1.566   2.842  10.341  0.1407  0.3654 -1.9653
 3670SOL    HW222473   1.425   2.781  10.325 -1.6647 -3.5794 -2.2178
 3671SOL     OW22474   1.098   1.107   4.250 -0.2104  0.3606 -0.7712
 3671SOL    HW122475   1.131   1.059   4.174  0.2884  0.6877 -0.7530
 3671SOL    HW222476   1.077   1.194   4.216 -2.7803  0.2841  0.6203
 3672SOL     OW22477   1.031   2.542   1.231 -0.2812  0.1304  0.1151
 3672SOL    HW122478   1.022   2.453   1.195 -1.2277 -0.4131  1.7266
 3672SOL    HW222479   1.120   2.535   1.265 -0.3836 -0.1170  0.3346
 3673SOL     OW22480   2.737   1.885  13.245  0.1980  0.3077  0.4694
 3673SOL    HW122481   2.679   1.933  13.304  0.8539  1.2413  0.3552
 3673SOL    HW222482   2.695   1.799  13.236  0.6151  0.1153  0.3543
 3674SOL     OW22483   4.214   3.694   0.081 -0.6306  0.0089 -0.0933
 3674SOL    HW122484   4.167   3.679  17.708  0.7348 -1.1235 -0.6675
 3674SOL    HW222485   4.140   3.689   0.142 -1.6970  0.7848 -1.3110
 3675SOL     OW22486   2.309   0.531  14.136 -0.1168  1.0397  0.4598
 3675SOL    HW122487   2.376   0.533  14.205 -0.1995 -0.4457  0.5980
 3675SOL    HW222488   2.296   0.622  14.109 -1.5795  0.5606 -0.4570
 3676SOL     OW22489   2.157   1.669   2.048 -0.2139 -0.1007 -0.7678
 3676SOL    HW122490   2.105   1.663   2.129  0.5219  2.6550 -0.0854
 3676SOL    HW222491   2.186   1.578   2.038 -0.2251  0.2120 -3.6042
 3677SOL     OW22492   4.103   0.017   8.203 -0.4756 -0.6685  0.1465
 3677SOL    HW122493   4.174   0.038   8.264 -0.3129  0.1616 -0.3368
 3677SOL    HW222494   4.044   4.696   8.261 -0.0759 -2.2728 -0.7716
 3678SOL     OW22495   3.554   1.883   6.273 -0.1091  0.3684  0.3699
 3678SOL    HW122496   3.548   1.787   6.275  1.0781  0.2845  0.3674
 3678SOL    HW222497   3.509   1.900   6.190  0.7665 -1.5871 -0.5123
 3679SOL     OW22498   3.546   3.961   3.129  0.2867 -0.2076  0.4134
 3679SOL    HW122499   3.576   4.033   3.074 -0.9038 -0.3721 -0.4458
 3679SOL    HW222500   3.460   3.952   3.089  0.1263 -1.3206  1.0310
 3680SOL     OW22501   1.939   3.665   0.869 -0.2581 -0.2277  0.5543
 3680SOL    HW122502   1.995   3.735   0.902 -0.6644  0.3877 -0.0830
 3680SOL    HW222503   1.890   3.648   0.950 -1.5326  1.8836  0.2293
 3681SOL     OW22504   1.286   4.040   7.154  0.5170 -0.2155 -0.1700
 3681SOL    HW122505   1.330   4.055   7.237  1.4763  0.2353 -0.7644
 3681SOL    HW222506   1.220   4.109   7.148  1.6992  0.9215  0.0838
 3682SOL     OW22507   4.564   3.843   1.459  0.3173  0.3640  0.3591
 3682SOL    HW122508   4.499   3.911   1.477 -0.3105 -0.0990 -0.1539
 3682SOL    HW222509   4.638   3.895   1.492 -0.0443  0.9866  0.1678
 3683SOL     OW22510   1.214   3.872   4.858  0.2032  0.2287 -0.7779
 3683SOL    HW122511   1.241   3.784   4.885  1.0300  0.6895 -0.0771
 3683SOL    HW222512   1.299   3.912   4.841 -0.2696  1.7358  0.3721
 3684SOL     OW22513   2.537   0.298   7.406 -0.1651 -0.2903 -0.4731
 3684SOL    HW122514   2.560   0.205   7.397 -0.5200 -0.2007 -2.1784
 3684SOL    HW222515   2.443   0.281   7.405  0.0677 -1.4924 -1.4348
 3685SOL     OW22516   2.434   0.320   1.216 -0.0518  0.1913 -0.1492
 3685SOL    HW122517   2.382   0.271   1.280  2.1307 -0.5965  1.0091
 3685SOL    HW222518   2.478   0.378   1.277  0.1263  0.9181 -0.9768
 3686SOL     OW22519   0.867   0.193  15.174 -0.0148  0.4106 -0.2367
 3686SOL    HW122520   0.775   0.169  15.165  0.5672 -0.3964 -4.1800
 3686SOL    HW222521   0.869   0.212  15.268 -0.4411  1.2050 -0.3820
 3687SOL     OW22522   1.541   0.450  12.901 -0.2871 -0.2385  0.1848
 3687SOL    HW122523   1.573   0.392  12.970 -0.2555  0.9582  1.1649
 3687SOL    HW222524   1.447   0.439  12.890 -0.5732  0.8225  1.5032
 3688SOL     OW22525   0.692   4.725   6.806  0.7062 -0.0989 -0.7010
 3688SOL    HW122526   0.638   4.670   6.749  0.8774 -1.8533  0.8212
 3688SOL    HW222527   0.760   4.659   6.817  1.6215  1.0615  0.5897
 3689SOL     OW22528   2.615   0.986  17.325 -0.0365  0.8203  0.2926
 3689SOL    HW122529   2.646   1.076  17.312 -1.4128  1.4097  1.0321
 3689SOL    HW222530   2.523   1.012  17.315 -0.0258  0.6387 -0.2417
 3690SOL     OW22531   3.461   0.413   2.551 -0.1464 -0.6289 -0.1668
 3690SOL    HW122532   3.371   0.412   2.519  0.4545 -1.9472 -1.8477
 3690SOL    HW222533   3.455   0.504   2.580 -0.3731 -0.1694 -1.6314
 3691SOL     OW22534   1.468   2.611   7.616  0.2232  0.5294 -0.1647
 3691SOL    HW122535   1.562   2.611   7.596  0.5185 -0.6553  1.2573
 3691SOL    HW222536   1.478   2.581   7.706 -0.3669  0.9603  0.0396
 3692SOL     OW22537   0.390   0.139   2.556 -0.1698 -0.2250  0.0632
 3692SOL    HW122538   0.296   0.137   2.574 -0.3916  0.2130 -1.0365
 3692SOL    HW222539   0.414   0.049   2.578  1.2721  0.9584  3.3620
 3693SOL     OW22540   0.352   0.221  11.276 -0.1948  0.2167  0.3223
 3693SOL    HW122541   0.293   0.177  11.337 -0.2096 -1.2121 -0.7203
 3693SOL    HW222542   0.344   0.167  11.197 -0.2552  1.7468 -0.7198
 3694SOL     OW22543   2.407   0.873   7.310  0.0879  0.1175  0.3684
 3694SOL    HW122544   2.433   0.873   7.402  0.0320  0.4991  0.3841
 3694SOL    HW222545   2.420   0.785   7.276  0.4894 -0.2922  1.5624
 3695SOL     OW22546   1.500   1.506   3.008 -0.2580  0.4572 -1.0239
 3695SOL    HW122547   1.558   1.474   2.938 -2.4200 -0.4345 -2.4082
 3695SOL    HW222548   1.434   1.437   3.002  1.5750 -1.3597 -0.3395
 3696SOL     OW22549   1.546   2.153  13.184 -0.2287  0.0699  0.1915
 3696SOL    HW122550   1.467   2.165  13.131  0.8048  3.6307 -0.5968
 3696SOL    HW222551   1.530   2.076  13.238 -0.5969 -0.1943 -0.2974
 3697SOL     OW22552   1.458   0.236   3.870 -0.3021 -0.4211  0.1885
 3697SOL    HW122553   1.485   0.195   3.788 -1.4655  0.4045 -0.6070
 3697SOL    HW222554   1.526   0.215   3.935  1.0080  0.9212 -0.7436
 3698SOL     OW22555   0.691   2.135   3.250 -0.0190 -0.1110  0.1383
 3698SOL    HW122556   0.750   2.163   3.320  2.1361 -2.4730 -0.7301
 3698SOL    HW222557   0.641   2.215   3.235 -0.6411 -0.1463  1.9317
 3699SOL     OW22558   2.703   0.291  12.180  0.0930 -0.3813 -0.4783
 3699SOL    HW122559   2.633   0.226  12.185  1.3485 -1.6885  0.0721
 3699SOL    HW222560   2.729   0.304  12.271 -3.5418 -1.2839  0.6629
 3700SOL     OW22561   1.001   0.448   9.793 -0.7011  0.2339  0.0015
 3700SOL    HW122562   0.913   0.432   9.826 -0.7483 -0.6799 -0.5640
 3700SOL    HW222563   1.036   0.359   9.787  2.0011  1.4707 -2.4965
 3701SOL     OW22564   2.280   2.245   3.689 -0.5128  0.2281  0.1279
 3701SOL    HW122565   2.236   2.162   3.707  0.9777 -1.1812 -2.7318
 3701SOL    HW222566   2.280   2.287   3.775 -2.0162  0.4826 -0.0014
 3702SOL     OW22567   3.835   1.454  16.351  0.2969  0.0550  0.1695
 3702SOL    HW122568   3.882   1.374  16.327 -1.9214 -1.4012  0.7280
 3702SOL    HW222569   3.902   1.518  16.327  1.3235 -2.1813 -2.9154
 3703SOL     OW22570   2.934   3.901   6.799  0.7358 -0.2276  0.8998
 3703SOL    HW122571   2.871   3.945   6.855  1.2332  1.0353  0.4523
 3703SOL    HW222572   2.879   3.824   6.782  1.6963 -0.9222  0.9133
 3704SOL     OW22573   3.359   3.689  17.019 -0.1786  0.3034 -0.6269
 3704SOL    HW122574   3.265   3.689  17.000  0.0092  0.4344 -1.5453
 3704SOL    HW222575   3.380   3.783  17.013  2.0117 -0.0556  1.3272
 3705SOL     OW22576   1.483   0.001   5.512 -0.4428  0.5127  0.0149
 3705SOL    HW122577   1.450   0.088   5.536 -1.1577  0.6602 -1.4593
 3705SOL    HW222578   1.566   4.721   5.557  0.1978  3.2809 -0.7271
 3706SOL     OW22579   2.287   2.557   4.143 -0.0941 -0.4660  0.5979
 3706SOL    HW122580   2.263   2.622   4.077  1.3767 -0.0953  0.4307
 3706SOL    HW222581   2.369   2.593   4.177  0.3419 -0.5435 -0.3888
 3707SOL     OW22582   3.870   4.611   2.870 -0.8395  0.4897  0.0003
 3707SOL    HW122583   3.778   4.596   2.892 -0.5997 -2.9369 -1.4349
 3707SOL    HW222584   3.875   4.623   2.776  0.7417 -0.8592 -0.0794
 3708SOL     OW22585   1.919   0.285  16.126 -0.3927 -0.5766  0.1531
 3708SOL    HW122586   1.926   0.297  16.221 -1.8875  3.9001 -0.3147
 3708SOL    HW222587   1.928   0.191  16.109 -1.6543 -0.8155  0.7943
 3709SOL     OW22588   1.348   3.725   9.717  0.2124 -0.4466  0.2479
 3709SOL    HW122589   1.333   3.819   9.707 -1.6923 -0.5788  1.7480
 3709SOL    HW222590   1.277   3.703   9.778 -0.2077  1.5790  0.4909
 3710SOL     OW22591   2.834   3.232  17.074  0.4247  0.2915  0.0668
 3710SOL    HW122592   2.763   3.189  17.122 -2.7034  1.1803 -3.7196
 3710SOL    HW222593   2.859   3.172  17.003 -2.1260 -1.6157  0.7997
 3711SOL     OW22594   0.682   0.630   3.068 -0.1967  0.2942 -0.5864
 3711SOL    HW122595   0.761   0.644   3.015 -0.0623 -2.4983 -1.1150
 3711SOL    HW222596   0.715   0.633   3.158 -0.5105 -0.2276 -0.4589
 3712SOL     OW22597   1.391   1.720  13.796 -0.3521 -0.0256  0.6056
 3712SOL    HW122598   1.423   1.705  13.885 -0.1044 -1.0242  0.3502
 3712SOL    HW222599   1.370   1.813  13.790 -0.5698 -0.2122 -1.8652
 3713SOL     OW22600   3.169   2.091  12.971  0.2337 -0.2512 -0.3664
 3713SOL    HW122601   3.218   2.032  12.913  0.2771 -1.3111  0.7308
 3713SOL    HW222602   3.240   2.154  12.985  1.8430 -1.7438 -1.7634
 3714SOL     OW22603   0.994   2.789   8.960  0.1864  0.2955 -0.3066
 3714SOL    HW122604   1.020   2.702   8.931 -1.8257 -0.7476  1.0917
 3714SOL    HW222605   0.935   2.773   9.033  1.7610 -0.3749  0.8337
 3715SOL     OW22606   0.074   3.788   3.363 -0.7417 -0.4476  0.2614
 3715SOL    HW122607   0.058   3.879   3.339 -0.1139 -0.0442  1.3704
 3715SOL    HW222608   0.110   3.758   3.280  1.0471  2.7064 -0.1004
 3716SOL     OW22609   4.069   3.222   8.189  0.2640 -0.2740 -0.4535
 3716SOL    HW122610   4.157   3.188   8.206 -0.2351 -1.2579  0.1466
 3716SOL    HW222611   4.034   3.222   8.278 -1.5258  2.5976 -1.1875
 3717SOL     OW22612   4.380   3.324   2.698  0.5056  0.2571 -0.3411
 3717SOL    HW122613   4.403   3.402   2.647 -1.5524  1.1849  0.1366
 3717SOL    HW222614   4.295   3.310   2.657  0.4360 -0.0964 -0.0788
 3718SOL     OW22615   2.401   2.696   5.213  0.0407  0.0276 -0.2898
 3718SOL    HW122616   2.410   2.661   5.125 -1.5922 -1.5187  0.1783
 3718SOL    HW222617   2.490   2.732   5.223 -0.2283  0.2838  1.2662
 3719SOL     OW22618   0.149   2.904   4.902  1.1588  0.2111  1.0793
 3719SOL    HW122619   0.237   2.889   4.935  1.4860 -2.1056 -0.8874
 3719SOL    HW222620   0.111   2.817   4.892 -1.3110  1.1261  2.4177
 3720SOL     OW22621   2.388   2.014  17.663  0.0194 -0.5426 -0.0977
 3720SOL    HW122622   2.391   2.069   0.032  0.1994 -2.6141  1.3633
 3720SOL    HW222623   2.446   1.943  17.692 -1.1429 -1.4919 -0.0835
 3721SOL     OW22624   0.032   1.469   3.058 -0.4492  0.3976  0.2316
 3721SOL    HW122625   0.019   1.432   2.970  0.6211  0.8644 -0.1098
 3721SOL    HW222626   4.666   1.463   3.081  0.1100 -2.0670  1.9692
 3722SOL     OW22627   0.239   2.932   9.476 -0.2935  0.4620  0.0880
 3722SOL    HW122628   0.145   2.924   9.489 -0.1658 -0.0872  0.6735
 3722SOL    HW222629   0.259   2.855   9.423  1.7100 -0.2719  1.8982
 3723SOL     OW22630   4.468   1.369  17.059 -0.7410  0.2831 -0.6985
 3723SOL    HW122631   4.402   1.430  17.026  0.0166  1.1213 -0.6550
 3723SOL    HW222632   4.429   1.351  17.145 -1.7629 -1.2881 -1.4833
 3724SOL     OW22633   2.498   0.212  13.946 -0.2558 -0.0204  0.8761
 3724SOL    HW122634   2.531   0.196  13.857 -2.4374 -0.7673  0.1934
 3724SOL    HW222635   2.521   0.136  13.998  1.2269 -2.0330 -2.7110
 3725SOL     OW22636   0.739   4.402   3.890  0.4332 -0.4135  0.3668
 3725SOL    HW122637   0.783   4.479   3.852  0.3764 -0.9523 -0.7846
 3725SOL    HW222638   0.794   4.395   3.968 -1.3104  1.2200  1.7404
 3726SOL     OW22639   4.313   0.121   4.534 -0.1453 -0.4898  0.3666
 3726SOL    HW122640   4.222   0.143   4.516  0.1304  2.0318  1.9831
 3726SOL    HW222641   4.316   0.033   4.572 -1.5893 -0.4143  0.6692
 3727SOL     OW22642   0.677   1.409   8.015  0.3148  0.1312  0.1280
 3727SOL    HW122643   0.750   1.415   7.953 -0.6112  1.0101 -0.8750
 3727SOL    HW222644   0.603   1.457   7.977  0.7883  0.9928  0.2874
 3728SOL     OW22645   1.421   2.962   5.694  0.4300 -0.3101 -0.2402
 3728SOL    HW122646   1.382   2.983   5.609  0.3491  0.7345  0.0518
 3728SOL    HW222647   1.347   2.969   5.754 -0.3903 -1.4859 -1.1224
 3729SOL     OW22648   3.464   4.540   2.606 -0.1712 -0.1080  0.0231
 3729SOL    HW122649   3.500   4.587   2.531  1.1162  1.0672  1.3653
 3729SOL    HW222650   3.381   4.507   2.571 -0.8406  0.9640  0.6021
 3730SOL     OW22651   3.308   3.266   6.109 -0.3708 -0.0599 -0.5384
 3730SOL    HW122652   3.310   3.361   6.125 -1.6740  0.2525 -2.1742
 3730SOL    HW222653   3.236   3.243   6.169  0.7853 -0.6541  0.6102
 3731SOL     OW22654   0.550   2.172  15.521  0.0019  0.2523 -0.2768
 3731SOL    HW122655   0.553   2.113  15.596 -2.0005  2.1847  1.3166
 3731SOL    HW222656   0.583   2.257  15.549  0.4336  0.5179 -1.6096
 3732SOL     OW22657   2.656   3.978   2.480 -0.1412 -0.1319 -0.2536
 3732SOL    HW122658   2.564   4.005   2.476  0.1134  0.9821  1.2599
 3732SOL    HW222659   2.639   3.917   2.551 -1.4455 -0.5009 -0.8800
 3733SOL     OW22660   0.979   0.950   6.086 -0.7230 -0.4843  0.6903
 3733SOL    HW122661   0.904   0.941   6.028 -1.3824  1.0152  1.3131
 3733SOL    HW222662   0.938   1.000   6.157 -0.4712  1.1886 -0.3397
 3734SOL     OW22663   0.578   3.598   3.516 -0.6657  0.4301  0.3904
 3734SOL    HW122664   0.660   3.647   3.522  0.5175 -1.3957 -1.0127
 3734SOL    HW222665   0.513   3.658   3.554  1.4750  2.9054  0.1304
 3735SOL     OW22666   4.649   3.704   7.060  0.4205 -0.0371 -0.1983
 3735SOL    HW122667   4.627   3.612   7.071 -2.5851  0.4793 -1.9123
 3735SOL    HW222668   4.595   3.741   7.130  2.3608  0.2671  1.1448
 3736SOL     OW22669   3.172   0.146   2.348 -0.3964 -0.0965  0.1506
 3736SOL    HW122670   3.233   0.124   2.278  0.4279 -1.6032  1.3437
 3736SOL    HW222671   3.147   0.054   2.352 -0.6027 -0.0688 -0.5145
 3737SOL     OW22672   3.177   1.777   9.268  0.3026  0.3217  0.2340
 3737SOL    HW122673   3.261   1.812   9.241  1.3359 -2.6761 -0.4693
 3737SOL    HW222674   3.168   1.705   9.206  1.8024 -1.1650  1.7367
 3738SOL     OW22675   3.801   4.483  12.695 -0.0724 -0.2903 -0.4507
 3738SOL    HW122676   3.727   4.510  12.749 -1.0108  0.8345 -2.3070
 3738SOL    HW222677   3.819   4.395  12.727 -0.5984 -0.9971 -2.0842
 3739SOL     OW22678   2.967   0.762   8.070  0.4094  0.4602  0.1622
 3739SOL    HW122679   3.009   0.699   8.129  1.7175  0.3480 -0.8993
 3739SOL    HW222680   3.022   0.756   7.992 -0.8115 -1.0666 -0.5807
 3740SOL     OW22681   3.972   1.760   1.522  0.1736 -0.3140 -0.4241
 3740SOL    HW122682   4.027   1.786   1.595 -0.7127 -0.9948  0.4755
 3740SOL    HW222683   4.003   1.814   1.449 -1.9140 -0.9048 -1.7504
 3741SOL     OW22684   4.596   3.895   4.140  0.4092 -0.0649 -0.1383
 3741SOL    HW122685   4.675   3.949   4.140  0.4975 -0.1717  1.3910
 3741SOL    HW222686   4.622   3.836   4.211  1.0580 -1.3099 -1.4070
 3742SOL     OW22687   3.708   3.824  15.737 -0.0188  0.6069  0.1629
 3742SOL    HW122688   3.706   3.897  15.799 -0.2376  0.6481  0.1058
 3742SOL    HW222689   3.694   3.865  15.652 -0.6528  0.0240 -0.0116
 3743SOL     OW22690   1.523   2.629   6.583  0.5533  0.3483  0.0202
 3743SOL    HW122691   1.560   2.562   6.640  1.3047  0.1270 -0.7298
 3743SOL    HW222692   1.469   2.673   6.649  0.3296 -0.8574  0.6360
 3744SOL     OW22693   3.109   3.152   5.580 -0.0179 -0.1667  0.4655
 3744SOL    HW122694   3.029   3.123   5.536  1.1632  0.8412 -2.3197
 3744SOL    HW222695   3.091   3.119   5.668  2.5141  0.5513  1.2400
 3745SOL     OW22696   0.161   3.542   9.428  0.0659 -0.1688  0.4006
 3745SOL    HW122697   0.175   3.587   9.345  1.4879 -0.5146  0.4535
 3745SOL    HW222698   0.096   3.607   9.452 -0.6297  0.7563 -4.0419
 3746SOL     OW22699   4.016   0.705   1.321  0.0393 -0.2670  0.2592
 3746SOL    HW122700   3.961   0.672   1.250 -1.4745  0.9391  0.8813
 3746SOL    HW222701   4.018   0.798   1.300  0.9633 -0.6209 -1.2212
 3747SOL     OW22702   0.841   4.008   1.288  0.4609 -0.2242 -0.4100
 3747SOL    HW122703   0.843   4.081   1.349 -1.7125  0.6266 -1.3721
 3747SOL    HW222704   0.782   4.039   1.219 -1.3297  0.0411  1.2317
 3748SOL     OW22705   2.650   1.546   2.453  0.1981 -0.7341 -0.0296
 3748SOL    HW122706   2.621   1.493   2.379 -0.3823 -2.3170  1.3398
 3748SOL    HW222707   2.740   1.523   2.475  0.1602 -0.9389 -0.0914
 3749SOL     OW22708   0.116   2.694   9.955  0.2929  0.6900  0.4865
 3749SOL    HW122709   0.158   2.675   9.871 -0.0605 -0.2344  0.5231
 3749SOL    HW222710   0.080   2.782   9.949 -0.4729  0.3548  0.1437
 3750SOL     OW22711   2.047   1.896   5.199 -0.1464 -0.1073  0.0183
 3750SOL    HW122712   2.009   1.831   5.139 -1.1658  0.2297  0.2933
 3750SOL    HW222713   2.030   1.853   5.282  1.1606 -1.2132 -0.2905
 3751SOL     OW22714   0.576   2.554  11.866 -0.2472  0.2362  0.6979
 3751SOL    HW122715   0.616   2.544  11.779  1.3428 -0.6349  1.5163
 3751SOL    HW222716   0.556   2.647  11.870  1.4484  0.6972 -1.2575
 3752SOL     OW22717   1.500   3.878  16.617  0.1483 -0.4364  0.0813
 3752SOL    HW122718   1.448   3.858  16.539 -0.0236  0.7736 -0.1112
 3752SOL    HW222719   1.590   3.868  16.587  0.6622  1.6514  0.8901
 3753SOL     OW22720   3.214   4.126   9.971 -0.8317  0.0283  0.4865
 3753SOL    HW122721   3.283   4.174   9.925 -0.8938  0.4587  0.8361
 3753SOL    HW222722   3.210   4.182  10.049 -1.4019  0.2197  0.3245
 3754SOL     OW22723   0.302   2.803   7.332  0.3427 -0.2895 -0.2257
 3754SOL    HW122724   0.338   2.717   7.309  2.1148  0.9003 -1.9366
 3754SOL    HW222725   0.362   2.830   7.402 -0.0560 -2.2782  0.8741
 3755SOL     OW22726   3.024   4.112   8.669  0.1411  0.1820 -0.0847
 3755SOL    HW122727   3.067   4.183   8.717  1.7087 -0.3981 -0.6461
 3755SOL    HW222728   2.981   4.068   8.741 -0.9336  1.1831 -0.1100
 3756SOL     OW22729   3.907   2.472   1.437 -0.3268 -0.1346 -0.1528
 3756SOL    HW122730   3.881   2.485   1.346  3.4968  2.8909 -0.8506
 3756SOL    HW222731   3.872   2.545   1.488 -0.6831  0.4758 -1.2536
 3757SOL     OW22732   0.882   1.147  12.849  0.1899  0.3383  0.9196
 3757SOL    HW122733   0.961   1.095  12.860  0.6514  1.1516  1.4247
 3757SOL    HW222734   0.911   1.237  12.834  0.2186  0.3655  1.1343
 3758SOL     OW22735   4.611   1.554   6.198 -0.4148 -0.2814  0.2750
 3758SOL    HW122736   4.535   1.508   6.163  0.4290 -1.2111 -0.3407
 3758SOL    HW222737   4.617   1.624   6.134  1.3125  0.1274  0.8794
 3759SOL     OW22738   4.611   4.353   3.770 -1.1182 -0.1974 -0.3109
 3759SOL    HW122739   4.610   4.258   3.764  3.5445 -0.1536 -1.6789
 3759SOL    HW222740   4.667   4.365   3.694 -3.9653 -0.4993 -2.4832
 3760SOL     OW22741   0.652   3.991   9.082  0.1666 -0.0591 -0.4660
 3760SOL    HW122742   0.642   3.927   9.012  0.9530 -0.6605 -0.0242
 3760SOL    HW222743   0.660   3.923   9.149 -1.1067  1.2547  1.0104
 3761SOL     OW22744   2.381   2.301  14.611 -0.3509 -0.0698 -0.6869
 3761SOL    HW122745   2.311   2.356  14.576 -1.1643  0.3061  1.5217
 3761SOL    HW222746   2.355   2.217  14.572  0.2845 -0.0664 -1.1106
 3762SOL     OW22747   1.977   2.344   1.482 -0.3152  0.2844  0.5803
 3762SOL    HW122748   1.911   2.314   1.546 -0.2014  0.0995  0.6115
 3762SOL    HW222749   1.982   2.261   1.435  0.0740  0.3890  0.4427
 3763SOL     OW22750   2.381   0.109  15.688 -0.5667  0.0451 -0.1218
 3763SOL    HW122751   2.297   0.093  15.731 -0.5875  0.2276 -0.0941
 3763SOL    HW222752   2.421   0.155  15.762 -1.6457  1.0110 -0.1237
 3764SOL     OW22753   0.998   3.470   8.803 -0.1324 -0.5979  0.2845
 3764SOL    HW122754   0.919   3.424   8.833  0.2080 -2.5921 -1.8513
 3764SOL    HW222755   1.017   3.531   8.874  0.5688 -1.1938  0.6092
 3765SOL     OW22756   2.377   2.505   1.885  0.7106  0.2079 -0.2818
 3765SOL    HW122757   2.348   2.525   1.796 -0.4711 -4.5880 -0.9516
 3765SOL    HW222758   2.337   2.577   1.934  0.3907 -0.2946  0.1921
 3766SOL     OW22759   3.482   1.609   6.211 -0.3077  0.8558 -0.4171
 3766SOL    HW122760   3.393   1.599   6.247 -0.7000 -1.0908 -1.8997
 3766SOL    HW222761   3.489   1.530   6.157  1.9402  1.3637 -0.8516
 3767SOL     OW22762   4.106   3.134  15.047 -0.3210 -0.1628  0.3149
 3767SOL    HW122763   4.055   3.114  15.125  1.3529 -2.6738  0.7524
 3767SOL    HW222764   4.087   3.061  14.988 -3.1390  0.2235  0.7753
 3768SOL     OW22765   2.490   1.248   5.410 -0.0662  0.1637  0.2344
 3768SOL    HW122766   2.451   1.259   5.323  1.7402 -0.0521 -0.6084
 3768SOL    HW222767   2.417   1.277   5.464  0.8261 -1.2775  2.2055
 3769SOL     OW22768   3.627   0.063   5.873 -0.7782  0.2045 -0.4469
 3769SOL    HW122769   3.698   0.124   5.891  1.2469 -2.6108  1.1458
 3769SOL    HW222770   3.564   0.111   5.819  0.1244  0.8689 -0.8879
 3770SOL     OW22771   2.065   1.768   8.710 -0.0842 -0.5150 -0.0514
 3770SOL    HW122772   2.115   1.700   8.665 -0.6134 -0.5932 -0.5178
 3770SOL    HW222773   2.056   1.739   8.801 -1.0086  2.3441  0.7789
 3771SOL     OW22774   4.675   2.086   8.804 -0.5381 -0.2789  0.2586
 3771SOL    HW122775   4.636   2.002   8.825 -2.4857  1.2663  2.7770
 3771SOL    HW222776   4.597   2.128   8.767  0.9506  0.8568 -1.5998
 3772SOL     OW22777   3.077   3.551   2.346 -0.0061  0.4902 -0.2169
 3772SOL    HW122778   3.002   3.587   2.393 -0.4513 -1.1663  0.3614
 3772SOL    HW222779   3.052   3.459   2.335  2.4391  0.0615 -2.0810
 3773SOL     OW22780   3.185   2.282  13.466  0.2046 -0.0397  0.2952
 3773SOL    HW122781   3.111   2.296  13.407  0.5696  0.2250 -0.1032
 3773SOL    HW222782   3.238   2.248  13.393  1.4735  0.7137  0.8503
 3774SOL     OW22783   0.463   2.030   4.710  0.2708  0.3329  0.2124
 3774SOL    HW122784   0.542   1.976   4.715  0.6217  1.0159  2.0234
 3774SOL    HW222785   0.399   1.963   4.730 -1.5647  2.4814  1.5022
 3775SOL     OW22786   2.511   2.953   4.149  0.4310  0.4798  0.1340
 3775SOL    HW122787   2.430   2.915   4.185 -0.0381  0.3276 -1.1015
 3775SOL    HW222788   2.478   2.962   4.060  1.5937 -0.8879 -0.4264
 3776SOL     OW22789   1.734   3.780   6.119 -0.4271 -0.2291 -0.1473
 3776SOL    HW122790   1.664   3.791   6.055 -0.0877 -3.1677 -1.0517
 3776SOL    HW222791   1.689   3.790   6.203 -0.9995  0.2108 -0.5085
 3777SOL     OW22792   4.605   0.874   4.315 -0.8358  0.2891 -0.8672
 3777SOL    HW122793   4.617   0.790   4.359  0.3137 -0.5312 -2.7396
 3777SOL    HW222794   4.516   0.861   4.282 -1.7383 -0.0435  1.7116
 3778SOL     OW22795   1.791   0.801   1.741  0.0573 -0.1951  0.2016
 3778SOL    HW122796   1.753   0.863   1.803  1.6102 -2.3341  3.3441
 3778SOL    HW222797   1.759   0.721   1.783 -1.6458  0.7468  0.6900
 3779SOL     OW22798   0.930   1.262   2.102 -0.1302  0.0981  0.2912
 3779SOL    HW122799   0.972   1.226   2.024 -0.1366 -1.3696  0.9684
 3779SOL    HW222800   0.940   1.355   2.083  0.3257 -0.2512 -1.1226
 3780SOL     OW22801   0.059   2.446  10.031 -0.1209  0.2432  0.0469
 3780SOL    HW122802   0.084   2.535  10.006  1.3194 -0.4592 -1.0492
 3780SOL    HW222803   0.128   2.397   9.986  1.0621  3.1408 -1.2745
 3781SOL     OW22804   4.173   4.134   2.427 -0.0943  0.3289 -0.3766
 3781SOL    HW122805   4.118   4.088   2.491 -1.4894 -0.3858 -2.0738
 3781SOL    HW222806   4.218   4.064   2.379  1.1236  1.8269 -1.3862
 3782SOL     OW22807   3.133   2.771   3.190 -0.2168  0.3574  0.1389
 3782SOL    HW122808   3.143   2.831   3.263 -1.0730  0.9410 -0.2277
 3782SOL    HW222809   3.065   2.812   3.137 -2.3904 -0.8186  2.0540
 3783SOL     OW22810   1.210   3.520   5.335  0.2396  0.1790 -0.5186
 3783SOL    HW122811   1.190   3.430   5.309 -1.5468  0.5016 -0.2618
 3783SOL    HW222812   1.134   3.547   5.387 -0.3349  0.8301 -1.6917
 3784SOL     OW22813   0.025   3.459  10.135  0.1973 -0.1666 -0.6732
 3784SOL    HW122814   0.065   3.482  10.219 -0.2647  1.8723 -1.0096
 3784SOL    HW222815   0.100   3.472  10.076 -0.6209  1.6234 -1.3377
 3785SOL     OW22816   2.559   4.568   3.363  0.1003  0.0001  0.3915
 3785SOL    HW122817   2.487   4.562   3.300  0.9312 -1.1237 -0.4634
 3785SOL    HW222818   2.624   4.588   3.296 -1.8851 -1.9970 -2.1388
 3786SOL     OW22819   1.445   1.711   2.442  0.2692 -0.0005  0.1499
 3786SOL    HW122820   1.369   1.763   2.469  1.1324  1.7112 -0.6878
 3786SOL    HW222821   1.421   1.622   2.466  3.3240 -0.8226  0.1926
 3787SOL     OW22822   4.446   2.700   6.205  0.3629 -0.2051  0.3638
 3787SOL    HW122823   4.483   2.650   6.278  0.9995 -0.9912 -0.4950
 3787SOL    HW222824   4.421   2.624   6.154  0.6461  1.0212 -1.6167
 3788SOL     OW22825   1.941   2.319   1.791 -0.3003 -0.1583  0.1785
 3788SOL    HW122826   1.931   2.406   1.828 -0.7321 -0.7937  1.5731
 3788SOL    HW222827   1.862   2.299   1.740 -0.7876  1.7100  0.2110
 3789SOL     OW22828   3.912   2.516   9.103 -0.4926  0.1219 -0.1968
 3789SOL    HW122829   3.954   2.541   9.020  0.4459  1.2226  0.6181
 3789SOL    HW222830   3.990   2.508   9.158 -0.9973  1.5109  0.7042
 3790SOL     OW22831   0.396   0.650  11.122  0.4297 -0.4682  0.7466
 3790SOL    HW122832   0.322   0.711  11.121 -1.3463 -2.6494 -1.0285
 3790SOL    HW222833   0.474   0.704  11.108 -0.9941  0.6629 -2.8159
 3791SOL     OW22834   0.014   1.860  16.265  0.3190 -0.3674 -0.1204
 3791SOL    HW122835   4.688   1.784  16.243 -1.4658  1.3725 -1.7569
 3791SOL    HW222836   4.674   1.920  16.296  1.5822  1.0022 -0.0055
 3792SOL     OW22837   1.066   3.425   6.157 -0.0721 -0.6890  0.2335
 3792SOL    HW122838   0.975   3.448   6.173 -0.8097 -1.2762 -3.1847
 3792SOL    HW222839   1.095   3.408   6.247  0.0479  3.4281  0.9694
 3793SOL     OW22840   3.560   3.914   8.377 -0.0017 -0.0529  0.1088
 3793SOL    HW122841   3.653   3.930   8.394  0.4132 -2.1509 -0.1602
 3793SOL    HW222842   3.536   3.976   8.309  1.6470 -0.0992 -0.5042
 3794SOL     OW22843   0.304   3.318  13.221  0.4698 -0.6447  0.3523
 3794SOL    HW122844   0.242   3.253  13.189  0.0326  0.1126 -0.3302
 3794SOL    HW222845   0.388   3.273  13.224  1.0418  0.3346 -0.9990
 3795SOL     OW22846   2.633   3.444   3.279 -0.2524 -0.1802  0.3227
 3795SOL    HW122847   2.606   3.531   3.250 -1.3774 -0.5297  0.3341
 3795SOL    HW222848   2.634   3.397   3.196  0.8265  0.2996  0.0665
 3796SOL     OW22849   1.709   3.935  14.192 -0.6046 -0.2383 -0.1869
 3796SOL    HW122850   1.706   4.000  14.122  2.5905  0.4351  0.3182
 3796SOL    HW222851   1.683   4.000  14.257 -1.8941 -0.7792 -0.1721
 3797SOL     OW22852   1.813   4.209   3.685  0.7656  0.0655  0.4213
 3797SOL    HW122853   1.781   4.152   3.615  0.6604 -0.2417  0.7167
 3797SOL    HW222854   1.860   4.145   3.739  1.7723 -0.2021 -0.7769
 3798SOL     OW22855   2.993   0.048  15.006  0.2770  0.0843 -0.4860
 3798SOL    HW122856   2.976   4.683  15.024  0.3638  0.3811  1.1224
 3798SOL    HW222857   3.047   0.035  14.928  0.7265 -1.0424  0.0006
 3799SOL     OW22858   0.541   4.475   9.467  0.3194 -0.0228  0.1948
 3799SOL    HW122859   0.626   4.505   9.435 -0.0809 -1.5960 -2.2730
 3799SOL    HW222860   0.540   4.385   9.437 -3.3513  0.6283 -1.6829
 3800SOL     OW22861   0.611   2.825   7.910 -0.4058 -0.6823  0.4132
 3800SOL    HW122862   0.532   2.846   7.860  1.4428  0.2630 -2.0859
 3800SOL    HW222863   0.644   2.759   7.849 -0.2326 -1.0272  0.8820
 3801SOL     OW22864   0.147   0.179   1.611 -0.4150 -0.0625  0.4994
 3801SOL    HW122865   0.136   0.261   1.659  2.8505  0.4851  0.3297
 3801SOL    HW222866   0.242   0.167   1.613 -0.3772  0.1003 -0.5784
 3802SOL     OW22867   1.677   2.095   8.975  0.2264  0.4403  0.4102
 3802SOL    HW122868   1.593   2.083   9.019 -0.9114  2.6953 -1.1873
 3802SOL    HW222869   1.652   2.069   8.887  2.3286  1.6428 -0.5382
 3803SOL     OW22870   0.209   4.134   9.597  0.0230  0.3143  0.3374
 3803SOL    HW122871   0.228   4.115   9.505  2.0832 -1.1350  1.0727
 3803SOL    HW222872   0.232   4.227   9.592  0.2304  0.1406 -2.1637
 3804SOL     OW22873   3.865   3.459   4.103  0.2097  0.3147  0.1441
 3804SOL    HW122874   3.776   3.490   4.088  0.4491  1.3361  0.8640
 3804SOL    HW222875   3.872   3.450   4.198 -0.1058 -1.1434  0.0369
 3805SOL     OW22876   3.997   3.055   8.811 -0.0864 -0.0087  0.0467
 3805SOL    HW122877   3.920   3.026   8.762 -0.4196 -1.6583  1.5331
 3805SOL    HW222878   4.032   2.967   8.828  1.4536  0.7045  0.5488
 3806SOL     OW22879   0.946   0.720   7.042  0.1527  0.3280 -0.6589
 3806SOL    HW122880   0.852   0.736   7.052  0.2682 -0.3747  1.4764
 3806SOL    HW222881   0.976   0.762   7.123 -1.5504 -2.9861  1.6860
 3807SOL     OW22882   1.603   2.265   6.797  0.2294  0.3343  0.0425
 3807SOL    HW122883   1.569   2.264   6.887 -1.8642  1.5663 -0.7398
 3807SOL    HW222884   1.535   2.223   6.745 -1.1675  2.3440  0.2184
 3808SOL     OW22885   3.245   4.703   3.310 -1.0218  0.4662 -0.4187
 3808SOL    HW122886   3.213   4.619   3.275  0.5387 -0.6224  0.7477
 3808SOL    HW222887   3.244   0.026   3.229 -2.5509  0.3025 -0.5010
 3809SOL     OW22888   4.272   3.589   7.368 -0.4562  0.6087  0.0104
 3809SOL    HW122889   4.260   3.510   7.315  2.7617  1.3945 -1.9416
 3809SOL    HW222890   4.181   3.619   7.371 -0.8818 -0.8377  1.4935
 3810SOL     OW22891   3.326   0.967   4.266 -0.3407 -0.0809 -0.2986
 3810SOL    HW122892   3.402   0.943   4.213 -1.1141 -1.5070 -0.7727
 3810SOL    HW222893   3.328   1.062   4.254  0.1162 -0.1981 -1.1968
 3811SOL     OW22894   1.245   2.174   0.286  0.3320 -0.5019 -0.2632
 3811SOL    HW122895   1.177   2.106   0.285 -1.0060  0.7931  1.6130
 3811SOL    HW222896   1.317   2.127   0.243  1.8763 -0.3720  2.1351
 3812SOL     OW22897   0.302   4.109  10.426  0.4482 -0.8281 -0.1334
 3812SOL    HW122898   0.376   4.150  10.472  0.9356 -0.8848 -0.8819
 3812SOL    HW222899   0.294   4.158  10.345  1.1621  1.9274  1.4290
 3813SOL     OW22900   1.968   3.621   2.993  0.0817 -0.3225  0.5652
 3813SOL    HW122901   1.890   3.572   2.972  0.1595 -0.1929 -0.0129
 3813SOL    HW222902   2.021   3.559   3.043 -0.7447 -2.0204 -0.7079
 3814SOL     OW22903   1.901   4.286   2.820 -0.1457 -0.4081 -0.4709
 3814SOL    HW122904   1.901   4.368   2.869  0.5331  0.4197 -1.8550
 3814SOL    HW222905   1.807   4.268   2.832  0.0620 -1.3173 -0.2070
 3815SOL     OW22906   0.442   3.342   2.164  0.8813 -0.5545  0.5347
 3815SOL    HW122907   0.424   3.413   2.102  2.0104  0.7982  1.7446
 3815SOL    HW222908   0.353   3.319   2.191  0.1778  0.1924 -1.1922
 3816SOL     OW22909   2.189   0.920   4.702 -0.5477  0.0901 -0.3195
 3816SOL    HW122910   2.244   0.933   4.778  0.2936  2.0304 -1.2658
 3816SOL    HW222911   2.194   1.003   4.655  1.6120 -0.0345 -0.2795
 3817SOL     OW22912   3.896   0.805  17.502  0.1004 -0.0923 -0.2866
 3817SOL    HW122913   3.852   0.791  17.418  0.3340 -1.2343 -0.2172
 3817SOL    HW222914   3.913   0.899  17.497  1.1710 -0.3240 -1.0225
 3818SOL     OW22915   3.668   2.862   3.153  0.0344 -0.1709  0.8516
 3818SOL    HW122916   3.611   2.787   3.136  2.7797 -1.7869 -1.2423
 3818SOL    HW222917   3.601   2.925   3.125  1.3348  0.2215 -1.3265
 3819SOL     OW22918   0.635   0.092   1.748  0.4757  0.2258  0.3730
 3819SOL    HW122919   0.667   0.167   1.799 -0.1447  1.1214 -0.5414
 3819SOL    HW222920   0.696   0.022   1.770 -0.1457 -1.5000 -3.2609
 3820SOL     OW22921   4.312   2.816  14.470 -0.2544 -0.6362 -0.2129
 3820SOL    HW122922   4.359   2.891  14.507  1.0694 -0.9306 -1.3164
 3820SOL    HW222923   4.377   2.796  14.403  0.5374  0.0659  0.3499
 3821SOL     OW22924   3.647   2.877   4.930  0.4581  0.2162 -0.0324
 3821SOL    HW122925   3.658   2.883   4.835 -1.2322  1.3864 -0.1669
 3821SOL    HW222926   3.699   2.800   4.953  0.1345 -0.0232 -0.1005
 3822SOL     OW22927   1.695   2.202   8.409  0.0645 -0.6197  0.3093
 3822SOL    HW122928   1.703   2.108   8.423  0.3871 -0.5551  0.5476
 3822SOL    HW222929   1.620   2.217   8.466  1.6943  0.9229  2.0342
 3823SOL     OW22930   4.183   2.521   1.411 -0.0691  0.2829 -0.1220
 3823SOL    HW122931   4.093   2.493   1.427 -0.0088  0.7083  1.0053
 3823SOL    HW222932   4.230   2.458   1.466 -0.8228 -0.4829 -0.3671
 3824SOL     OW22933   1.900   1.195  10.417  0.0282  0.0284  0.3176
 3824SOL    HW122934   1.887   1.280  10.374  1.5882 -0.3096 -0.8144
 3824SOL    HW222935   1.875   1.144  10.340  1.8565  1.0012 -0.9129
 3825SOL     OW22936   3.821   1.001   9.037  0.0009  0.0313  0.4594
 3825SOL    HW122937   3.810   1.043   8.952  1.1262  1.0404  0.8311
 3825SOL    HW222938   3.880   0.932   9.007  1.1475  0.9292  0.6908
 3826SOL     OW22939   0.535   4.441   6.380  0.1743 -0.2564 -0.0421
 3826SOL    HW122940   0.553   4.535   6.384 -1.5497  0.1604 -2.1910
 3826SOL    HW222941   0.439   4.442   6.389  0.1354 -0.1548 -0.4643
 3827SOL     OW22942   4.220   0.717   7.062 -0.2505  0.0063 -0.5783
 3827SOL    HW122943   4.267   0.674   6.991  0.2276 -0.4678  0.0185
 3827SOL    HW222944   4.240   0.655   7.133  1.5376 -0.1289 -1.2028
 3828SOL     OW22945   4.119   3.027   2.252 -0.1473 -0.2130  0.0726
 3828SOL    HW122946   4.035   3.068   2.276  0.5827  0.2988  1.7065
 3828SOL    HW222947   4.175   3.050   2.326  1.3840 -1.6356 -0.6471
 3829SOL     OW22948   0.905   2.068   4.651 -0.9020 -0.3565  0.0321
 3829SOL    HW122949   0.948   2.014   4.584 -1.5937  1.8013 -2.1649
 3829SOL    HW222950   0.959   2.038   4.724  0.3310 -0.3111 -0.8650
 3830SOL     OW22951   2.726   3.224   6.539  0.1943 -0.3839  0.2291
 3830SOL    HW122952   2.751   3.136   6.511  1.2288 -0.8009  2.4768
 3830SOL    HW222953   2.632   3.228   6.526  0.2726  0.0465 -0.2206
 3831SOL     OW22954   1.459   0.826   0.396  1.0395 -0.2497  0.9652
 3831SOL    HW122955   1.521   0.847   0.465  3.2209 -0.8963 -0.8147
 3831SOL    HW222956   1.400   0.761   0.435 -0.4482  0.5042 -0.0123
 3832SOL     OW22957   1.207   0.188   7.032 -0.4720  0.0848  0.5275
 3832SOL    HW122958   1.285   0.134   7.039  1.3672  2.8109  0.8862
 3832SOL    HW222959   1.246   0.273   7.050  2.3377 -1.5315  2.0795
 3833SOL     OW22960   1.793   2.047   3.106  0.1358  0.1712 -0.2995
 3833SOL    HW122961   1.820   2.068   3.016  1.4759  0.9193  0.2780
 3833SOL    HW222962   1.852   2.110   3.148 -0.2177  1.4499 -1.6853
 3834SOL     OW22963   0.088   0.001   8.480 -0.1869  0.4749 -0.3852
 3834SOL    HW122964   0.119   0.091   8.474  0.0891  0.5805  2.4763
 3834SOL    HW222965   0.032   4.718   8.558  1.5102  0.4965  0.8263
 3835SOL     OW22966   2.784   1.323  14.416  0.5854 -0.7873 -0.0046
 3835SOL    HW122967   2.851   1.360  14.473  2.6276 -2.6738 -1.1813
 3835SOL    HW222968   2.825   1.236  14.410  2.2792  0.0510 -0.4897
 3836SOL     OW22969   0.251   1.645  15.587 -0.1349  0.0278  0.8176
 3836SOL    HW122970   0.174   1.590  15.574  0.9632 -1.8280  2.1681
 3836SOL    HW222971   0.304   1.626  15.510 -0.5813  3.4359 -0.3322
 3837SOL     OW22972   0.821   2.363  14.195  0.1930  0.3780 -0.9141
 3837SOL    HW122973   0.840   2.325  14.109 -0.8631  1.1038 -1.4567
 3837SOL    HW222974   0.888   2.431  14.204  0.0569  0.3082  0.6786
 3838SOL     OW22975   1.870   1.135  13.230 -0.0699 -0.4481  0.1466
 3838SOL    HW122976   1.824   1.196  13.172 -0.2043 -0.0334  0.6980
 3838SOL    HW222977   1.853   1.048  13.194  0.8072 -1.3043  1.8481
 3839SOL     OW22978   3.227   1.476   9.226  0.2061  0.2636 -0.5318
 3839SOL    HW122979   3.313   1.500   9.192 -0.9639  2.1775 -2.1204
 3839SOL    HW222980   3.260   1.448   9.311 -1.7765  3.4037  1.2455
 3840SOL     OW22981   0.334   0.606   9.053 -0.1843 -0.3470 -0.0782
 3840SOL    HW122982   0.263   0.671   9.051  0.5206  0.3623 -2.0969
 3840SOL    HW222983   0.323   0.546   8.979 -0.9148  0.3653 -0.5480
 3841SOL     OW22984   4.083   3.324   0.604 -0.0438  0.1599  0.2021
 3841SOL    HW122985   4.171   3.300   0.634  0.6707  2.9095  0.3014
 3841SOL    HW222986   4.043   3.242   0.632 -0.6637 -0.3600 -2.1812
 3842SOL     OW22987   2.690   0.452  12.875  0.2920  0.4009 -0.3317
 3842SOL    HW122988   2.614   0.469  12.931  0.0423  1.3432 -0.9584
 3842SOL    HW222989   2.701   0.536  12.831  1.5784 -0.3827 -1.4911
 3843SOL     OW22990   2.405   0.854   2.633 -0.0940  0.1237  0.4202
 3843SOL    HW122991   2.375   0.777   2.585 -0.1125 -0.6492  1.6718
 3843SOL    HW222992   2.378   0.829   2.721  0.3761 -2.3763 -0.1242
 3844SOL     OW22993   4.579   3.830   2.480  0.5429  0.6119 -0.0672
 3844SOL    HW122994   4.612   3.794   2.562  1.8314  2.7396  0.3508
 3844SOL    HW222995   4.578   3.922   2.506  0.9523 -0.0722  2.3487
 3845SOL     OW22996   3.618   2.318  14.266 -0.1832  0.2507  0.0825
 3845SOL    HW122997   3.555   2.331  14.195  0.2146 -0.7319 -0.4604
 3845SOL    HW222998   3.564   2.271  14.330  0.3864  0.2066  0.5298
 3846SOL     OW22999   3.504   2.793  13.233  0.3311  0.0676  0.2121
 3846SOL    HW123000   3.457   2.819  13.312 -1.0831 -0.1974 -0.5551
 3846SOL    HW223001   3.546   2.876  13.207 -2.2167  1.0368 -0.7739
 3847SOL     OW23002   3.707   2.989   5.813  0.3789 -0.3197  0.2391
 3847SOL    HW123003   3.650   3.005   5.738  1.3441  0.8338 -0.2530
 3847SOL    HW223004   3.673   2.903   5.835  1.6803 -0.5166  1.4544
 3848SOL     OW23005   2.513   0.820   5.399 -0.1019 -0.4979  0.3021
 3848SOL    HW123006   2.484   0.809   5.490  0.0415 -0.5464  0.3423
 3848SOL    HW223007   2.445   0.767   5.358  0.9029 -1.1725 -0.4870
 3849SOL     OW23008   0.313   2.698   0.215  0.2294 -0.4132 -0.0866
 3849SOL    HW123009   0.389   2.751   0.237 -0.5598  0.3537  0.8101
 3849SOL    HW223010   0.286   2.731   0.129  1.2248  1.8407  0.4633
 3850SOL     OW23011   4.535   3.934  10.211  0.9438  0.1025  0.6891
 3850SOL    HW123012   4.571   3.853  10.248  0.0904  0.6242  2.6852
 3850SOL    HW223013   4.559   4.006  10.269  0.4873  1.9486 -1.4106
 3851SOL     OW23014   0.713   0.297   7.089  0.2080 -0.1876  0.1223
 3851SOL    HW123015   0.717   0.209   7.126 -3.9907 -0.2572  0.3208
 3851SOL    HW223016   0.646   0.300   7.021 -0.3430  1.2393  0.7321
 3852SOL     OW23017   2.019   1.366  10.103  0.0053  0.5003 -0.5137
 3852SOL    HW123018   2.093   1.368  10.164 -1.8336  1.6041  1.6773
 3852SOL    HW223019   1.954   1.394  10.167  0.8680  0.4403  0.3807
 3853SOL     OW23020   1.706   0.497   4.057  0.3442  0.3529  0.2918
 3853SOL    HW123021   1.719   0.402   4.055 -1.4553  0.1259 -1.1401
 3853SOL    HW223022   1.666   0.508   3.970  0.0429 -0.5098  0.3182
 3854SOL     OW23023   3.717   0.077   9.289 -0.1027 -0.0837 -0.3629
 3854SOL    HW123024   3.630   0.052   9.255 -1.1381  1.2030  1.3547
 3854SOL    HW223025   3.748   4.720   9.323  2.9517 -0.2478 -3.5792
 3855SOL     OW23026   0.914   4.132   6.551 -0.1482 -0.3777 -0.2580
 3855SOL    HW123027   0.927   4.038   6.563  1.7486 -0.2824 -1.7423
 3855SOL    HW223028   0.818   4.137   6.552 -0.1661 -0.6463 -0.8371
 3856SOL     OW23029   1.774   1.470   5.592 -0.0579  0.2146 -0.5808
 3856SOL    HW123030   1.785   1.547   5.648 -0.9323  0.5058 -0.8215
 3856SOL    HW223031   1.841   1.411   5.626  1.0620  1.5029 -0.5389
 3857SOL     OW23032   3.414   3.174   2.734  0.4260 -0.2427  0.3226
 3857SOL    HW123033   3.324   3.140   2.738 -0.1808  1.1492 -1.1569
 3857SOL    HW223034   3.408   3.224   2.652 -1.9538  1.5430  1.5798
 3858SOL     OW23035   3.141   1.667   6.410 -0.0694 -0.5515 -0.2939
 3858SOL    HW123036   3.157   1.761   6.399  1.0870 -0.9498 -2.0356
 3858SOL    HW223037   3.050   1.659   6.438 -0.1766 -2.4272 -1.2139
 3859SOL     OW23038   1.758   3.122  16.994  0.3895 -0.6547  0.6116
 3859SOL    HW123039   1.705   3.050  17.026  0.0215  0.6309  2.8517
 3859SOL    HW223040   1.839   3.092  17.036  2.6108  0.6953 -2.6670
 3860SOL     OW23041   4.369   0.077   2.626  0.2550  0.1839 -0.1951
 3860SOL    HW123042   4.305   0.006   2.632 -1.2776  1.4631 -1.3326
 3860SOL    HW223043   4.369   0.079   2.530 -2.6326  0.5876 -0.1789
 3861SOL     OW23044   3.529   3.100   6.539  0.6160 -0.4416  0.3716
 3861SOL    HW123045   3.495   3.012   6.555 -1.1173 -0.0745 -1.2435
 3861SOL    HW223046   3.460   3.136   6.482  4.5960  2.5808 -2.6107
 3862SOL     OW23047   3.768   4.633   4.714 -0.0269 -0.3783 -0.0421
 3862SOL    HW123048   3.679   4.641   4.680 -0.1765  0.6139  0.5863
 3862SOL    HW223049   3.771   4.703   4.779  0.0551 -0.0756 -0.3722
 3863SOL     OW23050   0.470   1.073   8.927 -0.1968  0.2949  0.0886
 3863SOL    HW123051   0.523   1.112   8.997 -1.8464  0.5919  1.1763
 3863SOL    HW223052   0.490   0.980   8.929 -2.1341 -0.0866  1.0486
 3864SOL     OW23053   3.276   1.751   8.862 -0.3372 -0.4475 -0.8688
 3864SOL    HW123054   3.197   1.803   8.876  1.8407  2.2956  1.2034
 3864SOL    HW223055   3.304   1.722   8.949  1.0896  2.6871 -0.2871
 3865SOL     OW23056   0.557   0.897   9.989  0.1270  0.3440 -0.5273
 3865SOL    HW123057   0.636   0.951   9.979 -0.3158  0.6279 -2.5082
 3865SOL    HW223058   0.507   0.951  10.050 -0.5919 -0.1181 -0.7090
 3866SOL     OW23059   2.944   4.246   6.263  0.5020 -0.4166 -0.5780
 3866SOL    HW123060   2.978   4.291   6.340 -0.8558 -1.1888  0.4748
 3866SOL    HW223061   3.024   4.243   6.211  0.4355  1.8119 -0.7780
 3867SOL     OW23062   1.573   2.308   8.655 -0.1668 -0.3015  0.5158
 3867SOL    HW123063   1.655   2.324   8.700  1.3195 -0.3653 -2.2028
 3867SOL    HW223064   1.514   2.312   8.730  0.4897  1.7766  0.8995
 3868SOL     OW23065   1.558   2.760   2.025  0.4490  0.2792  0.0467
 3868SOL    HW123066   1.531   2.671   2.048  1.4803  0.5058  2.1954
 3868SOL    HW223067   1.553   2.751   1.930  0.9950 -1.8788  0.2325
 3869SOL     OW23068   0.997   0.745   6.313  0.0689 -0.5230 -0.3565
 3869SOL    HW123069   0.939   0.675   6.282  1.7490 -2.1952  0.2757
 3869SOL    HW223070   1.002   0.791   6.230 -0.1254  3.6816  1.9599
 3870SOL     OW23071   0.175   3.322   4.724  0.3043  0.0487 -0.1824
 3870SOL    HW123072   0.241   3.360   4.665  0.8667  1.1361  1.1433
 3870SOL    HW223073   0.133   3.405   4.746  0.5790  0.3507 -0.7772
 3871SOL     OW23074   0.511   3.851   5.642 -0.3482  0.2607  0.4683
 3871SOL    HW123075   0.417   3.870   5.639  0.1883  2.9193  0.6395
 3871SOL    HW223076   0.550   3.911   5.578 -0.2218 -1.5638 -1.1523
 3872SOL     OW23077   1.591   3.999   7.931  0.4840  0.8311 -0.0046
 3872SOL    HW123078   1.521   3.943   7.898 -0.9578  2.6372 -0.0129
 3872SOL    HW223079   1.658   3.979   7.866  0.1410  0.2655 -0.1829
 3873SOL     OW23080   2.008   2.207  10.699  0.4808  0.2918  0.0751
 3873SOL    HW123081   2.031   2.158  10.620  1.0831 -0.0867  0.4865
 3873SOL    HW223082   1.995   2.132  10.758  2.8313 -0.8206 -0.8245
 3874SOL     OW23083   0.477   2.645   8.121 -0.6179 -0.4769  0.1237
 3874SOL    HW123084   0.502   2.559   8.086  0.4103  1.0962 -2.9004
 3874SOL    HW223085   0.421   2.679   8.052  0.2576  1.0380  0.1583
 3875SOL     OW23086   3.848   0.427   2.557 -1.0303 -0.6535 -0.5638
 3875SOL    HW123087   3.917   0.414   2.492  0.6384  4.5927  0.1523
 3875SOL    HW223088   3.808   0.510   2.532  2.6760  1.1012 -0.6262
 3876SOL     OW23089   0.554   1.623   3.497 -0.0306  0.5208 -0.1697
 3876SOL    HW123090   0.535   1.717   3.490 -1.7769  0.1001 -1.0961
 3876SOL    HW223091   0.603   1.622   3.415  0.2217  0.6752 -0.0177
 3877SOL     OW23092   4.651   3.658  12.346 -0.0554  0.3627 -0.2761
 3877SOL    HW123093   4.657   3.735  12.289  1.0225  0.1390 -0.4522
 3877SOL    HW223094   4.616   3.607  12.274 -1.4732  2.3715 -1.0270
 3878SOL     OW23095   3.747   3.640   2.144  0.2628 -0.7596  0.4702
 3878SOL    HW123096   3.821   3.602   2.098 -0.4456 -0.8175 -0.6327
 3878SOL    HW223097   3.737   3.726   2.104  0.3038  0.4441  3.0219
 3879SOL     OW23098   2.801   1.333  12.457 -0.2582 -0.2780  0.5515
 3879SOL    HW123099   2.828   1.373  12.374 -0.2622 -0.4125  0.4859
 3879SOL    HW223100   2.883   1.291  12.484  0.1131  0.0082 -0.1077
 3880SOL     OW23101   4.078   1.173   5.307  0.2351  0.1096 -0.1800
 3880SOL    HW123102   4.171   1.153   5.322  0.6134  2.1486  0.1893
 3880SOL    HW223103   4.046   1.188   5.396 -0.5484  0.2196 -0.4825
 3881SOL     OW23104   4.542   2.981  14.344  0.2991 -0.2206  0.6103
 3881SOL    HW123105   4.561   2.887  14.339 -0.4805 -0.3404 -0.0524
 3881SOL    HW223106   4.524   3.000  14.253 -0.8955  1.6120  1.2461
 3882SOL     OW23107   2.174   2.143   8.342 -0.7870 -0.5740  0.0511
 3882SOL    HW123108   2.246   2.158   8.403  0.1177  1.5428 -1.5665
 3882SOL    HW223109   2.128   2.079   8.396  0.6049  0.2546  2.2230
 3883SOL     OW23110   0.468   2.667   1.805 -0.5153  0.4245 -0.0658
 3883SOL    HW123111   0.558   2.687   1.830 -1.2166 -0.3580  3.0667
 3883SOL    HW223112   0.466   2.657   1.710 -0.4427 -0.8127  0.0704
 3884SOL     OW23113   0.510   1.756   5.758  0.5553  0.4878  0.1967
 3884SOL    HW123114   0.558   1.749   5.841  0.4454  0.9477  0.2978
 3884SOL    HW223115   0.513   1.848   5.735 -0.4875  0.0307 -1.7249
 3885SOL     OW23116   3.989   4.343   6.446  0.1049  0.1279 -0.1943
 3885SOL    HW123117   3.999   4.302   6.532  0.6576 -1.0442 -0.8177
 3885SOL    HW223118   3.968   4.434   6.468  2.6038 -0.0553  2.9996
 3886SOL     OW23119   3.661   1.473   8.088 -0.2521  0.0769  0.0323
 3886SOL    HW123120   3.750   1.458   8.055 -1.1590 -1.0829 -1.8951
 3886SOL    HW223121   3.607   1.432   8.020 -0.1610 -2.5134  1.5185
 3887SOL     OW23122   0.655   4.659  11.867 -0.4815 -0.1711  0.2020
 3887SOL    HW123123   0.611   4.672  11.784 -1.6445 -3.1815  0.3415
 3887SOL    HW223124   0.607   4.582  11.897 -1.3198  0.2653 -0.0339
 3888SOL     OW23125   3.036   0.605   8.485  0.3358  0.1076 -0.3250
 3888SOL    HW123126   3.070   0.675   8.428  0.1387  1.2056  0.8952
 3888SOL    HW223127   2.970   0.656   8.532  0.9092  0.8172 -0.2887
 3889SOL     OW23128   0.236   4.154   9.313 -0.1337 -0.2262 -0.1563
 3889SOL    HW123129   0.148   4.192   9.319  1.8908  4.3815  1.0433
 3889SOL    HW223130   0.224   4.078   9.256 -1.3080  0.2811 -0.5833
 3890SOL     OW23131   0.715   1.652  17.444  0.2977 -0.3352  0.2898
 3890SOL    HW123132   0.732   1.633  17.352 -0.5309 -2.3744  0.5600
 3890SOL    HW223133   0.673   1.575  17.482  1.4853 -0.3361  1.5834
 3891SOL     OW23134   3.392   3.521   1.102  0.0940  0.6496 -0.4490
 3891SOL    HW123135   3.409   3.516   1.008  1.1969  0.6281 -0.2517
 3891SOL    HW223136   3.431   3.438   1.131  0.4898  0.5423 -1.3125
 3892SOL     OW23137   0.664   3.546   6.608 -0.1220  0.0051  0.1815
 3892SOL    HW123138   0.724   3.579   6.675 -1.0743 -0.2465  1.1697
 3892SOL    HW223139   0.594   3.611   6.618  0.2346  0.0028  2.6393
 3893SOL     OW23140   4.263   2.808   2.102 -0.5298  0.3384  0.4513
 3893SOL    HW123141   4.258   2.873   2.173 -0.6928 -1.5653  2.1775
 3893SOL    HW223142   4.259   2.726   2.152 -0.6279 -0.2911 -0.6029
 3894SOL     OW23143   0.414   1.411   5.603 -0.2529  0.4424 -0.0562
 3894SOL    HW123144   0.448   1.407   5.513  0.9973  0.6110  0.4135
 3894SOL    HW223145   0.323   1.380   5.597 -0.8375  2.1327  0.0275
 3895SOL     OW23146   3.478   3.213   8.704 -0.3852 -0.3346 -0.2337
 3895SOL    HW123147   3.390   3.183   8.682 -2.1955  3.4678  1.7747
 3895SOL    HW223148   3.521   3.205   8.619  0.1589  0.0816  0.0046
 3896SOL     OW23149   2.245   0.622   1.123  0.7431 -0.5056  0.0509
 3896SOL    HW123150   2.339   0.640   1.112  0.5373  0.5442 -0.0210
 3896SOL    HW223151   2.216   0.627   1.032 -1.4059  0.8483  0.8342
 3897SOL     OW23152   0.486   0.443   0.189 -0.3628  0.1570  0.7490
 3897SOL    HW123153   0.535   0.434   0.271  2.2349  1.9153 -0.5831
 3897SOL    HW223154   0.503   0.536   0.173 -0.7123  0.2123  0.6942
 3898SOL     OW23155   3.578   0.515   1.539  0.1754  0.4177 -0.1366
 3898SOL    HW123156   3.573   0.558   1.624 -0.5827 -1.6088  0.8323
 3898SOL    HW223157   3.674   0.512   1.530  0.3686  1.2118  1.8152
 3899SOL     OW23158   1.569   1.799   4.570  0.6136  0.9958  0.1593
 3899SOL    HW123159   1.590   1.891   4.551 -1.2035  1.2188 -0.7878
 3899SOL    HW223160   1.546   1.806   4.663 -1.5834  2.1580 -0.4645
 3900SOL     OW23161   1.873   4.293  16.685  0.0211  0.0502 -0.2409
 3900SOL    HW123162   1.960   4.280  16.724 -0.8203  0.2655  1.7120
 3900SOL    HW223163   1.838   4.367  16.734 -1.5302 -0.8446  0.0006
 3901SOL     OW23164   2.716   0.182  11.472  0.4281 -0.1699 -0.1117
 3901SOL    HW123165   2.742   0.234  11.395  0.3094  1.3708  0.8750
 3901SOL    HW223166   2.737   0.095  11.439  1.5346 -0.2713  0.8549
 3902SOL     OW23167   4.591   0.288   5.042 -0.0322 -0.0378  0.2067
 3902SOL    HW123168   4.613   0.197   5.061 -0.1689  0.4790  2.8277
 3902SOL    HW223169   4.538   0.306   5.120 -0.9310 -0.1277 -0.3765
 3903SOL     OW23170   1.332   2.303   2.368  0.0652  0.3400  0.1572
 3903SOL    HW123171   1.329   2.397   2.350  1.3333  0.6156  1.3686
 3903SOL    HW223172   1.418   2.289   2.410  0.6825  0.9014 -0.9281
 3904SOL     OW23173   3.327   2.891  15.195 -0.1170  0.0960  0.4634
 3904SOL    HW123174   3.263   2.830  15.231  0.1121 -0.8779 -0.7963
 3904SOL    HW223175   3.335   2.847  15.111  0.5442  1.6564 -0.3039
 3905SOL     OW23176   1.367   2.052   6.160 -0.3234 -0.1098 -0.6720
 3905SOL    HW123177   1.461   2.070   6.163 -0.5990  1.5030 -1.8994
 3905SOL    HW223178   1.352   2.011   6.245  1.0845 -0.8615 -0.7845
 3906SOL     OW23179   3.399   3.501   0.833  0.0719  0.0334 -0.5478
 3906SOL    HW123180   3.370   3.585   0.797 -0.8235  0.8307  2.0564
 3906SOL    HW223181   3.465   3.473   0.769  2.0144  0.7820  1.1190
 3907SOL     OW23182   1.272   1.478   9.838 -0.1692 -0.1657  0.1411
 3907SOL    HW123183   1.311   1.560   9.869 -1.0619  0.4699 -0.4208
 3907SOL    HW223184   1.346   1.417   9.838 -1.0291 -1.2412  3.3602
 3908SOL     OW23185   2.267   0.215  14.131  0.2707  0.1782 -0.1118
 3908SOL    HW123186   2.344   0.160  14.119  0.3892  0.7555 -2.0223
 3908SOL    HW223187   2.196   0.152  14.121  1.8196 -1.5922  0.1088
 3909SOL     OW23188   3.211   0.328   5.116 -0.3279  0.4164 -0.0774
 3909SOL    HW123189   3.231   0.236   5.098  0.7903  0.3833  1.3090
 3909SOL    HW223190   3.299   0.362   5.102 -0.3372  0.7486  0.6612
 3910SOL     OW23191   3.811   1.577   2.106 -0.3932  0.3323 -0.4123
 3910SOL    HW123192   3.820   1.522   2.184  0.6852 -0.3438 -1.0064
 3910SOL    HW223193   3.864   1.652   2.132 -1.7736 -0.1279  3.6602
 3911SOL     OW23194   2.102   0.935  13.701 -0.5628 -0.0441  0.2766
 3911SOL    HW123195   2.040   0.992  13.747 -0.1412 -1.5799  2.7456
 3911SOL    HW223196   2.090   0.962  13.610  0.0243  0.2072  0.2754
 3912SOL     OW23197   1.434   2.380  10.212 -0.4996 -0.0216 -0.2630
 3912SOL    HW123198   1.466   2.428  10.288 -1.3864 -1.2016  0.8585
 3912SOL    HW223199   1.370   2.441  10.176 -0.9909 -0.4910 -0.1843
 3913SOL     OW23200   0.052   3.341   4.355 -0.3897  0.3653  0.3349
 3913SOL    HW123201   0.051   3.401   4.281 -1.3568  0.4645  0.4397
 3913SOL    HW223202   4.684   3.339   4.365 -0.6385  0.8869 -1.9543
 3914SOL     OW23203   4.212   2.519   2.797 -0.7325 -0.6883 -0.2167
 3914SOL    HW123204   4.185   2.515   2.888  0.7566 -0.1792  0.2496
 3914SOL    HW223205   4.168   2.443   2.759 -1.5737 -1.1659  1.7419
 3915SOL     OW23206   3.709   1.380   8.923  0.1700 -0.3372 -0.1030
 3915SOL    HW123207   3.733   1.356   8.834 -0.9892 -1.6410 -0.0565
 3915SOL    HW223208   3.613   1.384   8.918  0.0963  2.9270  3.4077
 3916SOL     OW23209   4.356   4.219  15.122 -0.7653 -0.3584  0.1238
 3916SOL    HW123210   4.297   4.152  15.154  1.9139 -2.3264  0.9290
 3916SOL    HW223211   4.296   4.287  15.091  1.9947  1.2380 -1.7884
 3917SOL     OW23212   1.649   0.297  15.408  0.4782 -0.4642 -0.4096
 3917SOL    HW123213   1.683   0.263  15.491 -0.7145  1.2379  0.7754
 3917SOL    HW223214   1.671   0.390  15.414 -2.8932  0.2655  0.9678
 3918SOL     OW23215   0.845   3.796  15.065  0.0525  0.1072  0.1341
 3918SOL    HW123216   0.852   3.718  15.010  3.0613  0.0059  0.6227
 3918SOL    HW223217   0.759   3.792  15.106 -1.5966 -1.3260 -3.5024
 3919SOL     OW23218   2.251   3.521   5.346  0.5994  0.0007  0.2381
 3919SOL    HW123219   2.280   3.599   5.394  1.3409 -0.1650  0.0595
 3919SOL    HW223220   2.204   3.562   5.273 -0.4622 -2.9958 -0.7420
 3920SOL     OW23221   2.761   1.085   6.651  0.0925  0.0629  0.0434
 3920SOL    HW123222   2.719   1.151   6.706  4.4523  1.4631  1.6438
 3920SOL    HW223223   2.719   1.004   6.680 -1.8694  0.3520 -1.9871
 3921SOL     OW23224   3.993   1.150   6.858  0.3337 -0.4524 -0.1574
 3921SOL    HW123225   3.918   1.210   6.862  0.0529 -0.9117  1.2695
 3921SOL    HW223226   4.048   1.195   6.922 -0.4113 -1.7782  1.3930
 3922SOL     OW23227   3.181   1.453   5.726  0.0078 -0.3733  0.4972
 3922SOL    HW123228   3.188   1.454   5.630 -6.3279 -1.3554  0.0087
 3922SOL    HW223229   3.087   1.435   5.730  0.0375 -0.7254 -0.3366
 3923SOL     OW23230   3.606   4.155   8.215 -0.5359  0.3102  0.1453
 3923SOL    HW123231   3.632   4.218   8.282  0.3425 -1.0132  1.0544
 3923SOL    HW223232   3.538   4.210   8.176 -1.8489 -1.1236  0.4228
 3924SOL     OW23233   4.529   0.671  11.870  0.5159 -0.0182 -0.1358
 3924SOL    HW123234   4.536   0.661  11.775  2.2190 -2.5005  0.2435
 3924SOL    HW223235   4.592   0.740  11.890 -0.4334  0.7084  0.3197
 3925SOL     OW23236   0.591   0.985  13.216 -0.2983  0.3885  0.3191
 3925SOL    HW123237   0.685   0.994  13.229 -0.9916  3.5867  2.9246
 3925SOL    HW223238   0.579   1.027  13.131 -0.3436 -1.3161 -0.5354
 3926SOL     OW23239   3.117   1.187  10.666  0.2763 -0.6603  0.2591
 3926SOL    HW123240   3.022   1.191  10.670  0.2749 -0.2498 -0.2726
 3926SOL    HW223241   3.142   1.139  10.587  1.5240  2.6711 -1.3501
 3927SOL     OW23242   1.198   3.051   6.910  0.4686 -0.3774  0.4933
 3927SOL    HW123243   1.265   3.120   6.907  1.0807 -0.9353  1.5123
 3927SOL    HW223244   1.223   3.008   6.991 -1.8906 -1.5820  0.5651
 3928SOL     OW23245   1.766   4.663  10.590 -0.3176  0.4223 -0.4140
 3928SOL    HW123246   1.740   0.016  10.544 -1.8854  1.0414  1.5219
 3928SOL    HW223247   1.745   4.686  10.681  0.8590  1.2347 -0.3408
 3929SOL     OW23248   2.371   3.860   0.813 -0.1032  0.0581 -0.3222
 3929SOL    HW123249   2.296   3.921   0.818  0.5138  0.7771  0.1705
 3929SOL    HW223250   2.347   3.777   0.773 -0.1472  1.3270 -2.9472
 3930SOL     OW23251   2.243   3.016   4.629  0.9951 -0.6003  0.6639
 3930SOL    HW123252   2.246   3.109   4.651 -1.2462  0.2906 -2.6532
 3930SOL    HW223253   2.262   2.971   4.711 -0.4085 -0.2516  1.1917
 3931SOL     OW23254   3.140   2.886  13.524 -0.2483  0.3207 -0.1438
 3931SOL    HW123255   3.117   2.979  13.527  0.3325  0.4170  0.9927
 3931SOL    HW223256   3.098   2.855  13.603  0.2522  0.7554  0.2976
 3932SOL     OW23257   4.033   1.420   3.199  0.1087 -0.4279  1.0868
 3932SOL    HW123258   3.952   1.454   3.161  0.5807  0.3824  0.7911
 3932SOL    HW223259   4.084   1.499   3.216  1.6222 -0.9152 -1.2157
 3933SOL     OW23260   3.355   1.107   9.022  0.1592  0.0230  0.1477
 3933SOL    HW123261   3.394   1.194   9.027 -0.9744  0.5900 -0.9006
 3933SOL    HW223262   3.307   1.108   8.939  1.9788  0.4857 -0.9028
 3934SOL     OW23263   1.005   1.139  10.725  0.3311 -0.3352 -0.2437
 3934SOL    HW123264   1.018   1.226  10.762  0.9464 -0.9615  1.0231
 3934SOL    HW223265   1.075   1.096  10.774 -0.6864 -0.1081  1.4046
 3935SOL     OW23266   2.673   3.486   2.315  0.0068 -0.1672  0.0598
 3935SOL    HW123267   2.703   3.572   2.345  2.0786 -1.0388  0.4576
 3935SOL    HW223268   2.621   3.518   2.241 -2.0868 -1.8666  0.8184
 3936SOL     OW23269   0.445   2.540   5.377  0.6448 -0.5203 -0.1034
 3936SOL    HW123270   0.446   2.631   5.407  0.7948 -0.7094  0.4720
 3936SOL    HW223271   0.507   2.497   5.436 -1.3988 -1.8263  1.1287
 3937SOL     OW23272   4.398   4.092   7.380  0.4172  0.0943  0.3215
 3937SOL    HW123273   4.342   4.157   7.423  0.7576  0.4314  0.2616
 3937SOL    HW223274   4.392   4.014   7.435 -1.7348  0.1484  0.1334
 3938SOL     OW23275   0.445   0.731   1.941  0.1674 -1.0291  0.4923
 3938SOL    HW123276   0.491   0.790   2.001 -0.4713  0.3022 -0.3396
 3938SOL    HW223277   0.432   0.786   1.864 -2.5984  0.2616  1.9165
 3939SOL     OW23278   1.601   0.616   1.831 -0.0656 -0.6103 -0.4077
 3939SOL    HW123279   1.528   0.584   1.779 -2.2501  1.6783  1.2156
 3939SOL    HW223280   1.647   0.534   1.848  2.2029  0.2615 -2.2598
 3940SOL     OW23281   4.621   2.931  11.331  0.6552 -0.7616  0.2441
 3940SOL    HW123282   4.556   2.931  11.261 -0.4860  1.5169  1.2672
 3940SOL    HW223283   4.658   3.019  11.324 -0.5213 -0.1431  1.7379
 3941SOL     OW23284   0.454   0.542  16.865  0.5873  0.0371 -0.4402
 3941SOL    HW123285   0.412   0.544  16.951 -0.0552 -0.4862 -0.7433
 3941SOL    HW223286   0.437   0.454  16.831  0.4890  0.1346 -0.6454
 3942SOL     OW23287   3.307   2.416   6.658  0.2163  0.0085  0.4651
 3942SOL    HW123288   3.298   2.357   6.583 -0.8852  1.6097 -0.6623
 3942SOL    HW223289   3.224   2.409   6.705  0.9440 -1.1322  1.5760
 3943SOL     OW23290   2.449   1.720   9.146  0.5623  0.4262  0.3840
 3943SOL    HW123291   2.435   1.628   9.166  0.6919  0.4891  0.7613
 3943SOL    HW223292   2.400   1.735   9.065  3.8857 -1.1263 -1.9084
 3944SOL     OW23293   2.575   3.038   6.262  0.1776  0.5872  0.0951
 3944SOL    HW123294   2.480   3.045   6.251 -0.0561 -1.2446  1.0171
 3944SOL    HW223295   2.608   3.127   6.255 -0.7759  0.8050 -1.6621
 3945SOL     OW23296   1.629   4.132   3.092  0.5643  0.4359  0.3360
 3945SOL    HW123297   1.610   4.226   3.089 -1.8585 -0.1302 -2.3723
 3945SOL    HW223298   1.636   4.103   3.001  1.1794  0.3199  0.4159
 3946SOL     OW23299   2.578   0.948   4.479  0.0740  0.1859 -0.4555
 3946SOL    HW123300   2.603   1.011   4.547  0.6174  2.5528 -2.8482
 3946SOL    HW223301   2.654   0.949   4.421 -0.0654  0.6826 -0.6351
 3947SOL     OW23302   4.097   1.711  15.271 -0.1245 -0.0174 -0.0888
 3947SOL    HW123303   4.020   1.767  15.286  0.2848  0.9312 -1.5522
 3947SOL    HW223304   4.054   1.640  15.319  1.4166  0.5396  2.1304
 3948SOL     OW23305   4.725   3.077   0.657  0.3153 -0.3537  0.0890
 3948SOL    HW123306   4.714   3.101   0.748  0.9120 -0.6706  0.2459
 3948SOL    HW223307   0.062   3.006   0.664  1.7869  1.1511  1.4558
 3949SOL     OW23308   0.402   2.010   7.520 -0.8171  0.4819 -0.0926
 3949SOL    HW123309   0.350   2.069   7.466  0.8928  3.1112  1.1350
 3949SOL    HW223310   0.441   1.956   7.452 -1.1326 -0.1285  0.2133
 3950SOL     OW23311   2.928   3.239  17.433  0.1961 -0.2383  0.4050
 3950SOL    HW123312   2.869   3.242  17.509  1.2694 -2.2656  1.3238
 3950SOL    HW223313   2.912   3.326  17.398 -1.6715  0.6180  3.3553
 3951SOL     OW23314   0.513   3.878  10.727 -0.3488  0.0856 -0.4982
 3951SOL    HW123315   0.557   3.912  10.649 -0.7828 -0.2660 -0.8974
 3951SOL    HW223316   0.459   3.807  10.692 -2.5035  1.4692  0.0583
 3952SOL     OW23317   4.283   3.939   6.711  0.4101  0.0946  0.0856
 3952SOL    HW123318   4.214   3.922   6.647 -0.5889 -0.9598  1.4503
 3952SOL    HW223319   4.354   3.885   6.676 -1.0739 -0.3566 -2.2645
 3953SOL     OW23320   0.663   3.402  15.096 -0.0221  0.1040  0.0100
 3953SOL    HW123321   0.738   3.394  15.154  0.0247 -1.2783 -0.2336
 3953SOL    HW223322   0.601   3.382  15.166  1.3053 -1.8838  0.6056
 3954SOL     OW23323   3.385   0.951   2.700 -0.5698 -0.2804  0.1198
 3954SOL    HW123324   3.463   0.895   2.708 -1.1722 -1.0497  0.6088
 3954SOL    HW223325   3.389   0.974   2.607  0.1956 -0.0288  0.2112
 3955SOL     OW23326   4.243   3.249   9.494  0.1509 -0.3218  0.1509
 3955SOL    HW123327   4.325   3.234   9.447 -0.1218 -0.6221 -0.2256
 3955SOL    HW223328   4.254   3.193   9.570  1.1752 -0.8837 -0.4131
 3956SOL     OW23329   0.006   3.517  13.189 -0.3345 -0.2507 -0.2248
 3956SOL    HW123330   4.701   3.434  13.224 -0.7853  0.4795  1.0702
 3956SOL    HW223331   0.036   3.556  13.271 -0.0545  0.1842 -0.5364
 3957SOL     OW23332   3.951   3.846   8.991 -0.6922 -0.0881 -0.1474
 3957SOL    HW123333   4.009   3.772   9.005 -0.3485  0.2169  0.0314
 3957SOL    HW223334   3.882   3.826   9.055  0.4420  1.0535  1.4331
 3958SOL     OW23335   0.617   0.415   0.499  0.1259  0.2403 -0.1151
 3958SOL    HW123336   0.634   0.502   0.534 -2.0985  1.0312 -0.9925
 3958SOL    HW223337   0.706   0.384   0.485 -0.7259 -1.5725 -1.5188
 3959SOL     OW23338   1.570   1.088  16.593 -0.2298 -0.1406  0.3826
 3959SOL    HW123339   1.625   1.137  16.532 -1.2411  1.1411  0.4867
 3959SOL    HW223340   1.634   1.045  16.650 -0.2251  0.9846  1.2439
 3960SOL     OW23341   2.291   0.363   0.988 -0.6058  0.3592 -0.2555
 3960SOL    HW123342   2.255   0.449   1.005 -1.0588 -0.3811  2.4953
 3960SOL    HW223343   2.328   0.337   1.073  3.0381 -0.7038 -2.1476
 3961SOL     OW23344   0.820   0.111   6.140  0.4694  0.8692  0.1569
 3961SOL    HW123345   0.769   0.131   6.062 -0.8459 -2.6980  0.0894
 3961SOL    HW223346   0.781   0.168   6.205 -1.8519 -0.1610 -0.3365
 3962SOL     OW23347   2.885   3.065   7.141 -0.1487 -0.0105 -0.2408
 3962SOL    HW123348   2.865   3.100   7.053  1.4705  1.9434  0.1675
 3962SOL    HW223349   2.864   2.972   7.139 -0.1995 -0.0244  1.1451
 3963SOL     OW23350   4.386   3.753  10.478  0.5597 -0.2234  0.0941
 3963SOL    HW123351   4.467   3.770  10.526  1.7465 -1.7157 -1.3645
 3963SOL    HW223352   4.418   3.697  10.407 -1.2641 -0.8163 -0.2538
 3964SOL     OW23353   1.828   0.761   7.566  0.2061  0.1912  0.7043
 3964SOL    HW123354   1.826   0.690   7.630 -1.3191 -0.1877  0.2311
 3964SOL    HW223355   1.858   0.699   7.500  1.0021 -0.0188  1.2576
 3965SOL     OW23356   1.487   1.029   2.962  0.1606  1.0853  0.0108
 3965SOL    HW123357   1.413   1.053   2.907 -1.1896  2.1679  2.2870
 3965SOL    HW223358   1.445   0.953   3.001  1.2534  0.9594  0.9517
 3966SOL     OW23359   1.868   4.507   9.133 -0.2439 -0.1289  0.0967
 3966SOL    HW123360   1.774   4.506   9.115 -0.5079 -0.9276  1.5675
 3966SOL    HW223361   1.893   4.424   9.092  1.6643  0.5919 -0.2383
 3967SOL     OW23362   2.827   0.725   3.908 -0.1055 -0.2334  0.0074
 3967SOL    HW123363   2.777   0.804   3.886  2.1684  0.7530 -1.5835
 3967SOL    HW223364   2.909   0.772   3.920  0.0657  0.5361 -4.1515
 3968SOL     OW23365   3.924   3.466   8.048  0.3924  0.0495  0.7992
 3968SOL    HW123366   4.014   3.497   8.039  0.5265 -1.2493 -2.2335
 3968SOL    HW223367   3.935   3.372   8.032 -1.3874 -0.0792  0.2773
 3969SOL     OW23368   2.056   4.286   8.435 -0.2866  0.3779 -0.1054
 3969SOL    HW123369   2.047   4.195   8.409  0.3276 -0.0881  1.2922
 3969SOL    HW223370   2.122   4.274   8.504  0.6091  1.6080 -0.7489
 3970SOL     OW23371   1.966   1.389   2.686 -0.5123  0.1062  0.4076
 3970SOL    HW123372   1.917   1.343   2.755  0.3160 -1.9258 -0.3371
 3970SOL    HW223373   2.052   1.389   2.729 -0.4953 -3.1233  0.3808
 3971SOL     OW23374   3.534   2.515   7.253  0.1690  0.3312 -0.3199
 3971SOL    HW123375   3.466   2.574   7.287  2.8522  2.9013  0.6359
 3971SOL    HW223376   3.549   2.458   7.328  0.4505 -1.0052 -1.4127
 3972SOL     OW23377   4.040   2.395   3.043 -0.2101 -0.1042 -0.0974
 3972SOL    HW123378   4.013   2.486   3.045 -0.0758 -0.0541 -0.4623
 3972SOL    HW223379   3.991   2.368   2.965  0.3394 -1.1324 -0.0860
 3973SOL     OW23380   0.952   2.208   1.259  0.3186 -0.0039 -0.2140
 3973SOL    HW123381   0.973   2.145   1.328 -1.3739  0.9571  1.1952
 3973SOL    HW223382   1.035   2.209   1.212  0.5988  0.8094  0.3088
 3974SOL     OW23383   0.026   3.421   3.092 -0.0226 -0.1469 -0.4862
 3974SOL    HW123384   4.726   3.342   3.045  0.2648 -1.6299  1.8290
 3974SOL    HW223385   4.661   3.439   3.112  0.2470 -0.1867  0.7752
 3975SOL     OW23386   4.140   4.398  15.106  0.1813  0.1199  0.3004
 3975SOL    HW123387   4.080   4.335  15.066 -0.6929 -0.0900  1.9429
 3975SOL    HW223388   4.108   4.482  15.072 -1.8985  0.1601  2.3137
 3976SOL     OW23389   3.274   4.140   3.376 -0.2752 -0.8041  0.1416
 3976SOL    HW123390   3.328   4.204   3.329 -0.9185 -0.3866 -0.0263
 3976SOL    HW223391   3.213   4.124   3.304 -0.6848  1.4593  0.0034
 3977SOL     OW23392   2.761   0.151   0.800  0.5080  0.3425 -0.1575
 3977SOL    HW123393   2.700   0.168   0.728  0.9914  0.3287 -0.5769
 3977SOL    HW223394   2.702   0.148   0.874  0.2224 -1.5905 -0.4724
 3978SOL     OW23395   0.491   1.364   6.737 -0.4252 -0.1013 -0.0496
 3978SOL    HW123396   0.475   1.270   6.730 -0.7867  0.0781 -1.5630
 3978SOL    HW223397   0.409   1.396   6.777 -1.0098 -2.3647  0.5800
 3979SOL     OW23398   1.621   2.139  14.787  0.1542  0.6134  0.0403
 3979SOL    HW123399   1.690   2.205  14.788  0.9758 -0.2563  0.5926
 3979SOL    HW223400   1.672   2.070  14.829 -0.7961  1.3048  2.3273
 3980SOL     OW23401   3.988   2.394   2.497  0.0038 -0.1624  0.3137
 3980SOL    HW123402   3.943   2.365   2.417  0.2487  0.0721  0.0917
 3980SOL    HW223403   3.944   2.476   2.519  1.7378  1.0326 -0.6422
 3981SOL     OW23404   1.632   2.246   6.506  0.0320  0.0852  0.2467
 3981SOL    HW123405   1.681   2.281   6.432  0.9314 -0.6044  0.5151
 3981SOL    HW223406   1.542   2.275   6.490  0.0491 -0.3510 -0.6273
 3982SOL     OW23407   2.588   0.684  10.883 -0.2095  0.1070 -0.0355
 3982SOL    HW123408   2.679   0.687  10.912  0.9278 -1.9075 -3.3777
 3982SOL    HW223409   2.553   0.766  10.915 -0.5668  0.2343 -0.7405
 3983SOL     OW23410   2.940   1.388   8.551 -0.0383  0.5968 -0.7053
 3983SOL    HW123411   2.845   1.397   8.546  0.1277  2.3991 -0.8455
 3983SOL    HW223412   2.945   1.294   8.533  0.7264  1.0252 -2.7173
 3984SOL     OW23413   2.598   2.924   6.674  0.2605  0.2033  0.2530
 3984SOL    HW123414   2.645   2.939   6.592 -0.5389 -1.0937 -0.4570
 3984SOL    HW223415   2.645   2.843   6.694  0.7137  0.0964 -1.2113
 3985SOL     OW23416   1.845   3.206   9.745  0.2390  0.3597  0.1022
 3985SOL    HW123417   1.807   3.294   9.746  0.0038  0.2554  0.2173
 3985SOL    HW223418   1.915   3.216   9.680  0.1757  0.6537  0.0798
 3986SOL     OW23419   2.178   4.203   3.382  0.2909  0.1567 -1.1095
 3986SOL    HW123420   2.149   4.292   3.364  1.1088  0.6452  0.0801
 3986SOL    HW223421   2.102   4.152   3.411  1.1021  1.6076  3.4089
 3987SOL     OW23422   4.049   3.975   4.589 -0.8683  0.0707 -0.2882
 3987SOL    HW123423   4.098   4.021   4.520 -1.5989 -0.9367 -1.4965
 3987SOL    HW223424   4.081   4.005   4.674 -0.8142  1.2170 -0.7146
 3988SOL     OW23425   0.391   2.852   7.754 -0.4018  0.4237 -0.2617
 3988SOL    HW123426   0.344   2.800   7.819  1.9568 -0.7078  0.5493
 3988SOL    HW223427   0.352   2.939   7.762  0.2187  0.5740  1.0227
 3989SOL     OW23428   0.972   3.197   6.001 -0.1993  0.4064 -0.0004
 3989SOL    HW123429   1.017   3.277   6.027 -1.0113  0.4558  1.2575
 3989SOL    HW223430   0.882   3.228   6.005 -1.0988 -2.1027 -0.4558
 3990SOL     OW23431   1.710   3.178   6.611 -0.0686  0.1773 -0.2351
 3990SOL    HW123432   1.797   3.172   6.572  0.7509  3.0446  1.2024
 3990SOL    HW223433   1.675   3.256   6.569 -2.7517 -0.4311  0.8292
 3991SOL     OW23434   2.573   0.873   4.171  0.1008  0.1509  0.7011
 3991SOL    HW123435   2.608   0.962   4.180  2.5557 -0.7116 -0.3460
 3991SOL    HW223436   2.644   0.821   4.210 -1.0963 -2.3636 -0.4818
 3992SOL     OW23437   1.369   2.030   5.035 -0.6996  0.1995  0.0378
 3992SOL    HW123438   1.425   2.102   5.009 -0.0840  1.3288  4.4954
 3992SOL    HW223439   1.355   2.035   5.130  0.3160 -1.6902  0.2812
 3993SOL     OW23440   4.033   1.346   0.613 -0.1518  0.9341  0.4383
 3993SOL    HW123441   4.087   1.314   0.541 -1.2334  0.3128 -0.0924
 3993SOL    HW223442   4.008   1.268   0.661 -1.9011  0.0276 -1.9729
 3994SOL     OW23443   2.048   2.624   5.714 -0.0692 -0.3817 -0.6539
 3994SOL    HW123444   2.124   2.672   5.682  0.1895  1.2694  2.5076
 3994SOL    HW223445   2.067   2.633   5.807  2.5706  0.9341 -1.3298
 3995SOL     OW23446   0.830   3.271   8.449 -0.0449  0.2202 -0.1411
 3995SOL    HW123447   0.780   3.235   8.376  1.6546 -2.0607 -0.2015
 3995SOL    HW223448   0.874   3.336   8.394  0.1226 -0.2830 -0.6092
 3996SOL     OW23449   0.332   3.674   5.423  0.5568  0.6380 -0.5434
 3996SOL    HW123450   0.371   3.716   5.347  0.6755  0.0583 -0.8068
 3996SOL    HW223451   0.410   3.636   5.465 -0.0728 -2.2349 -2.0053
 3997SOL     OW23452   2.451   1.581   1.787  0.2735 -0.0369  0.3618
 3997SOL    HW123453   2.543   1.565   1.764 -0.4141 -2.3112 -0.8822
 3997SOL    HW223454   2.425   1.646   1.721 -1.6963  0.2983  1.4716
 3998SOL     OW23455   1.132   0.072   9.121 -0.6406 -0.8437  0.1862
 3998SOL    HW123456   1.130   0.123   9.201  0.9799 -1.6793  0.7649
 3998SOL    HW223457   1.041   0.096   9.105  0.1044  1.2227 -0.9266
 3999SOL     OW23458   2.362   2.381   8.714 -0.0128 -0.0384  0.3295
 3999SOL    HW123459   2.365   2.343   8.801  2.5160 -1.3770 -0.3445
 3999SOL    HW223460   2.399   2.468   8.729 -3.1103  1.5639 -1.1893
 4000SOL     OW23461   4.693   3.939  10.712 -0.3920  0.4768 -0.0701
 4000SOL    HW123462   0.052   3.905  10.737 -0.9220 -0.2268  0.7846
 4000SOL    HW223463   4.724   4.015  10.662  1.6488 -0.0078  0.4349
 4001SOL     OW23464   1.012   0.434   5.029  0.0034 -0.1923 -0.2077
 4001SOL    HW123465   1.072   0.467   5.095 -1.5059  0.6952  0.7204
 4001SOL    HW223466   1.059   0.483   4.962  1.1468 -1.4816 -0.3627
 4002SOL     OW23467   4.319   3.580   5.964 -0.3629 -0.0169  0.2193
 4002SOL    HW123468   4.251   3.551   5.903  1.2270  0.0833 -1.5773
 4002SOL    HW223469   4.398   3.533   5.940  0.6672  0.5887  2.3559
 4003SOL     OW23470   2.142   4.244   5.238 -0.3476  0.6643  0.4029
 4003SOL    HW123471   2.152   4.232   5.143 -0.6143 -2.2814  0.7503
 4003SOL    HW223472   2.167   4.157   5.268  1.4331  1.1618  0.4022
 4004SOL     OW23473   0.202   3.835  15.243  0.1261  0.5613  0.1169
 4004SOL    HW123474   0.156   3.919  15.248 -1.0324 -0.0833  0.3408
 4004SOL    HW223475   0.147   3.790  15.180 -0.5782  0.1784  1.0018
 4005SOL     OW23476   0.850   1.850   5.237  0.5066  0.3908 -0.4786
 4005SOL    HW123477   0.935   1.868   5.277 -0.3168  2.6477  0.2284
 4005SOL    HW223478   0.797   1.847   5.316 -0.2454 -0.5207 -1.0254
 4006SOL     OW23479   2.267   0.835   7.951  0.7580  0.2678 -0.0382
 4006SOL    HW123480   2.226   0.834   7.864 -0.2164  0.2772  0.4141
 4006SOL    HW223481   2.196   0.819   8.014  0.1967  0.9840 -0.4820
 4007SOL     OW23482   0.283   1.190   7.252  0.1783 -0.1859  0.0792
 4007SOL    HW123483   0.293   1.225   7.341 -4.0747 -2.8008  1.6401
 4007SOL    HW223484   0.194   1.155   7.264 -0.7711  1.8471 -1.0450
 4008SOL     OW23485   3.236   4.237   2.302 -0.3013  0.6516 -0.0347
 4008SOL    HW123486   3.155   4.229   2.250  0.1590 -1.5189 -0.3892
 4008SOL    HW223487   3.276   4.151   2.294 -0.5286  0.4757  0.6729
 4009SOL     OW23488   0.205   4.519  15.669  0.1284 -0.3817  0.8333
 4009SOL    HW123489   0.268   4.449  15.684 -1.2731 -1.8343 -0.1020
 4009SOL    HW223490   0.127   4.463  15.671  0.6797 -1.1455  0.6072
 4010SOL     OW23491   4.326   0.285   5.655  0.1018 -0.3099  0.1030
 4010SOL    HW123492   4.270   0.275   5.578  0.3448  0.0500 -0.1251
 4010SOL    HW223493   4.403   0.230   5.641 -0.5347 -0.8249 -1.3587
 4011SOL     OW23494   0.566   0.790   7.861 -0.2759 -0.1427 -0.2846
 4011SOL    HW123495   0.504   0.806   7.790 -2.2297 -2.3708  0.9223
 4011SOL    HW223496   0.628   0.855   7.827 -1.7837  1.8396  0.7387
 4012SOL     OW23497   1.113   1.633  12.094 -0.3327  0.0063  0.3897
 4012SOL    HW123498   1.134   1.673  12.178  0.4850 -0.6280  0.4943
 4012SOL    HW223499   1.018   1.623  12.096 -0.4110  0.9642  1.1724
 4013SOL     OW23500   2.962   3.309   2.876  0.4178 -0.0778 -0.1320
 4013SOL    HW123501   3.054   3.315   2.899  0.1058  0.8052  0.8998
 4013SOL    HW223502   2.926   3.273   2.958  0.8606  1.1372  0.6047
 4014SOL     OW23503   2.181   3.670  16.493 -0.4106  0.3500 -0.3533
 4014SOL    HW123504   2.099   3.720  16.499 -0.7126 -0.1283 -0.4691
 4014SOL    HW223505   2.247   3.719  16.542 -1.1053  0.7961  0.1446
 4015SOL     OW23506   1.607   3.931  13.174 -0.2235  0.0182 -0.0112
 4015SOL    HW123507   1.567   4.017  13.184  0.1839  0.2165 -0.0744
 4015SOL    HW223508   1.572   3.895  13.092 -0.2624  0.6477 -0.2703
 4016SOL     OW23509   0.666   1.042   9.595 -0.1752  0.1450 -0.0645
 4016SOL    HW123510   0.641   0.964   9.644 -1.6627 -0.4208 -1.7519
 4016SOL    HW223511   0.741   1.072   9.646 -1.9564 -0.6389  3.0161
 4017SOL     OW23512   2.363   1.755   8.835 -0.0797 -0.1148 -0.1768
 4017SOL    HW123513   2.351   1.678   8.778  1.3831  1.0431 -2.0450
 4017SOL    HW223514   2.294   1.733   8.898 -1.5085  1.3210 -1.2544
 4018SOL     OW23515   0.035   1.062   7.218 -0.2581 -0.3676 -0.0432
 4018SOL    HW123516   4.685   1.064   7.275  0.3817 -0.6068  0.8250
 4018SOL    HW223517   0.009   1.134   7.159 -0.7872  0.8760  1.7087
 4019SOL     OW23518   1.516   1.782   4.828  0.2833  0.1575 -0.6175
 4019SOL    HW123519   1.457   1.743   4.892  1.6796 -1.7771 -0.5262
 4019SOL    HW223520   1.586   1.822   4.879 -0.1576  0.4434 -0.2420
 4020SOL     OW23521   0.091   1.027   4.455 -0.7072 -0.0452 -0.0742
 4020SOL    HW123522   0.040   0.983   4.387  1.3147  1.7838 -2.7481
 4020SOL    HW223523   0.180   1.000   4.432 -0.1062  2.5868 -0.7706
 4021SOL     OW23524   2.058   3.753   6.333  0.4206  0.4537 -0.6219
 4021SOL    HW123525   2.036   3.766   6.240 -2.2086 -0.8898 -0.2014
 4021SOL    HW223526   2.119   3.680   6.334  0.1291  0.2054 -1.3361
 4022SOL     OW23527   0.051   4.055   3.309  0.4540  0.1382 -0.4065
 4022SOL    HW123528   0.017   4.060   3.220  0.4738 -0.2764 -0.4378
 4022SOL    HW223529   4.707   4.076   3.369  0.1521  2.1695 -1.4698
 4023SOL     OW23530   3.068   0.008   1.435  0.1674  0.1373  0.3766
 4023SOL    HW123531   3.069   4.677   1.359 -1.7172  0.3721  0.1815
 4023SOL    HW223532   3.045   4.685   1.513  0.9640 -1.7275 -0.6090
 4024SOL     OW23533   2.021   1.663   2.570  0.4675 -0.0567 -0.2240
 4024SOL    HW123534   1.986   1.582   2.607 -0.0944  0.6076  0.7146
 4024SOL    HW223535   1.939   1.714   2.566 -0.5886 -1.8104 -0.7728
 4025SOL     OW23536   0.430   2.827  16.412  0.1973 -0.5986  0.1580
 4025SOL    HW123537   0.387   2.746  16.440  0.6818 -0.8734  0.1071
 4025SOL    HW223538   0.475   2.857  16.491 -0.2513  1.8983 -0.5667
 4026SOL     OW23539   1.218   1.171  12.442 -0.1501 -0.0393  0.1199
 4026SOL    HW123540   1.200   1.263  12.424  2.9844  0.4869 -0.3591
 4026SOL    HW223541   1.299   1.167  12.391  0.2054  1.5781  0.5544
 4027SOL     OW23542   2.132   2.574   4.901 -0.0687  0.0421 -0.0563
 4027SOL    HW123543   2.102   2.550   4.988 -1.7633 -0.7987 -0.8756
 4027SOL    HW223544   2.208   2.516   4.899 -0.2287 -0.2185  1.6638
 4028SOL     OW23545   3.508   2.223   1.379 -0.1292  0.0985 -0.0007
 4028SOL    HW123546   3.474   2.137   1.353 -1.2303  0.3914  0.4290
 4028SOL    HW223547   3.515   2.211   1.474  1.2588  1.8278  0.1010
 4029SOL     OW23548   1.481   2.239   7.048 -0.2242 -0.3339  0.4505
 4029SOL    HW123549   1.493   2.327   7.082  0.5173  0.8358 -2.8902
 4029SOL    HW223550   1.494   2.192   7.131  1.5639 -1.7527 -0.6322
 4030SOL     OW23551   0.072   3.680   9.864 -0.1450 -0.1128 -0.2047
 4030SOL    HW123552   0.072   3.728   9.782  2.3463 -2.0471 -1.3528
 4030SOL    HW223553   0.165   3.673   9.887 -0.5979 -0.9794  1.3861
 4031SOL     OW23554   3.476   2.515  16.732  0.3013  0.6401 -0.2833
 4031SOL    HW123555   3.519   2.587  16.686 -1.1671  0.5656 -1.7978
 4031SOL    HW223556   3.551   2.465  16.765 -1.6881 -0.0078  3.2034
 4032SOL     OW23557   3.623   0.677   0.738  0.4005  0.0956  0.0423
 4032SOL    HW123558   3.547   0.693   0.794  0.2454  1.5356 -0.5725
 4032SOL    HW223559   3.590   0.610   0.679 -0.4144  1.3393 -0.9225
 4033SOL     OW23560   1.130   1.717   8.144  0.1433 -0.3440  0.3249
 4033SOL    HW123561   1.194   1.674   8.201  1.2728  0.6145 -0.2202
 4033SOL    HW223562   1.072   1.641   8.136 -0.0316  0.3263 -5.2276
 4034SOL     OW23563   3.572   2.919  16.279 -0.3471  0.0970 -0.3776
 4034SOL    HW123564   3.645   2.933  16.339 -0.8196 -1.8958  0.6371
 4034SOL    HW223565   3.572   3.007  16.240 -0.8944  1.4047  2.6277
 4035SOL     OW23566   0.098   3.531   1.017  0.1230  0.1421 -0.1148
 4035SOL    HW123567   0.020   3.586   1.020 -0.5358 -0.9427  2.0777
 4035SOL    HW223568   0.129   3.563   0.932 -0.3006  2.8880  0.7439
 4036SOL     OW23569   4.040   1.869   6.965 -0.6634 -0.0004  0.3851
 4036SOL    HW123570   4.078   1.871   7.053  0.0661 -4.3282  0.1942
 4036SOL    HW223571   4.098   1.815   6.911 -1.2673 -0.5643  0.3055
 4037SOL     OW23572   2.503   2.198   4.835  0.6988 -0.2419  0.5744
 4037SOL    HW123573   2.524   2.154   4.753 -1.0627 -1.0017  0.5199
 4037SOL    HW223574   2.572   2.153   4.884  0.4673 -4.3363 -2.8476
 4038SOL     OW23575   3.662   3.141   5.043 -0.3260 -0.1240 -0.3902
 4038SOL    HW123576   3.649   3.066   4.986  1.0291 -0.8956  0.3089
 4038SOL    HW223577   3.607   3.211   5.008 -2.0273 -0.6959  1.1530
 4039SOL     OW23578   4.277   2.049   3.511  0.0996  0.3063 -0.4346
 4039SOL    HW123579   4.182   2.042   3.499 -0.1037  0.0100  1.3294
 4039SOL    HW223580   4.293   1.962   3.549 -0.9202  0.1431 -0.3642
 4040SOL     OW23581   1.349   2.835  14.087 -0.5574  0.0066  0.2990
 4040SOL    HW123582   1.413   2.820  14.156 -0.3068  0.2239  0.1112
 4040SOL    HW223583   1.396   2.892  14.026  0.5541  0.1122  1.2630
 4041SOL     OW23584   0.731   0.293  14.794  0.3585  0.2503  0.1138
 4041SOL    HW123585   0.675   0.328  14.864  0.5182 -1.6818  1.2113
 4041SOL    HW223586   0.750   0.202  14.817 -1.6480  0.0928  1.1216
 4042SOL     OW23587   3.917   4.250  10.252 -0.0694  0.2256 -0.7687
 4042SOL    HW123588   3.880   4.332  10.219 -1.5145 -0.6270 -1.2251
 4042SOL    HW223589   3.840   4.196  10.268  0.9642 -1.3793 -1.2521
 4043SOL     OW23590   1.565   1.031   9.941 -0.7033  0.1815  0.0043
 4043SOL    HW123591   1.559   1.099  10.008 -0.6215  1.0182 -0.8380
 4043SOL    HW223592   1.505   0.971   9.987  0.0740 -0.6516 -0.0852
 4044SOL     OW23593   0.259   1.367   6.921  0.0672  0.1918 -0.5131
 4044SOL    HW123594   0.281   1.372   7.014 -0.0468 -2.3018 -0.3687
 4044SOL    HW223595   0.179   1.316   6.929  1.0494 -1.3448 -0.5357
 4045SOL     OW23596   4.157   2.972  13.170  0.4904 -0.3864  0.5482
 4045SOL    HW123597   4.078   2.993  13.120  0.3857  0.4984  1.0963
 4045SOL    HW223598   4.146   3.030  13.245  0.2234 -1.0537  1.0233
 4046SOL     OW23599   4.251   0.922  13.003 -0.0736  0.1326  0.9268
 4046SOL    HW123600   4.204   0.967  13.073 -1.1717 -1.3244  1.1260
 4046SOL    HW223601   4.218   0.833  13.010 -0.4962  0.2534  0.4854
 4047SOL     OW23602   2.662   1.328   5.760  0.1008 -0.3395 -0.3466
 4047SOL    HW123603   2.591   1.317   5.824  0.0557  0.2158 -0.2999
 4047SOL    HW223604   2.658   1.246   5.710 -0.2697 -1.2881  1.2170
 4048SOL     OW23605   0.724   3.777  16.885  0.5217 -0.4755 -0.4249
 4048SOL    HW123606   0.782   3.712  16.926  1.1680 -1.6511 -3.2236
 4048SOL    HW223607   0.749   3.770  16.794  0.8337  0.8874 -0.4465
 4049SOL     OW23608   2.574   0.030   7.376 -0.3492  0.7015 -0.1099
 4049SOL    HW123609   2.647   4.699   7.396 -1.4784 -0.0676  1.7592
 4049SOL    HW223610   2.576   0.013   7.282 -1.8063 -0.9686  0.1790
 4050SOL     OW23611   1.865   3.733   6.699  0.2797 -0.4190  0.4415
 4050SOL    HW123612   1.772   3.742   6.718 -0.0221  2.1842 -2.1602
 4050SOL    HW223613   1.885   3.654   6.748  0.2254 -0.2670  0.7125
 4051SOL     OW23614   2.397   0.215   9.411 -0.6689  0.7874 -0.3591
 4051SOL    HW123615   2.382   0.134   9.461 -1.3135  0.8339 -0.4819
 4051SOL    HW223616   2.446   0.273   9.470  0.2964  0.0465 -0.4282
 4052SOL     OW23617   4.523   4.086   9.063  0.0488  0.3933  0.2984
 4052SOL    HW123618   4.507   4.152   9.131 -0.2441  2.0024 -1.3266
 4052SOL    HW223619   4.436   4.084   9.025 -0.0493  0.9850  0.4958
 4053SOL     OW23620   1.652   3.797   7.260 -0.2571  0.0989 -0.7337
 4053SOL    HW123621   1.566   3.821   7.297 -0.4877 -1.0982 -0.4875
 4053SOL    HW223622   1.620   3.751   7.182 -2.5172 -0.2348  0.3749
 4054SOL     OW23623   3.265   1.051   5.011 -0.4025 -0.0061  0.3544
 4054SOL    HW123624   3.237   1.115   5.076 -1.5308 -0.2958  0.1664
 4054SOL    HW223625   3.202   0.979   5.016 -1.5826  0.9238 -1.1003
 4055SOL     OW23626   2.366   0.002  10.827  0.0207 -0.2312  0.6079
 4055SOL    HW123627   2.433   4.661  10.839 -0.0693 -0.8575 -2.5400
 4055SOL    HW223628   2.408   0.055  10.760 -1.3691  0.2589  0.1170
 4056SOL     OW23629   0.281   4.256   3.341  0.1478 -0.1364  0.2660
 4056SOL    HW123630   0.334   4.255   3.261  0.2457 -1.3398  0.3541
 4056SOL    HW223631   0.227   4.178   3.332  0.3490 -0.2411 -0.0517
 4057SOL     OW23632   4.222   3.823  12.253  0.5016  0.0713  0.9028
 4057SOL    HW123633   4.246   3.814  12.345  0.1664 -1.1597  0.8722
 4057SOL    HW223634   4.128   3.830  12.273  0.1163  0.6594 -1.0798
 4058SOL     OW23635   1.351   3.629  12.872 -0.0864  0.1313  0.2363
 4058SOL    HW123636   1.340   3.666  12.960  0.3848  1.0686 -0.1009
 4058SOL    HW223637   1.361   3.704  12.814  1.5417  1.4613  2.2200
 4059SOL     OW23638   4.151   2.490   9.281  0.7046 -0.8380  0.5414
 4059SOL    HW123639   4.245   2.493   9.261  0.6247 -0.7196  0.1767
 4059SOL    HW223640   4.152   2.502   9.376  1.3056  0.2600  0.3998
 4060SOL     OW23641   2.078   0.498   0.063 -0.3321  0.2301  0.0079
 4060SOL    HW123642   2.145   0.559   0.093 -0.8915  1.1325 -0.5730
 4060SOL    HW223643   2.036   0.563   0.007 -0.4053  0.1509 -0.0315
 4061SOL     OW23644   3.639   3.229   8.474 -0.4196 -0.2175 -0.4372
 4061SOL    HW123645   3.697   3.300   8.448 -1.8255  0.9218 -0.4949
 4061SOL    HW223646   3.562   3.246   8.419  0.8132 -1.2598 -2.4861
 4062SOL     OW23647   0.789   1.263   0.221 -0.4220  0.0624 -0.5749
 4062SOL    HW123648   0.779   1.203   0.146  0.0812  0.8468 -1.2631
 4062SOL    HW223649   0.802   1.348   0.180 -0.2393  0.4595  0.3219
 4063SOL     OW23650   0.155   0.811   7.241  0.6992 -0.2270 -0.4797
 4063SOL    HW123651   0.219   0.829   7.172  0.5449  0.2895 -0.4839
 4063SOL    HW223652   0.111   0.895   7.233 -1.3346 -1.0895  1.8849
 4064SOL     OW23653   0.267   0.499  10.465  0.1680 -0.8009  0.5653
 4064SOL    HW123654   0.289   0.436  10.534 -1.0956 -1.1520  0.6369
 4064SOL    HW223655   0.319   0.574  10.494 -1.1272  0.5956 -0.7728
 4065SOL     OW23656   1.644   2.469   2.288  0.4442 -0.8646 -0.2106
 4065SOL    HW123657   1.558   2.501   2.313  0.3087  0.8184 -2.9451
 4065SOL    HW223658   1.642   2.382   2.329  2.1524 -1.6924 -1.8685
 4066SOL     OW23659   4.406   3.763   0.255 -0.4957  0.1714 -0.3185
 4066SOL    HW123660   4.329   3.742   0.201  0.1950 -0.6296 -1.0085
 4066SOL    HW223661   4.468   3.792   0.188 -1.2047  0.6682 -0.7666
 4067SOL     OW23662   3.583   2.541   1.418 -0.5280 -0.6387  0.2129
 4067SOL    HW123663   3.571   2.598   1.342 -1.3218  2.3078  2.5451
 4067SOL    HW223664   3.585   2.608   1.486 -0.2675 -0.6355  0.2049
 4068SOL     OW23665   1.545   1.781   1.634  0.1552  0.2612  1.0282
 4068SOL    HW123666   1.496   1.732   1.700  0.4733 -0.7521  0.4972
 4068SOL    HW223667   1.604   1.827   1.694 -0.7138  1.2291  1.1479
 4069SOL     OW23668   4.577   1.885  14.108 -0.5911  0.7194  0.1833
 4069SOL    HW123669   4.667   1.862  14.085 -1.1655  1.0258 -2.4063
 4069SOL    HW223670   4.584   1.889  14.203 -4.2287  0.1250  0.4710
 4070SOL     OW23671   3.016   0.812   6.425 -0.4164 -0.3126 -0.2735
 4070SOL    HW123672   3.087   0.778   6.479 -0.6709  0.2031  0.3727
 4070SOL    HW223673   3.061   0.809   6.340 -1.0970 -1.8345 -0.5697
 4071SOL     OW23674   1.458   4.336  13.991  0.1451 -0.3281  0.1045
 4071SOL    HW123675   1.426   4.319  14.079 -0.6044 -0.3101 -0.1663
 4071SOL    HW223676   1.374   4.321  13.947 -0.9414  0.8201  1.7957
 4072SOL     OW23677   3.541   2.797   2.207 -0.3186  0.0105 -0.7819
 4072SOL    HW123678   3.492   2.730   2.160 -0.8522  0.0937 -0.3453
 4072SOL    HW223679   3.624   2.761   2.175  0.0075 -0.8268  1.0151
 4073SOL     OW23680   3.927   3.474   3.809 -0.2550  0.0034  0.0646
 4073SOL    HW123681   3.915   3.472   3.904  3.6326  0.3829  0.5992
 4073SOL    HW223682   3.944   3.567   3.795 -1.6326  0.5374  2.0312
 4074SOL     OW23683   0.181   3.551   3.759 -0.3381  0.1543  0.5242
 4074SOL    HW123684   0.263   3.518   3.721 -1.0438  1.6729 -2.3489
 4074SOL    HW223685   0.172   3.480   3.823  0.9899  1.7922  2.5147
 4075SOL     OW23686   0.338   0.860   3.791  0.1796 -0.4037 -0.1311
 4075SOL    HW123687   0.286   0.807   3.850 -0.1524 -0.8993 -0.8677
 4075SOL    HW223688   0.268   0.889   3.732 -1.4187 -0.1645  1.8919
 4076SOL     OW23689   0.212   0.514   7.178  0.4700 -0.4213 -0.7791
 4076SOL    HW123690   0.206   0.608   7.193  0.4069 -0.4328 -0.7321
 4076SOL    HW223691   0.307   0.508   7.191  0.3417 -0.5060  0.1076
 4077SOL     OW23692   2.224   4.606   8.801  0.1517 -0.0596  0.2169
 4077SOL    HW123693   2.187   4.670   8.740  1.6122  0.2318 -0.3533
 4077SOL    HW223694   2.160   4.625   8.870  0.5778 -0.3103  0.6779
 4078SOL     OW23695   4.083   0.854   3.290  0.3888  0.1370 -0.0421
 4078SOL    HW123696   4.067   0.937   3.334  3.6849 -0.3635  2.1296
 4078SOL    HW223697   3.992   0.825   3.285  0.5832 -0.7177  1.2816
 4079SOL     OW23698   2.440   1.697   3.133 -0.2642 -0.1853  0.4171
 4079SOL    HW123699   2.440   1.635   3.205 -2.0897 -2.2815 -1.3970
 4079SOL    HW223700   2.346   1.708   3.117 -0.7550 -0.6919  3.0220
 4080SOL     OW23701   3.400   0.463   9.332  0.1606 -0.3253  0.2093
 4080SOL    HW123702   3.461   0.394   9.359  0.8856  0.1523 -0.1996
 4080SOL    HW223703   3.316   0.433   9.368  1.2960 -0.7417  2.5459
 4081SOL     OW23704   4.685   1.386   6.769 -0.0856 -0.3606  0.3222
 4081SOL    HW123705   4.727   1.425   6.693 -0.6557  2.0913  1.2753
 4081SOL    HW223706   4.653   1.309   6.722  1.9576 -0.7857 -0.3588
 4082SOL     OW23707   0.320   1.997   5.059 -0.0380  0.6709  0.0062
 4082SOL    HW123708   0.312   2.092   5.053  0.3401  0.6096 -1.4634
 4082SOL    HW223709   0.410   1.983   5.086 -1.0394 -1.3727  2.3209
 4083SOL     OW23710   2.905   2.611  13.408  0.1065  0.2524 -0.1140
 4083SOL    HW123711   2.844   2.590  13.478 -0.1199  1.1567 -0.0417
 4083SOL    HW223712   2.880   2.547  13.342  1.2202 -0.0057 -0.2996
 4084SOL     OW23713   0.482   0.223   2.068  0.5481  0.4967 -0.3456
 4084SOL    HW123714   0.510   0.134   2.090 -2.5446 -0.9205 -2.2060
 4084SOL    HW223715   0.561   0.262   2.029  2.0115  1.0512  3.1646
 4085SOL     OW23716   1.574   2.007   8.694 -0.0671 -0.1519  0.2326
 4085SOL    HW123717   1.531   1.966   8.618 -1.6165 -1.0772  1.6129
 4085SOL    HW223718   1.662   1.971   8.677 -0.0422  1.4932 -3.0552
 4086SOL     OW23719   2.859   1.094   5.264  0.3988 -0.1775  0.1025
 4086SOL    HW123720   2.766   1.069   5.258  0.0297  0.9278  1.0747
 4086SOL    HW223721   2.882   1.071   5.175 -1.3691  1.7420 -0.8670
 4087SOL     OW23722   2.873   2.819   3.562  0.3485  0.9265  0.2722
 4087SOL    HW123723   2.915   2.746   3.515  1.7224  1.5044  0.6020
 4087SOL    HW223724   2.833   2.768   3.632 -0.0666 -1.8460 -1.9364
 4088SOL     OW23725   2.043   3.854  10.974 -0.1669 -0.4422 -0.4338
 4088SOL    HW123726   2.118   3.871  11.031 -0.9360 -2.5514  1.2176
 4088SOL    HW223727   1.984   3.811  11.036  0.5938 -1.5953 -0.4984
 4089SOL     OW23728   3.331   3.121   1.703  0.0193  0.0141  0.4084
 4089SOL    HW123729   3.380   3.075   1.635  0.8189 -1.9565  2.3203
 4089SOL    HW223730   3.323   3.051   1.768 -0.6335 -0.0900  0.2179
 4090SOL     OW23731   1.770   1.453  17.530  0.4615 -0.0055  0.2702
 4090SOL    HW123732   1.757   1.541  17.496  0.7008  0.0489  0.3150
 4090SOL    HW223733   1.811   1.468  17.615 -0.7717 -2.3153  1.2849
 4091SOL     OW23734   1.948   1.089  11.027 -0.1040 -0.0228  0.5979
 4091SOL    HW123735   1.908   1.085  11.114  0.8363  1.5183  1.1045
 4091SOL    HW223736   2.037   1.065  11.052  0.2951  0.5923 -0.2523
 4092SOL     OW23737   3.002   1.404   5.039 -0.1994 -0.5288 -0.5479
 4092SOL    HW123738   3.015   1.385   5.132  2.4291 -1.4575 -1.1165
 4092SOL    HW223739   3.092   1.405   5.008 -0.2069  1.7051 -0.4727
 4093SOL     OW23740   0.273   2.509   2.655  0.0549  0.1261 -0.3451
 4093SOL    HW123741   0.195   2.504   2.709 -0.2657 -0.4064 -0.8554
 4093SOL    HW223742   0.342   2.529   2.718 -2.7377  3.0259  1.7668
 4094SOL     OW23743   3.482   0.518   6.407 -0.4624  0.2705 -0.8801
 4094SOL    HW123744   3.515   0.589   6.462  0.3771 -0.4341 -0.4851
 4094SOL    HW223745   3.498   0.443   6.465 -1.2898  1.6890  1.1722
 4095SOL     OW23746   1.886   3.553   7.414 -0.3666  0.6282  0.3902
 4095SOL    HW123747   1.794   3.572   7.431  0.0942  0.0725  3.6081
 4095SOL    HW223748   1.900   3.493   7.488  1.7061  0.5226 -0.0858
 4096SOL     OW23749   2.083   1.965  12.006  0.4450 -0.2478  0.0476
 4096SOL    HW123750   2.072   2.059  12.020 -1.9922 -0.1427 -2.6426
 4096SOL    HW223751   2.004   1.947  11.956  0.4206 -0.0989  0.0332
 4097SOL     OW23752   4.430   0.875   8.283 -0.7753  0.0164 -0.3213
 4097SOL    HW123753   4.376   0.929   8.341  1.2055  0.3106  1.2277
 4097SOL    HW223754   4.419   0.915   8.196  2.6845 -0.3287 -0.9233
 4098SOL     OW23755   3.798   4.632   5.197 -0.0906  0.0962  0.4199
 4098SOL    HW123756   3.763   4.547   5.173 -0.1509  0.1715  0.2410
 4098SOL    HW223757   3.865   4.649   5.130 -1.7048  0.6458 -1.0468
 4099SOL     OW23758   0.150   0.740   3.977  0.4478  0.3099 -0.4083
 4099SOL    HW123759   0.071   0.794   3.975 -1.6303 -2.5801  3.2925
 4099SOL    HW223760   0.188   0.765   4.061 -3.2613 -2.2959  2.0621
 4100SOL     OW23761   1.241   3.334  15.876 -0.0467 -0.0242 -0.1246
 4100SOL    HW123762   1.289   3.347  15.958  0.9062  1.9208 -0.9824
 4100SOL    HW223763   1.262   3.246  15.845 -0.9250 -0.5567  0.7871
 4101SOL     OW23764   2.780   1.665   7.209  0.3553 -0.0387 -0.0738
 4101SOL    HW123765   2.851   1.727   7.194  0.2403  0.4751  1.4898
 4101SOL    HW223766   2.830   1.590   7.241 -1.4560 -0.8573  0.8719
 4102SOL     OW23767   4.628   0.864   2.928  0.2034  0.4370  0.1439
 4102SOL    HW123768   4.632   0.772   2.903  1.0820  0.4921  0.0949
 4102SOL    HW223769   4.613   0.897   2.840 -3.3627  0.2962  0.6916
 4103SOL     OW23770   1.995   3.750   5.764 -0.1658  0.9598  0.1210
 4103SOL    HW123771   2.010   3.693   5.839 -0.0661  2.1663  1.0037
 4103SOL    HW223772   1.979   3.690   5.691 -1.7522  0.6492  0.7295
 4104SOL     OW23773   2.814   4.305  13.636  0.2390 -0.7738  0.4252
 4104SOL    HW123774   2.732   4.260  13.652  0.0792 -0.8062 -0.5360
 4104SOL    HW223775   2.866   4.257  13.701  0.4632  0.6518  1.3148
 4105SOL     OW23776   0.007   1.635   4.220 -0.1134 -0.0596 -0.4294
 4105SOL    HW123777   0.005   1.711   4.162  0.1453  2.1028  2.4479
 4105SOL    HW223778   4.717   1.683   4.300 -2.0655  0.8051 -1.3745
 4106SOL     OW23779   0.922   3.866   6.594 -0.0571 -0.0691  0.2109
 4106SOL    HW123780   0.999   3.814   6.572  0.4980  1.2340 -0.9391
 4106SOL    HW223781   0.860   3.844   6.524 -2.6677 -0.6975  2.6908
 4107SOL     OW23782   0.429   3.751   7.043  0.2522  0.1200  0.1282
 4107SOL    HW123783   0.355   3.702   7.008  0.1943 -0.1206  0.5877
 4107SOL    HW223784   0.408   3.837   7.006  0.8774  0.1718 -0.1054
 4108SOL     OW23785   1.147   0.450   4.284 -1.1170 -0.3978 -0.0849
 4108SOL    HW123786   1.236   0.466   4.253 -1.0542 -0.0987  0.2476
 4108SOL    HW223787   1.099   0.465   4.203 -1.3684 -3.3726 -0.4799
 4109SOL     OW23788   0.395   2.286   4.741 -0.6939 -0.2875 -0.1813
 4109SOL    HW123789   0.377   2.306   4.649  0.4074  0.3259 -0.2629
 4109SOL    HW223790   0.379   2.192   4.736  0.3519 -0.4841  0.1936
 4110SOL     OW23791   4.605   4.567   9.060  0.0690  0.1521 -0.5806
 4110SOL    HW123792   4.515   4.546   9.035  0.2398  0.5195 -1.4967
 4110SOL    HW223793   4.632   4.480   9.090 -0.0562 -0.3603 -1.9393
 4111SOL     OW23794   3.623   2.296  12.441  0.5449 -0.3463 -0.3793
 4111SOL    HW123795   3.547   2.351  12.422 -0.4976 -1.1367  1.5374
 4111SOL    HW223796   3.663   2.335  12.518 -0.7404  1.5008 -0.6509
 4112SOL     OW23797   3.713   0.664   2.532 -0.4298  0.0279 -0.1695
 4112SOL    HW123798   3.626   0.703   2.546  0.0650  0.4499  1.7611
 4112SOL    HW223799   3.766   0.726   2.482  0.8545 -1.3479 -0.5146
 4113SOL     OW23800   2.937   4.643   2.117 -0.5129 -1.2255 -0.2701
 4113SOL    HW123801   2.889   4.725   2.129 -1.4928 -2.1134  2.0928
 4113SOL    HW223802   2.992   4.674   2.046  0.1152 -1.9062 -0.0785
 4114SOL     OW23803   2.921   4.383   4.554 -0.0064 -0.7676  0.4542
 4114SOL    HW123804   2.922   4.418   4.465 -1.0311  0.5489  0.9559
 4114SOL    HW223805   2.924   4.460   4.611  0.1678 -0.1426 -0.3989
 4115SOL     OW23806   4.009   1.316   1.955 -0.2554  0.3846 -0.6878
 4115SOL    HW123807   4.032   1.259   1.882  1.0824  1.7765 -1.3496
 4115SOL    HW223808   4.051   1.267   2.026 -0.0893  2.2928  0.5240
 4116SOL     OW23809   0.968   3.453   8.299  0.4534  0.0772 -0.1051
 4116SOL    HW123810   1.034   3.420   8.239  2.0102  1.5780  0.7906
 4116SOL    HW223811   1.019   3.492   8.370  0.0103  0.1326  0.1841
 4117SOL     OW23812   1.836   1.207   6.223  0.1034 -0.1109 -0.0321
 4117SOL    HW123813   1.857   1.116   6.244 -0.3456  0.4974  3.0267
 4117SOL    HW223814   1.788   1.208   6.140 -0.4583 -2.0308  0.2664
 4118SOL     OW23815   4.683   2.572   8.323 -0.5582 -0.2832 -0.7329
 4118SOL    HW123816   4.689   2.477   8.314 -0.6430 -0.1859 -1.8784
 4118SOL    HW223817   0.018   2.593   8.393  0.8914 -0.8419 -1.8329
 4119SOL     OW23818   2.704   1.839   2.831 -0.2582  0.4460 -0.1344
 4119SOL    HW123819   2.699   1.901   2.758  0.5842 -0.7844 -1.2393
 4119SOL    HW223820   2.797   1.820   2.824 -0.6290 -1.9770  1.8360
 4120SOL     OW23821   1.688   4.055   9.513 -0.1420 -0.3442 -0.3198
 4120SOL    HW123822   1.614   4.112   9.491  0.4032  0.6012  0.2986
 4120SOL    HW223823   1.760   4.114   9.537 -0.3358 -0.7192  1.1849
 4121SOL     OW23824   0.694   3.379   4.593  0.0888 -0.2621 -0.3063
 4121SOL    HW123825   0.623   3.351   4.535 -0.7165 -2.6930  1.8481
 4121SOL    HW223826   0.770   3.351   4.541 -0.0675 -1.8007  0.2728
 4122SOL     OW23827   1.045   0.175   7.318 -0.3473  0.1313 -0.2345
 4122SOL    HW123828   1.125   0.227   7.322 -0.4612  0.2916 -0.0679
 4122SOL    HW223829   0.982   0.234   7.359 -1.0910 -0.1934 -0.9089
 4123SOL     OW23830   4.249   0.896   9.865 -0.0286 -0.0658  0.2126
 4123SOL    HW123831   4.321   0.849   9.822 -1.0116  0.6020 -2.1858
 4123SOL    HW223832   4.263   0.875   9.957  1.8992  0.7259  0.0981
 4124SOL     OW23833   4.563   0.739   0.039  0.5994 -0.3306 -0.3454
 4124SOL    HW123834   4.645   0.787   0.036  0.5983 -0.3200 -0.2152
 4124SOL    HW223835   4.529   0.796   0.109  1.7945  1.3116 -1.1165
 4125SOL     OW23836   3.318   4.548  12.731  0.1456  0.1304  0.6437
 4125SOL    HW123837   3.296   4.467  12.684  0.0159  0.9548 -0.7126
 4125SOL    HW223838   3.246   4.544  12.794 -1.6458  1.8276 -1.3039
 4126SOL     OW23839   1.840   0.811   4.033  0.4229 -0.3434  0.5537
 4126SOL    HW123840   1.886   0.737   3.995  1.9682 -0.6431  3.0206
 4126SOL    HW223841   1.908   0.879   4.029 -0.7214  0.7344 -0.4394
 4127SOL     OW23842   3.611   4.562   8.709  0.8508  0.6786 -0.1508
 4127SOL    HW123843   3.530   4.589   8.753  0.0280 -2.9373  0.5234
 4127SOL    HW223844   3.610   4.594   8.618 -0.7967 -0.4263 -0.5183
 4128SOL     OW23845   0.458   3.239   2.417  0.1425  0.0465  0.5642
 4128SOL    HW123846   0.464   3.250   2.322 -3.1729  2.9619  0.7301
 4128SOL    HW223847   0.482   3.146   2.426  3.0958  0.6345 -1.0476
 4129SOL     OW23848   2.723   0.609  13.158 -0.2640  0.2252  0.5457
 4129SOL    HW123849   2.794   0.652  13.110 -0.4314  0.3928  0.4481
 4129SOL    HW223850   2.661   0.593  13.087  0.6908 -1.4059  0.0793
 4130SOL     OW23851   4.220   0.510   5.060 -0.4665  0.1047  0.1634
 4130SOL    HW123852   4.165   0.451   5.009 -0.6648  0.0472  0.4416
 4130SOL    HW223853   4.245   0.448   5.129 -1.8001 -0.9973 -0.3456
 4131SOL     OW23854   3.976   1.889   5.582 -0.5836 -0.1541  0.0533
 4131SOL    HW123855   4.019   1.964   5.623 -0.5218 -1.3224  2.1128
 4131SOL    HW223856   3.957   1.836   5.659  0.4996 -0.8950 -0.1744
 4132SOL     OW23857   3.964   2.269  12.844 -0.5961 -0.5196 -0.0193
 4132SOL    HW123858   3.969   2.288  12.938 -1.9264  4.5307 -0.9390
 4132SOL    HW223859   4.024   2.337  12.813 -1.4162 -0.0868 -0.6342
 4133SOL     OW23860   0.691   1.642  14.957  0.5084 -0.5594  0.3814
 4133SOL    HW123861   0.624   1.695  14.913  1.2859  0.7624  0.7765
 4133SOL    HW223862   0.711   1.579  14.887 -1.0623 -0.4172 -0.1909
 4134SOL     OW23863   2.908   4.676   0.962  0.0345 -0.1049 -0.1433
 4134SOL    HW123864   2.984   0.003   0.983 -1.3710  1.9431 -0.3245
 4134SOL    HW223865   2.863   0.002   0.896 -2.4230 -2.0881 -0.0543
 4135SOL     OW23866   0.682   3.534   4.261 -0.2093 -0.0414  0.2387
 4135SOL    HW123867   0.756   3.588   4.234 -0.7826  0.3277 -0.5751
 4135SOL    HW223868   0.607   3.582   4.225 -1.1217 -0.4195  1.6060
 4136SOL     OW23869   4.304   4.544  14.036  0.3671  0.0974  0.2370
 4136SOL    HW123870   4.214   4.572  14.018 -0.2073 -1.0312  1.3508
 4136SOL    HW223871   4.333   4.619  14.088  0.2360 -1.0434  1.9540
 4137SOL     OW23872   3.719   0.119   8.046 -0.7182  0.1307 -0.1182
 4137SOL    HW123873   3.654   0.117   7.976  3.2660  2.4176 -3.8321
 4137SOL    HW223874   3.745   0.027   8.036  1.5902  0.8204 -0.5631
 4138SOL     OW23875   1.334   0.999  16.729 -0.1129  0.4194  0.2137
 4138SOL    HW123876   1.266   0.963  16.785 -2.6141  3.0653 -1.1594
 4138SOL    HW223877   1.381   1.056  16.790  0.6553  0.1141 -0.0880
 4139SOL     OW23878   4.007   0.942   8.674 -0.3634 -0.7105  0.2019
 4139SOL    HW123879   4.032   0.871   8.733 -1.6195 -0.1643  1.4000
 4139SOL    HW223880   3.939   0.985   8.727  1.1946  1.3175  0.5387
 4140SOL     OW23881   1.485   0.229   8.262  0.4461 -0.0117  0.0829
 4140SOL    HW123882   1.573   0.195   8.276  0.5365 -0.3287 -1.3445
 4140SOL    HW223883   1.456   0.198   8.177 -0.7646  0.0834  0.4599
 4141SOL     OW23884   0.090   0.169   7.203 -0.4785 -0.4835  0.5405
 4141SOL    HW123885   0.173   0.139   7.241 -0.8228 -1.2192  0.6842
 4141SOL    HW223886   0.035   0.191   7.278  0.6277 -0.3927  1.3332
 4142SOL     OW23887   0.050   0.386   6.758  0.7045 -0.2762  0.5270
 4142SOL    HW123888   4.687   0.400   6.729  0.7709  1.1742  1.0485
 4142SOL    HW223889   0.048   0.400   6.852 -0.7754  0.2080  0.4285
 4143SOL     OW23890   3.433   2.629   9.368 -0.6694  0.4735  0.1517
 4143SOL    HW123891   3.425   2.540   9.334 -2.6284  0.6506  0.1645
 4143SOL    HW223892   3.344   2.658   9.388 -1.3703 -1.7142  0.2162
 4144SOL     OW23893   1.661   2.116   4.682 -0.7114 -0.4534 -0.3221
 4144SOL    HW123894   1.727   2.059   4.720 -0.3097  2.4781  3.3687
 4144SOL    HW223895   1.633   2.088   4.594  0.0423 -1.5840 -0.1964
 4145SOL     OW23896   2.311   3.177   3.311  0.0662  0.0929 -0.0930
 4145SOL    HW123897   2.267   3.092   3.320 -0.4496  0.3663 -0.0090
 4145SOL    HW223898   2.320   3.204   3.402  0.8605  1.5916 -0.6164
 4146SOL     OW23899   0.439   0.802  16.718 -0.2756 -0.1317  0.1159
 4146SOL    HW123900   0.466   0.711  16.705 -0.8553 -0.1332 -1.0593
 4146SOL    HW223901   0.521   0.840  16.750 -0.0283 -1.8321  1.4935
 4147SOL     OW23902   0.095   2.232  11.614  0.1312 -0.5414 -0.5569
 4147SOL    HW123903   0.139   2.246  11.698  1.3395 -0.1357 -1.2441
 4147SOL    HW223904   0.004   2.231  11.640  0.7546 -0.7983  1.5810
 4148SOL     OW23905   1.761   0.577   4.696 -0.6614  0.3784  0.0337
 4148SOL    HW123906   1.851   0.558   4.670 -0.4031  0.6355  0.7317
 4148SOL    HW223907   1.761   0.672   4.681 -0.8052  0.1686 -1.2114
 4149SOL     OW23908   0.634   2.597  11.553 -0.5183 -0.3924  0.0060
 4149SOL    HW123909   0.653   2.578  11.461  1.6280  3.5727 -0.3788
 4149SOL    HW223910   0.722   2.597  11.592 -0.4476  1.1383 -0.1402
 4150SOL     OW23911   2.171   3.838  11.731  0.3944 -0.6926 -0.2999
 4150SOL    HW123912   2.235   3.767  11.746  0.9078 -0.2854 -0.5688
 4150SOL    HW223913   2.087   3.795  11.747 -0.4749  0.2690 -2.3979
 4151SOL     OW23914   1.997   0.395   0.816  0.5025 -0.0288  0.7056
 4151SOL    HW123915   2.064   0.462   0.807 -1.1136  1.0758 -2.9718
 4151SOL    HW223916   1.921   0.433   0.771  0.8452 -0.9945 -0.6757
 4152SOL     OW23917   4.002   3.534   2.171  0.0796 -0.8846  0.7305
 4152SOL    HW123918   4.041   3.447   2.164  1.8696 -0.1226  1.2161
 4152SOL    HW223919   4.035   3.562   2.086  0.3159 -0.0117  1.1112
 4153SOL     OW23920   0.608   2.405   1.143 -0.3619 -0.5274  0.2594
 4153SOL    HW123921   0.544   2.355   1.093 -0.1791 -1.1067  0.5981
 4153SOL    HW223922   0.638   2.345   1.211 -0.1810  0.9945  1.5354
 4154SOL     OW23923   0.676   0.559  12.622 -0.6414 -0.0593 -0.1434
 4154SOL    HW123924   0.665   0.650  12.591 -1.3502  0.7095  2.3508
 4154SOL    HW223925   0.622   0.517  12.555 -0.5808 -0.3750  0.0114
 4155SOL     OW23926   3.112   4.402   7.161  0.6163 -0.0322  0.0480
 4155SOL    HW123927   3.189   4.360   7.122 -0.0198 -1.1062 -0.0575
 4155SOL    HW223928   3.156   4.446   7.234  1.0353  0.0264 -0.2382
 4156SOL     OW23929   1.754   0.167   2.795  0.4231 -0.0191 -0.4195
 4156SOL    HW123930   1.784   0.119   2.718  2.2563 -1.0623  0.9320
 4156SOL    HW223931   1.783   0.255   2.772  0.2906  0.1575  0.0820
 4157SOL     OW23932   1.481   2.785  14.337  0.4216  0.0983 -0.1687
 4157SOL    HW123933   1.460   2.865  14.385  1.0753  0.5087 -0.5668
 4157SOL    HW223934   1.468   2.719  14.405 -0.9404 -0.9698 -1.4675
 4158SOL     OW23935   2.057   3.769   0.065 -0.5955 -0.3032  0.4005
 4158SOL    HW123936   2.021   3.700   0.009  1.0364 -0.8607  0.0372
 4158SOL    HW223937   2.017   3.737   0.146  1.7578  0.8707  2.0276
 4159SOL     OW23938   1.937   3.877   2.942  0.0796  0.3580  0.5313
 4159SOL    HW123939   1.970   3.916   3.023  2.6674 -1.6260  0.4110
 4159SOL    HW223940   1.961   3.785   2.954 -0.4352  0.2082  0.4173
 4160SOL     OW23941   3.064   4.251   1.558 -0.2381  0.4369  0.3276
 4160SOL    HW123942   2.981   4.277   1.518  0.7792  0.7527 -1.5741
 4160SOL    HW223943   3.124   4.287   1.492 -1.0046  1.0629 -0.0254
 4161SOL     OW23944   2.225   2.439   1.389  0.2209  0.4448 -0.0426
 4161SOL    HW123945   2.261   2.405   1.307  1.5438 -0.7207  1.0345
 4161SOL    HW223946   2.163   2.370   1.411  2.1093 -1.0083  0.6882
 4162SOL     OW23947   0.019   1.434  16.162 -0.5940 -0.5237  0.1361
 4162SOL    HW123948   4.725   1.380  16.085 -0.4623  1.0082 -0.9655
 4162SOL    HW223949   0.044   1.375  16.233  1.6449  1.7048  1.2237
 4163SOL     OW23950   0.778   3.366   6.431  0.2891  0.4890 -0.1426
 4163SOL    HW123951   0.742   3.280   6.454 -0.0512  1.0941  1.6155
 4163SOL    HW223952   0.729   3.431   6.483 -1.1700 -0.3160 -0.5247
 4164SOL     OW23953   0.612   0.616   7.023 -0.0514  0.1436  0.4078
 4164SOL    HW123954   0.678   0.593   6.959 -0.0798  0.5324  0.2358
 4164SOL    HW223955   0.622   0.711   7.020  0.0651  0.1279  0.3245
 4165SOL     OW23956   4.315   1.319   9.723 -0.4464 -0.5434  0.0352
 4165SOL    HW123957   4.367   1.381   9.774 -0.7040 -0.0058 -0.3611
 4165SOL    HW223958   4.248   1.373   9.682  0.3741  0.9449  0.6429
 4166SOL     OW23959   2.177   3.576   4.445 -0.1915  0.1715 -0.3303
 4166SOL    HW123960   2.115   3.604   4.513  0.2591  1.3366 -0.3928
 4166SOL    HW223961   2.141   3.491   4.421 -0.9562  0.5642 -0.5947
 4167SOL     OW23962   2.201   1.650   0.875  0.0054  0.0836  0.4082
 4167SOL    HW123963   2.176   1.669   0.965 -1.6042  0.2755 -0.0878
 4167SOL    HW223964   2.118   1.624   0.836 -0.0030 -0.4731  0.7890
 4168SOL     OW23965   1.847   0.476   4.373 -0.2936 -0.3499  0.3710
 4168SOL    HW123966   1.832   0.560   4.328  1.6896 -0.9567 -1.4349
 4168SOL    HW223967   1.898   0.513   4.444 -0.0423  0.0259 -0.0046
 4169SOL     OW23968   3.023   0.558   9.515 -0.7945 -0.1686 -0.8231
 4169SOL    HW123969   3.078   0.545   9.592  0.9862  1.0401 -1.9035
 4169SOL    HW223970   3.038   0.645   9.479 -1.2739  0.3150  0.1662
 4170SOL     OW23971   2.677   1.593   2.008  0.0368  0.9024 -0.2706
 4170SOL    HW123972   2.654   1.679   1.973 -2.4132 -0.2078 -1.3704
 4170SOL    HW223973   2.714   1.556   1.928  2.1542 -0.1014  1.1456
 4171SOL     OW23974   4.081   1.594  16.749 -0.5570 -0.1272 -0.1830
 4171SOL    HW123975   4.091   1.575  16.655 -1.6385  1.2139 -0.5638
 4171SOL    HW223976   3.986   1.584  16.751 -0.7337  2.3761  2.7476
 4172SOL     OW23977   3.377   1.457   4.874  0.3800 -0.2471 -0.0914
 4172SOL    HW123978   3.380   1.420   4.785 -1.4626  2.0196 -1.0921
 4172SOL    HW223979   3.314   1.528   4.858 -1.2124 -1.6432 -0.1030
 4173SOL     OW23980   0.316   2.693   8.330 -0.3976  0.5143 -0.8400
 4173SOL    HW123981   0.266   2.616   8.358  0.0040  0.6655  0.2984
 4173SOL    HW223982   0.387   2.646   8.286 -0.3992  0.3678 -0.6874
 4174SOL     OW23983   1.599   4.500   9.127 -0.0342  0.7713  0.1924
 4174SOL    HW123984   1.598   4.406   9.144  1.1553  1.0663  1.9367
 4174SOL    HW223985   1.526   4.540   9.175  0.0321  1.0448  0.0643
 4175SOL     OW23986   3.721   1.547   4.126 -0.2678 -0.2187  0.7507
 4175SOL    HW123987   3.720   1.461   4.084 -0.2988 -0.6393  1.6108
 4175SOL    HW223988   3.803   1.544   4.176 -0.2036  0.9598  0.7109
 4176SOL     OW23989   0.683   3.017   7.414 -0.1167  0.7937 -0.3467
 4176SOL    HW123990   0.618   2.969   7.466 -1.0788  1.4302 -0.9538
 4176SOL    HW223991   0.729   2.943   7.373 -1.0165  1.4165 -2.5103
 4177SOL     OW23992   2.029   0.728   2.330 -0.0925 -0.2137  0.2648
 4177SOL    HW123993   2.000   0.819   2.317 -1.5658 -0.4935  1.5143
 4177SOL    HW223994   2.024   0.725   2.426  0.5130  1.1044  0.3446
 4178SOL     OW23995   0.931   0.760   1.304  0.8754  0.1580 -0.5310
 4178SOL    HW123996   0.880   0.682   1.325  0.0241  1.3843  1.9522
 4178SOL    HW223997   1.003   0.729   1.249 -0.7878 -0.9933 -2.0581
 4179SOL     OW23998   4.501   0.423  10.971 -0.8492  0.1737  0.1068
 4179SOL    HW123999   4.558   0.409  10.895  1.2424 -2.3396  2.1529
 4179SOL    HW224000   4.423   0.454  10.925 -1.1986 -0.9681 -0.0691
 4180SOL     OW24001   4.149   3.507   9.756 -0.5276  0.0107 -0.2339
 4180SOL    HW124002   4.074   3.541   9.707 -0.5973  0.3741  0.1205
 4180SOL    HW224003   4.101   3.438   9.804 -0.1372 -0.9862 -1.2862
 4181SOL     OW24004   1.609   3.739   3.431  0.5271 -0.7025  0.0484
 4181SOL    HW124005   1.702   3.729   3.455  0.7318 -0.7858 -0.7911
 4181SOL    HW224006   1.588   3.653   3.396 -1.4896  0.5121 -1.6692
 4182SOL     OW24007   0.601   4.702   9.884 -0.2167  0.1239  0.3648
 4182SOL    HW124008   0.571   4.623   9.839 -0.6294  1.4067 -1.6312
 4182SOL    HW224009   0.596   4.684   9.978  0.4804 -1.1254  0.1551
 4183SOL     OW24010   2.567   1.751   5.418 -0.1067  0.4945  0.4228
 4183SOL    HW124011   2.563   1.689   5.492  0.4095  1.2363  1.0681
 4183SOL    HW224012   2.509   1.710   5.354  0.1881  3.3578 -1.6506
 4184SOL     OW24013   3.188   0.842   0.278 -0.3490  0.1054 -0.0209
 4184SOL    HW124014   3.209   0.897   0.203 -0.0222  2.4224  1.7646
 4184SOL    HW224015   3.259   0.779   0.267 -1.5413 -1.0984 -0.9919
 4185SOL     OW24016   2.398   0.024   0.202  0.3239 -0.1457  0.1371
 4185SOL    HW124017   2.405   4.661   0.173 -2.3139 -0.3498  0.1662
 4185SOL    HW224018   2.344   0.003   0.278  0.7030  0.4677  0.5764
 4186SOL     OW24019   0.691   4.262   5.841 -0.0244  0.1606  0.0559
 4186SOL    HW124020   0.758   4.207   5.881  1.3617  1.6070 -0.2462
 4186SOL    HW224021   0.719   4.232   5.754 -0.5330 -2.0235  0.6625
 4187SOL     OW24022   4.575   1.307   8.863  0.2195  0.1701  0.9036
 4187SOL    HW124023   4.490   1.269   8.838  0.8807 -1.1532  0.6751
 4187SOL    HW224024   4.631   1.280   8.791 -0.7299  1.4499 -0.3097
 4188SOL     OW24025   2.957   2.474   8.335  0.0704  0.0228  0.2452
 4188SOL    HW124026   2.899   2.541   8.372 -0.8513 -0.4800 -0.3073
 4188SOL    HW224027   3.039   2.524   8.339 -1.5292  2.7042 -0.3371
 4189SOL     OW24028   2.044   3.520   8.332 -0.0558  0.5437 -0.2247
 4189SOL    HW124029   2.059   3.427   8.348  1.1284  0.4712 -1.7735
 4189SOL    HW224030   2.009   3.531   8.244 -1.5181  2.8124  0.6540
 4190SOL     OW24031   3.654   3.727  13.911  0.0936  0.0867  0.3195
 4190SOL    HW124032   3.614   3.810  13.938 -0.9707 -0.1167 -0.6139
 4190SOL    HW224033   3.588   3.661  13.931 -1.0074  1.2899  0.6975
 4191SOL     OW24034   4.095   4.478   3.549 -0.4085 -0.2314  0.2406
 4191SOL    HW124035   4.124   4.515   3.465  2.6598 -0.0098  1.4027
 4191SOL    HW224036   4.037   4.407   3.521 -1.4323  1.2024 -1.3109
 4192SOL     OW24037   0.954   0.380  14.624 -0.2518 -0.0394  0.5028
 4192SOL    HW124038   0.889   0.411  14.688  0.7186  0.9404  1.0306
 4192SOL    HW224039   0.950   0.286  14.639  1.7246 -0.1315  0.4205
 4193SOL     OW24040   1.385   0.742   2.585  0.0153  0.5448  0.2266
 4193SOL    HW124041   1.377   0.810   2.519 -0.8200  0.2683  0.0471
 4193SOL    HW224042   1.478   0.720   2.579 -0.4361 -0.8892 -1.4173
 4194SOL     OW24043   2.029   1.311   9.777 -0.0152  0.1764 -0.0948
 4194SOL    HW124044   2.105   1.358   9.811  0.6459  0.8843 -2.5707
 4194SOL    HW224045   2.053   1.309   9.684 -2.2808 -2.0180 -0.6309
 4195SOL     OW24046   0.434   2.847   4.994  0.0059 -0.1417 -0.5020
 4195SOL    HW124047   0.424   2.760   4.954  0.9197 -1.0886  1.3183
 4195SOL    HW224048   0.500   2.880   4.934  0.0443  0.0077 -0.3767
 4196SOL     OW24049   4.376   0.066  14.136 -0.2622 -0.4815 -0.0625
 4196SOL    HW124050   4.360   0.118  14.214  1.3690 -0.9325  0.5644
 4196SOL    HW224051   4.465   0.102  14.127 -0.8217  0.7657 -0.6774
 4197SOL     OW24052   0.795   2.936   8.076 -1.0171  0.0459 -0.1737
 4197SOL    HW124053   0.799   2.861   8.136  0.3749 -0.5166 -0.9668
 4197SOL    HW224054   0.742   2.902   8.003 -0.3107  0.1492 -0.7323
 4198SOL     OW24055   2.495   1.951   9.279 -0.0475 -0.4985 -0.0797
 4198SOL    HW124056   2.470   1.866   9.243 -2.6721  0.1152  0.3539
 4198SOL    HW224057   2.512   1.919   9.367 -0.0513  0.4182  0.2624
 4199SOL     OW24058   2.166   1.691   3.785  0.2312  0.0180  0.1610
 4199SOL    HW124059   2.164   1.753   3.712  0.5723  0.1250  0.2413
 4199SOL    HW224060   2.217   1.746   3.846  0.1225  0.3325 -0.0320
 4200SOL     OW24061   1.327   0.109   2.954 -0.0443 -0.2834 -0.1612
 4200SOL    HW124062   1.320   0.142   3.044  1.8665  1.4068 -0.6294
 4200SOL    HW224063   1.391   0.164   2.909  1.0637 -0.4508  1.1890
 4201SOL     OW24064   1.014   2.188   8.528 -0.2782  0.1351 -0.0859
 4201SOL    HW124065   1.059   2.246   8.588  1.5739 -0.0856 -1.2525
 4201SOL    HW224066   1.036   2.225   8.442 -3.8967 -2.1645 -2.0191
 4202SOL     OW24067   4.458   4.275   8.820  0.6668 -0.4131  0.3644
 4202SOL    HW124068   4.414   4.330   8.885 -0.8849  0.8784 -1.8033
 4202SOL    HW224069   4.407   4.291   8.741  1.1236 -2.1859 -0.2853
 4203SOL     OW24070   1.638   1.155  10.544 -0.0419  0.8840 -0.0287
 4203SOL    HW124071   1.689   1.154  10.626 -1.7826  4.6956  1.0945
 4203SOL    HW224072   1.704   1.157  10.475  0.5106  0.2784  0.4766
 4204SOL     OW24073   1.548   3.668   4.744 -0.5119  0.1543 -0.0193
 4204SOL    HW124074   1.464   3.630   4.717 -1.0585  0.8511  0.6877
 4204SOL    HW224075   1.514   3.720   4.817 -0.6410  1.2540 -0.8688
 4205SOL     OW24076   0.915   1.352   3.734  0.5265 -0.8538 -0.0298
 4205SOL    HW124077   1.007   1.358   3.708  1.3422 -3.0996  2.3451
 4205SOL    HW224078   0.919   1.349   3.829  3.5959  0.9611 -0.0945
 4206SOL     OW24079   4.486   1.896   8.859 -0.1421  0.1249 -0.2004
 4206SOL    HW124080   4.484   1.908   8.954  3.4044 -0.2259 -0.1104
 4206SOL    HW224081   4.395   1.914   8.834  0.3107 -0.9795 -2.6719
 4207SOL     OW24082   0.247   1.871   2.438 -0.0941 -0.1207  0.0987
 4207SOL    HW124083   0.154   1.887   2.423 -0.4920 -0.2929  2.4886
 4207SOL    HW224084   0.295   1.916   2.369 -1.3961 -2.6754 -2.5044
 4208SOL     OW24085   3.600   2.783   2.484  0.7283  0.0053  0.0846
 4208SOL    HW124086   3.504   2.786   2.490  0.4798 -1.8790 -2.4803
 4208SOL    HW224087   3.595   2.789   2.388 -1.5996 -1.4258  0.1189
 4209SOL     OW24088   3.501   4.145   5.938  0.8176  0.0434  0.3687
 4209SOL    HW124089   3.521   4.183   6.024  2.5936  1.1069 -0.5198
 4209SOL    HW224090   3.566   4.075   5.931  2.4245  1.5896 -0.1398
 4210SOL     OW24091   0.203   4.323  10.920  0.3706 -0.1518  0.6883
 4210SOL    HW124092   0.146   4.247  10.934 -0.2367  0.3093  0.6717
 4210SOL    HW224093   0.267   4.271  10.871  0.4352  1.9250 -1.4087
 4211SOL     OW24094   3.653   0.374   9.804 -0.4754  0.0756  0.0244
 4211SOL    HW124095   3.726   0.428   9.774 -0.1625 -0.7095 -0.6347
 4211SOL    HW224096   3.653   0.400   9.896  3.4683 -2.1320  0.6388
 4212SOL     OW24097   1.968   0.902   5.648 -0.3206 -0.1110  1.1040
 4212SOL    HW124098   2.001   0.813   5.632 -0.1397  0.5164 -2.0236
 4212SOL    HW224099   2.025   0.950   5.588  0.4767 -0.6065  1.4577
 4213SOL     OW24100   2.240   4.229   1.912 -0.6835  0.1655  0.3465
 4213SOL    HW124101   2.170   4.248   1.974 -1.7380 -0.9798 -0.4956
 4213SOL    HW224102   2.187   4.192   1.842 -0.0090 -1.4674  0.6793
 4214SOL     OW24103   2.708   1.674   7.547  0.1214 -0.1890  0.7528
 4214SOL    HW124104   2.700   1.579   7.543  0.4216 -0.1350 -1.1604
 4214SOL    HW224105   2.802   1.684   7.566  0.4607 -1.4160 -0.2772
 4215SOL     OW24106   0.797   1.403  14.265  0.0783 -0.1871 -0.1267
 4215SOL    HW124107   0.745   1.345  14.320  2.9864 -1.2440  1.5014
 4215SOL    HW224108   0.859   1.345  14.221  1.4172 -0.2989  1.9033
 4216SOL     OW24109   2.760   1.202  10.952 -0.0315 -0.3383 -0.7420
 4216SOL    HW124110   2.673   1.199  10.993  0.5183 -0.2698  0.4383
 4216SOL    HW224111   2.811   1.227  11.029 -0.6879  3.4258 -1.4823
 4217SOL     OW24112   3.716   2.062  16.212 -0.1842 -0.0714 -0.2464
 4217SOL    HW124113   3.718   2.105  16.297 -1.5673 -2.4116  0.9733
 4217SOL    HW224114   3.798   2.098  16.178  0.4421 -1.4195 -0.1954
 4218SOL     OW24115   0.624   1.739   4.296  0.9193 -0.1231 -0.2428
 4218SOL    HW124116   0.585   1.652   4.286 -1.4279  0.5985  2.6133
 4218SOL    HW224117   0.570   1.770   4.369 -1.1411  2.7779 -2.9723
 4219SOL     OW24118   4.569   3.246  10.082 -0.3306 -0.2976  0.0808
 4219SOL    HW124119   4.544   3.169  10.133  3.5327 -0.4336  1.8179
 4219SOL    HW224120   4.624   3.296  10.142  1.7914 -1.2970 -1.0236
 4220SOL     OW24121   3.491   4.494   9.700 -0.4883 -0.3477  0.1797
 4220SOL    HW124122   3.502   4.589   9.689 -1.0061 -0.2969  0.1134
 4220SOL    HW224123   3.569   4.454   9.662  0.2440  2.4696 -1.2616
 4221SOL     OW24124   4.193   2.433  10.867  0.2682  0.2548 -0.3808
 4221SOL    HW124125   4.160   2.368  10.928 -0.5245 -1.2678 -2.4325
 4221SOL    HW224126   4.278   2.445  10.909 -0.1133 -0.3324  0.5418
 4222SOL     OW24127   0.356   0.854   6.134 -0.2261  0.8748 -0.4979
 4222SOL    HW124128   0.339   0.944   6.160 -0.1129  0.8045 -0.1862
 4222SOL    HW224129   0.268   0.819   6.118  0.1918 -0.7422  0.7500
 4223SOL     OW24130   1.171   4.031   3.430  0.3662 -1.0377  0.2699
 4223SOL    HW124131   1.106   4.098   3.454  0.5929  0.0475 -2.1705
 4223SOL    HW224132   1.172   4.035   3.335  1.3971  0.3800  0.3284
 4224SOL     OW24133   4.346   4.266   9.456  0.3410  0.2676 -0.2232
 4224SOL    HW124134   4.397   4.242   9.533 -0.8659 -1.8912 -0.0801
 4224SOL    HW224135   4.308   4.182   9.429  0.6189  0.5957 -1.6336
 4225SOL     OW24136   1.708   3.766   8.357  0.1187 -0.5821  0.2519
 4225SOL    HW124137   1.669   3.849   8.385  0.3555  0.1468 -1.5781
 4225SOL    HW224138   1.751   3.788   8.274 -2.2473  0.9645 -0.5749
 4226SOL     OW24139   2.852   1.203  16.777 -0.2581 -0.2164 -1.0388
 4226SOL    HW124140   2.784   1.201  16.709 -1.6245  2.0785  0.2731
 4226SOL    HW224141   2.912   1.143  16.733  1.0074 -0.3178  0.8199
 4227SOL     OW24142   0.231   2.226   4.206  0.4614 -0.3106 -0.4765
 4227SOL    HW124143   0.234   2.316   4.238  1.9682 -0.6928  0.4537
 4227SOL    HW224144   0.246   2.239   4.112 -0.1435  0.6779 -0.4352
 4228SOL     OW24145   2.773   4.468  14.749  0.0662 -0.3170 -0.0279
 4228SOL    HW124146   2.812   4.392  14.707 -1.0103  0.2356 -2.0258
 4228SOL    HW224147   2.850   4.504  14.794 -1.1266  2.4096 -0.1636
 4229SOL     OW24148   2.047   1.362   1.992  0.0258 -0.1117  0.4200
 4229SOL    HW124149   2.016   1.293   2.052  0.2905 -1.2797 -0.7881
 4229SOL    HW224150   1.961   1.392   1.961  0.4424  0.4220 -0.2161
 4230SOL     OW24151   3.014   0.876  17.365 -0.2074 -0.2395 -0.2714
 4230SOL    HW124152   3.038   0.968  17.368 -3.7521  0.6707  0.3858
 4230SOL    HW224153   3.005   0.858  17.458  1.8311  2.0880  0.3532
 4231SOL     OW24154   1.535   2.589  14.856  0.5810 -0.1765 -0.1282
 4231SOL    HW124155   1.468   2.521  14.862 -0.7490  1.0179 -1.1735
 4231SOL    HW224156   1.477   2.665  14.846  0.0782 -0.8742 -2.5379
 4232SOL     OW24157   2.362   0.923   0.096 -0.2584  0.3724 -0.0400
 4232SOL    HW124158   2.455   0.898   0.098 -0.6764 -1.0709  1.5356
 4232SOL    HW224159   2.378   1.007   0.053 -0.7138  0.3822 -0.1860
 4233SOL     OW24160   1.817   1.989   3.538  0.1330 -0.0517 -0.1173
 4233SOL    HW124161   1.763   2.049   3.590  1.2981  0.9761 -0.1006
 4233SOL    HW224162   1.759   1.969   3.464  0.4823 -0.7117 -0.2136
 4234SOL     OW24163   2.839   0.945  17.171 -0.5580 -0.4278 -0.4478
 4234SOL    HW124164   2.766   0.946  17.232  1.4197 -2.6937  1.9327
 4234SOL    HW224165   2.914   0.924  17.227 -0.6520  0.1050 -0.1181
 4235SOL     OW24166   2.290   3.568   1.480 -0.2939 -0.7107  0.0908
 4235SOL    HW124167   2.360   3.536   1.536  2.3111  2.5104 -1.3115
 4235SOL    HW224168   2.230   3.610   1.542  1.1169  2.2064 -0.4808
 4236SOL     OW24169   1.543   0.748   4.519  0.2634  0.4857  0.3526
 4236SOL    HW124170   1.580   0.833   4.542  3.3337 -0.7057 -0.1845
 4236SOL    HW224171   1.606   0.719   4.454  1.5055  0.7163  1.4523
 4237SOL     OW24172   4.132   3.009  11.635 -0.0193 -0.0870 -0.0433
 4237SOL    HW124173   4.077   2.932  11.643  0.1007 -0.0804  0.8740
 4237SOL    HW224174   4.158   3.011  11.727  2.1088  2.2233 -0.6870
 4238SOL     OW24175   3.322   3.082   4.285  0.0976 -0.7349 -0.2792
 4238SOL    HW124176   3.265   3.132   4.344  1.7720 -0.1763  0.8559
 4238SOL    HW224177   3.262   3.044   4.221  0.4231 -2.4412  0.4238
 4239SOL     OW24178   3.682   2.893   7.424  0.2547 -0.2086 -0.2714
 4239SOL    HW124179   3.753   2.832   7.405  0.3135 -0.8315  1.9605
 4239SOL    HW224180   3.734   2.972   7.434  1.6535 -1.2142  0.4078
 4240SOL     OW24181   2.505   3.539   5.211 -0.1555  0.2507  0.1448
 4240SOL    HW124182   2.468   3.519   5.125  1.8968  0.2873 -0.7468
 4240SOL    HW224183   2.426   3.533   5.265  0.8035  0.4502  1.5823
 4241SOL     OW24184   0.114   3.213  15.006  0.1673 -0.0811 -0.4703
 4241SOL    HW124185   0.160   3.250  14.930  2.8662  0.0157  1.2054
 4241SOL    HW224186   0.029   3.256  14.997 -0.1382 -0.5221  0.3460
 4242SOL     OW24187   0.456   0.534   5.822  0.6379 -0.1938  0.1262
 4242SOL    HW124188   0.362   0.536   5.838  0.6462  1.2702  0.0284
 4242SOL    HW224189   0.490   0.472   5.886  2.1503  1.7090  1.1796
 4243SOL     OW24190   2.597   1.661   4.297  1.1382  0.2991 -0.1657
 4243SOL    HW124191   2.593   1.754   4.316  0.0657  0.6528 -2.1496
 4243SOL    HW224192   2.675   1.636   4.346  1.4295  0.4869 -0.5372
 4244SOL     OW24193   0.329   3.885   7.613 -0.2956  0.2298  0.4823
 4244SOL    HW124194   0.409   3.931   7.588  1.4649 -2.7148  0.7762
 4244SOL    HW224195   0.273   3.950   7.571  0.5205 -0.0325 -1.0361
 4245SOL     OW24196   3.976   2.766   4.746 -0.6704  0.2060  0.1066
 4245SOL    HW124197   3.907   2.832   4.734 -0.6169  0.8036  3.1115
 4245SOL    HW224198   3.961   2.709   4.671  2.0940  1.4513 -1.3615
 4246SOL     OW24199   0.883   0.157  17.500 -0.7593 -0.3303 -0.3189
 4246SOL    HW124200   0.876   0.216  17.425 -2.0294  0.4554  0.4131
 4246SOL    HW224201   0.970   0.165  17.539 -0.5377  0.1976 -0.9381
 4247SOL     OW24202   0.727   1.119   8.069  0.3137  0.9326 -0.1636
 4247SOL    HW124203   0.724   1.214   8.060 -0.0724  0.8875 -0.5481
 4247SOL    HW224204   0.638   1.094   8.093  1.1178 -1.0973  0.7245
 4248SOL     OW24205   4.019   3.397   3.109  0.0198 -0.8375 -0.8925
 4248SOL    HW124206   4.088   3.337   3.080  1.2587 -0.0695  0.4691
 4248SOL    HW224207   3.953   3.386   3.040 -0.6623 -1.6684 -0.1055
 4249SOL     OW24208   0.977   1.726   0.883 -0.0731 -0.0415 -0.5973
 4249SOL    HW124209   1.049   1.770   0.927 -2.0480  1.9776  0.5778
 4249SOL    HW224210   1.024   1.646   0.858  0.8562  0.2918  0.1077
 4250SOL     OW24211   4.444   1.403   1.694 -0.0258 -0.0772 -0.6988
 4250SOL    HW124212   4.467   1.317   1.727 -1.5104 -0.0393  0.3939
 4250SOL    HW224213   4.476   1.394   1.604  0.0290 -3.8006 -0.2827
 4251SOL     OW24214   0.892   2.554   8.614  0.1350  0.0111 -0.4273
 4251SOL    HW124215   0.836   2.480   8.639 -1.3768  1.5458  0.7464
 4251SOL    HW224216   0.837   2.629   8.638  0.7764 -0.3114  2.1024
 4252SOL     OW24217   2.403   0.552  17.141 -0.0453 -0.4305  0.2497
 4252SOL    HW124218   2.489   0.582  17.170 -0.7059  0.3808  1.3890
 4252SOL    HW224219   2.414   0.457  17.137 -0.8359 -0.4692 -1.1415
 4253SOL     OW24220   3.940   1.243   6.448  0.4093 -0.0136 -0.2125
 4253SOL    HW124221   3.951   1.275   6.358  0.2231  0.0226 -0.2243
 4253SOL    HW224222   3.930   1.327   6.493  3.1038  0.3722 -0.3636
 4254SOL     OW24223   2.520   3.837  17.331  0.1884  0.1319 -0.6224
 4254SOL    HW124224   2.564   3.832  17.416 -0.2552 -0.0376 -0.4026
 4254SOL    HW224225   2.441   3.788  17.350 -0.4132  1.5498  0.4812
 4255SOL     OW24226   4.244   3.468   9.246  0.0154  0.5512 -0.2125
 4255SOL    HW124227   4.184   3.406   9.287  0.4054  0.7506  0.6536
 4255SOL    HW224228   4.277   3.510   9.326 -0.5293  0.3577  0.1136
 4256SOL     OW24229   1.651   3.846   2.857  0.2989 -0.2175  0.1014
 4256SOL    HW124230   1.653   3.838   2.952  1.5850 -0.5609  0.0457
 4256SOL    HW224231   1.733   3.891   2.839 -1.5997  3.1314 -0.1521
 4257SOL     OW24232   3.263   2.118   4.981  0.0022 -0.2045 -0.0008
 4257SOL    HW124233   3.227   2.080   4.901  2.0092  1.5105 -1.7369
 4257SOL    HW224234   3.186   2.117   5.038  0.7786 -0.2427  1.0353
 4258SOL     OW24235   0.601   2.215   3.904 -0.4876 -0.4802 -0.4679
 4258SOL    HW124236   0.561   2.137   3.945 -2.1231 -0.3571 -1.8429
 4258SOL    HW224237   0.675   2.169   3.866  0.5240 -1.8756  3.1248
 4259SOL     OW24238   1.816   4.553   5.483  0.3713  0.1720 -0.4587
 4259SOL    HW124239   1.814   4.590   5.395 -1.2481  2.5855  0.6238
 4259SOL    HW224240   1.899   4.505   5.486  0.5692  0.4848 -1.0169
 4260SOL     OW24241   0.146   0.127   3.361  0.1979 -0.0223 -0.2596
 4260SOL    HW124242   0.121   0.219   3.354 -1.3081 -0.4570 -0.6767
 4260SOL    HW224243   0.133   0.090   3.274 -4.9189 -0.3712  0.6609
 4261SOL     OW24244   2.445   0.797   3.923  0.0765 -0.3609  0.8646
 4261SOL    HW124245   2.497   0.827   3.998  1.7713 -0.2907 -0.3593
 4261SOL    HW224246   2.373   0.859   3.914  0.3213 -0.7379 -3.6603
 4262SOL     OW24247   2.809   1.800   0.029 -0.1693 -0.3941 -0.3395
 4262SOL    HW124248   2.813   1.709  17.709 -0.1127 -0.0533 -1.3686
 4262SOL    HW224249   2.718   1.827   0.016  0.3818  1.7350  0.1523
 4263SOL     OW24250   2.570   4.648   4.987  0.0654  0.4266  0.1653
 4263SOL    HW124251   2.518   4.727   4.971 -1.8434 -1.1700 -1.5297
 4263SOL    HW224252   2.510   4.583   4.951 -1.3398  0.9178  1.6536
 4264SOL     OW24253   3.853   2.288   8.859 -0.4286 -0.2183  0.8363
 4264SOL    HW124254   3.937   2.317   8.896 -1.6849  2.4449  1.5900
 4264SOL    HW224255   3.884   2.309   8.771 -2.2860  1.4514  0.5933
 4265SOL     OW24256   3.791   4.037   5.340 -0.0965  0.2160 -0.2690
 4265SOL    HW124257   3.795   4.014   5.432 -0.9531  1.4501  0.0756
 4265SOL    HW224258   3.731   4.112   5.337  1.1173  1.1378 -1.4659
 4266SOL     OW24259   3.497   1.770   5.824 -0.2013  0.4722 -0.1014
 4266SOL    HW124260   3.417   1.761   5.772 -1.1251 -0.9659  1.5384
 4266SOL    HW224261   3.500   1.682   5.862  1.3244  0.6877  0.2858
 4267SOL     OW24262   0.396   1.083   6.673 -0.6120  0.4398 -0.2755
 4267SOL    HW124263   0.416   1.080   6.580 -0.5174 -0.7119 -0.2119
 4267SOL    HW224264   0.326   1.018   6.674  0.3990 -0.6223  1.0908
 4268SOL     OW24265   2.531   0.084  13.684  0.1483 -0.2860 -0.3279
 4268SOL    HW124266   2.566   4.725  13.659 -0.6301 -1.2518  1.9135
 4268SOL    HW224267   2.437   0.082  13.665 -0.1347 -0.3557  1.1358
 4269SOL     OW24268   2.096   0.573   2.937 -0.6579 -0.3536 -0.3515
 4269SOL    HW124269   2.102   0.485   2.900 -1.9822 -1.7097  2.6478
 4269SOL    HW224270   2.132   0.561   3.024  0.0338  0.5951 -0.5063
 4270SOL     OW24271   0.669   1.260   4.445  0.1563  0.6702  0.2416
 4270SOL    HW124272   0.728   1.200   4.398 -0.1472 -0.3699  1.1870
 4270SOL    HW224273   0.705   1.248   4.533  0.7970  0.4070 -0.0513
 4271SOL     OW24274   0.599   2.361   6.994 -0.4440  0.7414 -0.4187
 4271SOL    HW124275   0.518   2.407   6.974 -0.9892 -0.8528 -1.8699
 4271SOL    HW224276   0.572   2.314   7.073 -0.3926 -0.5557 -1.1696
 4272SOL     OW24277   2.679   3.441   6.691  0.2858  0.6416 -0.0550
 4272SOL    HW124278   2.722   3.358   6.672 -2.5081 -0.7915 -0.1574
 4272SOL    HW224279   2.615   3.424   6.622  1.5890 -3.1516 -0.3343
 4273SOL     OW24280   2.031   1.359   6.739 -0.2612  0.4624  0.2645
 4273SOL    HW124281   2.020   1.325   6.828  0.3703  1.2173  0.6300
 4273SOL    HW224282   1.944   1.336   6.706  0.3274  0.9305 -1.5910
 4274SOL     OW24283   2.837   1.510   6.187  0.2824  0.0332 -0.1749
 4274SOL    HW124284   2.772   1.440   6.184 -0.5665  0.9419 -3.4180
 4274SOL    HW224285   2.899   1.474   6.124  0.2247  1.8780 -1.2845
 4275SOL     OW24286   4.577   3.124   2.766 -0.7088  0.5055  0.5957
 4275SOL    HW124287   4.540   3.065   2.700  0.4434  1.3758 -0.8083
 4275SOL    HW224288   4.516   3.198   2.768 -1.8685 -0.3974 -2.1278
 4276SOL     OW24289   1.929   0.993   7.957 -1.0412 -0.4649 -0.1809
 4276SOL    HW124290   1.972   1.078   7.968  1.0403 -1.3926 -1.2094
 4276SOL    HW224291   1.851   1.003   8.011 -1.4400 -1.0653 -0.6470
 4277SOL     OW24292   2.806   4.487  10.711 -0.0182 -0.3232 -0.2568
 4277SOL    HW124293   2.773   4.398  10.722 -2.8730  0.9771  1.7813
 4277SOL    HW224294   2.862   4.493  10.787 -1.4915  0.4446  0.7815
 4278SOL     OW24295   3.307   4.078   5.083  0.3685 -0.2101  0.3090
 4278SOL    HW124296   3.308   4.174   5.083  1.7859 -0.2220 -2.7792
 4278SOL    HW224297   3.285   4.066   4.991  0.9180 -1.4835  0.3350
 4279SOL     OW24298   0.721   0.422   9.863  0.1071  0.4007 -0.0899
 4279SOL    HW124299   0.700   0.472   9.943 -1.7894 -1.0220  0.3016
 4279SOL    HW224300   0.640   0.447   9.819  0.7676 -1.8087 -2.5592
 4280SOL     OW24301   1.958   1.640   0.770  0.2968 -0.0433  0.4229
 4280SOL    HW124302   1.889   1.589   0.727  1.7251 -0.5757 -1.2266
 4280SOL    HW224303   1.945   1.731   0.744 -0.1793 -0.2098  0.0881
 4281SOL     OW24304   3.874   0.341   3.694  0.2528  0.4028  0.4914
 4281SOL    HW124305   3.881   0.247   3.678  0.5350  0.7645 -1.5544
 4281SOL    HW224306   3.884   0.374   3.604 -1.4081 -0.4026  0.0204
 4282SOL     OW24307   1.907   1.117  14.405  0.4262 -0.3563  0.0066
 4282SOL    HW124308   1.833   1.177  14.396 -1.7785 -3.0702 -0.1948
 4282SOL    HW224309   1.874   1.052  14.468 -0.6592  0.3442  0.1718
 4283SOL     OW24310   1.970   1.750  10.978 -0.6180 -0.1447  0.5593
 4283SOL    HW124311   1.926   1.697  11.044 -0.2677 -0.2380  0.7181
 4283SOL    HW224312   2.035   1.789  11.036 -1.3839  0.1727  1.2047
 4284SOL     OW24313   2.153   0.291   9.563  0.6457 -0.2972  0.1567
 4284SOL    HW124314   2.208   0.248   9.497 -0.0940 -4.0110  1.9568
 4284SOL    HW224315   2.200   0.278   9.645  2.1658 -1.0434 -0.8263
 4285SOL     OW24316   1.562   3.594   1.248  0.2241 -0.5877  0.1819
 4285SOL    HW124317   1.547   3.501   1.230  0.2485  0.0203 -2.8722
 4285SOL    HW224318   1.602   3.592   1.336  0.8600 -0.5213 -0.1059
 4286SOL     OW24319   3.069   1.290  16.502  0.4981 -0.3844  0.3720
 4286SOL    HW124320   3.029   1.206  16.521  0.3437  0.2031  2.6002
 4286SOL    HW224321   3.093   1.277  16.410  0.6175 -0.4966  0.4184
 4287SOL     OW24322   2.046   0.230   0.006 -0.6973 -0.6091  0.1532
 4287SOL    HW124323   2.049   0.228  17.620  0.4180 -0.8048  0.1978
 4287SOL    HW224324   2.061   0.321   0.029 -0.8673 -0.6662  0.4979
 4288SOL     OW24325   1.717   3.343   7.772  0.1365 -0.1600  0.4104
 4288SOL    HW124326   1.751   3.291   7.845  0.1274 -1.8997 -0.8172
 4288SOL    HW224327   1.797   3.364   7.725 -0.0406  0.3251  0.3311
 4289SOL     OW24328   1.193   2.186   2.081  0.1702 -0.1882  0.1919
 4289SOL    HW124329   1.113   2.183   2.133 -0.0759  1.1424 -0.1070
 4289SOL    HW224330   1.172   2.268   2.035 -3.0088 -1.1195  0.0187
 4290SOL     OW24331   4.120   1.705   0.586 -0.5186  0.1341  0.2551
 4290SOL    HW124332   4.027   1.687   0.571 -0.5165  1.9279 -1.8522
 4290SOL    HW224333   4.117   1.800   0.592 -0.5274  0.0930  0.8984
 4291SOL     OW24334   1.593   0.604   6.285  0.1952  0.2655 -0.0180
 4291SOL    HW124335   1.661   0.588   6.351 -0.8499  0.2957  1.0596
 4291SOL    HW224336   1.511   0.589   6.332 -0.1050 -1.5978 -1.1407
 4292SOL     OW24337   4.587   4.693   5.091  0.1985  0.5068  0.1768
 4292SOL    HW124338   4.598   4.634   5.017  2.4042 -0.1661  1.0530
 4292SOL    HW224339   4.644   4.652   5.156  0.4494 -2.3102 -1.8198
 4293SOL     OW24340   2.943   2.154   5.502  0.0034  0.0592 -0.4176
 4293SOL    HW124341   2.945   2.143   5.407 -0.9567 -0.3639 -0.3976
 4293SOL    HW224342   3.032   2.184   5.516 -0.6798  0.6644  2.5044
 4294SOL     OW24343   2.467   4.152   0.732 -0.0762 -0.3096 -0.1107
 4294SOL    HW124344   2.560   4.173   0.727  0.1754 -1.1449  1.0710
 4294SOL    HW224345   2.443   4.180   0.820 -0.6482 -2.8016  0.5254
 4295SOL     OW24346   1.216   2.675   7.578 -0.0429 -0.1280  0.7993
 4295SOL    HW124347   1.212   2.671   7.483  0.6783 -0.6556  0.7981
 4295SOL    HW224348   1.308   2.650   7.587  0.1770  0.4836  0.2153
 4296SOL     OW24349   0.157   3.949  16.095  0.2766 -0.0925  0.0289
 4296SOL    HW124350   0.225   3.902  16.047 -0.2845 -1.3793  0.4877
 4296SOL    HW224351   0.131   3.878  16.154 -0.8583  0.6118  0.3584
 4297SOL     OW24352   0.617   2.533   8.839 -0.1668  0.4974  0.7556
 4297SOL    HW124353   0.671   2.455   8.827 -0.3658  0.6985 -1.4762
 4297SOL    HW224354   0.670   2.573   8.908  1.5774  1.0340 -0.9039
 4298SOL     OW24355   4.374   0.409   4.811  0.0607 -0.7555 -0.2041
 4298SOL    HW124356   4.300   0.456   4.850 -1.4559 -1.9620 -1.6223
 4298SOL    HW224357   4.336   0.326   4.783  0.7412 -1.4024  0.8209
 4299SOL     OW24358   2.111   1.926  17.391  0.6559  0.1333 -0.3199
 4299SOL    HW124359   2.042   1.979  17.351  2.0359 -0.7746 -3.9030
 4299SOL    HW224360   2.100   1.968  17.476 -0.6122 -0.3382 -0.2530
 4300SOL     OW24361   3.232   3.971   7.086 -0.4987  0.4068  0.4482
 4300SOL    HW124362   3.212   4.008   7.000 -0.6035 -0.2343  0.2027
 4300SOL    HW224363   3.328   3.981   7.090 -0.5749  0.4977  2.2808
 4301SOL     OW24364   2.009   3.173  16.546  0.1820 -0.6078  0.6886
 4301SOL    HW124365   2.053   3.252  16.578 -1.8752  0.4065  1.0100
 4301SOL    HW224366   1.939   3.163  16.610  0.8762  0.7373  1.6727
 4302SOL     OW24367   3.195   0.232   6.430 -0.0289  0.1908 -0.5750
 4302SOL    HW124368   3.200   0.273   6.344  0.4728  2.0305  0.3284
 4302SOL    HW224369   3.185   0.141   6.404 -0.1394  0.1410 -0.3603
 4303SOL     OW24370   3.587   2.327  11.481  0.3082  0.5571  0.5899
 4303SOL    HW124371   3.623   2.337  11.393 -0.8209  1.7373  0.2681
 4303SOL    HW224372   3.664   2.314  11.537  0.9614  1.6184 -0.0553
 4304SOL     OW24373   3.957   2.709   4.007  0.5087  0.2490  0.0572
 4304SOL    HW124374   3.910   2.765   4.068 -1.6070 -2.3225  0.7808
 4304SOL    HW224375   3.923   2.729   3.919  0.2935  0.5686  0.2157
 4305SOL     OW24376   1.273   4.324   8.273  0.0648  0.2620 -0.1583
 4305SOL    HW124377   1.335   4.340   8.345  0.8196  3.0635 -1.4012
 4305SOL    HW224378   1.243   4.415   8.261  0.9519  0.4662 -0.8228
 4306SOL     OW24379   3.443   3.769  15.964  0.1310  0.0394 -0.7581
 4306SOL    HW124380   3.366   3.714  15.979  0.4263 -0.3083 -0.5299
 4306SOL    HW224381   3.497   3.700  15.926 -1.2077  1.1676 -4.6474
 4307SOL     OW24382   2.501   1.503   7.084 -0.4757 -0.1640  0.1147
 4307SOL    HW124383   2.584   1.519   7.040 -0.6132 -0.5019 -0.2673
 4307SOL    HW224384   2.506   1.556   7.163  1.4000 -1.0396  0.5660
 4308SOL     OW24385   2.094   0.353   5.644 -0.7706 -0.2659  0.2168
 4308SOL    HW124386   2.034   0.278   5.653 -0.5336 -0.6394 -1.4334
 4308SOL    HW224387   2.174   0.301   5.636 -0.3263  0.3073  0.8602
 4309SOL     OW24388   3.114   0.248   9.980  0.0372  0.7519  0.0219
 4309SOL    HW124389   3.203   0.277   9.962  0.3111 -0.2952 -0.3192
 4309SOL    HW224390   3.124   0.155   9.999  0.8416  0.5046 -1.6460
 4310SOL     OW24391   1.165   1.505   2.552 -0.1067  0.3811  0.6211
 4310SOL    HW124392   1.257   1.507   2.579 -0.4141  2.2893  1.5111
 4310SOL    HW224393   1.162   1.601   2.555 -0.7947  0.3286  1.4077
 4311SOL     OW24394   1.651   4.389  17.211 -0.1458 -0.5843 -0.0453
 4311SOL    HW124395   1.641   4.318  17.275  1.1842 -0.4363  0.3326
 4311SOL    HW224396   1.680   4.460  17.269 -1.9257 -0.1223  0.2773
 4312SOL     OW24397   3.581   1.730  10.966  0.1581  0.0160  0.5097
 4312SOL    HW124398   3.612   1.715  10.877  0.0236  1.7859  0.1772
 4312SOL    HW224399   3.502   1.677  10.968  0.5200 -0.6281 -3.1181
 4313SOL     OW24400   4.667   4.317   3.101 -0.4581  0.6993 -0.0241
 4313SOL    HW124401   4.587   4.352   3.063  0.3572  2.6820  0.0413
 4313SOL    HW224402   4.633   4.270   3.177  0.3091 -0.6666 -0.5251
 4314SOL     OW24403   3.224   4.079   6.849 -0.3422  0.2152  0.2824
 4314SOL    HW124404   3.305   4.072   6.799  1.7347  4.7605  2.9976
 4314SOL    HW224405   3.172   4.020   6.794 -0.8301 -0.5724  1.5899
 4315SOL     OW24406   0.721   0.892   6.392  0.0180  0.0502  0.0057
 4315SOL    HW124407   0.792   0.951   6.368  0.8739 -0.9166  0.1745
 4315SOL    HW224408   0.761   0.806   6.382 -1.4759 -0.4819 -1.3080
 4316SOL     OW24409   3.020   1.925   6.992 -0.0790 -0.3649 -0.0212
 4316SOL    HW124410   3.020   1.891   6.903 -0.4740 -0.4238  0.0005
 4316SOL    HW224411   3.026   2.017   6.967 -0.3703 -0.3169  0.0846
 4317SOL     OW24412   1.792   0.094   8.683  0.1185  0.7467  0.3734
 4317SOL    HW124413   1.882   0.113   8.656  0.2587  1.5600  1.3880
 4317SOL    HW224414   1.752   0.155   8.622  0.2999 -1.3219 -1.7932
 4318SOL     OW24415   4.228   0.687  10.969 -0.2536  0.1548  0.5235
 4318SOL    HW124416   4.310   0.731  10.946 -0.1810 -0.6296 -0.7569
 4318SOL    HW224417   4.232   0.614  10.906  1.5000 -0.6401  1.5453
 4319SOL     OW24418   1.733   1.843   9.192 -0.1705  0.3634 -0.1471
 4319SOL    HW124419   1.709   1.775   9.128  0.6213 -0.2425  0.1988
 4319SOL    HW224420   1.646   1.873   9.216 -0.0466  0.5860  0.0212
 4320SOL     OW24421   1.591   2.434   5.275 -0.1487 -0.5075 -0.1161
 4320SOL    HW124422   1.552   2.354   5.309  0.8290 -1.9329 -2.3581
 4320SOL    HW224423   1.538   2.452   5.198  0.4736 -0.3583 -0.5136
 4321SOL     OW24424   3.660   4.469   5.586  0.0652  0.3562 -0.5646
 4321SOL    HW124425   3.641   4.519   5.665  1.8659  1.6393 -0.9588
 4321SOL    HW224426   3.579   4.477   5.536 -0.3543 -0.5805 -0.0297
 4322SOL     OW24427   4.237   4.011   9.326  0.0589  0.0194 -0.1098
 4322SOL    HW124428   4.295   3.936   9.336  1.4841  1.5034  3.0445
 4322SOL    HW224429   4.213   3.999   9.235  0.3250  1.0832 -0.3263
 4323SOL     OW24430   3.290   3.699   5.478  0.7197 -0.2392 -0.3345
 4323SOL    HW124431   3.383   3.709   5.458  0.7126  1.3621  0.4603
 4323SOL    HW224432   3.249   3.774   5.434 -1.4378 -0.0521  1.9960
 4324SOL     OW24433   3.046   1.015  11.479  0.2305  0.6195  0.2797
 4324SOL    HW124434   3.049   1.105  11.447 -0.9059  0.0173 -1.5011
 4324SOL    HW224435   3.131   1.017  11.522  0.0931  0.2109  0.5648
 4325SOL     OW24436   4.669   0.597   8.378 -0.0236 -0.1731 -0.0632
 4325SOL    HW124437   4.609   0.633   8.444 -1.0161 -0.4564 -0.8075
 4325SOL    HW224438   0.006   0.555   8.435 -1.5649 -1.8176  0.4516
 4326SOL     OW24439   3.929   2.825   6.551 -0.3258 -0.2055  0.8528
 4326SOL    HW124440   3.835   2.835   6.540 -0.0791  2.3408  1.1463
 4326SOL    HW224441   3.954   2.913   6.521 -0.2722 -0.5980 -0.2675
 4327SOL     OW24442   3.564   3.015   1.554 -0.0935 -0.0230 -0.0233
 4327SOL    HW124443   3.606   3.003   1.469  0.2484  1.2903 -0.0488
 4327SOL    HW224444   3.588   2.935   1.600  1.8429  0.3258 -0.4027
 4328SOL     OW24445   1.323   2.787   8.847  0.1319  0.1633 -0.2171
 4328SOL    HW124446   1.237   2.827   8.834 -0.2294 -0.9061 -1.0372
 4328SOL    HW224447   1.295   2.705   8.888  0.4031  0.1298 -0.0988
 4329SOL     OW24448   2.439   3.198   7.061  0.5104  0.2495  0.1411
 4329SOL    HW124449   2.523   3.233   7.088  0.0314  1.2395  0.3554
 4329SOL    HW224450   2.410   3.267   7.000 -0.0656 -0.0395  0.0888
 4330SOL     OW24451   1.239   0.564   5.193  0.7105  0.0413 -0.1427
 4330SOL    HW124452   1.270   0.597   5.277 -0.7025 -0.3244  0.5154
 4330SOL    HW224453   1.283   0.629   5.139  1.7267 -1.5676 -1.2554
 4331SOL     OW24454   2.367   3.146   5.289 -0.7330  0.1818 -1.4879
 4331SOL    HW124455   2.442   3.128   5.346 -2.0624 -1.9628 -0.4161
 4331SOL    HW224456   2.329   3.218   5.341 -1.5346  1.2577 -3.5737
 4332SOL     OW24457   3.239   0.124   3.792 -0.3949  0.6737  0.1261
 4332SOL    HW124458   3.243   0.121   3.697 -0.6307  1.1299  0.1053
 4332SOL    HW224459   3.245   0.218   3.806  0.1815  0.1923  3.2537
 4333SOL     OW24460   2.444   2.138  10.747  0.0097  0.3287  0.1511
 4333SOL    HW124461   2.351   2.127  10.767 -0.2019 -0.0213 -1.0607
 4333SOL    HW224462   2.458   2.209  10.810  2.2854  0.8087 -0.9085
 4334SOL     OW24463   4.689   4.604   6.459 -0.7298  0.0709  0.0392
 4334SOL    HW124464   4.641   4.525   6.432 -0.5388 -0.2359  0.5748
 4334SOL    HW224465   4.707   4.577   6.549  0.7577  1.5860  0.1864
 4335SOL     OW24466   4.439   0.065   6.891  0.5871  0.5693  0.2905
 4335SOL    HW124467   4.505   0.002   6.918  1.0225  1.3920  1.1220
 4335SOL    HW224468   4.390   0.011   6.829 -0.3105  1.7812 -0.0563
 4336SOL     OW24469   1.776   3.556  11.999  0.4309  0.1366  0.3819
 4336SOL    HW124470   1.718   3.623  12.035  0.1421 -0.5190  1.1343
 4336SOL    HW224471   1.859   3.600  12.016 -0.3614  1.5113  0.6479
 4337SOL     OW24472   0.174   2.984  12.572 -0.4676 -0.0032 -0.5231
 4337SOL    HW124473   0.215   2.906  12.610  0.2189  1.2574  1.3170
 4337SOL    HW224474   0.206   3.054  12.629 -0.5251  0.2865 -0.8500
 4338SOL     OW24475   3.753   2.922  16.489 -0.4550  0.0085  0.8044
 4338SOL    HW124476   3.811   2.930  16.565 -1.1456  1.8603  1.1300
 4338SOL    HW224477   3.720   3.011  16.481 -0.5803 -0.0952  0.1005
 4339SOL     OW24478   1.461   4.469  16.818 -0.4284  0.5849  0.3394
 4339SOL    HW124479   1.400   4.452  16.889 -0.4061  1.0874  0.4802
 4339SOL    HW224480   1.532   4.412  16.848 -0.5617  1.3374  2.0597
 4340SOL     OW24481   0.264   1.574   7.691 -0.1411  0.3860 -0.2165
 4340SOL    HW124482   0.319   1.616   7.625 -1.6054 -0.2649 -1.8533
 4340SOL    HW224483   0.185   1.626   7.704 -0.3769 -0.2214  0.7944
 4341SOL     OW24484   4.722   1.705   7.689 -0.0923  0.3958  0.3866
 4341SOL    HW124485   4.665   1.775   7.657 -1.7885 -1.2346 -0.1675
 4341SOL    HW224486   4.701   1.700   7.782 -2.1516  1.2015 -0.0285
 4342SOL     OW24487   0.886   3.867  15.905 -0.0967  1.0587 -0.3301
 4342SOL    HW124488   0.837   3.831  15.979 -0.5293 -2.7478 -2.4888
 4342SOL    HW224489   0.930   3.934  15.957 -1.8420  1.4326  0.6759
 4343SOL     OW24490   0.628   1.007   2.403  0.3905  0.3560  0.2621
 4343SOL    HW124491   0.643   1.040   2.315  0.1557 -1.8726 -0.6349
 4343SOL    HW224492   0.623   0.916   2.374  1.0631  0.1382  0.8433
 4344SOL     OW24493   4.126   4.422   9.516 -0.4065  0.0964  0.0640
 4344SOL    HW124494   4.072   4.484   9.467 -0.1481 -1.1784 -1.8128
 4344SOL    HW224495   4.214   4.432   9.481 -0.2203  0.4610  0.6252
 4345SOL     OW24496   2.905   2.999   5.800 -0.5341 -0.4030 -0.0174
 4345SOL    HW124497   2.877   2.997   5.892 -2.0510 -0.3244 -0.4799
 4345SOL    HW224498   2.971   2.931   5.814 -2.0176 -1.8609 -0.0149
 4346SOL     OW24499   0.211   4.102   3.041 -0.0968  0.1935 -0.0467
 4346SOL    HW124500   0.116   4.090   3.036 -0.0402 -0.6929  1.0223
 4346SOL    HW224501   0.237   4.010   3.036 -0.0590  0.2473 -0.8500
 4347SOL     OW24502   1.550   1.257   3.158 -0.0886  0.4172  0.2549
 4347SOL    HW124503   1.483   1.290   3.098  1.5947  2.6474 -0.3632
 4347SOL    HW224504   1.508   1.178   3.194  0.0841  0.6738  1.0148
 4348SOL     OW24505   2.531   1.068   3.203  0.3931  0.4646 -0.1123
 4348SOL    HW124506   2.626   1.066   3.203  0.2986 -3.0024 -0.3798
 4348SOL    HW224507   2.509   1.140   3.143 -0.3261 -1.1100 -1.7509
 4349SOL     OW24508   3.729   4.326  16.044 -0.0136 -0.5925  0.3781
 4349SOL    HW124509   3.787   4.395  16.076  0.4385 -0.6166 -0.3792
 4349SOL    HW224510   3.778   4.304  15.965  0.0702 -1.8672  0.7824
 4350SOL     OW24511   3.301   4.650   5.690 -0.2468  0.3602 -0.2450
 4350SOL    HW124512   3.367   4.616   5.750 -0.7950 -2.4578 -1.2642
 4350SOL    HW224513   3.295   0.015   5.715  2.4015  0.2793  0.6432
 4351SOL     OW24514   2.922   2.872   3.061  0.0464 -0.0938  0.1332
 4351SOL    HW124515   2.874   2.879   2.979  0.6013  0.4065 -0.1569
 4351SOL    HW224516   2.847   2.852   3.116 -1.1032  1.3314 -0.9249
 4352SOL     OW24517   4.622   4.559   1.596  0.2217  0.7345 -0.4185
 4352SOL    HW124518   4.533   4.557   1.560 -0.1338  0.3215  0.4811
 4352SOL    HW224519   4.675   4.545   1.517  0.2875  1.2199 -0.4614
 4353SOL     OW24520   4.613   2.401   3.754  0.2672 -0.2064  0.4639
 4353SOL    HW124521   4.663   2.481   3.739 -0.5814  0.3764  0.7755
 4353SOL    HW224522   4.524   2.434   3.743  0.6495  0.9683  0.9269
 4354SOL     OW24523   2.797   1.207   1.116 -0.1885 -0.2334  0.0475
 4354SOL    HW124524   2.808   1.130   1.061  0.9734 -0.2502  0.3037
 4354SOL    HW224525   2.798   1.275   1.048 -0.8537 -0.6615 -0.3777
 4355SOL     OW24526   2.031   0.622  10.841  0.4648 -0.0964  0.1115
 4355SOL    HW124527   2.066   0.545  10.797 -2.6302 -1.4617  0.0270
 4355SOL    HW224528   1.938   0.600  10.832  0.0073  2.4234 -1.3949
 4356SOL     OW24529   0.786   0.572   8.936  0.2242  0.0974  0.0141
 4356SOL    HW124530   0.778   0.668   8.940  0.7843  0.1025  1.0936
 4356SOL    HW224531   0.701   0.543   8.968 -0.4807 -0.7305 -2.6301
 4357SOL     OW24532   1.805   4.381   4.569 -0.3129  0.2577  0.0131
 4357SOL    HW124533   1.762   4.371   4.485 -2.3637 -0.2111  1.1208
 4357SOL    HW224534   1.878   4.321   4.553  0.0990  1.1547 -1.3789
 4358SOL     OW24535   1.170   2.074  11.614  0.5083 -0.1640 -0.7193
 4358SOL    HW124536   1.215   1.997  11.579  1.2968 -0.7112  1.4905
 4358SOL    HW224537   1.245   2.126  11.641 -0.3698  1.4009 -1.2823
 4359SOL     OW24538   0.412   3.820   3.325 -0.0729 -0.0265 -0.2595
 4359SOL    HW124539   0.358   3.823   3.404  2.8738  2.4416  1.6763
 4359SOL    HW224540   0.468   3.898   3.329 -2.3254  1.5975 -0.9900
 4360SOL     OW24541   0.346   1.546   8.442  0.4329  0.2035  0.0469
 4360SOL    HW124542   0.275   1.483   8.430  0.2036  0.1199  1.8711
 4360SOL    HW224543   0.310   1.595   8.515  2.0027  1.1288  0.2082
 4361SOL     OW24544   1.791   2.324   0.632 -0.7321 -0.1060 -0.5295
 4361SOL    HW124545   1.730   2.334   0.559 -0.6428  0.1864 -0.5624
 4361SOL    HW224546   1.744   2.261   0.687 -0.0426  0.1211  0.3213
 4362SOL     OW24547   3.571   2.976   2.842 -0.0965 -0.2153  0.1051
 4362SOL    HW124548   3.554   2.968   2.936  0.0021 -1.6839 -0.0090
 4362SOL    HW224549   3.513   3.047   2.814 -0.2497 -0.5076 -0.3096
 4363SOL     OW24550   2.961   1.314   8.084  0.0498  0.3874  0.3234
 4363SOL    HW124551   3.013   1.233   8.079 -0.3689  0.3017 -2.8441
 4363SOL    HW224552   2.873   1.276   8.084  0.5766 -0.8286  0.4624
 4364SOL     OW24553   4.206   4.065   8.653 -0.3726  0.0730 -0.0194
 4364SOL    HW124554   4.246   4.148   8.677  1.2205 -0.3850 -1.0941
 4364SOL    HW224555   4.122   4.078   8.696  0.2308 -1.0620  1.5294
 4365SOL     OW24556   0.050   1.450  12.348 -0.2029 -0.7661  0.0105
 4365SOL    HW124557   0.116   1.506  12.307 -0.3154  0.2920  1.2891
 4365SOL    HW224558   4.698   1.471  12.300 -0.3866 -1.5761 -0.0430
 4366SOL     OW24559   1.490   3.117  11.785  0.2334 -0.6294  0.3861
 4366SOL    HW124560   1.449   3.150  11.706  1.6134 -0.3478 -0.2189
 4366SOL    HW224561   1.583   3.140  11.780  0.4622 -1.2650  1.5511
 4367SOL     OW24562   1.023   2.052   7.028 -0.2157 -0.4473 -0.1465
 4367SOL    HW124563   0.958   2.102   6.979  2.8724  1.2132 -2.5381
 4367SOL    HW224564   1.005   1.965   6.993 -1.4924  0.1117 -0.8537
 4368SOL     OW24565   4.073   3.639   6.797 -0.4138  0.2913  0.1352
 4368SOL    HW124566   4.143   3.575   6.803  0.7098  1.8909  4.7706
 4368SOL    HW224567   4.098   3.707   6.860  2.1538  1.3980 -2.1115
 4369SOL     OW24568   2.838   4.599   9.551 -0.2969  0.2523  0.2599
 4369SOL    HW124569   2.746   4.602   9.578 -0.9228  0.4878 -1.9299
 4369SOL    HW224570   2.850   4.678   9.500 -0.8919  0.1919  0.0310
 4370SOL     OW24571   3.138   2.360   9.067  0.0746 -0.4975  0.5235
 4370SOL    HW124572   3.153   2.268   9.084 -0.2956 -0.9041 -1.3286
 4370SOL    HW224573   3.058   2.382   9.114 -1.0274 -0.4482 -1.4058
 4371SOL     OW24574   3.413   4.599  13.103 -0.3362 -0.5268 -0.3995
 4371SOL    HW124575   3.375   4.686  13.091  0.0294 -0.5042 -1.3998
 4371SOL    HW224576   3.336   4.549  13.130  2.0706 -3.2459  1.4015
 4372SOL     OW24577   0.634   3.308   6.786 -0.2614  0.5491 -0.5565
 4372SOL    HW124578   0.688   3.387   6.795  2.0740 -1.0148 -0.8073
 4372SOL    HW224579   0.610   3.305   6.879 -2.2526  0.6550 -1.0772
 4373SOL     OW24580   2.060   4.407   8.138 -0.0399  0.2228  0.2130
 4373SOL    HW124581   2.080   4.462   8.214  0.9294 -0.0692  0.1624
 4373SOL    HW224582   2.027   4.326   8.177 -0.0391 -0.2466 -0.7794
 4374SOL     OW24583   4.531   1.196   3.239  0.3918  0.1990 -0.1542
 4374SOL    HW124584   4.557   1.194   3.331  1.2275  0.7819 -0.3773
 4374SOL    HW224585   4.606   1.175   3.183  0.5004  0.8358 -0.2435
 4375SOL     OW24586   1.188   4.687   7.952 -0.5334  0.3794  0.3408
 4375SOL    HW124587   1.207   4.598   7.922 -0.6595  0.5669 -0.3045
 4375SOL    HW224588   1.179   0.008   7.870  0.1023 -0.0177  0.0355
 4376SOL     OW24589   2.096   4.489  13.625 -0.2768  0.2468 -0.2093
 4376SOL    HW124590   2.041   4.502  13.548 -0.8238 -2.3898 -0.2802
 4376SOL    HW224591   2.151   4.420  13.586 -0.1868  0.3400 -0.2484
 4377SOL     OW24592   0.826   3.673   8.611  0.5846 -0.3087  0.0872
 4377SOL    HW124593   0.908   3.673   8.561  0.1573  0.2917 -0.6187
 4377SOL    HW224594   0.858   3.741   8.671 -0.8698  1.2902 -0.9570
 4378SOL     OW24595   1.675   0.036  10.826 -0.7220  0.2821 -0.1699
 4378SOL    HW124596   1.579   0.032  10.832 -0.5576 -0.2317  1.8680
 4378SOL    HW224597   1.699   0.071  10.911 -0.0063  1.4062 -0.8246
 4379SOL     OW24598   2.902   2.008   6.357  0.0510 -0.5239  0.3044
 4379SOL    HW124599   2.998   2.004   6.364  0.2954  0.1638 -2.7786
 4379SOL    HW224600   2.884   1.914   6.352 -3.6165  0.1947  0.1101
 4380SOL     OW24601   1.345   2.053   8.121 -0.6780 -0.1648 -0.1462
 4380SOL    HW124602   1.298   2.024   8.199 -0.3828  1.6628  0.7050
 4380SOL    HW224603   1.279   2.105   8.075  0.9517  1.2149 -0.9039
 4381SOL     OW24604   4.597   2.161  11.904  0.0150  0.2614  0.8690
 4381SOL    HW124605   4.585   2.205  11.820 -2.1693  0.5442  1.3317
 4381SOL    HW224606   4.693   2.169  11.904 -0.0468  1.0185  0.6283
 4382SOL     OW24607   1.931   3.604   6.023 -0.5116 -0.4023  1.1473
 4382SOL    HW124608   1.908   3.516   5.993 -0.6673 -0.2585  0.8501
 4382SOL    HW224609   1.849   3.644   6.053 -1.1679 -1.1369  0.3480
 4383SOL     OW24610   1.918   1.587   3.070  0.4203  1.0756  0.1830
 4383SOL    HW124611   1.856   1.594   2.997 -0.3945  1.3216  0.8835
 4383SOL    HW224612   1.936   1.494   3.064  0.3558  1.1279 -0.7130
 4384SOL     OW24613   3.783   1.422   3.054  0.2732  0.0236  0.0963
 4384SOL    HW124614   3.770   1.352   2.990 -1.0389 -0.7864  1.2599
 4384SOL    HW224615   3.778   1.496   2.993 -3.6879 -0.5681 -0.2658
 4385SOL     OW24616   2.457   3.077   0.677  0.1486  0.1395  0.0992
 4385SOL    HW124617   2.517   3.018   0.722 -1.2866 -0.6374  0.9833
 4385SOL    HW224618   2.378   3.074   0.731 -0.1362 -0.7105 -0.3628
 4386SOL     OW24619   1.663   3.992  16.318 -0.4763 -0.5561  0.5515
 4386SOL    HW124620   1.628   4.056  16.379  0.4621 -0.1999  0.7220
 4386SOL    HW224621   1.666   4.043  16.237 -0.4559 -0.0548  0.8709
 4387SOL     OW24622   3.550   2.619   7.019 -0.6582 -0.4473 -0.2739
 4387SOL    HW124623   3.516   2.548   6.964  2.9045  0.4410 -3.6276
 4387SOL    HW224624   3.568   2.572   7.100  1.9291 -0.0916 -0.6545
 4388SOL     OW24625   2.250   2.567   9.448  0.3100 -0.4976  0.1798
 4388SOL    HW124626   2.184   2.636   9.436  0.6850 -0.2577 -0.4780
 4388SOL    HW224627   2.208   2.496   9.401 -0.7474  1.0204 -1.1899
 4389SOL     OW24628   0.057   0.026   1.928 -0.2054 -0.1234  0.6316
 4389SOL    HW124629   0.097   0.112   1.942  1.4684 -0.6174 -1.0784
 4389SOL    HW224630   0.130   4.715   1.880 -0.6238 -1.8923  1.3932
 4390SOL     OW24631   4.523   2.314   4.638  0.0408  0.1748  0.4551
 4390SOL    HW124632   4.494   2.382   4.577 -1.6603 -1.0559 -0.1121
 4390SOL    HW224633   4.482   2.337   4.721 -1.3645  1.3125 -0.5475
 4391SOL     OW24634   2.064   2.598  15.558  0.3227 -0.8560  0.0646
 4391SOL    HW124635   2.086   2.691  15.553 -0.6063 -0.7069 -1.3520
 4391SOL    HW224636   1.996   2.598  15.490  0.4328  2.1696 -0.0335
 4392SOL     OW24637   2.223   2.617  14.829 -0.1412  0.4339 -0.1146
 4392SOL    HW124638   2.300   2.667  14.857 -0.1632 -0.2920  1.2392
 4392SOL    HW224639   2.184   2.601  14.915 -1.4541  0.1127 -0.7832
 4393SOL     OW24640   2.537   2.880   2.436  0.6197  0.0338 -0.7987
 4393SOL    HW124641   2.612   2.838   2.394  1.8646  0.9505  0.5226
 4393SOL    HW224642   2.497   2.809   2.487 -0.9506  1.4824 -0.0177
 4394SOL     OW24643   1.333   3.482   4.629  0.5051 -0.0298 -0.1940
 4394SOL    HW124644   1.316   3.394   4.662 -1.8257  0.1725 -0.8107
 4394SOL    HW224645   1.245   3.518   4.616 -0.0922 -1.3080  0.3427
 4395SOL     OW24646   2.543   0.411   2.813 -0.3922  0.8917  0.1339
 4395SOL    HW124647   2.469   0.355   2.838 -0.7186  1.0769 -0.4223
 4395SOL    HW224648   2.527   0.408   2.718 -0.1510  2.3606  0.0537
 4396SOL     OW24649   3.376   2.121   7.245  0.2005  0.2751 -0.5684
 4396SOL    HW124650   3.288   2.133   7.283  0.5664 -0.5221  0.5329
 4396SOL    HW224651   3.379   2.198   7.189 -4.1981  1.9836  1.5138
 4397SOL     OW24652   4.561   2.174  16.727  0.4838 -0.3190  0.2480
 4397SOL    HW124653   4.650   2.149  16.702 -0.0192 -0.1671 -1.6368
 4397SOL    HW224654   4.507   2.147  16.653  1.3101 -0.9489 -0.1132
 4398SOL     OW24655   1.507   1.577  12.133  0.4179 -0.1290  0.1946
 4398SOL    HW124656   1.472   1.493  12.103 -0.4568 -0.3226  1.7206
 4398SOL    HW224657   1.595   1.580  12.097  0.6419 -0.1357  0.7473
 4399SOL     OW24658   3.994   0.036   3.975 -0.4668  0.3834  0.2372
 4399SOL    HW124659   3.976   0.129   3.957 -0.1173  0.6104  1.0802
 4399SOL    HW224660   4.071   0.035   3.919 -1.3308 -1.2604 -0.9454
 4400SOL     OW24661   0.598   2.567   6.389 -0.0452 -0.2690  0.2570
 4400SOL    HW124662   0.514   2.559   6.344 -0.2118 -1.6635  0.8245
 4400SOL    HW224663   0.657   2.616   6.331  0.8101 -1.1545  0.3775
 4401SOL     OW24664   2.262   3.627   7.271  0.3641  0.8745 -0.2896
 4401SOL    HW124665   2.184   3.682   7.260 -0.6461 -1.2145 -3.8214
 4401SOL    HW224666   2.271   3.578   7.189 -1.7276  1.8585 -1.0990
 4402SOL     OW24667   4.232   3.043   4.571 -0.1238 -0.3801 -0.6244
 4402SOL    HW124668   4.223   3.010   4.482  0.3174 -0.2209 -0.7269
 4402SOL    HW224669   4.278   2.974   4.619 -1.5076  0.7987  2.4175
 4403SOL     OW24670   3.262   2.189   1.924  0.4568  0.2568 -0.4511
 4403SOL    HW124671   3.354   2.212   1.912  0.7246  0.0297  1.0904
 4403SOL    HW224672   3.209   2.262   1.891  1.6148  0.9023 -0.8527
 4404SOL     OW24673   3.334   2.034   5.680 -0.7167 -0.4223 -0.1360
 4404SOL    HW124674   3.296   1.947   5.679  1.0396 -1.1912  0.7650
 4404SOL    HW224675   3.408   2.027   5.619 -0.9368  0.2156 -0.4792
 4405SOL     OW24676   2.414   0.649   4.873 -0.3391 -0.4958  0.1890
 4405SOL    HW124677   2.416   0.695   4.788 -0.8762 -0.7286  0.0527
 4405SOL    HW224678   2.320   0.657   4.886 -0.0700  0.2919  1.6625
 4406SOL     OW24679   2.928   4.725   6.360  0.4221  0.2167 -0.3533
 4406SOL    HW124680   2.886   0.063   6.304 -1.0024  1.2661  1.8936
 4406SOL    HW224681   2.904   4.640   6.323  1.0682  0.4602 -1.3255
 4407SOL     OW24682   2.002   1.238   1.450 -0.3950 -0.1002  0.3132
 4407SOL    HW124683   2.013   1.318   1.400  0.7305 -0.0422  0.6470
 4407SOL    HW224684   2.005   1.271   1.540 -3.6835  1.1197 -0.0504
 4408SOL     OW24685   3.362   0.243  14.409  0.4538  0.0971  0.2089
 4408SOL    HW124686   3.275   0.242  14.370 -0.0151  0.2821  1.2350
 4408SOL    HW224687   3.398   0.300  14.341  3.1461 -1.7616  0.0926
 4409SOL     OW24688   3.140   1.979   4.248  0.1561 -0.0543  0.2550
 4409SOL    HW124689   3.068   1.947   4.302  1.4540 -1.0867  1.3883
 4409SOL    HW224690   3.095   1.983   4.163  0.9881 -0.0143 -0.1867
 4410SOL     OW24691   0.161   2.732   5.164  0.0331  0.1245  0.5705
 4410SOL    HW124692   0.237   2.676   5.178  0.5183  0.9555  1.1884
 4410SOL    HW224693   0.120   2.697   5.084 -1.1187  0.0468  1.1979
 4411SOL     OW24694   1.179   3.633   7.280 -0.5332 -0.3273 -0.1660
 4411SOL    HW124695   1.183   3.613   7.373  0.1271  0.4584 -0.0236
 4411SOL    HW224696   1.085   3.633   7.265 -0.7894 -1.6460  1.4840
 4412SOL     OW24697   1.060   3.312   0.472 -0.6235 -0.3956 -0.1795
 4412SOL    HW124698   1.150   3.309   0.504 -0.1954  1.5174 -1.2681
 4412SOL    HW224699   1.015   3.356   0.544  0.6694 -0.2152  0.5137
 4413SOL     OW24700   0.262   3.808   7.898  0.4141 -0.0890 -0.3455
 4413SOL    HW124701   0.176   3.848   7.915  0.7191  0.6818 -0.6576
 4413SOL    HW224702   0.276   3.844   7.810 -2.9871 -0.8334 -1.2021
 4414SOL     OW24703   0.375   3.536   5.818  0.1250 -0.2144 -0.2387
 4414SOL    HW124704   0.295   3.546   5.766  0.2722 -0.7002 -0.5648
 4414SOL    HW224705   0.363   3.614   5.871 -2.0761 -1.1146  0.6114
 4415SOL     OW24706   4.087   3.101   9.978 -0.0849 -0.4945  0.3434
 4415SOL    HW124707   4.029   3.091  10.054  1.1857 -1.3319  1.2079
 4415SOL    HW224708   4.114   3.010   9.968  0.8787  0.1751 -3.1098
 4416SOL     OW24709   3.912   3.880  16.577 -0.1769 -0.7000 -0.5296
 4416SOL    HW124710   3.977   3.928  16.627 -0.3295 -2.5825  1.4963
 4416SOL    HW224711   3.914   3.946  16.508  0.2619 -1.1834 -0.9857
 4417SOL     OW24712   1.884   3.343  11.081 -0.4610  0.0194  0.3907
 4417SOL    HW124713   1.801   3.391  11.083 -0.4088  0.2101 -1.5885
 4417SOL    HW224714   1.852   3.255  11.101 -0.7202  0.1260  0.4441
 4418SOL     OW24715   3.753   2.677   3.517  0.2175 -0.6877 -0.4032
 4418SOL    HW124716   3.765   2.764   3.478 -1.3754 -1.3964 -2.4604
 4418SOL    HW224717   3.786   2.686   3.607 -0.8242  0.5720 -0.1433
 4419SOL     OW24718   3.298   1.454   5.131 -0.1634 -0.2101 -0.4222
 4419SOL    HW124719   3.363   1.457   5.061  1.2200  0.5848  0.8672
 4419SOL    HW224720   3.313   1.367   5.170 -0.5636 -0.2212 -0.2973
 4420SOL     OW24721   4.458   4.516   5.725  0.1773 -0.0879  0.4582
 4420SOL    HW124722   4.531   4.488   5.671  1.2765  1.0426  1.3681
 4420SOL    HW224723   4.417   4.431   5.740 -5.1607  2.3977 -0.0384
 4421SOL     OW24724   0.864   3.597  17.025  0.4778 -0.2733 -0.3517
 4421SOL    HW124725   0.786   3.542  17.017  0.3332  0.0504 -1.1577
 4421SOL    HW224726   0.883   3.573  17.116 -1.8474  0.3653  0.2987
 4422SOL     OW24727   4.540   1.025   5.153 -0.1180  0.1572 -0.3023
 4422SOL    HW124728   4.599   1.095   5.127  0.5050 -0.8874 -1.6948
 4422SOL    HW224729   4.608   0.961   5.173  1.0107  1.4038 -0.2122
 4423SOL     OW24730   2.325   4.128   7.905  0.4409  0.3705  0.3584
 4423SOL    HW124731   2.265   4.190   7.865 -1.9701 -1.9086  0.4293
 4423SOL    HW224732   2.402   4.134   7.849 -0.1791  1.6256 -0.3506
 4424SOL     OW24733   0.133   1.373   8.442 -0.6194  0.3645 -0.0176
 4424SOL    HW124734   0.072   1.332   8.381 -0.5886  0.4757 -0.1227
 4424SOL    HW224735   0.088   1.458   8.444  1.2753  1.3980 -2.1135
 4425SOL     OW24736   2.560   0.535   9.287  0.2953 -0.9403  0.0025
 4425SOL    HW124737   2.641   0.572   9.322  0.0031 -0.5956  0.3244
 4425SOL    HW224738   2.544   0.612   9.233  0.0548 -2.2551 -1.7850
 4426SOL     OW24739   0.260   1.927   2.936 -0.1000  0.1981 -0.0729
 4426SOL    HW124740   0.216   1.859   2.884 -0.5738  0.0968  0.4635
 4426SOL    HW224741   0.307   1.977   2.870  2.5374 -1.1841  0.7782
 4427SOL     OW24742   1.271   1.999   6.406 -0.4531  0.3868 -0.2891
 4427SOL    HW124743   1.283   1.971   6.496 -2.3871  1.3116  0.2525
 4427SOL    HW224744   1.285   2.091   6.427 -1.5781  1.1368 -2.7665
 4428SOL     OW24745   3.019   1.952  16.122  0.0948  0.1798  0.5781
 4428SOL    HW124746   2.935   1.990  16.146  0.8141  2.2206 -0.1685
 4428SOL    HW224747   3.087   1.987  16.179 -1.0435  0.9810  1.4247
 4429SOL     OW24748   1.115   0.459   9.236  0.3619 -0.5824  0.0772
 4429SOL    HW124749   1.052   0.403   9.281 -0.5071 -0.8422 -1.4300
 4429SOL    HW224750   1.114   0.544   9.280  1.1427 -0.6688  0.2534
 4430SOL     OW24751   1.495   0.876  17.473 -0.0013  0.8304 -0.3027
 4430SOL    HW124752   1.407   0.886  17.509  0.0212  0.2911 -0.0983
 4430SOL    HW224753   1.551   0.944  17.512 -2.2265  1.2355  2.2025
 4431SOL     OW24754   4.502   3.489   3.105  0.0146 -0.1905  0.3446
 4431SOL    HW124755   4.409   3.489   3.082 -0.0205  0.0235  0.4831
 4431SOL    HW224756   4.508   3.529   3.192  0.8081  1.2047 -0.3432
 4432SOL     OW24757   4.543   2.721   2.415 -0.0093  0.2429  0.2184
 4432SOL    HW124758   4.526   2.627   2.407 -1.2618  0.2545  2.6282
 4432SOL    HW224759   4.630   2.728   2.375  0.2333  0.8621  0.8334
 4433SOL     OW24760   4.551   3.122   7.115 -0.0607  0.3540  0.5084
 4433SOL    HW124761   4.561   3.039   7.069  1.1494 -0.5664  2.4355
 4433SOL    HW224762   4.634   3.134   7.162  0.2904  2.9475 -0.7485
 4434SOL     OW24763   2.925   0.881   7.734 -0.1981 -0.4327  0.4410
 4434SOL    HW124764   2.849   0.914   7.781 -0.8398  1.1979 -1.7498
 4434SOL    HW224765   2.974   0.963   7.736 -0.8772 -0.0007 -0.7637
 4435SOL     OW24766   1.605   2.501   2.033  0.1456 -0.0371  0.3172
 4435SOL    HW124767   1.623   2.505   2.127  0.1743  0.4535  0.2902
 4435SOL    HW224768   1.579   2.409   2.027 -0.6674  0.1689  0.6207
 4436SOL     OW24769   0.556   3.066  10.302  0.2386 -0.5412  0.0899
 4436SOL    HW124770   0.649   3.045  10.304  0.3612 -0.1395 -1.1104
 4436SOL    HW224771   0.535   2.992  10.358 -0.0774 -0.6029 -0.1094
 4437SOL     OW24772   2.068   3.437  16.732 -0.7480  0.2461  0.0747
 4437SOL    HW124773   2.087   3.526  16.762 -0.7277  0.3064 -0.1192
 4437SOL    HW224774   2.110   3.388  16.803 -0.9755  0.2471  0.2082
 4438SOL     OW24775   1.556   4.385   3.041 -0.1579  0.0369 -0.1988
 4438SOL    HW124776   1.461   4.390   3.046  0.1557  3.1630  2.6178
 4438SOL    HW224777   1.573   4.449   2.972 -1.2141 -0.4191 -0.8753
 4439SOL     OW24778   1.314   3.842   0.445  0.0169  0.4668 -0.4003
 4439SOL    HW124779   1.330   3.923   0.495  0.1173  0.1835  0.0282
 4439SOL    HW224780   1.274   3.796   0.519 -0.4238  2.6108  0.7102
 4440SOL     OW24781   1.039   4.000   2.554  0.4200 -0.1076  0.0437
 4440SOL    HW124782   1.133   3.988   2.565  0.6476  1.7563  0.1522
 4440SOL    HW224783   1.030   4.081   2.504 -2.1064 -0.8722 -0.7258
 4441SOL     OW24784   1.902   1.686   3.953  0.0741  0.1777 -0.3209
 4441SOL    HW124785   1.880   1.705   3.861  1.9827 -0.9245 -0.9957
 4441SOL    HW224786   1.873   1.596   3.969 -1.2668  0.3957 -1.4992
 4442SOL     OW24787   1.004   3.547  11.772 -0.0420 -0.1627  0.3301
 4442SOL    HW124788   1.051   3.505  11.843 -1.1242 -2.1650 -0.1369
 4442SOL    HW224789   1.054   3.512  11.698 -1.5508 -1.8648  0.1082
 4443SOL     OW24790   3.355   4.043   0.908 -0.5255  0.0283 -0.0282
 4443SOL    HW124791   3.363   4.009   0.819  0.1888  1.5575 -0.5327
 4443SOL    HW224792   3.263   4.065   0.922 -0.2430  1.5228 -0.5573
 4444SOL     OW24793   1.716   3.433   5.579 -0.0328  0.0976 -0.2645
 4444SOL    HW124794   1.705   3.343   5.550 -2.9024  0.4521 -0.2460
 4444SOL    HW224795   1.708   3.429   5.675  0.3600  1.2213 -0.1862
 4445SOL     OW24796   3.390   2.582   4.420  0.0160 -0.7880 -0.0850
 4445SOL    HW124797   3.308   2.602   4.463 -0.6372  1.0527 -2.1846
 4445SOL    HW224798   3.395   2.641   4.344 -1.2596  1.6959  1.7612
 4446SOL     OW24799   1.301   1.365  10.669  0.6840 -0.0948  0.1618
 4446SOL    HW124800   1.312   1.270  10.675 -0.7204 -0.2244  0.7691
 4446SOL    HW224801   1.249   1.380  10.748  0.2917  1.7095 -0.4389
 4447SOL     OW24802   2.784   2.092  16.172 -0.6443  0.5063 -0.6749
 4447SOL    HW124803   2.706   2.043  16.198 -1.6139  2.5391  0.2609
 4447SOL    HW224804   2.751   2.182  16.178 -0.2280  0.5984  0.1578
 4448SOL     OW24805   4.205   2.369  10.607  0.0696 -0.0573 -0.1745
 4448SOL    HW124806   4.181   2.407  10.692  0.3137 -1.0383  0.3336
 4448SOL    HW224807   4.298   2.390  10.599 -0.1581  1.3616  1.0447
 4449SOL     OW24808   4.443   3.880   3.108 -0.2164 -0.0825  0.1928
 4449SOL    HW124809   4.438   3.971   3.136  1.5983  0.5471 -1.4787
 4449SOL    HW224810   4.354   3.851   3.126 -1.0887  2.5624  0.1377
 4450SOL     OW24811   0.250   0.375   9.500 -0.3065 -0.1477 -0.7105
 4450SOL    HW124812   0.218   0.449   9.449 -1.0125  2.4045  3.4463
 4450SOL    HW224813   0.283   0.423   9.576 -1.5185 -0.5299  0.0569
 4451SOL     OW24814   1.545   1.592   7.130  0.1538 -0.0008 -0.2746
 4451SOL    HW124815   1.472   1.531   7.124 -0.8010  1.4665 -3.2573
 4451SOL    HW224816   1.555   1.616   7.038 -0.6150 -0.0559 -0.3720
 4452SOL     OW24817   3.697   1.975   3.400  0.3086 -0.5170 -0.1916
 4452SOL    HW124818   3.733   2.006   3.483  0.8589  0.0306 -0.6390
 4452SOL    HW224819   3.609   2.007   3.421 -0.1235 -1.4176 -0.6240
 4453SOL     OW24820   1.867   3.237   7.998 -0.3701  0.7410  0.4184
 4453SOL    HW124821   1.920   3.186   8.059 -0.9960 -0.9995 -0.5018
 4453SOL    HW224822   1.780   3.207   8.026 -0.1568 -0.3892 -0.1533
 4454SOL     OW24823   4.401   1.209   0.299 -0.4613  0.6292 -0.0204
 4454SOL    HW124824   4.312   1.243   0.309 -0.3780  0.7661  0.2570
 4454SOL    HW224825   4.428   1.219   0.208 -1.9124  0.0921 -0.5106
 4455SOL     OW24826   3.211   0.386   3.812  0.1500  0.4962  0.4752
 4455SOL    HW124827   3.256   0.451   3.865 -3.0001  1.2029  2.3228
 4455SOL    HW224828   3.225   0.409   3.721 -1.6075  0.7959  0.2786
 4456SOL     OW24829   0.872   0.734  13.263  0.6760  0.7163  0.7001
 4456SOL    HW124830   0.869   0.681  13.184  2.0611  0.7837  0.6101
 4456SOL    HW224831   0.947   0.699  13.310  0.9236 -2.5616 -2.2027
 4457SOL     OW24832   0.614   0.249   8.072 -0.8824  0.0537  0.1461
 4457SOL    HW124833   0.672   0.237   8.147  1.1816 -0.0270 -1.4531
 4457SOL    HW224834   0.528   0.233   8.110 -0.1124 -1.6933  1.1627
 4458SOL     OW24835   3.263   3.662  10.758  0.3854 -0.3315  0.1073
 4458SOL    HW124836   3.172   3.634  10.772  0.5816 -0.4760  1.0917
 4458SOL    HW224837   3.309   3.619  10.830 -0.8980  0.9925  1.7175
 4459SOL     OW24838   4.207   2.247   3.210  0.2459 -0.2571  0.0917
 4459SOL    HW124839   4.123   2.278   3.176 -0.2399 -1.6054  0.0663
 4459SOL    HW224840   4.192   2.236   3.304  0.1383 -1.8633 -0.1206
 4460SOL     OW24841   3.068   1.001   8.835 -0.9057  0.3947  0.0088
 4460SOL    HW124842   3.003   1.027   8.901  1.8338 -0.4160  3.0027
 4460SOL    HW224843   3.017   0.962   8.764  2.6961 -1.7756 -1.3904
 4461SOL     OW24844   1.450   4.559   9.335  0.4701 -0.3598 -0.0629
 4461SOL    HW124845   1.356   4.571   9.348  0.6902  0.4207  0.8289
 4461SOL    HW224846   1.485   4.633   9.386  0.0631 -0.4637  0.3604
 4462SOL     OW24847   0.055   1.265   8.684 -0.1794 -0.4833  0.3812
 4462SOL    HW124848   0.078   1.309   8.603 -2.6577  0.6079  0.2894
 4462SOL    HW224849   0.140   1.279   8.726 -0.4790  1.8570  0.1685
 4463SOL     OW24850   0.138   2.702  14.062  0.3253 -0.2359  0.1146
 4463SOL    HW124851   0.104   2.789  14.040  0.6163 -0.4599 -1.1898
 4463SOL    HW224852   0.096   2.652  13.992  0.3578  2.6541 -1.9703
 4464SOL     OW24853   3.069   0.733   3.608  0.6202  0.1443 -0.2569
 4464SOL    HW124854   3.059   0.828   3.619 -1.0175 -0.1298  0.6560
 4464SOL    HW224855   3.156   0.714   3.641  0.7084 -1.7809 -1.6225
 4465SOL     OW24856   3.693   2.232  15.227  0.0803 -0.1029 -0.3132
 4465SOL    HW124857   3.745   2.258  15.150 -1.4452  2.4263 -0.4877
 4465SOL    HW224858   3.753   2.179  15.279  0.7127  0.5944 -0.3252
 4466SOL     OW24859   4.657   1.888   3.781  0.1041  0.3145  0.3646
 4466SOL    HW124860   0.018   1.873   3.746  0.1832  1.1553  0.1810
 4466SOL    HW224861   4.640   1.980   3.758  3.8532  1.0142  0.2866
 4467SOL     OW24862   2.633   0.505   7.588 -0.0421  0.7276  0.2463
 4467SOL    HW124863   2.627   0.418   7.549 -1.0482  0.7428  0.3673
 4467SOL    HW224864   2.541   0.530   7.580  0.1183  1.2835  0.1551
 4468SOL     OW24865   1.697   1.468  14.050 -0.6805  0.1219 -0.0072
 4468SOL    HW124866   1.775   1.520  14.031 -0.8996  0.9815  1.4854
 4468SOL    HW224867   1.700   1.422  13.966  0.5828  0.0023  0.1151
 4469SOL     OW24868   1.192   1.695  12.890  0.2876 -0.2072  0.1197
 4469SOL    HW124869   1.257   1.685  12.821 -2.4639  2.2208 -2.8050
 4469SOL    HW224870   1.238   1.766  12.933  1.8054 -1.6525  0.9028
 4470SOL     OW24871   3.007   1.042  16.609  0.4868 -0.3003 -0.3322
 4470SOL    HW124872   3.080   1.029  16.669 -1.3060 -0.1166  1.9071
 4470SOL    HW224873   3.034   0.966  16.558 -0.7954 -1.1037  0.1736
 4471SOL     OW24874   3.976   4.048   8.790  0.1119  0.7489  0.2363
 4471SOL    HW124875   3.922   4.003   8.725  1.6083 -0.5622 -0.0887
 4471SOL    HW224876   3.995   3.976   8.850  1.7774  0.6397 -0.4174
 4472SOL     OW24877   4.682   1.670  12.526  0.0280 -0.3828  0.6589
 4472SOL    HW124878   4.636   1.605  12.580 -0.8570  0.5302  1.0116
 4472SOL    HW224879   4.707   1.614  12.453  0.6536  0.2114  0.4091
 4473SOL     OW24880   3.917   1.414   3.703 -0.1719  0.3243  0.2554
 4473SOL    HW124881   3.959   1.495   3.672 -0.9981  1.1569  1.2970
 4473SOL    HW224882   3.845   1.407   3.640 -0.6423  0.2829  0.7978
 4474SOL     OW24883   4.661   3.865   8.941 -1.2582  0.4719 -0.3195
 4474SOL    HW124884   4.646   3.952   8.903 -0.2689  0.8417  0.1253
 4474SOL    HW224885   0.029   3.856   8.953 -1.2898 -0.3455 -0.6827
 4475SOL     OW24886   3.935   1.558   8.440  0.1206  0.7186 -0.1889
 4475SOL    HW124887   3.962   1.570   8.349 -1.3342  2.7376 -0.3730
 4475SOL    HW224888   4.021   1.546   8.481 -0.1743 -0.8030 -0.0458
 4476SOL     OW24889   3.877   3.587   5.520  0.1077  0.4166  0.2088
 4476SOL    HW124890   3.946   3.525   5.541 -0.4263 -1.0373 -2.3608
 4476SOL    HW224891   3.892   3.602   5.427  1.8465 -1.1863  0.2396
 4477SOL     OW24892   3.282   1.703   0.253 -0.5396  0.4068 -0.5752
 4477SOL    HW124893   3.247   1.655   0.178  0.7447 -1.0876 -0.2177
 4477SOL    HW224894   3.203   1.730   0.300 -1.0469 -1.9806 -0.0584
 4478SOL     OW24895   2.801   4.577   6.131  0.0022 -0.1081  0.1712
 4478SOL    HW124896   2.808   4.657   6.080  0.8445 -0.5535 -0.4034
 4478SOL    HW224897   2.705   4.574   6.134 -0.1135  2.3380 -1.7753
 4479SOL     OW24898   4.421   1.784   7.798 -0.1749 -0.1438 -0.1274
 4479SOL    HW124899   4.435   1.691   7.818  1.2450 -0.1095 -0.9435
 4479SOL    HW224900   4.443   1.827   7.880 -1.2277 -0.1873  0.1707
 4480SOL     OW24901   3.212   2.200   0.056 -0.2654  0.0435 -0.0994
 4480SOL    HW124902   3.146   2.136   0.083 -0.2756 -1.2888 -3.3277
 4480SOL    HW224903   3.240   2.228   0.143 -0.6869 -1.2562  0.4623
 4481SOL     OW24904   1.493   2.251  17.131 -0.7375 -0.0301  0.6006
 4481SOL    HW124905   1.506   2.255  17.226  1.3411 -0.4711  0.3221
 4481SOL    HW224906   1.420   2.190  17.126  0.4441 -1.3707 -0.2458
 4482SOL     OW24907   0.934   2.263   8.935 -0.2185  0.5196  0.3508
 4482SOL    HW124908   0.954   2.174   8.908  1.1561  1.0720 -0.4697
 4482SOL    HW224909   0.890   2.257   9.020  0.2089  2.2195  0.7086
 4483SOL     OW24910   4.697   0.125   4.507  0.2368  0.5184 -0.4237
 4483SOL    HW124911   4.671   0.082   4.589 -1.5441  0.8727 -0.7923
 4483SOL    HW224912   4.638   0.200   4.515 -2.5458 -1.8840  1.6445
 4484SOL     OW24913   4.189   3.954   3.859 -0.1692 -0.4519 -0.2656
 4484SOL    HW124914   4.137   4.018   3.909 -1.2469 -0.3561 -1.5083
 4484SOL    HW224915   4.143   3.874   3.884 -2.9280  0.8408 -1.1470
 4485SOL     OW24916   4.388   0.270   1.647 -0.4545 -0.3557 -0.0863
 4485SOL    HW124917   4.451   0.211   1.605 -0.4931  1.2268 -2.3754
 4485SOL    HW224918   4.351   0.215   1.716  2.2914  1.5727  2.9138
 4486SOL     OW24919   0.970   1.526   7.067 -0.1044 -0.3243  0.1629
 4486SOL    HW124920   0.947   1.436   7.044 -1.3305  0.1467 -0.4623
 4486SOL    HW224921   1.040   1.538   7.002  0.2258  2.4595  1.0332
 4487SOL     OW24922   2.554   0.854   8.245 -0.2324 -0.2400  0.2903
 4487SOL    HW124923   2.534   0.765   8.216 -1.9996 -0.1135  1.1474
 4487SOL    HW224924   2.463   0.880   8.258 -0.2845  0.5060 -1.4865
 4488SOL     OW24925   0.673   1.884   4.809  0.0893 -0.5164 -0.6576
 4488SOL    HW124926   0.747   1.840   4.767 -2.0370 -2.5670 -2.2651
 4488SOL    HW224927   0.622   1.808   4.837 -0.2071 -0.3188 -0.6561
 4489SOL     OW24928   1.267   2.346   4.913 -0.2511 -0.3185  0.0742
 4489SOL    HW124929   1.247   2.386   4.828 -1.7662  0.0670  0.6208
 4489SOL    HW224930   1.341   2.286   4.899 -0.6845 -0.7187 -0.4831
 4490SOL     OW24931   4.220   1.861   8.713  0.0206 -0.3580 -0.0122
 4490SOL    HW124932   4.206   1.774   8.751 -2.4212  0.0695  0.0567
 4490SOL    HW224933   4.135   1.902   8.726  0.9179  1.2914  0.5996
 4491SOL     OW24934   0.745   0.024  14.847 -0.7197 -0.4991  0.0266
 4491SOL    HW124935   0.744   4.673  14.902  0.9881 -0.6200 -0.1098
 4491SOL    HW224936   0.794   0.002  14.767 -0.3176 -0.2074  0.1923
 4492SOL     OW24937   1.308   3.785   3.049 -0.4711 -0.0008 -0.4547
 4492SOL    HW124938   1.230   3.834   3.025 -0.7569 -0.0423  0.3674
 4492SOL    HW224939   1.294   3.700   3.007  1.0484  0.2067 -1.3541
 4493SOL     OW24940   1.282   4.345   5.457 -0.1165  0.2527 -0.3273
 4493SOL    HW124941   1.272   4.413   5.391  1.7876 -0.1580 -1.0502
 4493SOL    HW224942   1.362   4.379   5.497 -0.9955  1.1889  0.6471
 4494SOL     OW24943   4.540   3.963   6.403  0.4466 -0.2153 -0.2399
 4494SOL    HW124944   4.569   3.909   6.477  2.1699 -1.1202 -1.5717
 4494SOL    HW224945   4.599   4.038   6.407 -1.9743  1.6620  0.0731
 4495SOL     OW24946   4.326   1.992  14.173 -0.0510  0.1800 -0.2489
 4495SOL    HW124947   4.292   1.960  14.256  1.6350  1.0544  0.7664
 4495SOL    HW224948   4.408   1.944  14.179  0.1760  0.2526 -2.8053
 4496SOL     OW24949   0.661   3.575  13.269 -0.4702  0.5884  0.4003
 4496SOL    HW124950   0.585   3.626  13.240  0.4677  1.6803 -0.1386
 4496SOL    HW224951   0.686   3.559  13.178 -1.5181 -1.1255  0.4170
 4497SOL     OW24952   2.989   3.327  14.702 -0.4513 -0.0319  0.1542
 4497SOL    HW124953   3.024   3.254  14.650 -0.4971  0.7048 -0.9089
 4497SOL    HW224954   3.034   3.324  14.786  0.2493 -4.8300 -0.3437
 4498SOL     OW24955   1.633   0.018   3.399  0.0266  0.4368 -0.1744
 4498SOL    HW124956   1.589   4.712   3.321 -0.1453  0.0670  0.0798
 4498SOL    HW224957   1.701   0.071   3.357 -0.0393  1.7449  1.3360
 4499SOL     OW24958   2.821   2.235   2.758 -0.3593 -0.0165  0.3918
 4499SOL    HW124959   2.845   2.195   2.842 -0.8476 -0.2866  0.3990
 4499SOL    HW224960   2.769   2.166   2.717 -0.6866  0.8603 -0.6444
 4500SOL     OW24961   3.306   2.545   1.115 -0.9367  0.5796  0.5113
 4500SOL    HW124962   3.277   2.580   1.031  0.6280  2.3536  0.7206
 4500SOL    HW224963   3.221   2.508   1.137 -0.1893 -1.5787 -0.1696
 4501SOL     OW24964   3.762   3.015   8.620 -0.5129  0.1319 -0.1954
 4501SOL    HW124965   3.714   3.028   8.702  0.7834  2.0659  0.2643
 4501SOL    HW224966   3.752   3.101   8.580 -0.5253  0.1858 -0.0775
 4502SOL     OW24967   3.177   0.558   9.734  0.2235  0.4100 -0.4298
 4502SOL    HW124968   3.195   0.619   9.806  0.5515 -2.0606  1.6305
 4502SOL    HW224969   3.269   0.533   9.723  0.2144 -1.3057  3.2033
 4503SOL     OW24970   4.451   4.509   7.944 -0.4691 -0.1511  0.2288
 4503SOL    HW124971   4.372   4.458   7.958  0.0864 -0.6098  1.6885
 4503SOL    HW224972   4.520   4.451   7.977 -0.4168  0.3729  1.0549
 4504SOL     OW24973   3.067   1.435  17.447 -0.1090  0.2964 -0.0574
 4504SOL    HW124974   3.149   1.483  17.456  0.4621 -0.6550 -0.0926
 4504SOL    HW224975   3.022   1.479  17.375 -0.2388  2.5654  1.4245
 4505SOL     OW24976   2.394   2.112   1.951 -0.6963 -0.1295  0.3656
 4505SOL    HW124977   2.356   2.148   1.871  2.1512  1.2118 -0.3864
 4505SOL    HW224978   2.322   2.055   1.979 -0.6065 -0.5139 -0.1992
 4506SOL     OW24979   3.687   4.380   1.493  0.5478  0.2949 -0.1278
 4506SOL    HW124980   3.608   4.364   1.543  1.4165  1.1891  1.5522
 4506SOL    HW224981   3.709   4.291   1.468  0.2716  0.1085  0.2928
 4507SOL     OW24982   1.824   4.629   8.187 -0.2247 -0.0125 -0.5252
 4507SOL    HW124983   1.854   4.546   8.223 -0.1942  0.0908 -0.3133
 4507SOL    HW224984   1.835   4.622   8.092 -2.1505  1.2302 -0.8577
 4508SOL     OW24985   2.869   2.054   2.157 -0.0056  0.3387 -0.0666
 4508SOL    HW124986   2.796   2.025   2.103  0.5126 -0.6154 -0.2609
 4508SOL    HW224987   2.860   2.145   2.128  0.8684 -0.2323 -2.1791
 4509SOL     OW24988   1.335   0.840   1.265 -0.0453 -0.6809 -0.7360
 4509SOL    HW124989   1.264   0.840   1.200 -1.3416 -0.2309  0.6882
 4509SOL    HW224990   1.372   0.928   1.257 -0.2747 -0.4890  0.4179
 4510SOL     OW24991   0.534   4.265   3.588 -0.0976 -0.3354 -0.0486
 4510SOL    HW124992   0.585   4.322   3.531 -1.5769  0.5438 -0.4992
 4510SOL    HW224993   0.534   4.313   3.671 -3.2219  0.9625 -0.7850
 4511SOL     OW24994   2.844   2.537  10.277  0.4075 -0.4944 -0.3042
 4511SOL    HW124995   2.858   2.443  10.283 -1.3879 -0.8211 -1.0984
 4511SOL    HW224996   2.770   2.537  10.216  0.1974 -0.0813 -0.0509
 4512SOL     OW24997   1.895   0.533   1.469 -0.0812 -0.4173 -0.2222
 4512SOL    HW124998   1.883   0.628   1.463 -1.6251 -0.6250 -0.1861
 4512SOL    HW224999   1.984   0.517   1.435 -0.6831  0.5629 -2.2550
 4513SOL     OW25000   0.694   3.984   4.805  0.5669  0.0425 -0.1261
 4513SOL    HW125001   0.651   3.995   4.720 -0.0020 -0.3654  0.1142
 4513SOL    HW225002   0.787   3.993   4.782  0.8447 -1.9218  0.2604
 4514SOL     OW25003   3.362   2.783   2.768  0.4537  0.5801  0.1856
 4514SOL    HW125004   3.323   2.834   2.697  1.2945  1.0242  0.0355
 4514SOL    HW225005   3.446   2.826   2.784  0.9308 -0.4131  0.4027
 4515SOL     OW25006   4.148   1.836   1.950  0.4301  0.1484 -0.6487
 4515SOL    HW125007   4.234   1.857   1.986  1.2926 -1.9596 -1.4809
 4515SOL    HW225008   4.115   1.765   2.006 -0.0941 -0.2506 -1.4537
 4516SOL     OW25009   2.501   2.768  12.389  0.1655  0.2212  0.7233
 4516SOL    HW125010   2.450   2.687  12.391 -0.5639  0.6150 -2.8085
 4516SOL    HW225011   2.490   2.784  12.483 -2.1676  2.1042  0.1263
 4517SOL     OW25012   3.821   2.685   8.390 -0.4267  0.0441 -0.1102
 4517SOL    HW125013   3.838   2.612   8.331 -0.4865  1.6781 -2.1316
 4517SOL    HW225014   3.815   2.755   8.326 -0.2126  0.7896  0.6862
 4518SOL     OW25015   2.484   4.400   9.060  0.0133  0.1781 -0.3119
 4518SOL    HW125016   2.471   4.488   9.094 -1.4186  0.3029 -1.2107
 4518SOL    HW225017   2.417   4.382   8.994  0.1477 -0.8480 -0.1664
 4519SOL     OW25018   4.512   3.898   0.645 -0.1665  0.1601 -0.0407
 4519SOL    HW125019   4.586   3.894   0.706  1.4030 -0.9524 -2.0374
 4519SOL    HW225020   4.559   3.895   0.562  0.5864 -1.3982  0.4322
 4520SOL     OW25021   2.650   2.650   9.717  0.7572 -0.4511 -0.1050
 4520SOL    HW125022   2.583   2.597   9.760 -0.3490  1.0255  0.0283
 4520SOL    HW225023   2.613   2.682   9.635  1.5311  1.3024  0.2198
 4521SOL     OW25024   2.076   0.806   4.365 -0.0413  0.3315 -0.2436
 4521SOL    HW125025   2.083   0.778   4.274  0.6778 -1.0317  0.2306
 4521SOL    HW225026   2.168   0.823   4.384 -0.0502 -1.5308  1.3665
 4522SOL     OW25027   3.491   4.199   1.770 -0.2467  0.3615 -0.0219
 4522SOL    HW125028   3.450   4.249   1.701  1.6231 -0.8090 -1.9949
 4522SOL    HW225029   3.541   4.140   1.714  1.6831 -0.4643  2.5413
 4523SOL     OW25030   0.011   1.374  17.093  0.3224 -0.4991  0.0400
 4523SOL    HW125031   0.019   1.291  17.139  2.6659  0.2333  0.9335
 4523SOL    HW225032   4.645   1.396  17.102  0.2273 -0.1419 -1.8496
 4524SOL     OW25033   4.417   4.319   9.197 -0.2580 -0.1779  0.4724
 4524SOL    HW125034   4.378   4.277   9.274  0.1598 -0.8040  0.3412
 4524SOL    HW225035   4.369   4.402   9.199 -1.4211 -0.8308 -0.7607
 4525SOL     OW25036   0.144   0.645   1.241  0.2516 -0.0022  0.2643
 4525SOL    HW125037   0.198   0.723   1.256 -0.9124  0.8318  0.0436
 4525SOL    HW225038   0.089   0.663   1.165 -1.6479 -1.0653  1.3995
 4526SOL     OW25039   3.001   3.281   6.151 -0.2723  0.1603 -0.3743
 4526SOL    HW125040   3.002   3.286   6.246  1.7632  2.4078 -0.5293
 4526SOL    HW225041   3.020   3.369   6.118  1.9030  0.6290  2.1693
 4527SOL     OW25042   3.919   4.347   3.016 -0.9597  0.1434 -0.6949
 4527SOL    HW125043   3.936   4.400   2.938  0.5814  0.4793 -0.1380
 4527SOL    HW225044   3.850   4.398   3.059 -0.2222  0.6190 -0.0582
 4528SOL     OW25045   3.336   0.110  15.479  0.3382  0.2607 -0.1148
 4528SOL    HW125046   3.318   0.031  15.531 -0.1933  0.7950  0.5070
 4528SOL    HW225047   3.283   0.099  15.401 -1.1640  0.4699  0.8698
 4529SOL     OW25048   4.547   3.639   1.025  0.1181  0.1208 -0.6537
 4529SOL    HW125049   4.474   3.590   1.063 -2.1456 -0.3051 -5.4173
 4529SOL    HW225050   4.567   3.714   1.081 -0.0522 -0.5886  0.3476
 4530SOL     OW25051   2.555   1.462   2.222  0.3015  0.2651 -0.5546
 4530SOL    HW125052   2.598   1.510   2.151 -1.1794  1.0475 -0.9133
 4530SOL    HW225053   2.486   1.422   2.170  0.3395 -0.2201 -0.2347
 4531SOL     OW25054   0.378   0.169   1.050  0.6456 -0.0299  0.0827
 4531SOL    HW125055   0.290   0.160   1.013 -0.1278  0.6462  1.7078
 4531SOL    HW225056   0.366   0.209   1.137 -0.6221  1.8164 -0.9242
 4532SOL     OW25057   3.852   0.941   4.633  0.8140  0.1938  0.6657
 4532SOL    HW125058   3.899   0.994   4.570 -0.0468 -1.7290 -1.6170
 4532SOL    HW225059   3.835   1.015   4.691 -0.0818  0.7627 -0.3219
 4533SOL     OW25060   0.872   3.803   4.072 -0.2651 -0.1540 -0.3736
 4533SOL    HW125061   0.957   3.842   4.052 -0.3646  0.3716  0.2092
 4533SOL    HW225062   0.837   3.862   4.139 -0.1229 -0.7002  0.1827
 4534SOL     OW25063   2.998   1.037  14.765  0.3860 -0.2767 -0.2403
 4534SOL    HW125064   3.074   1.057  14.819  0.7621  2.3116 -1.7153
 4534SOL    HW225065   2.950   1.120  14.763  1.5550  0.3829 -0.6280
 4535SOL     OW25066   4.273   2.409   0.953  0.1152 -0.3228  0.7603
 4535SOL    HW125067   4.345   2.353   0.984 -0.3206 -0.2480  1.9306
 4535SOL    HW225068   4.330   2.471   0.908 -0.2798 -0.4034  0.1551
 4536SOL     OW25069   3.601   4.194   2.946  0.6317  0.4466 -0.1112
 4536SOL    HW125070   3.619   4.268   3.004 -0.9913 -1.3819  2.6939
 4536SOL    HW225071   3.543   4.233   2.881 -0.8132 -0.7072  0.4909
 4537SOL     OW25072   0.032   2.304   4.516 -0.5300 -0.2486 -0.1227
 4537SOL    HW125073   0.001   2.348   4.437  0.3838  0.3242 -0.1697
 4537SOL    HW225074   4.678   2.287   4.564 -0.1935  1.2855  0.9853
 4538SOL     OW25075   3.907   0.326   3.408  0.1943 -0.5160 -0.2597
 4538SOL    HW125076   3.981   0.317   3.348  0.0306  0.9293 -0.6790
 4538SOL    HW225077   3.848   0.255   3.380 -1.0904  0.1011  0.8531
 4539SOL     OW25078   2.556   0.461   5.587 -0.4777 -0.2398 -0.0654
 4539SOL    HW125079   2.611   0.520   5.536  0.3077 -1.8360 -1.0623
 4539SOL    HW225080   2.469   0.491   5.564 -0.8672 -1.3307 -0.0157
 4540SOL     OW25081   4.197   0.598   7.685 -0.3889 -0.3720  0.6687
 4540SOL    HW125082   4.196   0.629   7.594 -0.6085  0.0408  0.8107
 4540SOL    HW225083   4.248   0.667   7.727  0.0055  0.7504 -1.6402
 4541SOL     OW25084   0.481   0.036   8.615 -0.0754 -0.0736  0.0447
 4541SOL    HW125085   0.421   4.691   8.630 -0.2850 -0.2809 -1.7046
 4541SOL    HW225086   0.546   0.014   8.548  1.6149  1.1570  1.2813
 4542SOL     OW25087   4.199   0.200  10.778 -0.1516  0.1080 -0.1436
 4542SOL    HW125088   4.197   0.104  10.772  2.3814  0.0343  0.3343
 4542SOL    HW225089   4.282   0.227  10.817 -1.1735  0.9913  1.4215
 4543SOL     OW25090   4.602   0.192  14.119 -0.5118  0.4161  0.1366
 4543SOL    HW125091   4.640   0.190  14.031 -1.2181  0.7423 -0.1711
 4543SOL    HW225092   4.670   0.152  14.173 -1.2711 -0.8723  0.1285
 4544SOL     OW25093   2.627   0.208   9.612  0.7233 -0.2567  0.3327
 4544SOL    HW125094   2.678   0.289   9.606 -2.4218  1.6518 -0.1331
 4544SOL    HW225095   2.687   0.159   9.556 -0.4299 -1.2291 -0.0374
 4545SOL     OW25096   3.330   0.109   2.133  0.1625 -0.1052  0.0645
 4545SOL    HW125097   3.425   0.117   2.143  0.2302  1.8592 -2.1006
 4545SOL    HW225098   3.316   0.136   2.042  0.4846  0.9042  0.3169
 4546SOL     OW25099   2.413   1.200   6.635 -0.2807 -0.1600 -0.3700
 4546SOL    HW125100   2.433   1.115   6.595 -0.2971  0.1205 -0.9831
 4546SOL    HW225101   2.436   1.196   6.727  1.1966 -1.5743 -0.8055
 4547SOL     OW25102   0.344   0.542   5.157  0.6470  0.4330  0.0671
 4547SOL    HW125103   0.418   0.601   5.139 -0.4721  1.6678 -0.5439
 4547SOL    HW225104   0.385   0.465   5.119  0.7258  1.0207 -1.0406
 4548SOL     OW25105   3.903   1.402   5.190  0.7234 -0.2174  0.2869
 4548SOL    HW125106   3.971   1.354   5.238  0.2769  1.1199  2.2418
 4548SOL    HW225107   3.926   1.378   5.100 -2.1339  0.6386 -0.6805
 4549SOL     OW25108   4.209   4.015   4.797 -0.2990 -0.0429 -0.1936
 4549SOL    HW125109   4.168   3.980   4.876 -0.5185  0.2254 -0.1886
 4549SOL    HW225110   4.219   4.108   4.816 -1.3493 -0.1293  0.7685
 4550SOL     OW25111   4.674   0.242   8.456 -0.0894 -0.1634  0.1459
 4550SOL    HW125112   4.646   0.220   8.367 -1.3778  0.5434  0.3824
 4550SOL    HW225113   4.596   0.266   8.507  0.3845 -0.3559  0.9678
 4551SOL     OW25114   0.069   2.231   5.806 -0.0592  0.5110  0.2452
 4551SOL    HW125115   0.152   2.241   5.758  1.4764 -3.3807  2.1097
 4551SOL    HW225116   0.017   2.184   5.740 -1.4499  0.7993  1.1463
 4552SOL     OW25117   1.480   4.576  11.167  0.2450  0.2620  0.2258
 4552SOL    HW125118   1.418   4.649  11.157 -0.6816 -0.5284  0.2483
 4552SOL    HW225119   1.560   4.623  11.192  0.3814 -0.4022  1.0164
 4553SOL     OW25120   1.951   0.786   2.871  0.1443  0.8300 -0.1500
 4553SOL    HW125121   2.000   0.707   2.892 -0.6685  0.3739  0.0378
 4553SOL    HW225122   1.867   0.765   2.911  2.0120  0.2322  3.4403
 4554SOL     OW25123   1.330   3.201   8.569 -0.2380  0.0958 -0.7165
 4554SOL    HW125124   1.367   3.136   8.629  0.6646 -0.4345 -1.8450
 4554SOL    HW225125   1.235   3.191   8.568 -0.2246 -0.3372  1.3939
 4555SOL     OW25126   3.184   4.599   4.766 -0.6501  0.0013  0.3359
 4555SOL    HW125127   3.093   4.614   4.741 -0.6372 -4.3541 -2.4314
 4555SOL    HW225128   3.199   4.511   4.731 -0.0099  0.9791 -1.8709
 4556SOL     OW25129   2.667   1.529   3.713  0.5787  0.4841  0.2073
 4556SOL    HW125130   2.674   1.533   3.617 -0.5947  0.2357  0.1139
 4556SOL    HW225131   2.586   1.480   3.725 -0.5779  1.8399 -1.9642
 4557SOL     OW25132   0.941   3.832   8.242  0.5660  0.8186 -0.0098
 4557SOL    HW125133   0.882   3.892   8.287 -1.7778 -1.0783 -0.5579
 4557SOL    HW225134   1.019   3.852   8.295  0.5308  1.6734 -0.2794
 4558SOL     OW25135   1.745   3.997   0.145  0.8768  0.5453  0.2447
 4558SOL    HW125136   1.841   3.995   0.148  0.8592  1.0937  1.5729
 4558SOL    HW225137   1.725   3.933   0.213 -2.4227  2.7949  1.3574
 4559SOL     OW25138   1.396   1.200   0.945 -0.0822  0.0513 -0.2459
 4559SOL    HW125139   1.393   1.166   1.035 -0.6825  0.5895 -0.0643
 4559SOL    HW225140   1.487   1.230   0.947 -0.0215 -0.1157 -0.5705
 4560SOL     OW25141   0.643   3.453  17.014  0.4093 -0.1133 -0.2851
 4560SOL    HW125142   0.570   3.406  17.056  0.0816 -0.8191 -1.6549
 4560SOL    HW225143   0.610   3.510  16.945  1.1316  0.4894 -0.1181
 4561SOL     OW25144   0.750   3.185  11.384 -0.2175  0.2781  0.4786
 4561SOL    HW125145   0.711   3.169  11.470  0.1075  0.1090  0.5977
 4561SOL    HW225146   0.803   3.106  11.380 -0.6602  0.0796 -1.1854
 4562SOL     OW25147   0.683   0.916  11.327  0.1847 -0.5882  0.0795
 4562SOL    HW125148   0.700   0.960  11.410 -0.3888  0.2586 -0.2538
 4562SOL    HW225149   0.626   0.843  11.351 -1.3551  0.4340 -0.4848
 4563SOL     OW25150   0.980   0.482   1.508  0.6104 -0.4885 -0.4604
 4563SOL    HW125151   1.052   0.543   1.493 -0.0314  0.6389  0.9623
 4563SOL    HW225152   0.908   0.533   1.471  0.6035  0.6905  1.1652
 4564SOL     OW25153   2.598   4.631  11.753  0.1783 -0.6975 -0.1087
 4564SOL    HW125154   2.551   4.691  11.695 -0.7555 -2.3149 -1.0223
 4564SOL    HW225155   2.621   4.550  11.707 -0.4383  0.0447 -1.7294
 4565SOL     OW25156   1.152   1.540   0.751 -0.3331 -0.6125  0.4311
 4565SOL    HW125157   1.243   1.534   0.720 -0.2921  1.2538  0.1938
 4565SOL    HW225158   1.102   1.561   0.672 -2.0023 -0.1229  1.6214
 4566SOL     OW25159   3.687   2.708   9.662  0.0761  0.3727 -0.0922
 4566SOL    HW125160   3.748   2.661   9.606  0.1969 -1.6289  1.7252
 4566SOL    HW225161   3.648   2.633   9.707 -1.0870 -0.6137 -2.7983
 4567SOL     OW25162   0.675   3.410   2.671  0.0585  0.9346 -0.2036
 4567SOL    HW125163   0.583   3.385   2.666 -0.2973  2.1164  0.4993
 4567SOL    HW225164   0.704   3.383   2.584 -0.1368 -1.5920  0.5162
 4568SOL     OW25165   4.047   2.569   6.512  0.1984  0.4716  0.7710
 4568SOL    HW125166   3.983   2.640   6.524  0.0827  0.8936 -2.1905
 4568SOL    HW225167   4.057   2.589   6.418  1.0465  0.8061  0.9371
 4569SOL     OW25168   2.310   2.129  14.392 -0.0070 -0.3164 -0.1947
 4569SOL    HW125169   2.364   2.206  14.376 -0.0164 -0.3378 -0.3295
 4569SOL    HW225170   2.244   2.145  14.324  0.4720 -0.9189 -0.8013
 4570SOL     OW25171   4.690   2.997   9.436 -0.2742 -0.2348  0.0024
 4570SOL    HW125172   4.654   3.032   9.517 -0.7375 -0.1744 -0.2341
 4570SOL    HW225173   4.622   2.947   9.391 -0.2684  0.6277 -0.9713
 4571SOL     OW25174   4.056   2.132   8.679 -0.0061  0.3235  0.0925
 4571SOL    HW125175   3.986   2.075   8.710  0.4501 -0.1238  0.3161
 4571SOL    HW225176   4.061   2.090   8.592 -1.4482 -1.4933  0.9010
 4572SOL     OW25177   3.511   0.694   5.813 -0.4964  0.4287 -0.1446
 4572SOL    HW125178   3.471   0.700   5.727 -2.5178 -1.1466  0.6910
 4572SOL    HW225179   3.460   0.745   5.876  0.1376  1.5953 -0.5758
 4573SOL     OW25180   3.010   3.530   6.044 -0.1622  0.6091  0.0488
 4573SOL    HW125181   2.951   3.557   5.973 -0.4262 -0.1851 -0.0342
 4573SOL    HW225182   3.090   3.526   5.991 -1.7344  0.3666 -2.3214
 4574SOL     OW25183   0.286   4.497   2.359 -0.0692 -0.0282 -0.0608
 4574SOL    HW125184   0.264   4.588   2.339 -0.6961 -0.3893 -1.0210
 4574SOL    HW225185   0.249   4.461   2.278 -0.2757 -0.1711  0.0961
 4575SOL     OW25186   0.094   0.413   8.869  0.4074 -0.7748 -0.2727
 4575SOL    HW125187   0.168   0.410   8.808  0.2369 -0.1131 -0.5036
 4575SOL    HW225188   0.025   0.421   8.804  0.2747 -1.0003 -0.1601
 4576SOL     OW25189   0.422   2.006   0.538  0.7456  0.0094  0.0093
 4576SOL    HW125190   0.493   1.942   0.536  2.2644  1.7347 -0.9736
 4576SOL    HW225191   0.415   2.028   0.445 -0.8439  1.5477  0.4929
 4577SOL     OW25192   3.571   4.538  17.430  0.0031 -0.3059 -0.0982
 4577SOL    HW125193   3.545   4.622  17.468 -1.1164 -0.6691 -0.0681
 4577SOL    HW225194   3.649   4.561  17.379  0.2174  1.3716  0.9861
 4578SOL     OW25195   0.686   2.259   7.489  0.6286 -0.1345 -0.1468
 4578SOL    HW125196   0.746   2.188   7.514  1.2068  1.2787  2.4964
 4578SOL    HW225197   0.652   2.282   7.576 -0.3327 -3.6551  0.4134
 4579SOL     OW25198   1.631   2.072  12.126 -0.2236  0.5033  0.3587
 4579SOL    HW125199   1.636   2.089  12.220  0.8443  1.5195  0.1115
 4579SOL    HW225200   1.564   2.004  12.123  0.6685 -0.3450 -0.0114
 4580SOL     OW25201   3.860   3.425   8.350 -0.5354  0.0631 -0.1672
 4580SOL    HW125202   3.936   3.484   8.347 -0.3594 -0.2335 -1.3206
 4580SOL    HW225203   3.835   3.439   8.259 -0.5049 -0.7135 -0.2975
 4581SOL     OW25204   1.037   3.974  16.127 -0.1710 -0.1244  0.0977
 4581SOL    HW125205   1.078   3.887  16.125 -1.7194 -0.8178 -1.1740
 4581SOL    HW225206   0.986   3.965  16.208  1.6794  0.5657  1.3396
 4582SOL     OW25207   1.171   0.909   4.480  0.3381 -0.2271  0.0854
 4582SOL    HW125208   1.172   0.911   4.576  1.6920  2.4156  0.0068
 4582SOL    HW225209   1.181   1.002   4.461  1.6218 -1.0902 -3.3887
 4583SOL     OW25210   1.275   2.096   1.817  0.4667 -0.2303 -0.0870
 4583SOL    HW125211   1.294   2.103   1.911  1.8498  1.4036 -0.5079
 4583SOL    HW225212   1.200   2.154   1.803  0.1549 -0.9210 -1.3226
 4584SOL     OW25213   0.768   3.385   3.192 -0.5947  0.3193  0.0737
 4584SOL    HW125214   0.767   3.421   3.281 -2.7539 -1.7233  0.8869
 4584SOL    HW225215   0.708   3.446   3.150 -1.8742 -0.8060  0.2518
 4585SOL     OW25216   4.001   0.491  12.402 -0.7319  0.3516  0.3561
 4585SOL    HW125217   4.050   0.513  12.481  0.3756 -0.4900 -0.0886
 4585SOL    HW225218   3.941   0.426  12.440 -2.0088  1.1914 -0.2349
 4586SOL     OW25219   3.971   3.753  17.010  0.1502 -0.3185 -0.1446
 4586SOL    HW125220   3.984   3.741  16.916  0.1825 -2.4740  0.1437
 4586SOL    HW225221   4.015   3.838  17.010  0.6108 -0.5482 -1.4402
 4587SOL     OW25222   0.166   3.667  13.366  0.2234  0.1298 -0.3470
 4587SOL    HW125223   0.214   3.633  13.441  1.2996  4.1470  0.7885
 4587SOL    HW225224   0.242   3.704  13.320  0.8719 -0.8807 -0.0833
 4588SOL     OW25225   4.441   4.332   4.438  0.6166 -0.1005 -0.0120
 4588SOL    HW125226   4.491   4.414   4.433 -0.1023  0.2564 -1.3863
 4588SOL    HW225227   4.499   4.272   4.390  0.1269 -0.6143  0.0371
 4589SOL     OW25228   3.035   1.034  17.625  1.0539  0.5194  0.1661
 4589SOL    HW125229   3.118   1.051  17.668  0.4459  2.5894  0.5352
 4589SOL    HW225230   2.977   1.011  17.697  0.7165 -1.0254 -0.5989
 4590SOL     OW25231   0.533   1.792   8.983  0.3966  0.7558 -0.1093
 4590SOL    HW125232   0.569   1.749   9.061  0.0546 -1.2487 -1.0587
 4590SOL    HW225233   0.601   1.858   8.971  0.4475 -0.0121 -3.9524
 4591SOL     OW25234   3.055   3.879   5.999  0.2441 -0.1548  0.2494
 4591SOL    HW125235   3.144   3.846   5.994  0.2788 -0.4414  2.6409
 4591SOL    HW225236   3.044   3.944   5.929 -1.2613  0.9570  1.5173
 4592SOL     OW25237   3.061   1.146   7.388 -0.0384  0.3581 -0.5799
 4592SOL    HW125238   2.966   1.140   7.377 -0.3572  2.0149  1.3086
 4592SOL    HW225239   3.087   1.063   7.427 -1.1491  1.1289  1.8224
 4593SOL     OW25240   0.298   0.597   9.335 -0.5980  0.1283 -0.0153
 4593SOL    HW125241   0.318   0.612   9.243 -1.0079  1.3623  0.0916
 4593SOL    HW225242   0.338   0.515   9.362 -1.2866  0.0744  0.8716
 4594SOL     OW25243   3.817   1.399   8.684 -0.7766 -0.0409 -0.0105
 4594SOL    HW125244   3.756   1.461   8.644  1.3039  0.7037 -2.0191
 4594SOL    HW225245   3.880   1.407   8.613 -0.4855  1.5457  0.4227
 4595SOL     OW25246   1.022   2.812   8.326  0.3589 -0.1056 -0.4417
 4595SOL    HW125247   0.991   2.721   8.331  0.8067 -0.1959  0.6182
 4595SOL    HW225248   1.066   2.823   8.241  0.4683 -1.4523 -0.5661
 4596SOL     OW25249   4.482   4.068   2.555  0.1738 -0.3007  0.1465
 4596SOL    HW125250   4.396   4.047   2.591 -0.9019  1.0794 -1.6513
 4596SOL    HW225251   4.505   4.139   2.616 -1.2554  0.7270 -0.5157
 4597SOL     OW25252   3.325   2.172   6.350 -0.0127  0.3543 -0.7381
 4597SOL    HW125253   3.315   2.267   6.357 -1.8255  0.1857 -1.0524
 4597SOL    HW225254   3.420   2.168   6.361  0.2452  0.6233 -2.8191
 4598SOL     OW25255   4.487   1.625   6.860 -0.0602 -0.2332 -0.5357
 4598SOL    HW125256   4.519   1.672   6.782 -0.2370 -1.5265 -1.3964
 4598SOL    HW225257   4.530   1.540   6.843 -0.1147 -0.1295 -1.2185
 4599SOL     OW25258   2.052   2.427  10.846 -0.1414 -0.2957 -0.4317
 4599SOL    HW125259   2.032   2.357  10.784 -0.1650  0.6299 -1.4749
 4599SOL    HW225260   2.024   2.388  10.928 -0.9431  0.0475 -0.5402
 4600SOL     OW25261   2.055   3.034   4.976 -0.3078 -0.1892  0.8496
 4600SOL    HW125262   1.986   3.053   4.912 -1.4067 -0.3096  1.9909
 4600SOL    HW225263   2.036   2.942   4.995  0.6393 -0.2434  1.5032
 4601SOL     OW25264   3.954   0.309   3.945  0.1625 -0.1606  0.0990
 4601SOL    HW125265   3.956   0.312   3.849  2.3985 -0.1826  0.1244
 4601SOL    HW225266   4.024   0.370   3.969  0.9843 -1.0079 -0.1175
 4602SOL     OW25267   2.842   3.617   5.837 -0.0854  0.2070  0.2389
 4602SOL    HW125268   2.747   3.625   5.847 -0.2100 -0.6684 -0.3192
 4602SOL    HW225269   2.876   3.706   5.823 -2.4273  1.0789  0.0632
 4603SOL     OW25270   1.615   3.507   8.352  0.3342  0.1879  0.1302
 4603SOL    HW125271   1.651   3.596   8.356  1.0595 -0.1736  1.4199
 4603SOL    HW225272   1.522   3.527   8.362 -0.1529 -1.4288 -1.1535
 4604SOL     OW25273   1.330   3.444  12.398  0.3126  0.3706  0.2363
 4604SOL    HW125274   1.344   3.446  12.303  0.5375 -1.8794  0.2252
 4604SOL    HW225275   1.402   3.503  12.424  2.3968 -1.0265 -2.3517
 4605SOL     OW25276   1.901   0.029   4.172  0.1290  0.0572  0.6053
 4605SOL    HW125277   1.929   0.120   4.182  0.0755  0.3224 -1.8484
 4605SOL    HW225278   1.907   4.710   4.256 -2.3685 -2.3275 -0.5487
 4606SOL     OW25279   2.829   2.483   6.460  0.3084  0.1734  0.3512
 4606SOL    HW125280   2.750   2.492   6.407 -0.0828  2.3055  1.2975
 4606SOL    HW225281   2.838   2.388   6.469 -1.2544 -0.1170 -1.2021
 4607SOL     OW25282   0.624   2.433   7.962 -0.3357  0.5975  0.1881
 4607SOL    HW125283   0.662   2.350   7.992 -1.2087 -0.0188 -0.4276
 4607SOL    HW225284   0.614   2.416   7.869  0.5986  1.9552 -0.1640
 4608SOL     OW25285   0.138   3.979   2.633  0.5725  0.3793  0.1982
 4608SOL    HW125286   0.074   4.050   2.623  0.2125  0.1169  0.6423
 4608SOL    HW225287   0.082   3.902   2.626 -2.0810  2.2934  0.3325
 4609SOL     OW25288   3.624   0.617   8.379  0.4283  0.0119 -0.4868
 4609SOL    HW125289   3.673   0.687   8.421  0.3714  0.5928 -1.3898
 4609SOL    HW225290   3.579   0.584   8.458 -1.3645  0.2322 -1.4102
 4610SOL     OW25291   0.386   0.796   9.793  0.0771  0.4394  0.6745
 4610SOL    HW125292   0.466   0.802   9.742  1.1398 -0.3482  2.2670
 4610SOL    HW225293   0.414   0.827   9.879  1.0532 -0.2464  0.6047
 4611SOL     OW25294   4.657   0.911   4.039 -0.1889  0.1252 -0.4763
 4611SOL    HW125295   4.663   1.003   4.015 -0.7475  0.0773 -0.7862
 4611SOL    HW225296   4.674   0.902   4.133  0.4633 -0.2288 -0.6242
 4612SOL     OW25297   2.445   4.645   9.180 -0.5918 -0.3122 -0.3296
 4612SOL    HW125298   2.379   4.707   9.149  0.0608  0.8930  0.6771
 4612SOL    HW225299   2.413   4.608   9.262  0.1906  0.1056  0.1672
 4613SOL     OW25300   2.935   3.249   7.867  0.1944 -0.3818  0.0785
 4613SOL    HW125301   2.888   3.332   7.874  1.4377  0.4474 -1.5546
 4613SOL    HW225302   2.861   3.193   7.843 -0.1312  0.2121 -0.2723
 4614SOL     OW25303   2.988   4.456   6.772  0.3254 -1.0310 -0.5412
 4614SOL    HW125304   2.997   4.380   6.830 -1.9699 -0.7181  0.2193
 4614SOL    HW225305   3.051   4.519   6.805  0.2326 -1.1819 -0.0735
 4615SOL     OW25306   1.636   4.038   6.373  0.0955 -0.0746  0.0345
 4615SOL    HW125307   1.660   4.100   6.442 -0.8459 -0.9607  1.1738
 4615SOL    HW225308   1.693   3.963   6.393  1.6982  0.6766 -1.6759
 4616SOL     OW25309   2.869   4.078   1.898  0.1636  0.1122 -0.7881
 4616SOL    HW125310   2.894   4.018   1.968  0.6716  1.0672 -0.1357
 4616SOL    HW225311   2.805   4.030   1.847  0.5556 -1.3987  0.1332
 4617SOL     OW25312   4.031   1.594   8.163  0.2134 -0.2608  0.6529
 4617SOL    HW125313   4.102   1.537   8.134  0.4932  0.8231 -0.8061
 4617SOL    HW225314   3.977   1.585   8.084  2.3261 -0.8723 -0.7102
 4618SOL     OW25315   0.833   0.157  13.026 -0.4220  0.1858  0.2662
 4618SOL    HW125316   0.772   0.230  13.022 -1.8758 -1.0874 -0.8820
 4618SOL    HW225317   0.909   0.213  13.011  0.1609 -1.2985 -2.3435
 4619SOL     OW25318   2.458   2.017   6.309  0.2754  0.0639  0.4184
 4619SOL    HW125319   2.404   2.087   6.272 -0.5063  1.0765  3.4815
 4619SOL    HW225320   2.397   1.944   6.307  0.2128  0.0290  4.5417
 4620SOL     OW25321   3.483   3.003  17.683 -0.0011  0.0817  0.2825
 4620SOL    HW125322   3.550   3.011   0.042  1.0364  1.2483 -0.8661
 4620SOL    HW225323   3.459   2.910  17.681  0.6369 -0.0616 -0.5791
 4621SOL     OW25324   0.283   4.653   2.938  0.1185  0.2251 -0.0363
 4621SOL    HW125325   0.365   4.650   2.986 -0.7165  0.1213  1.4008
 4621SOL    HW225326   0.251   0.014   2.952  1.6573  0.5001  1.6255
 4622SOL     OW25327   0.436   2.672   4.021  0.0632 -0.0854 -0.8425
 4622SOL    HW125328   0.433   2.749   4.077  1.4357  0.6774 -1.8419
 4622SOL    HW225329   0.524   2.683   3.985 -0.4568  0.9711 -1.7725
 4623SOL     OW25330   3.332   0.405   8.257  0.2304  0.7587  0.7530
 4623SOL    HW125331   3.407   0.387   8.201 -1.5987 -0.3536 -1.3252
 4623SOL    HW225332   3.348   0.371   8.345 -0.6337  1.4962  1.1969
 4624SOL     OW25333   4.467   2.908   5.262 -0.1500 -0.2685  0.5308
 4624SOL    HW125334   4.371   2.911   5.266 -0.0439 -0.5570  3.5128
 4624SOL    HW225335   4.480   2.961   5.341 -0.2689  1.1559 -0.4199
 4625SOL     OW25336   1.653   2.470   7.348  0.0674 -0.5962  0.3925
 4625SOL    HW125337   1.620   2.407   7.412 -0.2520 -0.8075  0.0230
 4625SOL    HW225338   1.692   2.534   7.408 -0.0012 -0.7083  0.5576
 4626SOL     OW25339   3.851   3.778   2.534 -0.3660  0.1388  0.3063
 4626SOL    HW125340   3.765   3.760   2.496  0.0883  0.4789 -0.8747
 4626SOL    HW225341   3.909   3.796   2.460 -0.2816 -0.3372  0.2537
 4627SOL     OW25342   2.161   0.528   7.832  0.5430 -0.3494 -0.0166
 4627SOL    HW125343   2.122   0.613   7.810  0.5953 -0.7373 -1.5877
 4627SOL    HW225344   2.115   0.514   7.914  1.1432 -0.9395  0.2214
 4628SOL     OW25345   3.427   3.148  17.464 -0.7348  0.1034 -0.0288
 4628SOL    HW125346   3.467   3.097  17.534 -1.5763  0.3268  0.6110
 4628SOL    HW225347   3.456   3.239  17.477 -0.1421 -0.0883 -0.0117
 4629SOL     OW25348   0.442   4.262   1.904  0.1773 -0.1556 -0.1218
 4629SOL    HW125349   0.362   4.211   1.916  0.6458 -0.5565  1.3478
 4629SOL    HW225350   0.433   4.302   1.818 -0.3801 -0.4575 -0.2007
 4630SOL     OW25351   0.936   1.283   0.454  0.4127 -0.4316  0.1169
 4630SOL    HW125352   0.874   1.267   0.383 -1.6788  1.8513  1.4421
 4630SOL    HW225353   0.937   1.199   0.499 -2.3311 -1.5468 -1.9558
 4631SOL     OW25354   0.585   1.188   9.135  0.2102 -0.3281  0.2668
 4631SOL    HW125355   0.651   1.121   9.151  3.0464  2.5712  0.5709
 4631SOL    HW225356   0.624   1.268   9.169 -0.5082 -0.2823  1.0077
 4632SOL     OW25357   0.225   2.248   6.889  0.0992  0.1908  0.0422
 4632SOL    HW125358   0.281   2.325   6.892 -1.1180  1.0962 -0.6413
 4632SOL    HW225359   0.260   2.212   6.808  0.2567 -0.3048  0.3271
 4633SOL     OW25360   4.236   3.354   8.855 -0.0671  0.6480  0.4925
 4633SOL    HW125361   4.261   3.262   8.868 -0.9059  0.1391 -1.4840
 4633SOL    HW225362   4.291   3.370   8.779 -0.5715 -0.8965 -0.2062
 4634SOL     OW25363   4.111   4.575  15.670  0.0262 -0.0831  0.0476
 4634SOL    HW125364   4.037   4.545  15.617  1.3279 -3.3178  0.0412
 4634SOL    HW225365   4.128   4.663  15.637 -0.0023 -0.5299 -1.1718
 4635SOL     OW25366   1.516   2.186   0.396 -0.4634 -0.1471  0.8364
 4635SOL    HW125367   1.423   2.177   0.376 -0.2718 -0.6007  0.1550
 4635SOL    HW225368   1.528   2.277   0.371 -0.4682  0.4685  3.0481
 4636SOL     OW25369   3.558   3.997  10.150 -0.0282  0.0127 -0.2780
 4636SOL    HW125370   3.553   4.033  10.062 -3.2787  2.1265  0.7624
 4636SOL    HW225371   3.570   3.908  10.117 -0.5835 -0.6471  1.2795
 4637SOL     OW25372   2.827   2.266   8.196  0.3483 -0.4034  0.1345
 4637SOL    HW125373   2.891   2.332   8.222  0.2609  0.1432 -1.0301
 4637SOL    HW225374   2.872   2.204   8.139 -1.9111 -0.7352 -1.2778
 4638SOL     OW25375   0.788   1.492   0.701  0.2205  0.2056  0.3856
 4638SOL    HW125376   0.801   1.410   0.749 -1.5751  0.2122  0.8821
 4638SOL    HW225377   0.873   1.509   0.660  0.4556  1.3762  1.3633
 4639SOL     OW25378   0.514   4.471   3.094  0.0379  0.3264  0.0456
 4639SOL    HW125379   0.471   4.405   3.039 -2.0519 -0.1053  2.2091
 4639SOL    HW225380   0.600   4.428   3.099  0.5704  1.6817  2.4559
 4640SOL     OW25381   2.868   2.877   8.629 -0.2562 -0.0868 -0.1743
 4640SOL    HW125382   2.955   2.843   8.649  0.8964  1.7255 -2.1856
 4640SOL    HW225383   2.820   2.867   8.712  1.8169 -2.9883  0.6489
 4641SOL     OW25384   2.784   0.510   1.583  0.6072  0.0647  0.2674
 4641SOL    HW125385   2.872   0.522   1.549 -0.0360  2.2722 -0.6766
 4641SOL    HW225386   2.817   0.491   1.671 -1.1014 -0.4150  0.8031
 4642SOL     OW25387   0.940   1.646   8.445 -0.0111 -0.2352 -0.1843
 4642SOL    HW125388   0.866   1.593   8.415  0.6234 -0.6636 -1.0249
 4642SOL    HW225389   0.954   1.702   8.368  0.5644  0.5829  0.5209
 4643SOL     OW25390   1.001   0.270   2.917 -0.8456 -0.4357 -0.2704
 4643SOL    HW125391   0.977   0.318   2.837  0.5717  0.1294 -0.3434
 4643SOL    HW225392   1.003   0.181   2.880  1.7330 -0.0867 -0.9808
 4644SOL     OW25393   0.502   4.360   8.151 -0.1705 -0.4061  0.4130
 4644SOL    HW125394   0.414   4.398   8.152  0.5261  1.1460  0.8147
 4644SOL    HW225395   0.552   4.430   8.110 -1.4157  1.1074  1.5066
 4645SOL     OW25396   2.743   4.085   8.066 -0.2812 -0.1642  0.0702
 4645SOL    HW125397   2.789   4.111   8.146 -1.3680  0.7261  0.4034
 4645SOL    HW225398   2.724   4.172   8.031  2.2369  0.0622 -0.7664
 4646SOL     OW25399   4.150   0.497   4.054  0.1518  0.2314 -0.3038
 4646SOL    HW125400   4.144   0.543   3.971  2.0312 -1.2887 -1.2918
 4646SOL    HW225401   4.239   0.510   4.086 -0.0674  2.8061 -0.7460
 4647SOL     OW25402   0.365   2.276   6.395  0.1965 -0.1834  0.0157
 4647SOL    HW125403   0.305   2.310   6.328 -0.6376 -1.0214  0.3370
 4647SOL    HW225404   0.439   2.258   6.337 -0.8413  1.6682 -1.8847
 4648SOL     OW25405   2.071   1.646  17.414 -0.0813 -0.0651  0.3739
 4648SOL    HW125406   1.992   1.648  17.359 -0.4867 -1.9286  0.8665
 4648SOL    HW225407   2.104   1.735  17.409  0.4358 -0.2798 -0.0395
 4649SOL     OW25408   0.978   1.666   9.276 -0.2987 -0.2078 -0.2380
 4649SOL    HW125409   1.040   1.648   9.347  1.7026  0.6849 -1.7682
 4649SOL    HW225410   0.927   1.586   9.292  1.7188 -1.3865  0.3243
 4650SOL     OW25411   0.016   4.499  11.777 -0.1804 -0.2166  0.4504
 4650SOL    HW125412   4.671   4.537  11.826  0.7253  1.9129  0.1627
 4650SOL    HW225413   0.047   4.434  11.840 -0.8684  0.2537  1.2675
 4651SOL     OW25414   0.442   1.149  11.725  0.1481 -0.1433 -0.6831
 4651SOL    HW125415   0.364   1.174  11.774  1.1429  1.5019  0.0332
 4651SOL    HW225416   0.508   1.149  11.793 -0.2013 -0.9779 -0.3381
 4652SOL     OW25417   2.748   3.490  16.378  0.0018 -0.4477  0.0871
 4652SOL    HW125418   2.731   3.572  16.424  1.2019 -0.1174 -0.0724
 4652SOL    HW225419   2.661   3.485  16.338 -0.1978  1.3880  0.3220
 4653SOL     OW25420   3.449   2.185   2.262 -0.1185  0.3091  0.0815
 4653SOL    HW125421   3.391   2.109   2.264 -0.0695  0.1770 -3.9471
 4653SOL    HW225422   3.484   2.185   2.352 -4.5956  4.3010  1.7830
 4654SOL     OW25423   3.641   1.292   4.415  0.2754 -0.0739  0.0984
 4654SOL    HW125424   3.593   1.214   4.442 -0.8734  0.1647 -1.2056
 4654SOL    HW225425   3.665   1.259   4.328 -0.3772  0.6562 -0.3658
 4655SOL     OW25426   2.795   2.537   8.055  0.3549 -0.2339  0.3296
 4655SOL    HW125427   2.777   2.472   8.123 -1.2543  0.1338  0.2449
 4655SOL    HW225428   2.736   2.499   7.990 -1.9272  0.3492  2.0906
 4656SOL     OW25429   0.824   2.681   5.800  0.1068  0.3008 -0.4876
 4656SOL    HW125430   0.831   2.772   5.771 -0.9626  0.1547 -1.2367
 4656SOL    HW225431   0.915   2.655   5.785  0.6306  1.5747  0.5347
 4657SOL     OW25432   3.531   1.480   6.457 -0.1468 -0.0485 -1.0480
 4657SOL    HW125433   3.546   1.530   6.376 -0.8265  0.1116 -1.0811
 4657SOL    HW225434   3.550   1.395   6.417  0.0063 -0.3794 -0.2656
 4658SOL     OW25435   0.116   4.397   8.678 -0.4767  0.1519 -0.5194
 4658SOL    HW125436   0.068   4.343   8.740  1.9926  0.8100  1.9846
 4658SOL    HW225437   0.038   4.434   8.637  0.2916 -0.3913 -2.4589
 4659SOL     OW25438   2.561   1.855   7.187 -0.3810 -0.9376  0.0442
 4659SOL    HW125439   2.622   1.892   7.250  0.8859  0.2329 -1.8716
 4659SOL    HW225440   2.617   1.783   7.156 -0.9486 -0.8547 -1.1999
 4660SOL     OW25441   3.483   3.842   9.001 -0.3539 -0.1723  0.3003
 4660SOL    HW125442   3.457   3.757   9.036  1.0730 -0.6692  0.1441
 4660SOL    HW225443   3.421   3.860   8.931 -0.5725 -1.4563  0.1731
 4661SOL     OW25444   3.322   0.851   8.149  0.1604 -0.6180  0.1096
 4661SOL    HW125445   3.278   0.787   8.094 -0.6458 -0.3196  0.4120
 4661SOL    HW225446   3.407   0.810   8.165  1.1397  1.2121 -0.2818
 4662SOL     OW25447   4.172   1.048   8.292  0.8501  0.4127 -0.3862
 4662SOL    HW125448   4.146   1.138   8.312 -0.8684 -0.0274 -0.5843
 4662SOL    HW225449   4.213   1.024   8.375  1.0753 -1.5906 -1.0752
 4663SOL     OW25450   2.972   1.057  14.181  0.0603 -0.6504  0.7812
 4663SOL    HW125451   2.977   1.048  14.276 -2.1238 -1.0048  0.8678
 4663SOL    HW225452   2.993   1.149  14.168 -2.1107 -0.5130 -1.9202
 4664SOL     OW25453   4.042   1.934   6.622  0.2661  0.7367 -0.1147
 4664SOL    HW125454   3.991   1.870   6.671  1.4013 -0.6708 -0.7826
 4664SOL    HW225455   4.070   1.888   6.543 -2.5390 -0.1421 -0.6235
 4665SOL     OW25456   4.433   3.962  16.633  0.4991  0.3458 -0.2548
 4665SOL    HW125457   4.394   3.928  16.714 -0.8369  3.5940  0.4723
 4665SOL    HW225458   4.429   4.056  16.650  0.1262  0.1942  0.4998
 4666SOL     OW25459   2.890   1.985   1.581  0.1821 -0.2149 -0.4319
 4666SOL    HW125460   2.869   2.076   1.600 -0.7264 -0.1348 -1.8292
 4666SOL    HW225461   2.946   1.962   1.655 -0.2903 -3.4389 -1.0661
 4667SOL     OW25462   0.838   0.142   1.403  0.0727  0.1156  0.4117
 4667SOL    HW125463   0.889   0.076   1.356  0.7210  1.8788 -1.3390
 4667SOL    HW225464   0.778   0.162   1.332 -0.9418  0.0398  1.2551
 4668SOL     OW25465   4.593   4.512  14.008 -0.7693  0.2185 -0.2149
 4668SOL    HW125466   4.592   4.417  14.009  0.8496  0.1891 -1.7014
 4668SOL    HW225467   4.504   4.532  14.036 -0.2311  0.4594  1.3547
 4669SOL     OW25468   1.301   3.646   4.921 -0.4718 -0.0537 -0.1854
 4669SOL    HW125469   1.346   3.618   5.001 -1.4724 -0.3455  0.2768
 4669SOL    HW225470   1.236   3.575   4.920 -0.0869 -0.4134  0.0068
 4670SOL     OW25471   3.870   1.694   7.478 -0.0884  0.0833 -0.1862
 4670SOL    HW125472   3.905   1.772   7.521  0.0544 -0.7255  1.1575
 4670SOL    HW225473   3.784   1.721   7.447 -0.9404 -0.7739  1.4336
 4671SOL     OW25474   3.311   4.584  11.823 -0.5920 -0.5516 -0.3018
 4671SOL    HW125475   3.229   4.588  11.871 -0.7798  0.5768 -0.7074
 4671SOL    HW225476   3.285   4.623  11.740  3.0572  0.4143 -0.9855
 4672SOL     OW25477   3.609   2.886   7.054 -0.5699 -0.4561  0.1779
 4672SOL    HW125478   3.599   2.795   7.028  0.5591 -0.5767  0.1583
 4672SOL    HW225479   3.620   2.879   7.148 -1.2230  1.0419  0.3686
 4673SOL     OW25480   3.492   3.203  16.091  0.0141 -0.5590 -0.5215
 4673SOL    HW125481   3.405   3.181  16.057 -0.3911  1.4074 -0.7704
 4673SOL    HW225482   3.551   3.180  16.020  1.0159  1.2607 -0.2805
 4674SOL     OW25483   3.174   1.937   8.520 -0.2972  0.0663  0.4419
 4674SOL    HW125484   3.256   1.986   8.520 -0.9864  1.2005  2.6607
 4674SOL    HW225485   3.195   1.844   8.508 -3.5941 -0.4816 -1.0463
 4675SOL     OW25486   1.829   0.977  13.484 -0.1020  0.2613  0.2559
 4675SOL    HW125487   1.915   0.988  13.444  0.2468  3.3936  1.8326
 4675SOL    HW225488   1.792   1.065  13.481  1.0454  0.7821  1.6309
 4676SOL     OW25489   3.440   0.022   9.544 -0.4501 -0.6129  0.0461
 4676SOL    HW125490   3.387   0.100   9.560 -0.0201 -0.7422  2.1055
 4676SOL    HW225491   3.522   0.054   9.581  1.5426 -0.8787 -4.1556
 4677SOL     OW25492   1.838   0.888  10.742 -0.6574  0.0584 -0.4471
 4677SOL    HW125493   1.924   0.858  10.772 -0.3965 -1.4106 -2.7186
 4677SOL    HW225494   1.844   0.982  10.761 -1.5781 -0.3525  1.9084
 4678SOL     OW25495   4.032   2.542   8.075 -0.3916 -0.5183 -0.3611
 4678SOL    HW125496   4.048   2.588   7.993  1.8915 -1.0920 -0.2327
 4678SOL    HW225497   4.082   2.594   8.138  0.2721  0.9627 -2.1214
 4679SOL     OW25498   3.512   3.729   6.484 -0.0795  0.2914  0.0006
 4679SOL    HW125499   3.424   3.737   6.521 -0.2161 -0.7164 -0.1088
 4679SOL    HW225500   3.528   3.636   6.473 -3.1782 -0.0808 -1.4169
 4680SOL     OW25501   3.892   3.058   5.494  0.0839 -0.6603 -0.6310
 4680SOL    HW125502   3.799   3.042   5.474 -0.7061  0.5055  2.0835
 4680SOL    HW225503   3.933   3.001   5.429  0.0843  0.5895 -1.7382
 4681SOL     OW25504   0.664   3.489  17.397  0.1136 -0.1200  0.1400
 4681SOL    HW125505   0.674   3.556  17.464 -1.2090  0.5527 -0.3280
 4681SOL    HW225506   0.744   3.496  17.346  0.8450  0.7957  1.4067
 4682SOL     OW25507   3.409   0.397  14.632 -0.0277 -0.1836 -0.0997
 4682SOL    HW125508   3.387   0.486  14.602 -0.1793 -0.3286 -0.4208
 4682SOL    HW225509   3.391   0.343  14.555  0.8274 -0.0204 -0.4062
 4683SOL     OW25510   4.567   1.873   7.278  0.1811 -0.2813 -0.8962
 4683SOL    HW125511   4.497   1.856   7.215 -1.3792  0.5863  0.6467
 4683SOL    HW225512   4.635   1.818   7.238  3.0361  2.8370 -0.3585
 4684SOL     OW25513   3.361   0.145   1.605 -0.2939  0.3329  0.1617
 4684SOL    HW125514   3.354   0.109   1.517  0.1022 -1.0717  0.7058
 4684SOL    HW225515   3.294   0.213   1.604  0.6922  1.3344  2.4121
 4685SOL     OW25516   2.455   0.975   6.909  0.1996 -0.5713 -0.0759
 4685SOL    HW125517   2.519   0.975   6.837 -0.7033  3.1498 -0.8851
 4685SOL    HW225518   2.486   1.051   6.958  0.2821  1.4150 -3.1660
 4686SOL     OW25519   2.883   1.010   9.052 -0.0952 -0.5153 -0.6610
 4686SOL    HW125520   2.924   1.043   9.132 -2.2034  1.3216 -0.3283
 4686SOL    HW225521   2.820   1.082   9.044  0.5763  0.0714 -0.6580
 4687SOL     OW25522   0.018   1.039   7.574  0.2295  0.1473  0.1086
 4687SOL    HW125523   0.030   1.006   7.663 -1.4636  0.8424  0.5912
 4687SOL    HW225524   0.062   0.979   7.514  0.2791 -0.6536  0.9388
 4688SOL     OW25525   3.228   2.323   4.033  0.7558 -0.0215  0.5691
 4688SOL    HW125526   3.300   2.386   4.036  1.3495 -0.6252 -0.9434
 4688SOL    HW225527   3.231   2.273   4.115  0.2053 -0.7200  0.1602
 4689SOL     OW25528   2.541   3.065   0.996 -0.0855 -0.0959 -0.6146
 4689SOL    HW125529   2.532   3.158   0.972 -0.1286 -0.3127 -1.4351
 4689SOL    HW225530   2.561   3.068   1.090 -2.3859 -0.3518 -0.1223
 4690SOL     OW25531   3.560   2.040   6.493 -0.4782 -0.1954  0.4837
 4690SOL    HW125532   3.559   1.976   6.564  1.0901 -1.7733 -0.9170
 4690SOL    HW225533   3.572   1.983   6.417 -2.1239  1.8373 -1.2747
 4691SOL     OW25534   3.757   3.877   2.034  0.3254  0.2984 -0.5648
 4691SOL    HW125535   3.686   3.870   1.970 -0.9506  0.0300  0.8652
 4691SOL    HW225536   3.830   3.903   1.978  0.4445  0.2690 -0.4221
 4692SOL     OW25537   3.495   2.264   3.148  0.0239  0.3332 -0.1852
 4692SOL    HW125538   3.437   2.314   3.091  0.6668 -0.9147 -1.9195
 4692SOL    HW225539   3.576   2.295   3.108  1.5418  0.4626  2.9352
 4693SOL     OW25540   2.736   0.564  13.777 -0.3123 -0.0324 -0.2158
 4693SOL    HW125541   2.680   0.535  13.705  0.4420 -0.8013 -0.4866
 4693SOL    HW225542   2.813   0.515  13.749 -0.9888  0.2249 -2.5414
 4694SOL     OW25543   4.473   2.591   4.139  0.4984 -0.2351 -0.1468
 4694SOL    HW125544   4.386   2.609   4.103  0.6153  2.0927  0.7332
 4694SOL    HW225545   4.500   2.675   4.175 -2.5717 -0.0372  1.7227
 4695SOL     OW25546   2.126   4.415   2.687 -0.1778  0.0116  0.3143
 4695SOL    HW125547   2.051   4.385   2.737 -1.8066  1.7339 -1.0630
 4695SOL    HW225548   2.170   4.331   2.670  0.8232  0.7519 -0.7712
 4696SOL     OW25549   2.809   3.786  14.475  0.1782 -0.2575 -0.2814
 4696SOL    HW125550   2.733   3.740  14.439 -0.8784 -0.3245  2.0927
 4696SOL    HW225551   2.870   3.713  14.485  0.3206 -0.3235 -1.5821
 4697SOL     OW25552   1.319   3.120   7.860  0.0975  0.0343 -0.1286
 4697SOL    HW125553   1.258   3.049   7.882 -0.3863  0.2726 -0.6974
 4697SOL    HW225554   1.368   3.081   7.788  0.0399 -2.8260  1.3434
 4698SOL     OW25555   1.089   2.435   3.694  0.2578  0.0928  0.1543
 4698SOL    HW125556   1.124   2.397   3.774  0.1253  0.0016  0.1699
 4698SOL    HW225557   1.026   2.496   3.734 -1.0397 -1.5199  0.5663
 4699SOL     OW25558   2.433   4.355   6.263  0.6331 -0.5629  0.5292
 4699SOL    HW125559   2.342   4.378   6.246  0.9371  1.2723  1.3914
 4699SOL    HW225560   2.476   4.402   6.192  0.9875 -0.5643  0.7440
 4700SOL     OW25561   2.704   0.213   7.078  0.0870  0.2600  0.3697
 4700SOL    HW125562   2.663   0.128   7.098  0.1450  0.2888  0.6129
 4700SOL    HW225563   2.738   0.179   6.995  2.9036 -0.1808  1.7027
 4701SOL     OW25564   3.612   3.433   4.426  0.0094 -0.0933 -0.0272
 4701SOL    HW125565   3.525   3.455   4.460  0.1599 -1.3171  1.1179
 4701SOL    HW225566   3.580   3.436   4.336  2.0038 -1.8754 -0.7925
 4702SOL     OW25567   3.568   0.150   2.803 -0.3392  0.1896  0.1369
 4702SOL    HW125568   3.646   0.162   2.750  2.1187 -0.3156  3.6779
 4702SOL    HW225569   3.506   0.172   2.733 -0.2656  1.2273  0.4002
 4703SOL     OW25570   2.138   4.528   7.895  0.6395  0.0225  0.0293
 4703SOL    HW125571   2.108   4.472   7.967 -1.1219 -1.2831 -1.7180
 4703SOL    HW225572   2.087   4.607   7.913 -0.7914 -1.2571  1.6039
 4704SOL     OW25573   1.209   4.717   4.810  0.1942 -0.2344  0.1199
 4704SOL    HW125574   1.207   0.010   4.904 -0.4366 -0.8577  0.2388
 4704SOL    HW225575   1.132   0.037   4.778  1.3269  1.2263 -0.4382
 4705SOL     OW25576   4.427   1.183   2.354  0.4001  0.3784  0.1368
 4705SOL    HW125577   4.478   1.175   2.274 -1.6099 -3.3931 -0.7457
 4705SOL    HW225578   4.496   1.186   2.420  0.8972  0.9795 -0.4125
 4706SOL     OW25579   1.964   1.956   7.192  0.2413 -0.5236  0.0501
 4706SOL    HW125580   1.930   1.867   7.180 -1.5534  0.0301  1.0099
 4706SOL    HW225581   1.970   1.993   7.103 -0.5506 -1.5418 -0.4289
 4707SOL     OW25582   2.923   0.149   0.305 -0.2412 -0.0615  0.4928
 4707SOL    HW125583   2.941   0.102   0.387  0.5199  1.5581  1.2665
 4707SOL    HW225584   2.914   0.075   0.246 -0.6052 -1.8252  2.7593
 4708SOL     OW25585   3.576   1.986   5.507 -0.4906  0.2232  0.0839
 4708SOL    HW125586   3.653   1.966   5.454  0.1126  1.8162  0.3911
 4708SOL    HW225587   3.600   2.072   5.540  2.2445 -0.2756 -0.6380
 4709SOL     OW25588   1.555   2.019  12.406  0.5757  0.0456 -0.0113
 4709SOL    HW125589   1.556   1.942  12.349 -0.2611  0.6616 -0.8639
 4709SOL    HW225590   1.498   1.982  12.473 -0.0353 -1.9574 -1.6147
 4710SOL     OW25591   1.796   0.025   4.847 -0.3575 -0.3444  0.7215
 4710SOL    HW125592   1.766   4.681   4.904 -1.3613  0.1531  0.8155
 4710SOL    HW225593   1.715   0.066   4.817  0.0142  0.4809  0.8452
 4711SOL     OW25594   0.401   3.786   5.173  0.5955 -0.2255 -0.3468
 4711SOL    HW125595   0.476   3.806   5.117  0.9859 -0.5708  0.0567
 4711SOL    HW225596   0.341   3.754   5.106 -0.4373 -0.3885  0.6552
 4712SOL     OW25597   2.828   1.031  11.974 -0.5815 -0.2614  0.1488
 4712SOL    HW125598   2.785   0.946  11.972 -2.3275  0.6388  0.0432
 4712SOL    HW225599   2.910   1.008  11.929 -0.5345  2.0091 -0.9448
 4713SOL     OW25600   2.268   4.010   3.582  0.1554  0.1989  0.5399
 4713SOL    HW125601   2.232   4.085   3.629 -1.0970 -0.9479  1.3834
 4713SOL    HW225602   2.247   4.041   3.493  1.6350  1.4022  0.6071
 4714SOL     OW25603   2.752   2.450   4.154  0.4470 -0.2164 -0.3605
 4714SOL    HW125604   2.837   2.430   4.114 -0.1984  1.5935 -2.6494
 4714SOL    HW225605   2.722   2.361   4.172  1.8686  0.1979  4.0207
 4715SOL     OW25606   3.620   4.115   6.202 -0.4163  0.0577 -0.2636
 4715SOL    HW125607   3.685   4.050   6.176  0.1999  1.6609 -2.6896
 4715SOL    HW225608   3.553   4.068   6.252  1.0152 -1.1142  0.5552
 4716SOL     OW25609   3.120   0.889  13.188  0.3240  0.0089 -0.6327
 4716SOL    HW125610   3.074   0.855  13.113 -0.9495  0.9722 -0.2910
 4716SOL    HW225611   3.107   0.819  13.252 -0.1453  1.3059  0.7060
 4717SOL     OW25612   1.947   4.179   5.602  0.3550  0.3741  0.4534
 4717SOL    HW125613   1.860   4.152   5.572 -0.3683  1.8391  1.2477
 4717SOL    HW225614   1.941   4.274   5.597 -1.3219  0.2751  0.3522
 4718SOL     OW25615   3.947   3.568   6.355  0.1823  0.0395 -0.3349
 4718SOL    HW125616   4.004   3.623   6.408  1.8705 -2.7253  0.7226
 4718SOL    HW225617   3.999   3.488   6.345  2.0065  1.3320 -1.1724
 4719SOL     OW25618   3.860   3.841  17.250  0.3015  0.1490 -0.6164
 4719SOL    HW125619   3.787   3.901  17.234 -2.7553 -2.9004  1.7841
 4719SOL    HW225620   3.879   3.807  17.163 -0.9188  0.8544 -1.1590
 4720SOL     OW25621   2.586   1.144   3.464  0.6388  0.1446 -0.3263
 4720SOL    HW125622   2.538   1.104   3.392 -0.8217 -0.0648  0.7551
 4720SOL    HW225623   2.519   1.200   3.503  0.0554 -0.3682 -0.5842
 4721SOL     OW25624   0.001   0.775   6.778 -0.0623  0.0644 -0.0014
 4721SOL    HW125625   4.649   0.760   6.726 -0.0301 -1.0675  0.2792
 4721SOL    HW225626   4.684   0.806   6.858  1.0905 -2.2311  1.5141
 4722SOL     OW25627   4.100   2.183   6.927  0.9204  0.1786  0.4177
 4722SOL    HW125628   4.107   2.095   6.964  0.3942  0.5199  1.3302
 4722SOL    HW225629   4.153   2.175   6.848  0.3364  0.8645 -0.0434
 4723SOL     OW25630   3.736   3.950  15.277 -0.1459 -0.2214 -0.0586
 4723SOL    HW125631   3.657   3.927  15.228 -0.8868  0.4274  0.8228
 4723SOL    HW225632   3.801   3.970  15.210  0.9457  0.8572  1.3401
 4724SOL     OW25633   1.830   3.685   7.839 -0.3327 -0.4091  0.3772
 4724SOL    HW125634   1.825   3.780   7.849  1.5787 -0.0845 -1.9335
 4724SOL    HW225635   1.749   3.661   7.793 -2.4613  3.6261  2.0975
 4725SOL     OW25636   3.058   1.849   0.475 -0.1632  0.1843 -0.0476
 4725SOL    HW125637   2.986   1.814   0.423  0.3720  1.1451 -1.4295
 4725SOL    HW225638   3.072   1.923   0.415  0.1844 -0.5643 -0.8862
 4726SOL     OW25639   0.568   3.356   7.056 -0.4195  0.1773  0.5769
 4726SOL    HW125640   0.479   3.328   7.078 -1.0089  0.9733 -0.7833
 4726SOL    HW225641   0.622   3.303   7.116 -0.5497 -1.2359 -0.5584
 4727SOL     OW25642   0.827   1.792   9.561  0.3800 -0.2506  0.2415
 4727SOL    HW125643   0.787   1.707   9.581  0.4764 -0.6375 -1.2030
 4727SOL    HW225644   0.920   1.772   9.571  0.1564 -0.6117  1.6516
 4728SOL     OW25645   3.589   1.782  17.144 -0.1564  0.2296  0.3669
 4728SOL    HW125646   3.506   1.777  17.095 -0.5845 -4.3508  1.5455
 4728SOL    HW225647   3.589   1.871  17.180  0.5454  0.7501 -0.9375
 4729SOL     OW25648   3.383   1.201  17.398 -0.1042  0.4579  0.3633
 4729SOL    HW125649   3.454   1.157  17.444  0.5361  3.2499  2.0063
 4729SOL    HW225650   3.339   1.254  17.464  0.5977  0.6993  0.6329
 4730SOL     OW25651   3.760   3.410   4.827 -0.1017 -0.6154 -0.0410
 4730SOL    HW125652   3.725   3.490   4.786  0.3069 -0.0277  0.7617
 4730SOL    HW225653   3.701   3.395   4.901 -0.3273  0.0923 -0.0697
 4731SOL     OW25654   1.107   3.827  15.039 -0.0520 -0.0822 -0.3922
 4731SOL    HW125655   1.118   3.747  15.089 -1.3189 -1.9407 -3.0979
 4731SOL    HW225656   1.015   3.846  15.059  0.0061  0.2803 -0.4592
 4732SOL     OW25657   0.299   1.705  16.300 -0.0445  0.0441  0.0011
 4732SOL    HW125658   0.218   1.732  16.344 -1.7332 -2.4047 -1.6151
 4732SOL    HW225659   0.361   1.701  16.372 -0.0674  0.1225  0.0246
 4733SOL     OW25660   0.860   2.312   1.029 -0.7677  0.5732 -0.5526
 4733SOL    HW125661   0.882   2.249   1.098  2.2599 -0.3870 -2.3425
 4733SOL    HW225662   0.765   2.306   1.030 -0.8299  1.6537 -0.7093
 4734SOL     OW25663   2.054   1.629   6.851  0.4283  0.0047 -0.4469
 4734SOL    HW125664   2.109   1.557   6.883 -0.3969 -0.4998 -0.1540
 4734SOL    HW225665   2.109   1.705   6.869  2.3957 -1.1570 -1.6179
 4735SOL     OW25666   1.594   0.456  12.280  0.9143  0.7176 -0.1115
 4735SOL    HW125667   1.559   0.545  12.277  0.1408  0.4522  1.2921
 4735SOL    HW225668   1.629   0.446  12.191  0.1723 -1.3479 -0.1805
 4736SOL     OW25669   3.015   3.693  10.486 -0.5605 -0.4962 -0.1119
 4736SOL    HW125670   2.957   3.700  10.410 -0.1707  1.1522 -0.2521
 4736SOL    HW225671   3.103   3.675  10.453  0.4557  0.7342  1.9369
 4737SOL     OW25672   0.640   0.173   1.224  0.4099 -0.0445 -0.4702
 4737SOL    HW125673   0.547   0.154   1.212  0.1857  1.3463 -0.8995
 4737SOL    HW225674   0.638   0.269   1.225 -0.1972 -0.0787  0.4679
 4738SOL     OW25675   2.856   2.555   1.304  0.1244 -0.1447 -0.8310
 4738SOL    HW125676   2.787   2.618   1.325  0.4621  0.6639 -2.1102
 4738SOL    HW225677   2.845   2.496   1.378  3.7657 -3.0801 -2.6470
 4739SOL     OW25678   1.226   1.196   5.069 -0.4358 -0.2855  0.3604
 4739SOL    HW125679   1.271   1.186   5.153 -0.3390  0.3440  0.3838
 4739SOL    HW225680   1.299   1.237   5.022  0.2052 -1.0104  0.7203
 4740SOL     OW25681   2.544   2.859   9.852 -0.2794 -0.5440 -0.4365
 4740SOL    HW125682   2.594   2.865   9.933  0.1064  0.9850 -0.7898
 4740SOL    HW225683   2.584   2.788   9.801  1.7311 -1.4825  2.4362
 4741SOL     OW25684   3.314   3.801   5.740 -0.3243 -0.3051 -0.4079
 4741SOL    HW125685   3.362   3.735   5.790 -1.6209  0.3102  1.6575
 4741SOL    HW225686   3.307   3.762   5.653  1.4780  1.9479 -1.5835
 4742SOL     OW25687   4.498   2.822   4.527 -0.1291  0.1230 -0.3137
 4742SOL    HW125688   4.522   2.896   4.583  0.9438  0.4222 -1.1818
 4742SOL    HW225689   4.451   2.880   4.467 -0.4803  2.0786  1.8214
 4743SOL     OW25690   0.493   4.289   2.689  0.1333 -0.2682  0.0705
 4743SOL    HW125691   0.458   4.304   2.777 -3.0095  1.7131 -1.5167
 4743SOL    HW225692   0.482   4.195   2.674 -2.4679 -0.4773  3.5023
 4744SOL     OW25693   4.149   2.518   2.148  0.0118 -0.0725  0.3603
 4744SOL    HW125694   4.193   2.544   2.229  0.4259 -0.6645  0.3223
 4744SOL    HW225695   4.159   2.424   2.160 -0.4744 -0.0328  1.0618
 4745SOL     OW25696   2.409   0.307   1.758  0.0243 -0.8007 -0.2163
 4745SOL    HW125697   2.315   0.305   1.742  0.2063  1.1781 -1.6103
 4745SOL    HW225698   2.445   0.220   1.741  1.2749 -0.1867 -0.7719
 4746SOL     OW25699   1.951   1.625  14.335  0.0724 -0.0200 -0.1865
 4746SOL    HW125700   2.030   1.608  14.387 -0.3227  0.3154  0.5209
 4746SOL    HW225701   1.929   1.717  14.348  0.5437 -0.0234  0.6930
 4747SOL     OW25702   1.926   3.322   7.582  0.1492 -0.3165  0.0244
 4747SOL    HW125703   1.993   3.271   7.628 -0.2478 -0.5875  0.3026
 4747SOL    HW225704   1.902   3.264   7.510 -2.2821 -0.4548  0.9444
 4748SOL     OW25705   2.012   0.913   6.551  0.0154 -0.0352  0.0443
 4748SOL    HW125706   1.977   0.995   6.585 -2.0359 -1.3216  1.0578
 4748SOL    HW225707   1.965   0.845   6.599  1.3706 -0.6904  0.4611
 4749SOL     OW25708   1.639   4.431   8.870 -0.4085 -0.1389  0.2332
 4749SOL    HW125709   1.615   4.493   8.939  2.3958 -0.5652  1.5762
 4749SOL    HW225710   1.693   4.487   8.814  1.3398 -0.5778  1.5047
 4750SOL     OW25711   1.558   3.622  17.197  0.1302 -0.0425 -0.4116
 4750SOL    HW125712   1.554   3.718  17.199  0.7392 -0.0156 -0.6345
 4750SOL    HW225713   1.515   3.609  17.112 -0.7666  0.2195  0.0024
 4751SOL     OW25714   0.350   2.140   6.665  0.2775 -0.2234 -0.5558
 4751SOL    HW125715   0.333   2.187   6.583 -0.5829  1.3010  0.4762
 4751SOL    HW225716   0.323   2.051   6.646 -1.8328  0.7968 -2.3124
 4752SOL     OW25717   3.795   4.517   3.318 -0.1944  0.3646  0.4882
 4752SOL    HW125718   3.724   4.473   3.270 -0.7331  2.4027 -0.5583
 4752SOL    HW225719   3.824   4.435   3.358 -1.2210 -1.4961 -2.5676
 4753SOL     OW25720   4.455   1.203   8.124  0.4247  0.3168  0.0121
 4753SOL    HW125721   4.422   1.255   8.197 -1.0529  1.0974 -1.2113
 4753SOL    HW225722   4.395   1.132   8.104  1.0873 -0.0276 -0.7747
 4754SOL     OW25723   1.070   4.597   3.520  0.0316 -0.7448 -0.0910
 4754SOL    HW125724   1.101   4.682   3.491 -1.1369  0.4305  2.1107
 4754SOL    HW225725   1.141   4.579   3.581  0.5723  1.9611  0.0632
 4755SOL     OW25726   3.277   1.727   0.603 -0.6537  0.6428 -0.1320
 4755SOL    HW125727   3.243   1.745   0.691 -0.0237 -0.3678  0.3019
 4755SOL    HW225728   3.233   1.797   0.554 -0.2583 -0.1128 -1.5456
 4756SOL     OW25729   1.357   2.210  12.975  0.0185 -0.0987  0.2863
 4756SOL    HW125730   1.405   2.243  12.900 -1.4237  1.1191 -0.1076
 4756SOL    HW225731   1.287   2.275  12.977 -0.0098 -0.1422  0.8959
 4757SOL     OW25732   2.028   1.903   9.740 -0.6501  0.3192 -0.0916
 4757SOL    HW125733   2.044   1.982   9.688 -1.3723 -0.2486 -1.1618
 4757SOL    HW225734   2.021   1.840   9.669  1.6018  0.8979 -0.8292
 4758SOL     OW25735   1.419   3.525   5.169  0.1512  0.7285  0.7435
 4758SOL    HW125736   1.359   3.523   5.244 -0.7999  0.6599 -0.0336
 4758SOL    HW225737   1.479   3.595   5.194  2.5660 -0.4867 -1.6813
 4759SOL     OW25738   4.509   0.924   3.547  0.0311 -0.7491 -0.3862
 4759SOL    HW125739   4.598   0.891   3.564  0.6167  1.0076 -0.0808
 4759SOL    HW225740   4.485   0.867   3.473 -2.6659  0.9802 -0.8147
 4760SOL     OW25741   0.106   3.149  13.149  0.2436 -0.0414 -0.9037
 4760SOL    HW125742   0.088   3.097  13.072 -0.0843  1.9640 -2.1911
 4760SOL    HW225743   0.020   3.176  13.181  0.6658 -0.3653  0.5074
 4761SOL     OW25744   0.400   4.484   8.631 -0.2580  0.3231 -0.1421
 4761SOL    HW125745   0.428   4.453   8.718 -2.0580 -2.4577 -0.5764
 4761SOL    HW225746   0.305   4.472   8.636  0.0215 -1.8302  0.1144
 4762SOL     OW25747   2.549   1.790  17.659  0.4220 -0.0876  0.6226
 4762SOL    HW125748   2.472   1.743  17.689 -0.3240 -1.3585 -3.1886
 4762SOL    HW225749   2.582   1.733  17.588 -0.5227  1.2586 -0.8910
 4763SOL     OW25750   2.975   3.410   6.744  0.0178 -0.5571 -0.0866
 4763SOL    HW125751   2.998   3.445   6.658  2.2275 -0.1495  0.6520
 4763SOL    HW225752   2.987   3.493   6.791  3.2614 -0.2013 -1.5323
 4764SOL     OW25753   0.937   4.076   2.155 -0.0741  0.4936  0.1675
 4764SOL    HW125754   0.887   3.995   2.153  0.0867  0.4117 -0.5137
 4764SOL    HW225755   0.889   4.142   2.105 -2.0451 -1.4801 -0.5247
 4765SOL     OW25756   2.857   3.451   5.593 -0.4294 -0.5485 -0.1803
 4765SOL    HW125757   2.948   3.439   5.621 -0.2555  0.3155 -0.3946
 4765SOL    HW225758   2.820   3.515   5.653 -2.2928  0.4096 -2.3771
 4766SOL     OW25759   3.086   3.806   8.062  0.2386 -0.1205  0.0397
 4766SOL    HW125760   2.993   3.814   8.039  0.1285  0.1711  0.5973
 4766SOL    HW225761   3.133   3.821   7.980 -0.7693  2.6873 -0.0070
 4767SOL     OW25762   1.969   3.754   3.434  0.2938 -0.3750  0.3418
 4767SOL    HW125763   2.048   3.701   3.447  0.3701 -0.5031 -0.6430
 4767SOL    HW225764   1.926   3.710   3.361  0.0439  0.5424 -0.0607
 4768SOL     OW25765   3.251   4.062   4.819  0.2748  0.5024 -0.3524
 4768SOL    HW125766   3.191   3.988   4.828  1.6706 -0.5548  0.0876
 4768SOL    HW225767   3.320   4.028   4.763  1.3758  1.2694  0.5402
 4769SOL     OW25768   1.397   0.692   8.549 -0.0489  0.3354 -0.5431
 4769SOL    HW125769   1.377   0.754   8.479  1.5117  0.8417 -0.5405
 4769SOL    HW225770   1.327   0.714   8.610  0.3023  0.4476 -0.1818
 4770SOL     OW25771   2.894   1.413   2.441 -0.4589  0.3371 -0.3773
 4770SOL    HW125772   2.963   1.463   2.484 -1.4259 -0.3129  1.9126
 4770SOL    HW225773   2.907   1.339   2.501  0.6152  0.4548 -0.4591
 4771SOL     OW25774   4.061   1.946   3.088  0.7038  0.4674 -0.1504
 4771SOL    HW125775   4.009   1.908   3.017 -2.5181  0.5787  2.1647
 4771SOL    HW225776   4.022   2.025   3.125  0.3612  2.2128 -4.2251
 4772SOL     OW25777   0.126   0.284  12.314 -0.0408 -0.3101  0.7922
 4772SOL    HW125778   0.072   0.345  12.264  1.3190  0.8785  0.7706
 4772SOL    HW225779   0.214   0.320  12.302 -1.1485  1.6311 -1.4557
 4773SOL     OW25780   0.983   2.411   3.980 -0.1374  0.0429 -0.3318
 4773SOL    HW125781   0.974   2.356   4.057 -1.4079 -2.8706 -2.5909
 4773SOL    HW225782   0.889   2.408   3.961 -0.2869  0.5532  0.3211
 4774SOL     OW25783   2.703   2.344   3.772  0.1256 -0.3678  0.1129
 4774SOL    HW125784   2.767   2.302   3.829 -1.6617 -1.3477  1.4312
 4774SOL    HW225785   2.750   2.316   3.694  0.7127  1.1450 -0.0811
 4775SOL     OW25786   0.992   3.909   3.704 -0.0414 -0.4173  0.1514
 4775SOL    HW125787   0.968   4.001   3.717  0.5335 -0.4372  1.4035
 4775SOL    HW225788   1.064   3.898   3.767  0.4688 -0.7733 -0.4928
 4776SOL     OW25789   1.577   2.218   5.909 -0.4965 -0.2749  0.2259
 4776SOL    HW125790   1.603   2.158   5.979  1.5343  1.9847  1.4182
 4776SOL    HW225791   1.654   2.275   5.915 -1.5781  1.4314 -2.1357
 4777SOL     OW25792   0.996   2.528   8.329 -0.1438 -0.0207 -0.2437
 4777SOL    HW125793   0.986   2.526   8.424 -0.5303  1.4217 -0.2612
 4777SOL    HW225794   0.912   2.490   8.304 -0.5510  0.9398 -0.3159
 4778SOL     OW25795   1.617   4.648  17.058  0.0490 -0.2039  0.2294
 4778SOL    HW125796   1.646   4.560  17.082  0.8337 -0.4611 -1.6638
 4778SOL    HW225797   1.527   4.633  17.086  0.2332  2.0333  1.9972
 4779SOL     OW25798   0.974   1.032   3.483  0.3127  0.2469  0.0340
 4779SOL    HW125799   0.923   0.995   3.411 -0.5049 -0.6499  1.0777
 4779SOL    HW225800   0.914   1.054   3.554 -1.1590  0.6133 -1.3306
 4780SOL     OW25801   0.141   1.654  16.047 -0.7736 -0.4386 -0.3048
 4780SOL    HW125802   0.121   1.611  15.964  3.9171  1.9514 -2.6742
 4780SOL    HW225803   0.110   1.595  16.115  1.9020 -2.3479 -0.7583
 4781SOL     OW25804   2.549   2.145   9.071 -0.2093 -0.8051 -0.2369
 4781SOL    HW125805   2.557   2.072   9.010  3.6876  0.8378 -1.7271
 4781SOL    HW225806   2.509   2.109   9.151 -0.4890 -0.4713 -0.2259
 4782SOL     OW25807   1.561   3.392   2.664 -0.4273 -0.0259  0.2988
 4782SOL    HW125808   1.520   3.438   2.737 -2.7163 -0.2346 -0.8613
 4782SOL    HW225809   1.605   3.321   2.710  0.9182  1.3789  1.1968
 4783SOL     OW25810   2.518   2.289  14.841 -0.2425 -0.4225 -0.2983
 4783SOL    HW125811   2.444   2.233  14.866 -0.2269  0.2305  1.2150
 4783SOL    HW225812   2.496   2.301  14.749 -2.1533  0.9626  0.3264
 4784SOL     OW25813   4.339   2.361   6.729 -0.2790 -0.0936 -0.0797
 4784SOL    HW125814   4.307   2.271   6.728 -0.6147  0.0250  0.1135
 4784SOL    HW225815   4.401   2.347   6.658 -0.1413  0.2230 -0.0196
 4785SOL     OW25816   4.529   3.718  15.978 -0.0551  0.1914  0.2342
 4785SOL    HW125817   4.534   3.632  15.938  1.5671  0.5742 -0.3937
 4785SOL    HW225818   4.502   3.772  15.904 -1.0719  0.1536  0.5830
 4786SOL     OW25819   2.930   0.020   3.097 -0.2778 -0.2124  0.1626
 4786SOL    HW125820   2.912   0.098   3.149  2.2640  0.6961 -0.3362
 4786SOL    HW225821   3.022   0.008   3.120 -0.9410 -1.6936  2.0405
 4787SOL     OW25822   4.209   0.727   5.286 -0.4617  0.3886 -0.3231
 4787SOL    HW125823   4.234   0.744   5.195 -1.3854 -1.3007 -0.8841
 4787SOL    HW225824   4.294   0.704   5.325 -0.1388  2.5010  0.2460
 4788SOL     OW25825   0.568   4.185   2.386  0.0007  0.1002  0.4140
 4788SOL    HW125826   0.566   4.134   2.467 -1.2707 -0.0832  0.2629
 4788SOL    HW225827   0.608   4.268   2.412  1.2628  1.0375 -4.5413
 4789SOL     OW25828   2.234   3.823   2.521 -0.2087 -0.0358 -0.5097
 4789SOL    HW125829   2.186   3.906   2.529 -0.2895 -0.0422 -0.9490
 4789SOL    HW225830   2.164   3.761   2.503 -0.3089  0.3177 -1.3290
 4790SOL     OW25831   4.049   1.739   3.894  0.4611 -0.4960  0.1306
 4790SOL    HW125832   4.015   1.724   3.805  1.9077 -0.4510 -0.4384
 4790SOL    HW225833   4.034   1.652   3.930  2.4601 -1.5635 -1.5392
 4791SOL     OW25834   4.396   0.253   6.544 -0.1248  0.3693  0.3964
 4791SOL    HW125835   4.435   0.335   6.575  0.4050  0.3805 -0.3053
 4791SOL    HW225836   4.452   0.229   6.470 -0.5973 -0.6755  0.3756
 4792SOL     OW25837   3.846   1.553   4.556 -0.1917 -0.6006  0.1804
 4792SOL    HW125838   3.805   1.630   4.518 -0.0978 -0.1510  0.9919
 4792SOL    HW225839   3.807   1.492   4.493 -0.6426 -1.4859  1.3112
 4793SOL     OW25840   1.451   3.997   8.239 -0.5127 -0.7044  0.5566
 4793SOL    HW125841   1.462   3.926   8.303 -0.5789 -1.5719 -0.3872
 4793SOL    HW225842   1.449   3.940   8.163  0.1683 -0.7792  0.5890
 4794SOL     OW25843   1.855   2.501  12.134 -0.4127 -0.2654 -0.5405
 4794SOL    HW125844   1.872   2.559  12.208 -0.3760 -0.6183 -0.2748
 4794SOL    HW225845   1.947   2.499  12.107 -0.2148 -0.6709  0.1789
 4795SOL     OW25846   0.392   1.640   3.994  0.0098  0.4303  0.2830
 4795SOL    HW125847   0.465   1.579   3.980 -1.3007 -1.2267  0.6852
 4795SOL    HW225848   0.335   1.619   3.920  3.8003 -2.5156 -1.8625
 4796SOL     OW25849   1.836   2.639   2.643  0.5134  0.2046  0.0970
 4796SOL    HW125850   1.756   2.592   2.666  0.8625 -0.9927 -1.1336
 4796SOL    HW225851   1.788   2.696   2.583 -2.0567 -1.6382  0.3868
 4797SOL     OW25852   2.681   1.172  13.551 -0.0468 -0.1807  0.0084
 4797SOL    HW125853   2.726   1.169  13.466  0.1772  1.0219  0.0881
 4797SOL    HW225854   2.741   1.216  13.611  0.7531 -1.8375  0.4259
 4798SOL     OW25855   0.306   0.798   4.217  0.1824 -0.4178 -0.4371
 4798SOL    HW125856   0.321   0.860   4.289 -1.5861 -1.1489  0.5854
 4798SOL    HW225857   0.373   0.822   4.154 -1.1263  0.4970 -1.4973
 4799SOL     OW25858   2.335   0.028   9.594  0.5028  0.3442 -0.1780
 4799SOL    HW125859   2.367   4.692   9.530 -0.1372  2.1141 -2.2504
 4799SOL    HW225860   2.277   4.701   9.647 -1.1562  2.4847  0.1783
 4800SOL     OW25861   1.330   4.238  12.943 -0.2529 -0.8886 -0.0205
 4800SOL    HW125862   1.276   4.219  13.019  1.1618 -1.3546  0.8752
 4800SOL    HW225863   1.366   4.325  12.957 -0.6573 -0.9184  1.2120
 4801SOL     OW25864   4.051   0.454   6.094 -0.0910  0.1023  0.2970
 4801SOL    HW125865   3.982   0.498   6.144 -0.0976  1.4388 -0.8945
 4801SOL    HW225866   4.048   0.503   6.012 -0.0141  1.1888  0.9492
 4802SOL     OW25867   2.490   3.345  14.031  0.1823  0.4425 -1.0897
 4802SOL    HW125868   2.411   3.399  14.028 -0.1478  0.2217  2.6976
 4802SOL    HW225869   2.548   3.415  14.058  0.3379  0.3128 -1.0876
 4803SOL     OW25870   1.964   2.654  12.345  0.1392  0.5694  0.0499
 4803SOL    HW125871   2.032   2.713  12.377  1.8318 -2.3151  1.7238
 4803SOL    HW225872   1.880   2.684  12.379  0.1920  0.5071  0.2315
 4804SOL     OW25873   2.260   2.429  11.277  0.2202  0.9282  0.5561
 4804SOL    HW125874   2.322   2.490  11.317  1.2215 -1.0367  1.9680
 4804SOL    HW225875   2.214   2.405  11.357  0.7772  2.2073  1.2690
 4805SOL     OW25876   2.305   3.926   5.914  0.6441 -0.1854  0.4950
 4805SOL    HW125877   2.294   4.004   5.969 -2.4629  0.3550 -0.9396
 4805SOL    HW225878   2.293   3.860   5.983  1.7178 -3.3678 -2.3554
 4806SOL     OW25879   1.380   1.167  14.206 -0.5996 -0.2126 -0.1288
 4806SOL    HW125880   1.376   1.249  14.257  1.6489  0.4218 -0.9769
 4806SOL    HW225881   1.463   1.132  14.240 -0.6539 -0.9771 -0.8063
 4807SOL     OW25882   0.845   1.429   9.342 -0.1673  0.0090 -0.3205
 4807SOL    HW125883   0.848   1.335   9.354  0.0813  0.1763  0.9774
 4807SOL    HW225884   0.784   1.427   9.269 -0.4853  1.3961 -0.1012
 4808SOL     OW25885   3.247   2.885   6.308 -0.3799 -0.0790 -0.5345
 4808SOL    HW125886   3.246   2.956   6.371  2.0181  1.6757 -2.4384
 4808SOL    HW225887   3.342   2.880   6.301 -0.2394  0.1643  1.3767
 4809SOL     OW25888   0.592   3.834  12.492 -0.2734  0.3484 -0.1783
 4809SOL    HW125889   0.560   3.756  12.447 -2.1065  1.2847 -0.4957
 4809SOL    HW225890   0.605   3.792  12.576  0.6436  0.6123 -0.1889
 4810SOL     OW25891   4.580   4.148   6.090 -0.1425  0.4971 -0.2421
 4810SOL    HW125892   4.640   4.076   6.109  0.7481  1.6342  1.3123
 4810SOL    HW225893   4.505   4.124   6.145  0.5009  0.5261  0.6438
 4811SOL     OW25894   0.380   2.801  11.284  0.1407 -0.0990 -0.4431
 4811SOL    HW125895   0.366   2.726  11.226 -0.5817 -0.0281 -0.3521
 4811SOL    HW225896   0.474   2.790  11.298 -0.0850  2.8375  3.4774
 4812SOL     OW25897   2.583   3.785   2.648 -0.1953  0.4816 -0.2920
 4812SOL    HW125898   2.495   3.777   2.686 -0.7504  0.7338 -1.5313
 4812SOL    HW225899   2.630   3.740   2.719 -1.6416  1.6527  1.4136
 4813SOL     OW25900   1.240   3.515   9.266 -0.2290 -0.4912 -0.3800
 4813SOL    HW125901   1.334   3.506   9.282  0.1412  0.7763 -1.8457
 4813SOL    HW225902   1.219   3.526   9.359  1.0646  2.0580 -0.3781
 4814SOL     OW25903   2.774   1.535   3.391 -0.1293 -0.7126  0.3743
 4814SOL    HW125904   2.799   1.443   3.383 -0.2821 -0.6445 -0.9502
 4814SOL    HW225905   2.748   1.556   3.301  0.3462  1.8988  0.8269
 4815SOL     OW25906   3.232   1.797  14.989  0.0558  0.2533  0.7581
 4815SOL    HW125907   3.162   1.837  15.041 -1.7343 -0.6207 -0.9812
 4815SOL    HW225908   3.173   1.770  14.919  3.0365 -1.0328 -1.2502
 4816SOL     OW25909   2.772   2.650   1.814 -0.0155  0.1297 -0.7858
 4816SOL    HW125910   2.827   2.571   1.806 -0.8401 -0.5871  0.6177
 4816SOL    HW225911   2.749   2.653   1.907 -0.9834 -1.4560 -0.9644
 4817SOL     OW25912   3.572   2.082  13.960 -0.6494  0.0782 -0.3665
 4817SOL    HW125913   3.624   2.120  13.889 -0.1023  0.5077  0.2637
 4817SOL    HW225914   3.552   2.156  14.018 -1.3344  0.1026 -0.6368
 4818SOL     OW25915   2.714   1.517   6.885  0.2340  0.5449  0.4327
 4818SOL    HW125916   2.697   1.595   6.832  1.0078 -0.4381 -1.2414
 4818SOL    HW225917   2.806   1.526   6.910  0.2057 -0.6580  0.9843
 4819SOL     OW25918   3.804   3.743   4.379  0.1212  0.0891 -0.4177
 4819SOL    HW125919   3.837   3.795   4.306 -0.2177 -0.6283 -1.0877
 4819SOL    HW225920   3.736   3.795   4.421  0.3647 -0.5885  0.7963
 4820SOL     OW25921   1.740   3.242  11.767  0.1239 -0.1991  0.0464
 4820SOL    HW125922   1.828   3.218  11.736  0.1669 -0.7730  0.6110
 4820SOL    HW225923   1.744   3.205  11.855 -3.9816  0.3258  0.4674
 4821SOL     OW25924   1.426   3.726   9.424 -0.0468  0.0782 -0.3944
 4821SOL    HW125925   1.385   3.718   9.510 -2.8194 -1.2671 -1.8364
 4821SOL    HW225926   1.361   3.781   9.380 -0.4437 -1.2481 -1.4408
 4822SOL     OW25927   2.532   3.096   8.320 -0.1691 -0.7737 -0.1564
 4822SOL    HW125928   2.530   3.116   8.226  0.8352  2.8049  0.6063
 4822SOL    HW225929   2.438   3.097   8.341  0.3170 -2.5368  2.0639
 4823SOL     OW25930   1.654   3.403   7.136 -0.2288  0.2726 -0.2690
 4823SOL    HW125931   1.581   3.460   7.111 -1.9689 -2.0921 -0.6337
 4823SOL    HW225932   1.701   3.395   7.053 -1.5497 -2.2661 -0.7838
 4824SOL     OW25933   1.553   4.561   8.483  0.7004 -0.3649  0.2694
 4824SOL    HW125934   1.630   4.566   8.539 -1.0925  2.6249  2.4703
 4824SOL    HW225935   1.480   4.602   8.530  1.4961  0.3534  0.8710
 4825SOL     OW25936   4.718   1.711   7.125 -0.2555  0.6436 -0.4905
 4825SOL    HW125937   0.081   1.682   7.111 -0.5408 -1.3814  2.0163
 4825SOL    HW225938   4.691   1.660   7.201  1.5576  1.8186  0.9161
 4826SOL     OW25939   0.027   0.732  13.002  0.2240  0.6427  0.4580
 4826SOL    HW125940   4.686   0.798  12.991 -1.7323 -1.4182  0.0477
 4826SOL    HW225941   4.705   0.651  13.020  2.4729 -1.1758 -1.6613
 4827SOL     OW25942   2.138   2.115  15.505 -0.5534 -0.5042 -0.2484
 4827SOL    HW125943   2.185   2.196  15.484 -0.6781  0.2911  2.4652
 4827SOL    HW225944   2.175   2.089  15.590 -1.1250  0.9253  0.4356
 4828SOL     OW25945   4.022   0.838   2.521 -0.1067  0.6982  0.3157
 4828SOL    HW125946   4.110   0.871   2.502  0.8969 -2.7124 -0.9316
 4828SOL    HW225947   3.991   0.796   2.441 -0.6524 -1.1000  1.4583
 4829SOL     OW25948   3.569   3.145  10.178 -0.0690  0.0728  0.2140
 4829SOL    HW125949   3.646   3.201  10.171  0.9409 -1.1353  1.6983
 4829SOL    HW225950   3.522   3.186  10.106 -0.8175  0.3049  0.8325
 4830SOL     OW25951   2.824   2.831   2.816  0.2550 -0.1800  0.0219
 4830SOL    HW125952   2.816   2.743   2.779  0.3465 -0.3532  0.4133
 4830SOL    HW225953   2.843   2.890   2.744  0.6090  2.0509  1.9673
 4831SOL     OW25954   1.140   0.940   8.000  0.3934 -0.1785  0.3336
 4831SOL    HW125955   1.214   0.880   7.986 -0.2797 -0.8657 -0.2408
 4831SOL    HW225956   1.136   0.980   7.913 -1.1422 -0.4285  0.2971
 4832SOL     OW25957   0.288   0.495  14.003  0.3940 -0.1728  0.2968
 4832SOL    HW125958   0.348   0.453  13.941 -0.3808  0.2576 -0.7326
 4832SOL    HW225959   0.319   0.585  14.002  0.8833 -0.3283  1.1085
 4833SOL     OW25960   0.393   2.871   6.352 -0.2718 -0.7170 -0.3817
 4833SOL    HW125961   0.481   2.904   6.334 -0.3636 -0.4463 -0.3345
 4833SOL    HW225962   0.376   2.823   6.271  0.4640 -1.4404 -0.1104
 4834SOL     OW25963   1.038   2.892  13.058 -0.0014  0.4287  0.0129
 4834SOL    HW125964   0.991   2.811  13.077 -0.8300  0.4136 -2.1306
 4834SOL    HW225965   1.123   2.862  13.026  0.1791  0.5936  0.3331
 4835SOL     OW25966   1.634   4.323  16.968  0.0905  0.1737 -0.1854
 4835SOL    HW125967   1.700   4.379  16.927 -0.8684  1.4722  0.0824
 4835SOL    HW225968   1.650   4.341  17.061 -1.0437 -1.3581  0.3198
 4836SOL     OW25969   1.183   0.118   6.352  0.5517 -0.5838 -0.1909
 4836SOL    HW125970   1.190   0.024   6.335  0.0560 -1.2278  3.1747
 4836SOL    HW225971   1.110   0.124   6.413  1.6692 -0.0086  1.0896
 4837SOL     OW25972   4.586   4.488   0.332 -0.2950 -0.2273 -1.3983
 4837SOL    HW125973   4.573   4.519   0.421  0.8270  0.0885 -1.3391
 4837SOL    HW225974   4.678   4.505   0.312  0.4084 -1.1001  1.0904
 4838SOL     OW25975   0.757   3.396   8.976 -0.1441 -0.5438  0.0665
 4838SOL    HW125976   0.703   3.354   9.043 -0.4259  0.0448  0.2061
 4838SOL    HW225977   0.760   3.333   8.904  0.4937  0.1235 -0.4806
 4839SOL     OW25978   0.017   3.291   0.495  0.4103  0.5857  0.3424
 4839SOL    HW125979   0.005   3.212   0.547 -0.0485  1.2698  1.2707
 4839SOL    HW225980   4.660   3.333   0.510  0.9249  0.6467  2.9969
 4840SOL     OW25981   1.481   0.969  16.315 -0.4462  0.1356 -0.0420
 4840SOL    HW125982   1.530   0.908  16.260 -0.3481 -0.4731  0.7154
 4840SOL    HW225983   1.456   1.033  16.248 -0.6854 -0.6784 -0.7284
 4841SOL     OW25984   3.118   3.310  12.386 -0.0319 -0.0723 -0.0255
 4841SOL    HW125985   3.058   3.258  12.440 -1.9497  1.1429 -1.0134
 4841SOL    HW225986   3.092   3.401  12.400  0.5037 -0.0835  1.0432
 4842SOL     OW25987   3.358   4.266   7.305 -0.2683  0.2557 -0.3581
 4842SOL    HW125988   3.451   4.262   7.324 -0.1521  1.0610 -0.7778
 4842SOL    HW225989   3.331   4.355   7.327 -0.1598  1.0758 -3.6080
 4843SOL     OW25990   3.041   2.915   2.207  0.5918 -0.3228  0.4671
 4843SOL    HW125991   2.947   2.910   2.226  0.9151  0.5657  2.3716
 4843SOL    HW225992   3.077   2.972   2.275 -3.0853  2.1843  0.3304
 4844SOL     OW25993   2.535   2.370  15.610 -0.2794 -0.0829 -0.2908
 4844SOL    HW125994   2.578   2.412  15.536 -2.2066  1.7497 -0.3565
 4844SOL    HW225995   2.607   2.320  15.647  0.0954  2.2135  2.0549
 4845SOL     OW25996   1.835   3.016   5.226  0.2819  0.6906 -0.1842
 4845SOL    HW125997   1.882   2.963   5.162 -1.2983  2.0853 -2.4958
 4845SOL    HW225998   1.902   3.034   5.292 -0.8004 -0.1296  1.1314
 4846SOL     OW25999   1.938   0.976   1.601  0.3764  0.2611  0.0974
 4846SOL    HW126000   1.884   0.914   1.650 -0.6325 -0.0254 -1.3585
 4846SOL    HW226001   1.952   0.920   1.524  1.0429 -0.4189  0.7176
 4847SOL     OW26002   1.682   1.851   4.151  0.5708 -0.2909 -0.0596
 4847SOL    HW126003   1.660   1.837   4.060 -0.0058 -1.8155  0.3168
 4847SOL    HW226004   1.606   1.816   4.197 -1.1224 -1.4555 -3.7824
 4848SOL     OW26005   3.334   0.623   4.339 -0.2790  0.4184  0.0670
 4848SOL    HW126006   3.341   0.534   4.304  1.5582  0.9347 -0.8712
 4848SOL    HW226007   3.413   0.630   4.393  0.7711  0.8683 -1.5214
 4849SOL     OW26008   1.611   0.233  14.361  0.1744 -0.0637 -0.3563
 4849SOL    HW126009   1.614   0.328  14.371  0.4077  0.1061 -2.1986
 4849SOL    HW226010   1.571   0.207  14.445  1.1742  0.9400  0.4359
 4850SOL     OW26011   0.214   3.938   3.560  0.4694 -0.1560  0.2540
 4850SOL    HW126012   0.183   4.021   3.524 -0.1524 -0.5459 -0.1127
 4850SOL    HW226013   0.161   3.876   3.509  1.7661 -0.6748 -0.4706
 4851SOL     OW26014   0.803   3.145   5.009 -0.4509  0.1777  0.4101
 4851SOL    HW126015   0.851   3.089   4.948 -0.4707  2.1102 -1.3578
 4851SOL    HW226016   0.728   3.169   4.955 -0.8404  0.0075  0.8713
 4852SOL     OW26017   0.313   1.765   6.345 -0.5335 -0.4349 -0.5975
 4852SOL    HW126018   0.239   1.727   6.297 -1.9324  1.3098  0.1416
 4852SOL    HW226019   0.353   1.816   6.275 -1.1180 -1.5760 -1.7639
 4853SOL     OW26020   1.077   2.877   8.608 -0.4052 -0.1857  0.4403
 4853SOL    HW126021   1.061   2.971   8.607  0.3476 -0.0651 -0.1545
 4853SOL    HW226022   1.065   2.850   8.517  0.0326  1.3670 -0.0768
 4854SOL     OW26023   2.976   2.800   6.360  0.0289 -0.2679  0.0693
 4854SOL    HW126024   2.984   2.708   6.386  0.2422 -1.0088 -2.5680
 4854SOL    HW226025   3.067   2.823   6.341  0.7214 -0.0832  3.6422
 4855SOL     OW26026   1.198   4.128   9.309  0.2003  0.4445 -0.4634
 4855SOL    HW126027   1.161   4.156   9.393 -0.7616 -4.3753  0.7669
 4855SOL    HW226028   1.175   4.204   9.257  0.1664 -0.2598 -1.4881
 4856SOL     OW26029   0.883   1.260   8.760  0.0356 -0.4989 -0.0204
 4856SOL    HW126030   0.917   1.203   8.828  2.3942 -0.2060 -0.9722
 4856SOL    HW226031   0.857   1.196   8.693  0.9610 -0.7012 -0.1838
 4857SOL     OW26032   2.515   4.328   5.130 -0.2366 -0.0723  0.5307
 4857SOL    HW126033   2.473   4.248   5.099  0.0939  0.5031 -1.4036
 4857SOL    HW226034   2.442   4.389   5.142 -1.5965 -1.2668 -1.6044
 4858SOL     OW26035   2.932   0.694   9.748  0.5673  0.1035  0.3800
 4858SOL    HW126036   2.956   0.741   9.668  0.1669 -0.7340 -0.2225
 4858SOL    HW226037   3.008   0.636   9.759  1.4723  1.2384  0.1064
 4859SOL     OW26038   1.334   1.342   4.047  0.2337  0.1623  0.1745
 4859SOL    HW126039   1.428   1.340   4.027 -0.1579  0.6732 -1.7450
 4859SOL    HW226040   1.334   1.334   4.142  2.3233 -2.7894 -0.0528
 4860SOL     OW26041   4.109   3.503  10.135  0.0091 -0.2537 -0.8453
 4860SOL    HW126042   4.154   3.440  10.079 -0.6924 -1.8692  0.3974
 4860SOL    HW226043   4.179   3.568  10.131  0.5771 -0.7925  0.2678
 4861SOL     OW26044   2.562   2.820   7.532 -0.1184 -0.0304 -0.3148
 4861SOL    HW126045   2.616   2.872   7.473  2.1069  0.9322  2.5885
 4861SOL    HW226046   2.625   2.793   7.599  2.4588 -1.6884 -3.4089
 4862SOL     OW26047   0.543   4.532   5.267 -1.0551  0.2475  0.1785
 4862SOL    HW126048   0.549   4.441   5.239  0.9673  0.4808 -0.1545
 4862SOL    HW226049   0.610   4.545   5.335 -0.8862  0.4782 -0.0339
 4863SOL     OW26050   1.465   2.325   4.619 -0.5412  0.4227  0.2426
 4863SOL    HW126051   1.383   2.276   4.630  0.0222 -0.2382  1.5763
 4863SOL    HW226052   1.533   2.257   4.629 -0.8456  0.1186  0.2616
 4864SOL     OW26053   3.444   1.120   9.560 -0.2070  0.4237  0.0598
 4864SOL    HW126054   3.442   1.096   9.468  0.8032  0.3060  0.0757
 4864SOL    HW226055   3.476   1.210   9.559 -1.5181  0.8816 -0.1913
 4865SOL     OW26056   2.512   4.137   3.750  0.5753 -0.3527 -0.6569
 4865SOL    HW126057   2.424   4.152   3.714 -1.3047 -2.8318  3.0348
 4865SOL    HW226058   2.544   4.228   3.745 -1.7735  0.6333  2.6633
 4866SOL     OW26059   3.658   0.389  15.849 -0.0496 -0.3449  0.3211
 4866SOL    HW126060   3.694   0.301  15.855  0.0807 -0.3611 -0.6287
 4866SOL    HW226061   3.565   0.366  15.840 -0.7065  1.4649  2.4708
 4867SOL     OW26062   2.793   2.197   0.337  0.0695  0.1135  0.1503
 4867SOL    HW126063   2.760   2.237   0.417 -2.1962 -0.4516 -0.5192
 4867SOL    HW226064   2.759   2.108   0.348 -1.0209  0.4716 -0.3250
 4868SOL     OW26065   2.967   1.091  14.445  0.4060 -0.2787  0.5490
 4868SOL    HW126066   3.021   1.148  14.498  0.2762 -0.9297  1.3720
 4868SOL    HW226067   2.920   1.036  14.507 -0.9879 -0.3102 -0.5157
 4869SOL     OW26068   0.728   4.605   5.484  0.0405 -0.0644  0.1872
 4869SOL    HW126069   0.692   4.573   5.567  0.3758  0.5118  0.5508
 4869SOL    HW226070   0.744   4.697   5.507 -1.2806  0.2145 -0.0033
 4870SOL     OW26071   2.158   1.322   2.873  0.1019  0.2887  0.0307
 4870SOL    HW126072   2.123   1.233   2.866 -0.4058  0.6679 -2.2978
 4870SOL    HW226073   2.224   1.315   2.942  2.2538 -1.0205 -2.1809
 4871SOL     OW26074   1.767   0.001   6.189 -0.5059  0.3224 -0.0967
 4871SOL    HW126075   1.691   4.708   6.134 -0.6350 -1.0426  0.5966
 4871SOL    HW226076   1.720   0.026   6.269 -2.2542  1.6191 -1.5106
 4872SOL     OW26077   4.705   2.405  17.615  0.1337 -0.0762 -0.2106
 4872SOL    HW126078   4.625   2.412  17.667  1.7311  2.2805  1.9131
 4872SOL    HW226079   4.689   2.317  17.581 -1.0907 -0.1186  0.4791
 4873SOL     OW26080   2.828   0.170   7.924 -0.4458  0.2449 -0.2001
 4873SOL    HW126081   2.893   0.101   7.915  0.0088  0.3630  2.0371
 4873SOL    HW226082   2.885   0.246   7.913  0.4066 -0.3533  0.1106
 4874SOL     OW26083   0.619   1.215   5.642  0.2752  0.1326  0.4641
 4874SOL    HW126084   0.557   1.287   5.643  1.2761  0.9651  1.9704
 4874SOL    HW226085   0.554   1.145   5.652 -0.4960  0.9207  0.9063
 4875SOL     OW26086   0.018   0.934  13.497  0.0121  0.7636 -0.1654
 4875SOL    HW126087   0.070   1.014  13.498 -3.5615  3.0604  1.2073
 4875SOL    HW226088   0.008   0.926  13.402 -0.1508  2.5727 -0.3015
 4876SOL     OW26089   0.163   3.261   3.846 -0.6156  0.2888  0.2939
 4876SOL    HW126090   0.246   3.216   3.830  0.0232  1.2565  0.8465
 4876SOL    HW226091   0.139   3.279   3.755  0.7399 -1.7375 -0.4677
 4877SOL     OW26092   0.655   0.938   6.675  0.1865 -0.0724 -0.3355
 4877SOL    HW126093   0.682   1.015   6.725  0.1649 -0.8295  0.8488
 4877SOL    HW226094   0.671   0.975   6.589  0.6809 -2.2595 -1.1841
 4878SOL     OW26095   4.681   1.869  12.763  0.2763  0.9232  0.6200
 4878SOL    HW126096   4.720   1.945  12.721 -0.7896  0.6117 -0.9526
 4878SOL    HW226097   4.689   1.810  12.688  0.4275  0.1656  1.2204
 4879SOL     OW26098   4.012   1.260   8.297 -0.6026 -0.1868 -0.1662
 4879SOL    HW126099   4.039   1.280   8.208  2.6919 -0.3198  0.8318
 4879SOL    HW226100   3.919   1.285   8.296 -0.7360 -0.6699  0.2989
 4880SOL     OW26101   3.571   1.588   5.015  0.3606 -0.1761  0.1304
 4880SOL    HW126102   3.533   1.674   5.002  0.2612 -0.6320 -2.5915
 4880SOL    HW226103   3.513   1.533   4.961 -0.0263 -0.0450  0.4202
 4881SOL     OW26104   1.570   3.904   4.970  0.2068  0.3799  0.1011
 4881SOL    HW126105   1.503   3.919   5.037  0.0990 -0.1447  0.1169
 4881SOL    HW226106   1.610   3.990   4.960 -0.3095  0.5018 -0.8982
 4882SOL     OW26107   0.862   0.245  15.458 -0.2640  0.2626 -0.2005
 4882SOL    HW126108   0.956   0.257  15.446 -0.2315 -1.3019 -1.5008
 4882SOL    HW226109   0.854   0.265  15.551  2.9879  2.8969 -0.4700
 4883SOL     OW26110   1.307   2.999   2.627 -0.1098  0.1232  0.3395
 4883SOL    HW126111   1.323   2.914   2.668  0.2594  1.1637  2.3859
 4883SOL    HW226112   1.261   2.974   2.547  2.4179  1.1799 -1.4442
 4884SOL     OW26113   0.572   4.532   1.808 -0.2408  0.2985 -0.0529
 4884SOL    HW126114   0.526   4.491   1.735 -1.2045  1.8876 -0.3287
 4884SOL    HW226115   0.644   4.472   1.829 -2.0138 -2.2890 -1.4283
 4885SOL     OW26116   3.293   4.365   5.844 -0.4232 -0.5052 -0.2584
 4885SOL    HW126117   3.359   4.434   5.853 -2.7135  1.7202 -0.6043
 4885SOL    HW226118   3.346   4.294   5.880 -0.4950 -0.3838  0.0930
 4886SOL     OW26119   2.252   1.770   4.146  0.2951 -0.0531  0.5010
 4886SOL    HW126120   2.333   1.755   4.098  1.2065  2.5825  1.2374
 4886SOL    HW226121   2.266   1.863   4.164  1.1748  0.4007 -2.4512
 4887SOL     OW26122   3.460   0.564   2.299 -0.0671  0.0213 -0.5649
 4887SOL    HW126123   3.467   0.646   2.348 -1.8926 -1.6599  2.4616
 4887SOL    HW226124   3.537   0.512   2.324 -2.0763 -1.4263  2.4727
 4888SOL     OW26125   4.117   2.812   4.983  0.6381 -0.3473 -0.2416
 4888SOL    HW126126   4.054   2.872   4.943 -0.4767 -1.5291 -0.2623
 4888SOL    HW226127   4.130   2.853   5.068  1.4170 -2.7908  0.8262
 4889SOL     OW26128   1.662   3.493   9.545  0.0450  0.1162 -0.0298
 4889SOL    HW126129   1.711   3.470   9.624 -0.3759 -1.7241 -0.2968
 4889SOL    HW226130   1.680   3.587   9.545  0.8546 -0.0337 -0.2572
 4890SOL     OW26131   2.762   2.329  17.402  0.2440  0.1165 -0.2679
 4890SOL    HW126132   2.752   2.416  17.440  1.2423  0.2056 -0.2030
 4890SOL    HW226133   2.714   2.282  17.470 -2.0943 -0.5107 -2.3582
 4891SOL     OW26134   3.647   2.428   0.693 -0.0065  0.0297 -0.1241
 4891SOL    HW126135   3.740   2.414   0.714  0.2620  1.8229 -0.1300
 4891SOL    HW226136   3.629   2.344   0.650 -0.2340  0.6470 -1.2378
 4892SOL     OW26137   2.814   0.988   0.956  0.4820  0.3279 -0.1702
 4892SOL    HW126138   2.788   1.035   0.878 -0.8648  0.4061  0.3201
 4892SOL    HW226139   2.764   0.909   0.935  1.0800  0.3757 -1.7386
 4893SOL     OW26140   0.800   4.712  15.659  0.4258  0.0295  0.0048
 4893SOL    HW126141   0.797   0.080  15.668  0.5268  0.0593 -0.2629
 4893SOL    HW226142   0.711   4.687  15.634 -0.1280  2.5932 -0.4951
 4894SOL     OW26143   3.702   1.916   4.643 -0.4998 -0.3044 -0.0648
 4894SOL    HW126144   3.696   1.903   4.738  0.7604 -3.0576 -0.3496
 4894SOL    HW226145   3.793   1.941   4.630 -0.9376  1.5346  0.3865
 4895SOL     OW26146   0.813   4.158   3.737 -0.1630  0.2364 -0.3736
 4895SOL    HW126147   0.878   4.165   3.807  0.3455  2.6575 -1.0827
 4895SOL    HW226148   0.747   4.223   3.762 -2.6795 -1.2492 -3.0988
 4896SOL     OW26149   0.584   3.418  13.713 -0.0299 -0.7152  0.3053
 4896SOL    HW126150   0.676   3.430  13.735  1.3238  0.2065 -5.9525
 4896SOL    HW226151   0.579   3.338  13.661 -0.8548  0.3650 -1.2763
 4897SOL     OW26152   3.501   4.393   6.114 -0.1006  0.1878 -0.0292
 4897SOL    HW126153   3.485   4.487   6.103 -0.0191  0.0459 -1.3201
 4897SOL    HW226154   3.590   4.396   6.079 -1.1638  1.7016 -2.5239
 4898SOL     OW26155   3.973   3.083   2.598 -0.5825 -0.6281 -0.2668
 4898SOL    HW126156   3.890   3.042   2.619 -2.1619  0.6001 -4.0297
 4898SOL    HW226157   4.032   3.058   2.669 -1.0024  0.7357  0.5478
 4899SOL     OW26158   1.369   3.165  14.923 -0.1671  0.1725 -0.2979
 4899SOL    HW126159   1.280   3.197  14.942  1.1825  1.7568  3.2341
 4899SOL    HW226160   1.367   3.103  14.995 -3.3993 -0.9541 -1.3245
 4900SOL     OW26161   2.021   2.229  12.038 -0.6054  0.4330 -0.6245
 4900SOL    HW126162   1.942   2.253  11.990  1.5785 -0.3018 -4.5756
 4900SOL    HW226163   2.067   2.312  12.051  1.9561 -1.2956  1.4331
 4901SOL     OW26164   1.883   0.019   3.624 -0.4558 -0.0184 -0.1516
 4901SOL    HW126165   1.809   0.010   3.684 -0.6621 -2.7018 -0.7904
 4901SOL    HW226166   1.829   0.040   3.548  0.2144 -1.4132 -1.0136
 4902SOL     OW26167   1.139   1.298   7.923  0.4365  0.3571  0.0238
 4902SOL    HW126168   1.094   1.241   7.986  0.9289 -0.3012 -0.2105
 4902SOL    HW226169   1.222   1.313   7.970  1.6359 -1.3442 -1.5648
 4903SOL     OW26170   0.062   2.606   0.232  0.6038 -0.3922  0.4352
 4903SOL    HW126171   0.156   2.623   0.228  0.3683  1.2275  1.8782
 4903SOL    HW226172   0.036   2.657   0.309 -0.8585 -0.9986  0.3493
 4904SOL     OW26173   1.378   3.994   5.166  0.2246  0.1335 -0.1113
 4904SOL    HW126174   1.431   4.058   5.215  0.2872  0.3151 -0.4168
 4904SOL    HW226175   1.344   3.946   5.241 -0.2857 -1.0055 -1.0726
 4905SOL     OW26176   1.204   3.875  14.805  0.1267 -0.6516  0.3417
 4905SOL    HW126177   1.132   3.910  14.754  1.9002 -0.4180 -2.0103
 4905SOL    HW226178   1.166   3.880  14.893  0.2021  0.8583  0.2887
 4906SOL     OW26179   1.613   1.992   0.528 -0.4278 -0.3415 -0.5066
 4906SOL    HW126180   1.531   1.970   0.572  0.1978 -1.0086  0.3033
 4906SOL    HW226181   1.571   2.054   0.468 -0.9296  0.4319  0.6490
 4907SOL     OW26182   1.277   4.322  12.450 -0.0294 -1.0718 -0.1753
 4907SOL    HW126183   1.182   4.323  12.435 -0.0271 -1.8535 -0.2231
 4907SOL    HW226184   1.273   4.327  12.545  0.3644  0.0366 -0.2141
 4908SOL     OW26185   1.848   3.583  15.709 -0.3360  0.0337  0.0141
 4908SOL    HW126186   1.790   3.655  15.685 -1.6065 -0.9271  0.2129
 4908SOL    HW226187   1.790   3.515  15.677  1.4218 -1.2302 -0.5153
 4909SOL     OW26188   3.618   1.554   8.567 -0.3307  0.2539 -0.0804
 4909SOL    HW126189   3.599   1.551   8.473 -0.3360  1.7136 -0.1331
 4909SOL    HW226190   3.540   1.606   8.590  0.4929  1.5140 -0.1578
 4910SOL     OW26191   1.394   1.555   3.461  0.1486  0.6164  0.7702
 4910SOL    HW126192   1.488   1.574   3.466  0.0779  0.6343  1.9865
 4910SOL    HW226193   1.407   1.470   3.418  0.8185  1.4870 -0.7499
 4911SOL     OW26194   0.295   2.966   2.455  0.0193 -0.1114 -0.4384
 4911SOL    HW126195   0.388   2.959   2.479 -0.2209 -1.9070  0.0275
 4911SOL    HW226196   0.284   2.897   2.390 -1.2296 -0.7438  0.4353
 4912SOL     OW26197   0.489   1.504   7.838 -0.0159 -0.1832  0.0156
 4912SOL    HW126198   0.413   1.514   7.781  0.3616 -0.0114 -0.4626
 4912SOL    HW226199   0.529   1.591   7.837  0.3343 -0.3413 -0.0510
 4913SOL     OW26200   1.932   4.645   2.320 -0.0138 -0.6360  0.3216
 4913SOL    HW126201   2.020   4.608   2.315  0.7705  1.1575  1.0330
 4913SOL    HW226202   1.902   4.678   2.236  1.9486  0.9947  0.2792
 4914SOL     OW26203   3.334   2.189   4.563  0.3302  0.5492  0.2620
 4914SOL    HW126204   3.422   2.226   4.558  1.2915 -1.7692  0.2559
 4914SOL    HW226205   3.340   2.104   4.519  1.1807  0.3861  0.6982
 4915SOL     OW26206   1.761   2.577   8.583 -0.0712  0.3385 -0.3055
 4915SOL    HW126207   1.667   2.579   8.566 -0.3229 -0.7136  0.8753
 4915SOL    HW226208   1.755   2.590   8.678  3.6310  0.4670 -0.0761
 4916SOL     OW26209   0.402   2.714   3.692  0.6633 -0.0936 -0.6190
 4916SOL    HW126210   0.367   2.665   3.766  1.5695  2.1637  1.2640
 4916SOL    HW226211   0.401   2.647   3.623  1.7697  0.5381 -1.2546
 4917SOL     OW26212   3.846   4.435  15.110  0.0974 -0.1867  0.3726
 4917SOL    HW126213   3.866   4.342  15.100 -1.0895 -0.5614  1.4768
 4917SOL    HW226214   3.910   4.477  15.052  0.4415  0.7725  1.4470
 4918SOL     OW26215   3.713   0.123   6.239  0.1585 -0.6267  0.1097
 4918SOL    HW126216   3.667   0.196   6.198 -1.5561 -0.3165  2.5753
 4918SOL    HW226217   3.794   0.169   6.262  2.0344 -3.0095 -1.6962
 4919SOL     OW26218   4.140   1.063   0.127 -0.1692  0.1403  0.1524
 4919SOL    HW126219   4.067   1.018   0.171 -1.3263  0.6121 -1.2762
 4919SOL    HW226220   4.201   0.995   0.097 -0.3910  1.1296 -2.5639
 4920SOL     OW26221   2.158   1.748   7.190  1.1933  0.8323 -0.1414
 4920SOL    HW126222   2.108   1.819   7.151  0.7218  0.8135  0.4362
 4920SOL    HW226223   2.195   1.791   7.268  0.0672  1.0362  0.2735
 4921SOL     OW26224   0.226   1.517   4.642 -0.3952 -0.1431  0.6921
 4921SOL    HW126225   0.141   1.473   4.642 -0.3200 -0.2804 -1.0072
 4921SOL    HW226226   0.289   1.451   4.615 -0.6891 -0.6962  1.3543
 4922SOL     OW26227   1.510   3.277  16.548  0.6015  0.0782  0.1432
 4922SOL    HW126228   1.545   3.263  16.460 -0.0631 -0.2807 -0.0729
 4922SOL    HW226229   1.589   3.288  16.600  2.2216 -1.1197 -2.0431
 4923SOL     OW26230   4.555   1.163   4.063  0.3124  0.1233 -0.2446
 4923SOL    HW126231   4.564   1.186   4.155 -1.3618 -0.8423  0.1655
 4923SOL    HW226232   4.574   1.247   4.022 -2.2698  1.2499  0.8412
 4924SOL     OW26233   1.238   3.533  10.103  0.0040 -0.4771  0.2966
 4924SOL    HW126234   1.279   3.618  10.121 -0.0480 -0.7695  1.8183
 4924SOL    HW226235   1.298   3.498  10.037  0.8720  0.7417  0.4470
 4925SOL     OW26236   1.580   1.680   3.189 -0.0010  0.3216  0.4948
 4925SOL    HW126237   1.652   1.636   3.234 -1.2593 -1.3315  0.8995
 4925SOL    HW226238   1.565   1.617   3.119 -2.4719  0.5327  0.8396
 4926SOL     OW26239   1.498   2.941   3.626  0.6645 -0.8967  0.5550
 4926SOL    HW126240   1.439   3.009   3.593  1.2238 -0.0511  1.3045
 4926SOL    HW226241   1.579   2.945   3.575  1.9908 -1.8590  2.5874
 4927SOL     OW26242   2.322   2.460  16.224 -0.3519 -0.4867  0.1507
 4927SOL    HW126243   2.362   2.382  16.263  0.1372 -0.0120  0.5890
 4927SOL    HW226244   2.231   2.445  16.250 -0.9042  1.3279 -0.7614
 4928SOL     OW26245   1.022   1.617  12.626  0.0235  0.1000 -0.4222
 4928SOL    HW126246   0.992   1.658  12.707  0.4067 -2.3862  0.9796
 4928SOL    HW226247   1.086   1.554  12.659 -0.9792  1.1116  3.4846
 4929SOL     OW26248   3.979   3.733  10.743 -0.1607 -0.2599  0.6917
 4929SOL    HW126249   3.995   3.770  10.656 -1.8435  0.2273  0.5758
 4929SOL    HW226250   4.071   3.724  10.766  0.0558 -1.1050 -0.5277
 4930SOL     OW26251   2.404   3.612   1.845  0.4114 -0.1277 -0.5026
 4930SOL    HW126252   2.490   3.582   1.815  1.2371  0.7650  1.0400
 4930SOL    HW226253   2.352   3.534   1.865 -1.9370  0.7632 -3.0387
 4931SOL     OW26254   1.857   2.454   0.359 -0.2647 -0.3637  0.1048
 4931SOL    HW126255   1.765   2.450   0.385 -0.5261  0.2698 -0.6930
 4931SOL    HW226256   1.871   2.545   0.388 -1.0459  0.3325 -1.6829
 4932SOL     OW26257   1.379   2.517  12.790  0.0591 -0.5774  0.1358
 4932SOL    HW126258   1.370   2.528  12.695  1.1381  1.3891  0.2529
 4932SOL    HW226259   1.290   2.495  12.816 -0.9684  1.3846 -1.6078
 4933SOL     OW26260   3.292   2.711   8.060 -0.3556 -0.0172 -0.1729
 4933SOL    HW126261   3.308   2.787   8.004  1.6091  0.4261  0.9766
 4933SOL    HW226262   3.286   2.762   8.141  0.9396 -0.6910  0.3489
 4934SOL     OW26263   2.203   3.961   0.552 -0.1027  0.4083  0.0398
 4934SOL    HW126264   2.202   3.867   0.535  2.1131  0.4971 -0.6172
 4934SOL    HW226265   2.204   3.993   0.462 -1.9013  1.3221  0.3493
 4935SOL     OW26266   1.012   4.233   8.358  0.0933  0.4461  0.1032
 4935SOL    HW126267   0.978   4.300   8.298  1.1173  0.8321 -0.0531
 4935SOL    HW226268   1.106   4.246   8.343  0.0383 -0.5522 -1.0560
 4936SOL     OW26269   4.258   0.791   9.532  0.3750 -0.2674 -0.5745
 4936SOL    HW126270   4.348   0.815   9.557 -0.1167  1.1013 -0.1399
 4936SOL    HW226271   4.224   0.871   9.493 -0.5068  0.0793  0.9063
 4937SOL     OW26272   2.432   4.132   2.826 -0.0222 -0.0672  0.4133
 4937SOL    HW126273   2.392   4.150   2.911 -0.7903 -1.3316  0.3107
 4937SOL    HW226274   2.372   4.158   2.756  0.5148 -0.0267 -0.0349
 4938SOL     OW26275   4.385   1.734   2.129  0.3307  0.2572  0.0946
 4938SOL    HW126276   4.347   1.664   2.076  1.5535 -0.1111 -0.2983
 4938SOL    HW226277   4.409   1.693   2.213 -1.5049 -0.0481  0.4730
 4939SOL     OW26278   1.576   0.281   9.435 -0.3665  0.3904  0.5485
 4939SOL    HW126279   1.607   0.334   9.508  0.6939 -1.7293  1.6613
 4939SOL    HW226280   1.663   0.262   9.401 -1.3147  0.7098 -2.0501
 4940SOL     OW26281   2.843   1.929   3.432  0.2120  0.2462  0.1144
 4940SOL    HW126282   2.797   1.847   3.412  1.7379  0.1567 -3.0493
 4940SOL    HW226283   2.845   1.970   3.346  0.3066 -0.6549 -0.3101
 4941SOL     OW26284   3.289   2.884  16.732  0.3511 -0.1043  0.1000
 4941SOL    HW126285   3.368   2.930  16.760 -1.2189  2.1500  0.7581
 4941SOL    HW226286   3.223   2.949  16.754 -0.5997 -0.5534 -1.4270
 4942SOL     OW26287   0.776   2.388   8.268  0.1526 -0.2905 -0.0319
 4942SOL    HW126288   0.690   2.425   8.247  1.0559  1.8354  0.1206
 4942SOL    HW226289   0.748   2.297   8.253  0.5511 -0.6300  1.2376
 4943SOL     OW26290   2.722   2.227   1.588 -0.2634 -0.0650  0.0674
 4943SOL    HW126291   2.669   2.290   1.538  1.2197  1.2641  0.1650
 4943SOL    HW226292   2.748   2.281   1.663 -3.1546 -0.3579  1.2643
 4944SOL     OW26293   1.754   1.783  17.071 -0.6264  0.1591  0.6383
 4944SOL    HW126294   1.662   1.804  17.057 -0.8201  0.8040  2.8303
 4944SOL    HW226295   1.765   1.733  16.991 -2.0472  2.5115 -1.0048
 4945SOL     OW26296   2.591   2.676   3.380 -0.0312 -0.1445 -0.0646
 4945SOL    HW126297   2.519   2.615   3.370 -1.7590  1.7630  0.8670
 4945SOL    HW226298   2.663   2.613   3.385  0.0550 -0.0621 -0.2282
 4946SOL     OW26299   3.171   4.048   9.145  0.2150 -0.2426 -0.3713
 4946SOL    HW126300   3.189   3.988   9.072  0.9827 -1.7111  1.0200
 4946SOL    HW226301   3.077   4.062   9.144  0.0198 -1.5287  0.1814
 4947SOL     OW26302   0.087   2.408   5.132 -0.2879  0.3711 -0.0546
 4947SOL    HW126303   0.110   2.441   5.219 -2.9108  1.2934  0.2972
 4947SOL    HW226304   0.148   2.338   5.110 -0.9094 -0.0713 -0.3750
 4948SOL     OW26305   0.948   0.477   6.236  0.4173 -0.0607  0.6743
 4948SOL    HW126306   0.864   0.471   6.281 -0.5988  1.3966 -0.9951
 4948SOL    HW226307   1.008   0.462   6.308  0.5888 -3.1671 -0.1478
 4949SOL     OW26308   1.320   0.722   4.351 -0.1793 -0.3894  0.3847
 4949SOL    HW126309   1.260   0.779   4.399 -1.5638 -0.9056 -0.7484
 4949SOL    HW226310   1.391   0.734   4.414  1.1314  0.5032 -1.2401
 4950SOL     OW26311   2.092   3.553   2.148 -0.1640 -0.3316 -0.0591
 4950SOL    HW126312   2.162   3.505   2.192  0.9957  1.5255  0.0938
 4950SOL    HW226313   2.142   3.624   2.109  0.0713 -1.3171 -1.5765
 4951SOL     OW26314   4.521   0.388  13.618  0.1750  0.3145 -0.2863
 4951SOL    HW126315   4.544   0.479  13.634  1.6708  0.0372 -0.9196
 4951SOL    HW226316   4.594   0.337  13.585  1.6055  2.1525  0.0582
 4952SOL     OW26317   1.710   0.883   5.643  0.2254 -0.1564 -0.4194
 4952SOL    HW126318   1.669   0.898   5.729 -0.9306  1.8949 -1.3202
 4952SOL    HW226319   1.804   0.898   5.656 -0.0316  2.3040 -1.3523
 4953SOL     OW26320   4.220   1.825  12.367  0.2176 -0.5205  0.4425
 4953SOL    HW126321   4.223   1.910  12.323  0.6560 -2.2009 -2.8092
 4953SOL    HW226322   4.134   1.815  12.407  1.0453 -0.2967  2.2554
 4954SOL     OW26323   0.938   3.118   4.543 -0.5884  0.3911  0.3278
 4954SOL    HW126324   0.913   3.172   4.468 -1.9821  0.4000  0.7907
 4954SOL    HW226325   0.983   3.051   4.492 -2.1444 -1.4139  1.3022
 4955SOL     OW26326   4.020   4.490   8.687 -0.3374  0.3247 -0.3699
 4955SOL    HW126327   3.990   4.417   8.742 -2.2077  1.4283  0.0606
 4955SOL    HW226328   3.984   4.561   8.741 -0.5004  0.7932 -1.1061
 4956SOL     OW26329   4.077   4.489   3.830 -0.0378  0.6288 -0.4716
 4956SOL    HW126330   3.983   4.477   3.846  0.0662  0.8143  0.2964
 4956SOL    HW226331   4.085   4.490   3.735  3.0522 -0.2957 -0.2171
 4957SOL     OW26332   3.619   4.244   4.844  0.5523 -0.0708 -0.2010
 4957SOL    HW126333   3.689   4.265   4.781  0.7242  1.8910  0.6599
 4957SOL    HW226334   3.561   4.319   4.832 -0.4265 -0.9389 -0.8264
 4958SOL     OW26335   0.657   0.325   1.583  0.9017 -0.3463 -0.3848
 4958SOL    HW126336   0.697   0.368   1.659 -1.5045  0.0288  0.6665
 4958SOL    HW226337   0.724   0.266   1.549  2.3318  1.0421 -0.0045
 4959SOL     OW26338   3.126   1.650  15.801  0.0293 -0.0727 -0.4973
 4959SOL    HW126339   3.160   1.729  15.843 -0.5256  0.6628 -1.4389
 4959SOL    HW226340   3.035   1.675  15.784  0.3291  1.8479  0.8226
 4960SOL     OW26341   4.385   4.515   6.492 -0.0521  0.0246  0.3857
 4960SOL    HW126342   4.339   4.508   6.409 -1.7162  0.9286  1.2145
 4960SOL    HW226343   4.464   4.463   6.485 -0.9253 -0.9230 -2.1301
 4961SOL     OW26344   0.233   0.879  13.072  0.3524  0.1008  0.2273
 4961SOL    HW126345   0.175   0.803  13.062  1.7128 -0.9370  0.1330
 4961SOL    HW226346   0.171   0.924  13.128 -0.3691 -1.4511  0.6929
 4962SOL     OW26347   2.265   3.650  14.597 -0.0498 -0.3334  0.1487
 4962SOL    HW126348   2.303   3.716  14.539 -2.3901 -1.0385 -2.1738
 4962SOL    HW226349   2.261   3.581  14.531  2.1666 -0.9421  0.6537
 4963SOL     OW26350   1.296   3.070   3.158  0.3733  0.9962  0.2448
 4963SOL    HW126351   1.266   3.140   3.100 -0.6513 -1.0589 -1.7203
 4963SOL    HW226352   1.370   3.109   3.203  3.0055 -1.2084 -2.1841
 4964SOL     OW26353   1.436   2.885   6.736  0.2294  0.1176 -0.1251
 4964SOL    HW126354   1.369   2.949   6.713 -1.9302 -2.5317 -1.1333
 4964SOL    HW226355   1.462   2.920   6.822  0.0592 -0.5086  0.1823
 4965SOL     OW26356   0.569   1.643  16.174  0.4429 -0.4766  0.3055
 4965SOL    HW126357   0.577   1.562  16.124  0.2329  0.7680 -1.7285
 4965SOL    HW226358   0.474   1.654  16.180  0.6940  2.7434 -1.6628
 4966SOL     OW26359   1.165   4.545   9.007 -0.2441 -0.5031 -0.0008
 4966SOL    HW126360   1.153   4.636   9.032 -0.2267 -0.1088 -1.3985
 4966SOL    HW226361   1.169   4.546   8.911 -1.4568 -1.9311 -0.0819
 4967SOL     OW26362   0.467   0.421  13.806  0.6787  0.2209 -0.0471
 4967SOL    HW126363   0.419   0.452  13.729  0.4623 -1.4501 -0.5757
 4967SOL    HW226364   0.514   0.342  13.780  0.2332 -0.4403  1.1371
 4968SOL     OW26365   4.643   2.946   6.335  0.7054 -0.3516  0.1509
 4968SOL    HW126366   4.722   2.999   6.345  0.3013  0.3319 -0.2687
 4968SOL    HW226367   4.629   2.956   6.241 -1.8527  2.2779  0.8143
 4969SOL     OW26368   1.041   0.069  14.949 -0.2133  0.0124  0.3512
 4969SOL    HW126369   0.972   0.031  14.895  1.6818  0.0412 -2.0718
 4969SOL    HW226370   0.989   0.092  15.026 -1.3743 -1.2925 -0.0552
 4970SOL     OW26371   0.151   1.872   5.570 -0.1445  0.5726  0.5243
 4970SOL    HW126372   0.150   1.961   5.533 -0.7137  0.1058 -0.5978
 4970SOL    HW226373   0.210   1.828   5.508 -0.1466  0.7234  0.4127
 4971SOL     OW26374   0.656   3.266   3.973  0.6175  0.2134  0.2975
 4971SOL    HW126375   0.600   3.336   4.007  0.1954 -0.7169  1.5295
 4971SOL    HW226376   0.653   3.280   3.879  0.4818 -0.2843  0.2323
 4972SOL     OW26377   3.235   4.338  12.584  0.0040 -0.4656 -0.1410
 4972SOL    HW126378   3.238   4.345  12.488 -1.6298  0.9696 -0.0801
 4972SOL    HW226379   3.287   4.259  12.598  0.5370 -0.5653 -2.6021
 4973SOL     OW26380   2.342   3.069  11.682 -0.5230  0.4496 -0.6814
 4973SOL    HW126381   2.395   3.090  11.759 -0.3827  2.9520 -1.4597
 4973SOL    HW226382   2.306   2.984  11.704  0.7624 -0.6467 -2.7629
 4974SOL     OW26383   4.248   1.507   5.236  0.4634  0.0492  0.2485
 4974SOL    HW126384   4.182   1.525   5.302  0.6220 -1.8099  0.9112
 4974SOL    HW226385   4.209   1.557   5.164  0.0356  2.4428  2.1506
 4975SOL     OW26386   3.898   3.932   8.557  0.1403  0.0537  0.2842
 4975SOL    HW126387   3.888   3.843   8.591  0.6675 -0.3510 -0.6075
 4975SOL    HW226388   3.959   3.919   8.484 -0.7779 -0.6330 -0.3583
 4976SOL     OW26389   0.910   2.985   6.157  0.0866  0.1726 -0.9107
 4976SOL    HW126390   0.970   2.996   6.230  0.4929 -1.0266 -1.0583
 4976SOL    HW226391   0.908   3.073   6.118 -0.3982  0.3768 -0.4159
 4977SOL     OW26392   1.533   0.693  16.220 -0.1735  0.3109 -0.1211
 4977SOL    HW126393   1.480   0.661  16.148  1.3100 -0.6783 -0.7522
 4977SOL    HW226394   1.607   0.632  16.222  0.5243  1.1523 -0.2341
 4978SOL     OW26395   4.136   0.969   2.829  0.2184  0.5861  0.0573
 4978SOL    HW126396   4.200   0.948   2.897 -0.7002  0.8015  1.0032
 4978SOL    HW226397   4.122   1.063   2.842 -0.0530  0.5459  0.0635
 4979SOL     OW26398   2.728   2.585  13.036 -0.6362 -0.3898 -0.9117
 4979SOL    HW126399   2.757   2.523  13.102  0.4261 -0.8931 -1.8500
 4979SOL    HW226400   2.635   2.573  13.055 -0.3367  0.7081  1.2235
 4980SOL     OW26401   2.916   2.674   7.275 -0.1442  0.1445 -0.9497
 4980SOL    HW126402   2.988   2.736   7.289 -0.4905  0.5617 -1.0242
 4980SOL    HW226403   2.960   2.589   7.267 -1.6410 -0.8635  1.6122
 4981SOL     OW26404   2.781   3.168   9.302  0.4795  0.0043 -0.0128
 4981SOL    HW126405   2.752   3.103   9.238 -0.6308 -1.0057  1.5046
 4981SOL    HW226406   2.715   3.236   9.286  0.7002  0.5577  1.4256
 4982SOL     OW26407   4.623   1.437   7.602 -0.1169 -0.0524 -0.1059
 4982SOL    HW126408   4.651   1.495   7.672 -1.7788  0.3739  0.2038
 4982SOL    HW226409   4.571   1.373   7.649  0.4175  1.0777  1.9963
 4983SOL     OW26410   2.115   4.406  13.887  0.3545 -0.1625  0.2583
 4983SOL    HW126411   2.123   4.481  13.945 -0.9761 -1.3521  1.9691
 4983SOL    HW226412   2.101   4.444  13.800  1.5209 -2.0844 -0.7857
 4984SOL     OW26413   4.554   3.201   8.450 -0.1211  0.6198  0.7429
 4984SOL    HW126414   4.471   3.175   8.489 -0.4592  0.0884 -0.3557
 4984SOL    HW226415   4.586   3.111   8.443 -2.8392 -0.0952 -2.3103
 4985SOL     OW26416   2.786   1.277   4.847  0.5879  0.1722 -0.2186
 4985SOL    HW126417   2.819   1.306   4.932  0.9284  0.4894 -0.4574
 4985SOL    HW226418   2.759   1.357   4.801 -0.1500 -0.8079 -1.5015
 4986SOL     OW26419   3.152   3.658   3.554  0.4202 -0.0200 -0.4918
 4986SOL    HW126420   3.175   3.646   3.461  1.0507 -0.0158 -0.3391
 4986SOL    HW226421   3.240   3.666   3.592  0.9811  0.2785 -1.8423
 4987SOL     OW26422   2.294   1.008   4.958  0.3223 -0.1654  0.3856
 4987SOL    HW126423   2.364   1.069   4.980  0.9660 -0.7505 -0.0548
 4987SOL    HW226424   2.224   1.038   5.016 -0.4697 -2.5205  0.6459
 4988SOL     OW26425   1.754   4.072   9.029  0.6179 -0.7111  0.0987
 4988SOL    HW126426   1.742   4.043   8.939  1.1969  0.0756 -0.2301
 4988SOL    HW226427   1.666   4.059   9.065  0.3462  2.6467  0.6721
 4989SOL     OW26428   2.015   4.668   2.707  0.2953  0.5362  0.0957
 4989SOL    HW126429   2.051   4.581   2.688  0.0427  0.5680 -0.5095
 4989SOL    HW226430   2.095   4.716   2.729 -0.3350  2.0838 -0.9628
 4990SOL     OW26431   3.414   0.517   5.091 -0.1320 -0.1316  0.8126
 4990SOL    HW126432   3.391   0.511   5.184 -0.4660 -0.6461  0.6962
 4990SOL    HW226433   3.497   0.564   5.100 -0.5744  1.2849 -2.2006
 4991SOL     OW26434   2.019   2.414   6.532  0.1356  0.0467  0.1591
 4991SOL    HW126435   1.954   2.483   6.516 -1.9469 -1.9475  0.0050
 4991SOL    HW226436   1.970   2.355   6.589  0.8186 -0.3903  0.2966
 4992SOL     OW26437   3.650   2.375   6.090 -0.1965  0.2690  0.0250
 4992SOL    HW126438   3.582   2.314   6.120 -1.6316  1.7506 -0.2024
 4992SOL    HW226439   3.666   2.428   6.168 -0.9103  1.8783 -0.9134
 4993SOL     OW26440   4.213   3.819  16.295  0.0776 -0.0510 -0.2040
 4993SOL    HW126441   4.308   3.818  16.277 -0.2772  1.5869 -2.1998
 4993SOL    HW226442   4.227   3.800  16.387 -4.1453 -0.2350  0.3618
 4994SOL     OW26443   1.328   3.313   0.586 -0.3309 -0.0320 -0.1423
 4994SOL    HW126444   1.374   3.388   0.623 -1.7774  0.7144  0.1221
 4994SOL    HW226445   1.401   3.254   0.566  1.5631  3.1846 -2.7908
 4995SOL     OW26446   0.559   2.888  11.514  0.3176 -0.6726  0.1827
 4995SOL    HW126447   0.587   2.850  11.430 -2.5890 -0.1973 -0.9986
 4995SOL    HW226448   0.507   2.815  11.546  0.9277 -0.8460  0.7774
 4996SOL     OW26449   4.409   0.084   8.782 -0.0528 -0.1617 -0.6156
 4996SOL    HW126450   4.377   0.001   8.816 -1.8306  0.4490 -0.7962
 4996SOL    HW226451   4.460   0.114   8.857  1.0675  0.3398 -1.5728
 4997SOL     OW26452   2.376   2.239   4.386  0.0392  0.3438  0.0281
 4997SOL    HW126453   2.327   2.318   4.408  0.8760  0.5111  1.2771
 4997SOL    HW226454   2.459   2.284   4.371  0.8553 -0.7470  1.2309
 4998SOL     OW26455   4.255   0.973   2.471 -0.5126  0.8319 -0.3524
 4998SOL    HW126456   4.305   1.054   2.463  0.0100  0.3697 -1.7503
 4998SOL    HW226457   4.238   0.959   2.378 -2.9782  2.2952 -0.1137
 4999SOL     OW26458   0.890   4.293   9.518 -0.4116  0.0742 -0.2383
 4999SOL    HW126459   0.898   4.206   9.480  0.3848  0.0968 -0.1282
 4999SOL    HW226460   0.915   4.278   9.609 -4.0076 -1.3919  0.5089
 5000SOL     OW26461   0.238   1.483   4.218  0.1070  0.2258  0.2247
 5000SOL    HW126462   0.258   1.473   4.125 -0.7471  1.8695 -0.1375
 5000SOL    HW226463   0.148   1.516   4.220 -0.4378 -1.2718 -0.0748
 5001SOL     OW26464   3.557   1.175   4.169 -0.3697 -0.5461 -0.4114
 5001SOL    HW126465   3.568   1.082   4.185 -1.9314 -0.1954  2.5998
 5001SOL    HW226466   3.511   1.172   4.085  0.0753 -2.5468 -0.5746
 5002SOL     OW26467   3.045   2.403   6.787  0.0559  1.0396 -0.4685
 5002SOL    HW126468   2.958   2.364   6.799 -0.6265  2.9309  0.7070
 5002SOL    HW226469   3.030   2.480   6.841 -0.0378  0.4897  0.2941
 5003SOL     OW26470   3.703   0.639  12.307  0.2956 -0.3254  0.4601
 5003SOL    HW126471   3.660   0.724  12.321  0.5752 -0.1627  0.3427
 5003SOL    HW226472   3.785   0.672  12.271  1.3679 -2.1643  1.2402
 5004SOL     OW26473   3.779   3.762   5.279 -0.1612 -0.0906  0.3708
 5004SOL    HW126474   3.849   3.753   5.215 -0.0780  0.4173  0.3871
 5004SOL    HW226475   3.765   3.855   5.260  0.6594 -0.3033 -1.1845
 5005SOL     OW26476   3.118   1.762   0.825 -0.0554  0.2390  0.0842
 5005SOL    HW126477   3.038   1.789   0.870 -0.0339  0.9904 -0.3332
 5005SOL    HW226478   3.183   1.774   0.894  0.6251  0.0230 -0.5304
 5006SOL     OW26479   1.311   3.140   3.566  0.5495 -0.9262  0.1841
 5006SOL    HW126480   1.222   3.109   3.553  0.2318 -0.6735  1.6645
 5006SOL    HW226481   1.311   3.180   3.654  1.2578  0.3949 -0.4173
 5007SOL     OW26482   3.227   0.855   5.705 -0.3609 -0.0273  0.3449
 5007SOL    HW126483   3.207   0.855   5.799  0.8103  1.3085  0.5993
 5007SOL    HW226484   3.250   0.948   5.704 -0.4540 -0.0124 -0.2331
 5008SOL     OW26485   1.227   2.545   4.718 -0.6593 -0.4108  0.9846
 5008SOL    HW126486   1.254   2.467   4.669  1.4589  1.0627 -0.1884
 5008SOL    HW226487   1.310   2.592   4.710 -0.7246 -0.5474 -0.4597
 5009SOL     OW26488   4.299   3.409  10.368  0.2671  0.2073 -0.1010
 5009SOL    HW126489   4.260   3.321  10.374  0.1830  0.0550 -3.0879
 5009SOL    HW226490   4.339   3.416  10.282 -0.6604 -4.9685 -0.9857
 5010SOL     OW26491   2.599   0.475   7.051  0.3067  0.0851 -0.3250
 5010SOL    HW126492   2.516   0.428   7.041 -0.7806  1.8237  0.5094
 5010SOL    HW226493   2.665   0.406   7.065 -0.4479 -0.2339  1.6839
 5011SOL     OW26494   1.373   4.501   3.611 -0.3376  0.1675  0.0752
 5011SOL    HW126495   1.448   4.451   3.579  0.4367  1.3678  0.0049
 5011SOL    HW226496   1.370   4.560   3.536 -1.3198 -0.4556 -0.3791
 5012SOL     OW26497   4.370   1.403   6.588  0.0253  0.1807 -0.3272
 5012SOL    HW126498   4.340   1.483   6.545  1.2381  0.4089 -0.7591
 5012SOL    HW226499   4.464   1.424   6.588  0.3231 -1.1810 -0.7286
 5013SOL     OW26500   3.838   3.252   9.609  0.0824  0.3556  0.0595
 5013SOL    HW126501   3.874   3.164   9.603  2.1003  1.1693  0.2889
 5013SOL    HW226502   3.864   3.285   9.695  2.5268  1.3079 -1.0397
 5014SOL     OW26503   4.330   1.461   9.069  0.4856  0.3623  0.6895
 5014SOL    HW126504   4.260   1.404   9.100  3.7197 -2.9567  1.9256
 5014SOL    HW226505   4.400   1.425   9.123  0.2954 -0.1761  0.5707
 5015SOL     OW26506   2.736   1.326   1.371  0.0975  0.3256 -0.0009
 5015SOL    HW126507   2.739   1.303   1.278  2.7285 -0.8341  0.3681
 5015SOL    HW226508   2.683   1.256   1.409  0.4005 -0.6503 -1.3251
 5016SOL     OW26509   2.995   1.841   2.077  0.7412 -0.2241  0.2066
 5016SOL    HW126510   2.948   1.898   2.138  1.4270  1.5752 -0.9595
 5016SOL    HW226511   3.009   1.902   2.004 -1.7827  0.7525  0.5324
 5017SOL     OW26512   4.434   3.935  11.786  0.2045  0.3247 -0.0802
 5017SOL    HW126513   4.373   3.965  11.853 -0.4364  1.3652 -1.1317
 5017SOL    HW226514   4.480   4.016  11.767  1.5866 -0.1604  1.1837
 5018SOL     OW26515   3.449   2.704  17.669  0.2470 -0.3876  0.0996
 5018SOL    HW126516   3.362   2.665  17.661  0.6216 -1.0716 -0.6989
 5018SOL    HW226517   3.481   2.691  17.579 -1.2279 -2.6987 -0.1037
 5019SOL     OW26518   0.914   3.626   2.942  0.2035 -0.1050 -0.0004
 5019SOL    HW126519   0.842   3.668   2.989  0.9117  1.6195 -0.4860
 5019SOL    HW226520   0.932   3.689   2.873  1.3864 -1.3899 -0.8572
 5020SOL     OW26521   0.644   0.443  14.066 -0.5755 -0.7748 -0.1746
 5020SOL    HW126522   0.681   0.418  14.150 -1.8549 -2.2214 -0.0530
 5020SOL    HW226523   0.603   0.361  14.040 -3.1834  0.8543 -1.3179
 5021SOL     OW26524   3.605   4.157   9.285 -0.1280 -0.0109  0.5678
 5021SOL    HW126525   3.537   4.218   9.313  0.9170  1.7149 -0.6556
 5021SOL    HW226526   3.570   4.072   9.310  1.9154 -0.7446  0.9739
 5022SOL     OW26527   1.964   0.181  10.800  0.0347  0.3391 -0.3912
 5022SOL    HW126528   1.884   0.200  10.849 -0.4609 -2.7116 -0.0425
 5022SOL    HW226529   1.954   0.238  10.723 -1.0671 -1.1735 -1.3610
 5023SOL     OW26530   1.508   0.721  16.484 -0.0917 -0.2610 -0.4752
 5023SOL    HW126531   1.534   0.629  16.477  0.7696 -0.0489 -0.0447
 5023SOL    HW226532   1.498   0.734  16.390 -2.7513 -1.1986 -0.3364
 5024SOL     OW26533   1.265   1.429   9.352  0.1713 -0.5117  0.2703
 5024SOL    HW126534   1.265   1.350   9.297 -0.8632  1.6101 -2.7874
 5024SOL    HW226535   1.288   1.502   9.294 -2.5992 -0.7489 -1.1182
 5025SOL     OW26536   1.281   2.493   3.163 -0.0550 -0.1459  0.2042
 5025SOL    HW126537   1.192   2.476   3.194  0.0637 -0.3737  0.4186
 5025SOL    HW226538   1.286   2.574   3.213 -0.3218  0.6390 -1.0379
 5026SOL     OW26539   1.657   3.370  17.358  0.1021 -0.4917  1.0918
 5026SOL    HW126540   1.752   3.370  17.342 -0.0061 -0.7043  0.4649
 5026SOL    HW226541   1.621   3.448  17.316 -1.0218 -0.6050  1.8501
 5027SOL     OW26542   0.506   4.203  10.556 -0.5022  0.3473 -0.1364
 5027SOL    HW126543   0.565   4.272  10.526 -1.6633  1.2374 -0.3307
 5027SOL    HW226544   0.548   4.124  10.521  1.2739  0.7947  0.9327
 5028SOL     OW26545   1.431   1.990   3.973 -0.0769 -0.3654  0.1203
 5028SOL    HW126546   1.490   1.925   3.935  0.8721 -1.0435  2.7330
 5028SOL    HW226547   1.425   2.053   3.901 -0.8798  0.4680  0.9055
 5029SOL     OW26548   2.074   2.729   6.311  0.8224 -0.2101 -0.3107
 5029SOL    HW126549   2.160   2.698   6.342  0.9184 -1.0866 -1.4586
 5029SOL    HW226550   2.008   2.698   6.373  1.9605 -2.9849 -0.5025
 5030SOL     OW26551   3.086   2.240   8.427 -0.7990 -0.4208  0.1893
 5030SOL    HW126552   3.026   2.312   8.406  1.1614  0.9389 -0.6929
 5030SOL    HW226553   3.074   2.232   8.521 -1.0388 -0.9307  0.1155
 5031SOL     OW26554   1.167   3.765   4.334 -0.4032  0.5157 -0.5773
 5031SOL    HW126555   1.185   3.684   4.286  1.6662  0.0529  0.9604
 5031SOL    HW226556   1.251   3.809   4.322  1.0701 -2.4065 -0.9744
 5032SOL     OW26557   3.538   0.990   3.081 -0.0486 -0.0387  0.4193
 5032SOL    HW126558   3.580   0.946   3.006  0.8088  2.6364 -0.6958
 5032SOL    HW226559   3.599   1.056   3.115  0.8921 -1.0952  0.7555
 5033SOL     OW26560   0.365   4.295   2.924 -0.4059  0.1765 -0.1331
 5033SOL    HW126561   0.315   4.226   2.968  0.8782 -0.6215  0.0661
 5033SOL    HW226562   0.293   4.342   2.883 -1.7324 -0.2966  1.6339
 5034SOL     OW26563   1.135   2.944   9.524  0.8479 -0.5421 -0.0984
 5034SOL    HW126564   1.194   3.019   9.512 -0.8414  0.7484 -0.3126
 5034SOL    HW226565   1.084   2.945   9.443  0.9780  1.4038 -0.1539
 5035SOL     OW26566   0.922   3.042   2.581  0.1210  0.3835  0.4409
 5035SOL    HW126567   0.941   3.124   2.534 -1.3881  1.4051  1.6224
 5035SOL    HW226568   0.830   3.030   2.555  0.3489 -0.9140  0.2455
 5036SOL     OW26569   3.838   1.600   4.860  0.0730  0.7222 -0.2919
 5036SOL    HW126570   3.827   1.601   4.764 -0.1297  0.0403 -0.2743
 5036SOL    HW226571   3.794   1.520   4.888 -1.1092  1.0793 -1.1269
 5037SOL     OW26572   0.393   2.220   5.396  0.0317  0.3003 -0.3325
 5037SOL    HW126573   0.479   2.183   5.417 -0.1614 -1.2368 -2.3314
 5037SOL    HW226574   0.414   2.276   5.322  2.6576 -0.1226  0.0946
 5038SOL     OW26575   3.171   1.648   4.356 -0.0996 -0.5425  0.3779
 5038SOL    HW126576   3.129   1.716   4.410 -3.2722 -0.2728 -2.4800
 5038SOL    HW226577   3.173   1.579   4.422 -1.4358  0.4993  1.5247
 5039SOL     OW26578   3.190   2.735   6.612 -0.0368 -0.8440  0.1168
 5039SOL    HW126579   3.116   2.788   6.642 -1.2856 -1.9470 -1.0312
 5039SOL    HW226580   3.176   2.661   6.671 -0.8423  0.0543  1.0375
 5040SOL     OW26581   1.876   2.789   8.843 -0.0918  0.3455  0.0082
 5040SOL    HW126582   1.887   2.862   8.783 -0.4705  1.1173  0.8702
 5040SOL    HW226583   1.965   2.757   8.858  0.8066  2.5454 -0.7609
 5041SOL     OW26584   2.447   1.080   6.371 -0.4724 -0.0069 -0.4802
 5041SOL    HW126585   2.452   1.061   6.277  0.3382 -0.1035 -0.4102
 5041SOL    HW226586   2.445   1.175   6.374  0.5666  0.0746 -2.5651
 5042SOL     OW26587   2.713   4.669   8.594  0.2149 -0.5388  0.2903
 5042SOL    HW126588   2.634   4.696   8.641  0.3282 -0.3042  0.3472
 5042SOL    HW226589   2.682   4.691   8.506 -0.8074  0.4986  0.9076
 5043SOL     OW26590   3.170   1.142   3.303 -0.2872  0.2760  0.9255
 5043SOL    HW126591   3.127   1.060   3.279  2.2935 -0.3601 -1.6094
 5043SOL    HW226592   3.200   1.162   3.214  0.4499  0.4371  1.2093
 5044SOL     OW26593   0.736   4.070   3.183  0.3764  0.6328 -0.0113
 5044SOL    HW126594   0.694   4.090   3.266  0.7430 -1.0462  0.5756
 5044SOL    HW226595   0.686   4.129   3.126 -0.9646  0.2631  0.7905
 5045SOL     OW26596   2.178   2.691   5.943 -0.2140 -0.1846  0.6058
 5045SOL    HW126597   2.168   2.782   5.970 -1.8353 -0.3182  0.4433
 5045SOL    HW226598   2.245   2.656   6.002 -0.9232 -0.8847  0.9834
 5046SOL     OW26599   0.357   2.223   3.581  0.2558  0.1455  0.1529
 5046SOL    HW126600   0.330   2.168   3.655 -1.3626 -0.0426 -0.5708
 5046SOL    HW226601   0.440   2.264   3.607  0.6295 -0.0442 -0.7363
 5047SOL     OW26602   3.683   0.256   4.679 -0.2581 -0.2181 -0.0044
 5047SOL    HW126603   3.757   0.236   4.735  0.3816  0.9291 -0.4526
 5047SOL    HW226604   3.603   0.254   4.733  0.0714  1.9314  0.5643
 5048SOL     OW26605   3.347   3.269   3.190  0.1432  0.1195  0.4651
 5048SOL    HW126606   3.421   3.329   3.200 -1.1641  1.9018 -0.6112
 5048SOL    HW226607   3.332   3.244   3.282  0.1640  1.7261  0.9094
 5049SOL     OW26608   1.184   1.349  10.901  0.2648 -0.0066 -0.7435
 5049SOL    HW126609   1.209   1.331  10.991  0.8296 -2.2131 -1.3412
 5049SOL    HW226610   1.199   1.443  10.893  1.8279 -0.2663 -0.9580
 5050SOL     OW26611   0.829   4.602   5.847  0.5699  0.4272  0.5473
 5050SOL    HW126612   0.914   4.603   5.803 -0.1389  0.1307 -0.8400
 5050SOL    HW226613   0.763   4.561   5.792 -1.1930  0.5726  2.5683
 5051SOL     OW26614   1.323   2.347  10.885  0.3881  0.3225  0.2299
 5051SOL    HW126615   1.383   2.327  10.813  0.1334 -0.2067  0.1623
 5051SOL    HW226616   1.315   2.442  10.878  0.3079  0.2898 -0.1194
 5052SOL     OW26617   1.237   0.276   7.600 -0.2811 -0.6823 -0.1940
 5052SOL    HW126618   1.158   0.329   7.586  0.5991  1.3345  2.4563
 5052SOL    HW226619   1.242   0.255   7.507  3.2596  1.0438 -0.3694
 5053SOL     OW26620   0.102   4.497  16.193 -0.4432  0.2493 -0.0216
 5053SOL    HW126621   0.155   4.558  16.142  2.0453 -1.1371  0.8874
 5053SOL    HW226622   0.149   4.419  16.163  1.3759  1.5079 -0.3935
 5054SOL     OW26623   0.167   3.143   7.924  0.3588  0.4394  0.2596
 5054SOL    HW126624   0.168   3.106   8.012  0.1964  2.8770  1.2870
 5054SOL    HW226625   0.080   3.183   7.923  0.7496  1.3144  0.8284
 5055SOL     OW26626   4.670   1.200   2.586 -0.4367 -0.0113 -0.8365
 5055SOL    HW126627   0.031   1.235   2.582 -0.3362 -0.2118 -0.3846
 5055SOL    HW226628   4.685   1.113   2.547 -1.5848 -0.7789  0.4154
 5056SOL     OW26629   1.337   0.894   4.886 -0.1167 -0.1493  0.7728
 5056SOL    HW126630   1.363   0.822   4.828 -0.2375 -0.3023  0.9064
 5056SOL    HW226631   1.371   0.970   4.839 -1.5271  0.3618  0.5579
 5057SOL     OW26632   4.332   0.397   9.148 -0.2701 -0.4800 -0.4465
 5057SOL    HW126633   4.271   0.443   9.206 -0.0967 -1.5205  0.5692
 5057SOL    HW226634   4.404   0.458   9.130  1.0428 -2.2095 -1.0414
 5058SOL     OW26635   0.037   3.697   2.318  0.4061  0.1000  0.1505
 5058SOL    HW126636   4.691   3.728   2.373  0.9377  1.2225  0.2339
 5058SOL    HW226637   0.057   3.617   2.367  0.0875 -1.3545 -2.1364
 5059SOL     OW26638   2.589   1.047   5.214 -0.2182 -0.0850  0.0822
 5059SOL    HW126639   2.546   1.024   5.296 -0.6720  0.3010 -0.0481
 5059SOL    HW226640   2.580   0.964   5.169  1.5165  1.0250 -2.3289
 5060SOL     OW26641   2.651   1.072  16.950 -0.0825 -0.2207  0.4711
 5060SOL    HW126642   2.573   1.106  16.906  1.8609  2.0605 -1.1858
 5060SOL    HW226643   2.622   1.049  17.039 -3.1805 -1.2097 -0.7983
 5061SOL     OW26644   4.572   1.926   5.770  0.3692  0.0302  0.5938
 5061SOL    HW126645   4.478   1.917   5.783  0.4300  0.4188  1.3047
 5061SOL    HW226646   4.581   1.979   5.690  0.2379  2.1921  2.0208
 5062SOL     OW26647   3.481   1.917  16.052  0.6241  0.1657 -0.1946
 5062SOL    HW126648   3.433   1.972  16.114 -1.4153 -0.7652 -0.9224
 5062SOL    HW226649   3.573   1.942  16.052  0.4062  0.9997  1.6434
 5063SOL     OW26650   0.833   3.861   2.379 -0.0956 -0.2685 -0.3040
 5063SOL    HW126651   0.924   3.888   2.391  0.6016 -1.9453 -1.6570
 5063SOL    HW226652   0.788   3.944   2.363  2.4999  1.6627  2.3485
 5064SOL     OW26653   2.516   2.997   3.842 -0.3191  0.0545 -0.6305
 5064SOL    HW126654   2.490   3.088   3.853 -2.4872 -0.4706 -1.3725
 5064SOL    HW226655   2.585   2.996   3.776  1.4806  0.1512  1.2224
 5065SOL     OW26656   4.158   2.685   2.594  0.3678 -0.5350  0.3958
 5065SOL    HW126657   4.065   2.708   2.596 -0.1604 -2.4987 -0.4668
 5065SOL    HW226658   4.176   2.619   2.661 -1.2542 -0.3506  1.0082
 5066SOL     OW26659   2.466   1.244  17.320  0.1709 -0.3745 -0.4640
 5066SOL    HW126660   2.381   1.213  17.352  0.7437 -1.4869 -0.0069
 5066SOL    HW226661   2.448   1.234  17.226  1.4755 -0.6371 -0.6878
 5067SOL     OW26662   1.186   2.527   6.303 -0.4858 -0.3570  0.5497
 5067SOL    HW126663   1.176   2.544   6.209  1.8970  1.3800  0.6101
 5067SOL    HW226664   1.228   2.599   6.349 -0.9826  0.6609 -0.6010
 5068SOL     OW26665   3.466   2.509  12.399  0.5212 -0.3027  0.0748
 5068SOL    HW126666   3.501   2.556  12.322 -1.1908 -2.1821 -1.8547
 5068SOL    HW226667   3.517   2.546  12.471  0.6881 -0.4322  0.0231
 5069SOL     OW26668   1.784   2.358   4.677  0.0576  0.2064 -0.0208
 5069SOL    HW126669   1.869   2.381   4.641  0.5283 -1.2864  0.1269
 5069SOL    HW226670   1.771   2.271   4.639 -2.1305 -0.1580  1.5224
 5070SOL     OW26671   0.411   0.396   4.046 -0.7859 -0.5741  0.3391
 5070SOL    HW126672   0.316   0.409   4.038 -0.7209 -0.5088 -0.3925
 5070SOL    HW226673   0.430   0.432   3.959 -0.1026 -1.0469  0.2954
 5071SOL     OW26674   4.475   0.886   6.471  0.3616 -0.2927 -0.0131
 5071SOL    HW126675   4.512   0.963   6.428 -1.0844 -0.1313 -0.9684
 5071SOL    HW226676   4.543   0.822   6.454  0.3996 -0.3896  0.4976
 5072SOL     OW26677   2.890   2.893   9.347 -0.0956 -0.2552 -0.6995
 5072SOL    HW126678   2.843   2.810   9.341 -0.7859 -0.0127  1.5450
 5072SOL    HW226679   2.919   2.903   9.437 -0.2459 -0.1302 -0.6658
 5073SOL     OW26680   3.595   4.206   3.432  0.4729  0.5059  0.0012
 5073SOL    HW126681   3.614   4.165   3.348  0.9960  1.8187 -0.5340
 5073SOL    HW226682   3.573   4.130   3.485 -1.5739 -0.0040 -1.5768
 5074SOL     OW26683   2.327   1.284  15.199 -0.0112  0.4815  0.4312
 5074SOL    HW126684   2.292   1.267  15.286 -1.3374 -0.3884 -0.2680
 5074SOL    HW226685   2.255   1.335  15.161 -0.5905 -0.2304  0.5758
 5075SOL     OW26686   4.318   2.677   1.805 -0.1659 -0.0211 -0.0004
 5075SOL    HW126687   4.227   2.687   1.778 -0.1363  0.9831  0.2895
 5075SOL    HW226688   4.325   2.591   1.847 -1.9289  0.2052  0.7086
 5076SOL     OW26689   2.123   3.168   4.123  0.4401 -0.6369 -0.3398
 5076SOL    HW126690   2.036   3.130   4.139  0.3167  0.1104  0.7304
 5076SOL    HW226691   2.113   3.262   4.107 -1.0138 -0.5380  1.1537
 5077SOL     OW26692   2.972   3.605   8.210  0.0157 -0.3617 -0.2664
 5077SOL    HW126693   3.038   3.536   8.197  1.7049  1.1441  0.2273
 5077SOL    HW226694   3.020   3.683   8.182  1.4930 -0.9812  0.5237
 5078SOL     OW26695   1.465   1.442   1.518 -0.3803  0.6370  0.7128
 5078SOL    HW126696   1.506   1.454   1.432 -0.2203 -0.9239  0.5592
 5078SOL    HW226697   1.423   1.527   1.532 -2.1393 -0.3116  1.2122
 5079SOL     OW26698   0.486   0.222   7.353 -0.3083 -0.1174  0.2946
 5079SOL    HW126699   0.398   0.202   7.383  0.4862 -2.1957  1.2465
 5079SOL    HW226700   0.472   0.316   7.350 -0.4185 -0.2408 -3.2350
 5080SOL     OW26701   1.925   1.975  10.832 -0.3021  0.1987  0.0178
 5080SOL    HW126702   1.839   1.986  10.872 -0.7572 -3.2643  0.0467
 5080SOL    HW226703   1.939   1.887  10.867 -0.0116  1.2303  2.4816
 5081SOL     OW26704   2.655   2.213   5.480 -0.2171 -0.1645 -0.1640
 5081SOL    HW126705   2.742   2.173   5.485 -0.0175  0.3305  0.3666
 5081SOL    HW226706   2.594   2.144   5.508 -2.1080  0.8332 -1.8082
 5082SOL     OW26707   1.892   3.498   6.798  0.5632  0.1484  0.1424
 5082SOL    HW126708   1.944   3.462   6.727  1.8374 -1.4387  1.9056
 5082SOL    HW226709   1.932   3.474   6.881 -1.7762 -0.8008  0.9926
 5083SOL     OW26710   2.211   0.184   1.976 -0.3425 -0.1518 -0.1483
 5083SOL    HW126711   2.261   0.187   1.894 -2.0717  2.2485 -1.1104
 5083SOL    HW226712   2.141   0.246   1.958  0.8233 -0.1487 -4.5804
 5084SOL     OW26713   3.552   2.098   3.590 -0.2776  0.2545 -0.1316
 5084SOL    HW126714   3.511   2.128   3.671 -2.8823  1.6511 -1.9630
 5084SOL    HW226715   3.510   2.159   3.529  0.0491 -1.8880 -2.5339
 5085SOL     OW26716   0.928   4.252   1.397  0.0807  0.0869 -0.1626
 5085SOL    HW126717   0.890   4.322   1.451 -3.2402 -0.2433 -2.0677
 5085SOL    HW226718   1.014   4.293   1.389  0.7620 -1.3220 -0.1120
 5086SOL     OW26719   0.551   0.566   4.483  0.1951 -0.0949 -0.2608
 5086SOL    HW126720   0.524   0.489   4.432 -0.7297  1.5840 -2.3165
 5086SOL    HW226721   0.465   0.605   4.497  1.6997  3.8660 -2.2153
 5087SOL     OW26722   1.448   1.548  14.011  0.4287  0.8348  0.3838
 5087SOL    HW126723   1.441   1.456  13.985  2.8112  0.6804  0.2189
 5087SOL    HW226724   1.539   1.556  14.041 -0.0855  0.2665  2.0705
 5088SOL     OW26725   2.511   3.765  16.172 -0.0095 -0.3698  0.4349
 5088SOL    HW126726   2.454   3.762  16.095 -1.1760 -1.3557  1.3415
 5088SOL    HW226727   2.454   3.818  16.229  0.8052  2.7969 -1.7015
 5089SOL     OW26728   1.871   2.045   8.108  0.1076  0.5172 -0.0371
 5089SOL    HW126729   1.791   2.024   8.157  1.0709  1.2101  1.8367
 5089SOL    HW226730   1.851   2.137   8.091 -0.6559  0.4409  0.4512
 5090SOL     OW26731   2.975   2.958   0.021 -0.2062 -0.6637 -0.1425
 5090SOL    HW126732   3.055   3.002  17.699  1.4915 -3.8818 -0.2895
 5090SOL    HW226733   2.932   3.034   0.060  1.9260  0.7658 -0.5334
 5091SOL     OW26734   1.154   1.243   7.477 -0.1336 -0.0226  0.2926
 5091SOL    HW126735   1.101   1.211   7.404  1.3269 -0.9358 -0.3738
 5091SOL    HW226736   1.237   1.263   7.433  0.7411 -0.4244  1.7761
 5092SOL     OW26737   1.939   1.178  15.314 -0.1747 -0.1530 -0.2863
 5092SOL    HW126738   2.030   1.206  15.327 -0.4694  0.6699 -0.0024
 5092SOL    HW226739   1.948   1.083  15.313 -0.7621 -0.2454  1.4728
 5093SOL     OW26740   2.080   1.250   4.762  0.4285 -0.0788 -0.2519
 5093SOL    HW126741   2.118   1.198   4.691 -0.4337 -1.7381  0.5104
 5093SOL    HW226742   1.986   1.235   4.757  0.1597  0.9944  1.6476
 5094SOL     OW26743   2.101   0.808   7.193 -0.7035 -0.5017  0.0028
 5094SOL    HW126744   2.158   0.860   7.249  0.2264 -1.6309  0.1148
 5094SOL    HW226745   2.135   0.837   7.109 -0.1383 -0.2279  0.3259
 5095SOL     OW26746   1.586   4.330  13.726 -0.4065 -0.1509 -0.4631
 5095SOL    HW126747   1.677   4.332  13.758  0.5366 -2.5510 -3.0337
 5095SOL    HW226748   1.544   4.280  13.796  2.7124  0.5066  1.8750
 5096SOL     OW26749   3.126   4.254  10.213 -0.0008 -0.0724 -0.4717
 5096SOL    HW126750   3.108   4.212  10.297 -0.6656 -0.4977 -0.8233
 5096SOL    HW226751   3.103   4.345  10.231  0.9402  0.5081 -2.1922
 5097SOL     OW26752   0.090   3.589   4.834  0.1560 -0.2686 -0.0144
 5097SOL    HW126753   0.024   3.560   4.897 -1.1386  1.1740 -0.6989
 5097SOL    HW226754   0.045   3.658   4.784 -0.6399 -1.2051 -0.5796
 5098SOL     OW26755   2.472   1.635  13.168 -0.2710 -0.1368  0.0483
 5098SOL    HW126756   2.561   1.612  13.197 -1.0738  0.7640  3.2284
 5098SOL    HW226757   2.447   1.553  13.125 -1.2837  1.1591 -1.7882
 5099SOL     OW26758   2.367   0.322   9.748  0.0107  0.3409 -0.2665
 5099SOL    HW126759   2.411   0.359   9.672 -0.1419  1.2154  0.0713
 5099SOL    HW226760   2.349   0.396   9.806  1.6425  0.8134 -0.3782
 5100SOL     OW26761   2.309   3.887   9.741 -0.0356 -0.1146 -0.4168
 5100SOL    HW126762   2.218   3.862   9.755  0.0484  0.1091  0.6053
 5100SOL    HW226763   2.357   3.840   9.810  0.2582  0.8779  0.0540
 5101SOL     OW26764   4.059   1.692   2.211  0.2031  0.6906  0.1232
 5101SOL    HW126765   4.107   1.751   2.269  0.6336  0.5594 -0.0995
 5101SOL    HW226766   4.096   1.604   2.225  1.6631  1.5238  1.5301
 5102SOL     OW26767   0.475   4.036   7.910 -0.1152 -0.1177 -0.4062
 5102SOL    HW126768   0.448   3.949   7.940 -2.2100  1.1841  1.4504
 5102SOL    HW226769   0.547   4.043   7.973 -0.8784 -1.8438  0.6483
 5103SOL     OW26770   3.464   1.509   4.157 -0.0443  0.5446  0.2852
 5103SOL    HW126771   3.554   1.540   4.167  0.5164 -1.1275  0.4401
 5103SOL    HW226772   3.410   1.588   4.153  0.5466  0.9722  0.7202
 5104SOL     OW26773   2.394   1.707  16.924  0.3127 -0.2450  0.2865
 5104SOL    HW126774   2.413   1.800  16.913 -2.6599  0.2520 -0.6207
 5104SOL    HW226775   2.343   1.694  17.004 -1.3015  0.0860 -0.6937
 5105SOL     OW26776   3.941   1.346  14.865 -0.2470 -0.0245  0.2035
 5105SOL    HW126777   3.885   1.364  14.940  0.3045  0.2211  0.5606
 5105SOL    HW226778   3.901   1.400  14.797  2.5138  0.2996 -1.1716
 5106SOL     OW26779   0.363   1.905   3.204 -0.3101 -0.2897 -0.2616
 5106SOL    HW126780   0.354   1.995   3.236 -1.5468 -0.5647  0.1834
 5106SOL    HW226781   0.300   1.912   3.132 -1.6594  0.5216  0.9810
 5107SOL     OW26782   4.723   3.146   0.919  0.2146 -0.9537  0.3544
 5107SOL    HW126783   0.080   3.184   0.896  0.5828 -1.0357  1.5323
 5107SOL    HW226784   4.700   3.194   0.999 -1.1526 -0.7791 -0.1554
 5108SOL     OW26785   2.528   0.600   8.152  0.5385  0.5084 -0.0107
 5108SOL    HW126786   2.564   0.571   8.069  0.9035 -0.6760  0.5643
 5108SOL    HW226787   2.473   0.525   8.174 -0.6888  1.6581  0.8315
 5109SOL     OW26788   4.684   3.199   5.152 -0.0654  0.3395  0.3257
 5109SOL    HW126789   0.040   3.199   5.104  0.3146 -0.9012  1.0088
 5109SOL    HW226790   4.695   3.128   5.215  0.8468 -1.4541 -1.8677
 5110SOL     OW26791   0.622   3.139  11.649 -0.6801 -0.0739  0.3957
 5110SOL    HW126792   0.536   3.102  11.630 -2.2080  3.1182  1.0747
 5110SOL    HW226793   0.619   3.170  11.740  3.6733 -1.4577  1.0040
 5111SOL     OW26794   1.300   2.484   2.706 -0.0912 -0.5366 -0.0185
 5111SOL    HW126795   1.325   2.541   2.633 -1.3284  1.0036  0.7680
 5111SOL    HW226796   1.286   2.547   2.776 -1.3326  0.1760 -0.9053
 5112SOL     OW26797   1.875   0.513   5.827  0.4806  0.0947  0.0127
 5112SOL    HW126798   1.876   0.421   5.800 -0.6277  0.5490 -1.5836
 5112SOL    HW226799   1.781   0.527   5.838  0.7391  2.2966 -0.4669
 5113SOL     OW26800   2.553   4.178   4.492 -0.1120  0.1042  0.3881
 5113SOL    HW126801   2.641   4.206   4.516  0.5707 -0.6411 -1.1979
 5113SOL    HW226802   2.520   4.261   4.459  2.9774  1.8984  1.9027
 5114SOL     OW26803   0.293   1.529   7.189 -0.3507  0.4228 -0.5471
 5114SOL    HW126804   0.257   1.591   7.252 -2.6591  1.4118 -2.8215
 5114SOL    HW226805   0.286   1.454   7.249  2.0502 -0.2090 -1.0697
 5115SOL     OW26806   3.316   1.927   6.733  0.4863  0.2348  0.3528
 5115SOL    HW126807   3.321   1.904   6.826  0.6556 -0.5845  0.1463
 5115SOL    HW226808   3.404   1.923   6.698 -0.3196 -1.0150 -1.5574
 5116SOL     OW26809   1.477   3.563  16.333  0.1291 -0.0959  0.1204
 5116SOL    HW126810   1.391   3.567  16.292  0.8004  1.6604 -1.0976
 5116SOL    HW226811   1.539   3.552  16.261 -1.3937  0.4336 -1.2484
 5117SOL     OW26812   2.592   1.811   2.380  0.0944 -0.1933  0.1988
 5117SOL    HW126813   2.613   1.727   2.420  3.9720  1.0394  0.7440
 5117SOL    HW226814   2.576   1.774   2.293 -0.9826 -0.2524  0.4231
 5118SOL     OW26815   1.200   0.634   7.620 -0.5541  0.0420 -0.3439
 5118SOL    HW126816   1.178   0.725   7.597  1.0774 -0.1119 -2.4974
 5118SOL    HW226817   1.290   0.627   7.588 -0.4207 -0.9779  0.2650
 5119SOL     OW26818   3.747   4.358   6.325  0.7200 -0.6790  0.2623
 5119SOL    HW126819   3.730   4.289   6.262  0.5385 -0.5073  0.1235
 5119SOL    HW226820   3.837   4.334   6.349  1.2550  1.1307  0.0768
 5120SOL     OW26821   1.179   0.780   2.846 -0.0762 -0.5972 -0.2127
 5120SOL    HW126822   1.194   0.687   2.860 -1.1040 -0.4026  2.0672
 5120SOL    HW226823   1.181   0.793   2.751  1.8737  2.6410  0.2747
 5121SOL     OW26824   1.679   3.213   5.771  0.1045 -0.1848  0.2037
 5121SOL    HW126825   1.650   3.147   5.709  0.9791 -0.8155  0.4787
 5121SOL    HW226826   1.635   3.187   5.852 -0.5702  2.6206  0.7583
 5122SOL     OW26827   4.575   0.401   5.311 -0.0206  0.4201  0.0662
 5122SOL    HW126828   4.668   0.398   5.287 -0.0656  2.4422 -0.3536
 5122SOL    HW226829   4.589   0.424   5.403 -0.1890 -1.0475  0.4668
 5123SOL     OW26830   2.706   4.024   3.898  0.0831  0.5940 -0.0146
 5123SOL    HW126831   2.772   4.086   3.868 -0.0703 -0.4752 -2.5609
 5123SOL    HW226832   2.624   4.049   3.856 -0.5551 -0.2549  0.7210
 5124SOL     OW26833   1.638   1.806   3.883  0.3387  0.4743  0.3562
 5124SOL    HW126834   1.715   1.820   3.828 -0.4101  0.5918 -0.6636
 5124SOL    HW226835   1.607   1.717   3.862 -0.0906  0.4966  0.8968
 5125SOL     OW26836   0.461   3.495  11.690  0.1072  0.6006 -0.1755
 5125SOL    HW126837   0.441   3.465  11.601  1.9510 -1.0915 -0.0148
 5125SOL    HW226838   0.552   3.472  11.709 -0.7983 -3.9006 -1.2294
 5126SOL     OW26839   0.994   2.551   2.688  0.0645  0.4410 -0.4104
 5126SOL    HW126840   1.024   2.602   2.613 -0.5141  1.4223  0.0161
 5126SOL    HW226841   1.062   2.483   2.689 -0.4277 -0.0159  1.1949
 5127SOL     OW26842   4.479   0.806   7.840  0.4041  0.3970  0.3659
 5127SOL    HW126843   4.498   0.785   7.748 -3.8181  1.1130 -0.6566
 5127SOL    HW226844   4.552   0.765   7.886 -2.0982 -1.0062  3.0706
 5128SOL     OW26845   3.026   3.878  12.128 -0.0789  0.3895  0.5788
 5128SOL    HW126846   3.069   3.793  12.123  0.6691  0.8773 -1.0559
 5128SOL    HW226847   2.995   3.890  12.218 -0.6540  0.9111  0.3158
 5129SOL     OW26848   1.547   2.795   2.288  0.3475 -0.5605  0.1480
 5129SOL    HW126849   1.587   2.763   2.207  0.3416 -0.6121  0.1649
 5129SOL    HW226850   1.479   2.854   2.254  1.2402  0.9592  1.0141
 5130SOL     OW26851   0.279   3.311   5.933  0.3391  0.8137  0.2296
 5130SOL    HW126852   0.266   3.400   5.900  1.8550  0.9971  0.0908
 5130SOL    HW226853   0.354   3.335   5.989 -0.2352  0.0734  1.3208
 5131SOL     OW26854   4.231   1.112   1.914 -0.5336  0.0215  0.5449
 5131SOL    HW126855   4.315   1.135   1.874 -1.4567  1.3489 -0.6443
 5131SOL    HW226856   4.171   1.119   1.839 -1.0200  0.6833  0.9923
 5132SOL     OW26857   0.047   2.970   5.246  0.5578 -0.4455  0.2365
 5132SOL    HW126858   0.038   2.930   5.332  1.1618  0.2275  0.6110
 5132SOL    HW226859   0.104   2.912   5.195  0.5880 -0.7690  0.6403
 5133SOL     OW26860   4.194   3.861   5.046  0.3657  0.4187  0.2752
 5133SOL    HW126861   4.254   3.833   5.116  1.3833 -1.4306 -1.3319
 5133SOL    HW226862   4.129   3.912   5.095 -0.1586  1.6216 -1.6917
 5134SOL     OW26863   2.501   4.547   5.447 -0.1085 -0.3204  0.4001
 5134SOL    HW126864   2.583   4.498   5.458  0.4258  0.1616 -1.5319
 5134SOL    HW226865   2.448   4.511   5.518  0.4330 -0.7597  0.5886
 5135SOL     OW26866   3.127   0.095   1.095 -0.0159  0.6752  0.3315
 5135SOL    HW126867   3.206   0.120   1.142  0.4119 -0.2661  0.1178
 5135SOL    HW226868   3.072   0.169   1.122 -2.4540 -1.2847  0.7667
 5136SOL     OW26869   4.593   4.095   8.597  0.1646 -0.2045 -0.5442
 5136SOL    HW126870   4.620   4.153   8.669  2.6872 -1.2226 -0.6681
 5136SOL    HW226871   4.573   4.014   8.643  0.9433 -0.2736 -0.3227
 5137SOL     OW26872   2.817   2.367  13.736 -0.2094 -0.5237 -0.0385
 5137SOL    HW126873   2.779   2.430  13.674  0.0656  1.3765  1.7310
 5137SOL    HW226874   2.770   2.382  13.818 -0.0931 -2.2800  0.3493
 5138SOL     OW26875   1.710   4.065   8.478  0.3533  0.9508  0.2684
 5138SOL    HW126876   1.683   4.042   8.567  2.0661  0.2669  0.6092
 5138SOL    HW226877   1.652   4.139   8.461 -0.5948  0.3179  0.7719
 5139SOL     OW26878   2.831   1.824   5.418 -0.9527 -0.2747 -0.3857
 5139SOL    HW126879   2.736   1.810   5.419 -0.7036 -1.7794  1.1603
 5139SOL    HW226880   2.844   1.837   5.512  0.3662  1.9636 -0.8797
 5140SOL     OW26881   0.972   1.498   8.192 -0.4260 -0.6645 -0.2922
 5140SOL    HW126882   0.888   1.538   8.171 -0.6260  0.4838  2.8234
 5140SOL    HW226883   0.945   1.422   8.244 -3.5081  1.1724  0.7416
 5141SOL     OW26884   1.923   0.636   8.737  0.3336 -0.3011 -0.0557
 5141SOL    HW126885   1.944   0.673   8.822  2.0034 -0.1052 -0.5666
 5141SOL    HW226886   1.830   0.661   8.731  0.4269 -0.4162 -2.0485
 5142SOL     OW26887   2.721   4.288   6.122 -0.3817 -0.1952  0.6776
 5142SOL    HW126888   2.798   4.274   6.178 -1.3351  0.8914  2.2498
 5142SOL    HW226889   2.734   4.381   6.104  1.8502 -0.5415  0.5111
 5143SOL     OW26890   0.904   3.584   7.249  0.3933  0.4491  1.2490
 5143SOL    HW126891   0.830   3.573   7.309 -0.8202  0.3919 -0.2494
 5143SOL    HW226892   0.861   3.567   7.165  1.7011 -0.3298  0.7426
 5144SOL     OW26893   2.839   4.508   8.835 -0.2226  0.2419  0.1928
 5144SOL    HW126894   2.798   4.593   8.846 -0.5425  0.0624  0.3861
 5144SOL    HW226895   2.820   4.503   8.742  2.9260 -0.4034 -0.4202
 5145SOL     OW26896   3.710   2.630  10.854 -0.0767  0.4833 -0.0897
 5145SOL    HW126897   3.722   2.722  10.879  1.6911  0.6775 -1.7195
 5145SOL    HW226898   3.791   2.623  10.804  0.4484 -1.8846  1.0669
 5146SOL     OW26899   1.227   1.078   2.860  0.0083  0.5158  0.4073
 5146SOL    HW126900   1.206   1.068   2.767 -0.2646  2.3451  0.2660
 5146SOL    HW226901   1.192   0.997   2.896  1.2217 -0.1813  0.0134
 5147SOL     OW26902   0.695   3.661  13.525 -0.5509  0.0222 -1.1704
 5147SOL    HW126903   0.694   3.627  13.436 -3.2970 -1.7935 -0.4628
 5147SOL    HW226904   0.761   3.603  13.562  0.3186  0.7777 -1.5353
 5148SOL     OW26905   2.244   1.525   7.066 -0.4647  0.5396 -0.0540
 5148SOL    HW126906   2.338   1.539   7.067 -0.4611  0.4824  0.4226
 5148SOL    HW226907   2.220   1.613   7.097  1.8750  1.9209 -2.1873
 5149SOL     OW26908   0.373   0.243   6.315  0.2353 -0.3696  0.0837
 5149SOL    HW126909   0.307   0.182   6.346 -0.4432 -1.0232 -2.6331
 5149SOL    HW226910   0.338   0.330   6.336 -1.2911 -0.7352 -0.9594
 5150SOL     OW26911   3.136   4.310  11.313  0.0849  0.2142 -0.1834
 5150SOL    HW126912   3.093   4.273  11.389 -1.0294  0.9298 -0.4622
 5150SOL    HW226913   3.219   4.263  11.323 -0.3676 -0.0363  2.4297
 5151SOL     OW26914   0.798   4.082   4.301  0.4526  0.2956 -0.8916
 5151SOL    HW126915   0.763   4.160   4.256  1.3141  1.4497  0.4468
 5151SOL    HW226916   0.887   4.112   4.317  0.4858 -0.8432  1.0703
 5152SOL     OW26917   2.646   2.029  16.932  0.0522 -0.1006  0.2906
 5152SOL    HW126918   2.717   2.093  16.935 -0.5837  0.6836 -1.1874
 5152SOL    HW226919   2.623   2.039  16.839  0.0655 -0.1920  0.2777
 5153SOL     OW26920   3.268   1.709   8.339  0.1239  0.2554 -0.2641
 5153SOL    HW126921   3.207   1.639   8.316 -1.6567  1.1386  1.7504
 5153SOL    HW226922   3.314   1.709   8.255 -1.5946  0.1303 -1.2095
 5154SOL     OW26923   1.983   3.958   5.047 -0.2199  0.4888 -0.1083
 5154SOL    HW126924   2.048   4.023   5.024  2.7984 -2.6642 -0.5118
 5154SOL    HW226925   1.958   3.977   5.138  0.5070  0.1540  0.1615
 5155SOL     OW26926   2.767   1.825   5.033 -0.5259  0.6717 -0.4582
 5155SOL    HW126927   2.742   1.733   5.035  0.1371  0.5241  1.2447
 5155SOL    HW226928   2.861   1.822   5.048 -0.7009 -0.6771  0.2853
 5156SOL     OW26929   0.578   0.466   1.165  0.1333  0.7993  0.5864
 5156SOL    HW126930   0.495   0.514   1.160  0.4396  1.3912  1.2578
 5156SOL    HW226931   0.590   0.445   1.073  0.8079  2.0715  0.3826
 5157SOL     OW26932   1.938   2.013  14.137  0.5097 -0.2725  0.1088
 5157SOL    HW126933   1.926   1.971  14.222 -0.6033 -0.3477 -0.0952
 5157SOL    HW226934   1.860   2.069  14.140  1.7275  1.3252  2.3909
 5158SOL     OW26935   1.147   4.218  16.586  0.5797  0.2932 -0.2940
 5158SOL    HW126936   1.067   4.265  16.564  0.6422  0.2027 -0.7038
 5158SOL    HW226937   1.149   4.128  16.552 -0.1591 -0.5601  1.8938
 5159SOL     OW26938   0.084   2.263   2.453  0.4318  0.0077  0.5634
 5159SOL    HW126939   0.075   2.180   2.499 -0.6960  1.1726  2.4596
 5159SOL    HW226940   0.157   2.302   2.501  1.0255  0.3862 -0.6454
 5160SOL     OW26941   2.938   0.019  17.706  0.3338 -0.0396  0.0909
 5160SOL    HW126942   2.944   4.684   0.068 -0.5729 -1.6347 -1.2034
 5160SOL    HW226943   2.847   4.725  17.684 -1.0352  1.4848  4.3130
 5161SOL     OW26944   3.689   3.373   9.431  0.2463 -0.3485  0.0466
 5161SOL    HW126945   3.749   3.323   9.485  0.3841  0.8072  0.9615
 5161SOL    HW226946   3.679   3.448   9.490  0.2692 -0.5445  0.2955
 5162SOL     OW26947   4.241   2.131   7.195 -0.4469  0.0059  0.7481
 5162SOL    HW126948   4.294   2.199   7.152 -2.2066  0.1377 -1.1942
 5162SOL    HW226949   4.267   2.136   7.287 -3.1420  2.3707  1.4009
 5163SOL     OW26950   1.519   3.546  16.884  0.3825  0.4567  0.3852
 5163SOL    HW126951   1.590   3.495  16.922  0.9511 -0.5570 -2.0869
 5163SOL    HW226952   1.568   3.568  16.806  0.4028 -1.6096 -0.1889
 5164SOL     OW26953   3.740   2.627   6.808 -0.0526  0.0672 -0.4185
 5164SOL    HW126954   3.659   2.632   6.858 -0.0649  0.3070 -0.4599
 5164SOL    HW226955   3.798   2.659   6.878  2.3537 -3.8066 -0.6334
 5165SOL     OW26956   2.790   2.761   2.453 -0.7433 -0.4562 -0.4041
 5165SOL    HW126957   2.860   2.714   2.407 -1.8767 -0.6949 -1.8814
 5165SOL    HW226958   2.748   2.693   2.505 -0.2029 -1.0262 -0.7141
 5166SOL     OW26959   4.583   0.418   1.425 -0.2874  0.2761  0.2095
 5166SOL    HW126960   4.525   0.491   1.400  0.6804  1.1096  0.3984
 5166SOL    HW226961   4.529   0.386   1.497  0.7432 -0.4793  0.6308
 5167SOL     OW26962   0.030   2.519   2.793 -0.7285  0.1875  0.2252
 5167SOL    HW126963   4.679   2.478   2.757 -0.4600 -0.6835  0.6451
 5167SOL    HW226964   0.033   2.469   2.874  2.5180  1.5058  0.9144
 5168SOL     OW26965   0.552   3.689   3.871 -0.0363  0.1487 -0.1283
 5168SOL    HW126966   0.497   3.697   3.794 -1.4946  0.6016  0.9514
 5168SOL    HW226967   0.637   3.711   3.833  0.4122 -0.3983  0.5468
 5169SOL     OW26968   3.801   2.422   3.902  0.2311 -0.3363  0.2417
 5169SOL    HW126969   3.736   2.480   3.864  0.9428  1.7373  2.2073
 5169SOL    HW226970   3.765   2.412   3.991 -0.4640 -0.9622 -0.1114
 5170SOL     OW26971   2.004   0.754   2.603 -0.1311 -0.3132  0.1660
 5170SOL    HW126972   1.989   0.849   2.602 -2.7061 -0.7187 -1.1081
 5170SOL    HW226973   1.968   0.734   2.689  2.5257 -0.2872  1.2669
 5171SOL     OW26974   1.549   1.247  10.133  0.6028  0.2887  0.7330
 5171SOL    HW126975   1.597   1.330  10.124 -0.0102  0.4425 -1.0656
 5171SOL    HW226976   1.463   1.271  10.167  0.5406  1.1505 -0.0315
 5172SOL     OW26977   2.178   0.293   5.171  0.7145 -0.0147 -0.5611
 5172SOL    HW126978   2.176   0.388   5.179  1.4170  0.1215 -2.0998
 5172SOL    HW226979   2.257   0.270   5.123  1.4420  0.4224  0.4335
 5173SOL     OW26980   3.163   3.333  10.136 -0.3481 -0.3227  0.0498
 5173SOL    HW126981   3.221   3.294  10.070  0.8694  0.5284  0.6389
 5173SOL    HW226982   3.234   3.350  10.198 -0.4858 -1.9036  0.6441
 5174SOL     OW26983   3.101   0.839   5.108  0.1180  0.4059  0.4174
 5174SOL    HW126984   3.102   0.748   5.140 -2.1501  0.2654  0.0963
 5174SOL    HW226985   3.008   0.850   5.089  0.0131 -0.6045  0.3552
 5175SOL     OW26986   1.353   3.393   1.211  0.1597  0.4816 -0.5486
 5175SOL    HW126987   1.339   3.487   1.198 -1.5783  0.3575  0.5260
 5175SOL    HW226988   1.304   3.360   1.136 -0.8924  1.9378 -0.4880
 5176SOL     OW26989   1.585   0.484   5.352 -0.1221  0.1565 -0.1968
 5176SOL    HW126990   1.510   0.431   5.380  1.4406 -0.6267  2.5048
 5176SOL    HW226991   1.588   0.550   5.422  0.7104 -0.2704  0.1633
 5177SOL     OW26992   4.221   0.004   1.659  0.4674  0.3159  0.1413
 5177SOL    HW126993   4.168   4.717   1.737  1.6835 -0.6603  0.7927
 5177SOL    HW226994   4.155   0.005   1.590  0.7675 -1.8426 -0.1945
 5178SOL     OW26995   1.663   1.488   0.673 -0.3986  0.2849  0.3310
 5178SOL    HW126996   1.744   1.503   0.623 -1.4282  2.0834 -0.8113
 5178SOL    HW226997   1.632   1.401   0.648  1.0996 -0.4554  1.0531
 5179SOL     OW26998   4.534   0.842   9.561 -0.3702  0.0183  0.4006
 5179SOL    HW126999   4.517   0.837   9.655  1.3302  0.3941  0.7386
 5179SOL    HW227000   4.592   0.768   9.544  1.5496  1.7619 -0.6948
 5180SOL     OW27001   2.722   4.601   6.860  0.0941 -0.6256  0.3439
 5180SOL    HW127002   2.666   4.535   6.819 -1.5940  0.8253  0.3359
 5180SOL    HW227003   2.803   4.576   6.815  0.3717  0.9621 -0.0567
 5181SOL     OW27004   1.515   4.107   6.712  0.2106  0.2805 -0.1366
 5181SOL    HW127005   1.592   4.127   6.659  0.4166  2.0711  0.8351
 5181SOL    HW227006   1.544   4.155   6.790  0.9157  0.0455 -0.2609
 5182SOL     OW27007   4.152   2.253   2.229 -0.0634 -0.7661  0.1195
 5182SOL    HW127008   4.205   2.180   2.196 -0.8171 -0.3629 -2.0117
 5182SOL    HW227009   4.064   2.215   2.229 -0.0102 -0.8704  1.9893
 5183SOL     OW27010   3.137   4.557   6.111 -0.0593 -0.0409  0.2752
 5183SOL    HW127011   3.063   4.549   6.052  0.3099 -0.1098 -0.1740
 5183SOL    HW227012   3.152   4.463   6.121 -0.7914 -0.1321  0.4739
 5184SOL     OW27013   0.515   2.814   7.512 -0.7609  0.3634  0.0775
 5184SOL    HW127014   0.482   2.799   7.600 -0.5655 -2.5637 -0.3229
 5184SOL    HW227015   0.526   2.723   7.484 -4.4108 -0.3685  1.0257
 5185SOL     OW27016   1.287   4.108   7.646  0.4133  0.3192 -0.0152
 5185SOL    HW127017   1.348   4.034   7.651  0.8788  0.6190 -1.4102
 5185SOL    HW227018   1.228   4.088   7.719  0.3064 -3.5816 -1.1443
 5186SOL     OW27019   4.490   3.623   5.676 -0.7195  0.0330  0.2608
 5186SOL    HW127020   4.554   3.639   5.606 -0.3650 -0.2780  0.5161
 5186SOL    HW227021   4.535   3.555   5.726  1.8825  1.2164 -0.4461
 5187SOL     OW27022   2.590   1.354  15.868 -0.1815 -0.2314  0.6148
 5187SOL    HW127023   2.673   1.366  15.822 -0.2660  0.6993  0.7206
 5187SOL    HW227024   2.556   1.270  15.836 -0.8044 -1.1786  3.7377
 5188SOL     OW27025   0.476   3.899   4.537  0.5303 -0.5708 -0.0246
 5188SOL    HW127026   0.542   3.966   4.549  0.1137  0.1866 -1.9790
 5188SOL    HW227027   0.532   3.821   4.543  1.6236  0.1822 -0.5878
 5189SOL     OW27028   0.635   2.148   5.297 -0.3452 -0.2151 -0.5936
 5189SOL    HW127029   0.619   2.108   5.212 -0.9657 -3.0337  0.8270
 5189SOL    HW227030   0.696   2.219   5.275 -1.3257  0.8109 -0.0262
 5190SOL     OW27031   1.301   1.073   0.123  0.2306 -0.5352 -0.2035
 5190SOL    HW127032   1.224   1.054   0.176 -1.5803  1.8738 -2.0378
 5190SOL    HW227033   1.350   1.131   0.182 -0.4809  0.7664 -0.8926
 5191SOL     OW27034   2.097   0.490   4.144 -0.8330  0.1607 -1.0302
 5191SOL    HW127035   2.169   0.429   4.131 -1.7389 -0.7339 -1.8483
 5191SOL    HW227036   2.141   0.548   4.206 -1.3396 -1.2846  0.7079
 5192SOL     OW27037   1.662   0.949   2.765  0.2151 -0.3174 -0.5245
 5192SOL    HW127038   1.714   0.890   2.820  1.0957 -0.7402 -1.8136
 5192SOL    HW227039   1.605   0.982   2.834 -0.7224 -1.4888 -0.7303
 5193SOL     OW27040   2.783   0.417   9.628  0.7652  0.1488  0.2065
 5193SOL    HW127041   2.823   0.497   9.595  1.2300 -0.6557 -1.1640
 5193SOL    HW227042   2.792   0.421   9.723 -0.7246 -0.9109  0.4006
 5194SOL     OW27043   2.297   4.189   5.620  0.5696 -0.1151  0.3945
 5194SOL    HW127044   2.319   4.279   5.600  0.0227 -0.1749 -0.4722
 5194SOL    HW227045   2.211   4.188   5.578  1.9077 -1.1590 -2.3539
 5195SOL     OW27046   2.412   3.430  17.057  0.2052  0.0249 -0.4719
 5195SOL    HW127047   2.390   3.351  17.106 -1.4222 -0.1321 -1.4728
 5195SOL    HW227048   2.410   3.404  16.965  0.6497 -0.2144 -0.4184
 5196SOL     OW27049   1.473   1.187  12.317  0.0622  0.9167  0.2775
 5196SOL    HW127050   1.510   1.124  12.379  1.1152  0.3984 -0.8569
 5196SOL    HW227051   1.512   1.264  12.358 -0.6000  1.5360 -0.2577
 5197SOL     OW27052   2.607   3.841  17.084 -0.7548  0.0524 -0.1916
 5197SOL    HW127053   2.639   3.840  17.174  2.6974 -0.2714 -1.3853
 5197SOL    HW227054   2.528   3.893  17.095  0.6269  2.5451 -1.8989
 5198SOL     OW27055   4.162   0.217   1.908 -0.0372 -0.0500  0.1817
 5198SOL    HW127056   4.077   0.202   1.867 -0.2301  0.5863  0.3574
 5198SOL    HW227057   4.161   0.312   1.907  0.3346 -0.0359  1.6021
 5199SOL     OW27058   2.216   1.928  10.787  0.2487 -0.6859 -0.4283
 5199SOL    HW127059   2.212   1.948  10.881 -2.2719  3.1041 -1.3517
 5199SOL    HW227060   2.128   1.940  10.751 -1.6509 -2.5311  3.5435
 5200SOL     OW27061   3.532   4.297   6.893  0.1538 -0.2568  0.0330
 5200SOL    HW127062   3.483   4.348   6.957  1.3725  0.2982  0.5336
 5200SOL    HW227063   3.460   4.279   6.833 -0.3364  1.2919  0.1749
 5201SOL     OW27064   4.293   1.515   1.996 -0.4391 -0.2309 -0.2795
 5201SOL    HW127065   4.245   1.461   2.058  3.5182 -1.9084  1.2944
 5201SOL    HW227066   4.288   1.480   1.907  0.4002  0.1751 -0.4893
 5202SOL     OW27067   2.517   2.794  11.622  0.4908  0.1727 -0.2272
 5202SOL    HW127068   2.494   2.865  11.563  2.3843 -0.6413 -1.9403
 5202SOL    HW227069   2.609   2.809  11.645 -0.0224  2.1551  0.5453
 5203SOL     OW27070   4.281   3.761  16.534  0.1407 -1.0877 -0.4119
 5203SOL    HW127071   4.238   3.730  16.613  0.7971  0.9019  0.7029
 5203SOL    HW227072   4.337   3.829  16.570  0.0515  0.6331 -3.5316
 5204SOL     OW27073   3.632   1.845   3.715  0.5938 -0.0831  0.4078
 5204SOL    HW127074   3.561   1.904   3.691  0.7948 -0.0369 -0.0772
 5204SOL    HW227075   3.636   1.838   3.810 -0.2252 -1.7309  0.3249
 5205SOL     OW27076   0.457   2.811   6.018  0.6936  0.2114 -0.3365
 5205SOL    HW127077   0.493   2.899   6.006 -0.0133  0.7001  1.1015
 5205SOL    HW227078   0.413   2.795   5.934 -0.6681 -1.0655  0.6205
 5206SOL     OW27079   1.609   0.462   1.488 -0.1654 -0.1584  0.3600
 5206SOL    HW127080   1.575   0.551   1.496 -0.3734 -0.1629 -0.5094
 5206SOL    HW227081   1.701   0.490   1.488 -0.3882  0.5735  0.7313
 5207SOL     OW27082   2.443   2.682   6.610  0.2513 -0.2171 -0.1765
 5207SOL    HW127083   2.428   2.759   6.664  1.9645 -0.2877  0.4024
 5207SOL    HW227084   2.364   2.634   6.637 -0.9204  2.0982  0.4723
 5208SOL     OW27085   3.846   2.289   0.450  0.4001 -0.1295  0.2142
 5208SOL    HW127086   3.879   2.330   0.530 -0.9300 -0.4903  0.9534
 5208SOL    HW227087   3.921   2.305   0.393 -1.4141 -0.3689 -2.2487
 5209SOL     OW27088   1.007   1.389   4.176 -0.0980 -0.9221 -0.2660
 5209SOL    HW127089   1.077   1.444   4.209  0.2911 -1.0048 -0.9630
 5209SOL    HW227090   0.927   1.419   4.220  0.2902  2.0677 -1.5941
 5210SOL     OW27091   3.233   3.508  14.145  0.2471 -0.4981  0.2256
 5210SOL    HW127092   3.269   3.507  14.234  1.6884 -1.2655 -0.3898
 5210SOL    HW227093   3.194   3.421  14.138  0.4282 -0.5160 -0.5682
 5211SOL     OW27094   0.411   4.553   5.928 -0.7207  0.0235 -0.0181
 5211SOL    HW127095   0.423   4.638   5.971  1.6853 -0.3510  0.0344
 5211SOL    HW227096   0.395   4.502   6.008 -0.5195  0.3083  0.2053
 5212SOL     OW27097   3.305   0.590  10.101 -0.3867  0.0331  0.1538
 5212SOL    HW127098   3.249   0.517  10.129  1.0697  0.1397  3.3498
 5212SOL    HW227099   3.378   0.590  10.163 -2.4728  3.3229  2.6292
 5213SOL     OW27100   2.668   4.536   2.563  0.7143  0.5417  0.0045
 5213SOL    HW127101   2.660   4.612   2.621  0.2100  1.2442 -0.9882
 5213SOL    HW227102   2.638   4.571   2.479 -0.1528 -0.0880  0.0414
 5214SOL     OW27103   2.776   1.445   5.406 -0.5843 -0.3127 -0.1721
 5214SOL    HW127104   2.690   1.421   5.370 -1.2186 -0.6856  1.5581
 5214SOL    HW227105   2.799   1.512   5.342 -0.1331 -1.0223 -0.7514
 5215SOL     OW27106   4.451   2.610   0.500  0.2863 -0.1445 -0.4389
 5215SOL    HW127107   4.473   2.516   0.499  0.5735 -0.0670 -0.9219
 5215SOL    HW227108   4.524   2.656   0.460  2.3519 -0.9113  2.4201
 5216SOL     OW27109   1.164   0.669   8.328  0.2165  0.7101 -0.4095
 5216SOL    HW127110   1.234   0.606   8.315  1.3343  1.8575  0.0224
 5216SOL    HW227111   1.121   0.671   8.243 -1.0595  0.6099  0.2230
 5217SOL     OW27112   2.176   3.567   7.724 -0.7219 -0.2605  0.1252
 5217SOL    HW127113   2.122   3.495   7.692  0.5838 -1.4615  0.6430
 5217SOL    HW227114   2.228   3.602   7.652 -0.7027 -0.5906 -0.0200
 5218SOL     OW27115   2.275   3.610   8.578 -0.1417  0.1874 -0.3229
 5218SOL    HW127116   2.293   3.686   8.633 -1.5114  1.3112 -1.3999
 5218SOL    HW227117   2.358   3.574   8.548 -0.1372 -0.4429  0.4718
 5219SOL     OW27118   3.847   2.984  13.913  0.2198 -0.3121  0.0629
 5219SOL    HW127119   3.893   2.981  13.997 -1.0505  1.6776  0.8180
 5219SOL    HW227120   3.864   3.076  13.896  0.2163 -0.6131 -1.6060
 5220SOL     OW27121   0.073   4.420   4.004 -0.3272 -0.2672  0.1997
 5220SOL    HW127122   0.120   4.463   3.933 -0.2407 -0.2923  0.2425
 5220SOL    HW227123   4.720   4.473   4.010  0.6630  1.1282  0.8922
 5221SOL     OW27124   0.075   2.457  11.447 -0.5869  0.2911 -0.7420
 5221SOL    HW127125   4.714   2.426  11.468 -0.2353  0.3732  0.8950
 5221SOL    HW227126   0.076   2.535  11.503 -1.3960 -1.1623  1.2968
 5222SOL     OW27127   3.157   3.668   0.911  0.2154  0.1976  0.5344
 5222SOL    HW127128   3.096   3.644   0.841  1.1982  1.8474 -0.8869
 5222SOL    HW227129   3.221   3.597   0.919  2.9978  2.6750  0.4816
 5223SOL     OW27130   1.009   3.518   1.969  0.8206 -0.3313 -0.1445
 5223SOL    HW127131   1.042   3.608   1.962  1.9188 -0.6993  0.3340
 5223SOL    HW227132   1.081   3.479   1.920  1.8297  0.0551  1.0283
 5224SOL     OW27133   3.114   4.478   3.218  0.1015  0.0574  0.3929
 5224SOL    HW127134   3.097   4.383   3.217  0.5639 -0.0388  1.9937
 5224SOL    HW227135   3.053   4.507   3.151  2.6976  0.3368 -1.8492
 5225SOL     OW27136   4.502   0.529   5.733 -0.8726 -0.4309  0.0269
 5225SOL    HW127137   4.555   0.474   5.676  1.1093  0.2641  1.1561
 5225SOL    HW227138   4.415   0.491   5.734 -1.0657  0.0197  0.2194
 5226SOL     OW27139   1.487   1.044   4.247 -0.4642  0.2268 -0.0472
 5226SOL    HW127140   1.524   0.958   4.228 -1.0923 -0.0195 -0.1440
 5226SOL    HW227141   1.478   1.097   4.168  0.8259 -0.6757 -0.7966
 5227SOL     OW27142   4.581   2.621   3.064 -0.3853  0.2101  0.2001
 5227SOL    HW127143   4.653   2.684   3.063 -1.4963  1.4503 -0.9487
 5227SOL    HW227144   4.528   2.642   2.988  0.7038 -1.4284 -1.0118
 5228SOL     OW27145   3.728   2.382  12.678  0.4268 -0.2982  0.3115
 5228SOL    HW127146   3.814   2.409  12.711  0.4629  1.3168 -1.0927
 5228SOL    HW227147   3.684   2.349  12.756 -1.2574  0.8761 -0.1488
 5229SOL     OW27148   3.411   1.660  11.931 -0.6652 -0.1483  0.4185
 5229SOL    HW127149   3.345   1.727  11.947 -1.7644 -0.7638 -1.6017
 5229SOL    HW227150   3.439   1.672  11.841 -0.4990 -0.7203  0.3944
 5230SOL     OW27151   4.571   1.107   6.090  0.3697 -0.0736 -0.6167
 5230SOL    HW127152   4.614   1.137   6.010 -0.6694  0.4481 -0.9884
 5230SOL    HW227153   4.586   1.013   6.089  2.0828  0.2037  0.7041
 5231SOL     OW27154   4.457   3.657   7.828 -1.1093  0.3908 -0.1900
 5231SOL    HW127155   4.367   3.671   7.800 -0.2067  0.8578 -2.8867
 5231SOL    HW227156   4.450   3.566   7.857  0.0457  0.0803 -0.8491
 5232SOL     OW27157   1.796   1.787   8.665  0.3187  0.4497 -0.5227
 5232SOL    HW127158   1.889   1.792   8.685 -0.4432  0.3994  3.1069
 5232SOL    HW227159   1.804   1.769   8.572  0.1776  2.1498 -0.8634
 5233SOL     OW27160   0.699   0.199   2.361  0.5469  0.0868 -0.0880
 5233SOL    HW127161   0.682   0.240   2.446 -4.8876 -0.6758 -0.8477
 5233SOL    HW227162   0.779   0.244   2.333  1.0308 -1.3913 -1.0858
 5234SOL     OW27163   0.452   1.100   8.143 -0.0027 -0.0720  0.4227
 5234SOL    HW127164   0.399   1.024   8.118 -2.6582  1.7195  0.6623
 5234SOL    HW227165   0.398   1.167   8.102 -0.5677 -0.6046  0.3004
 5235SOL     OW27166   3.202   2.600   4.089  0.0729 -0.3751  0.1932
 5235SOL    HW127167   3.132   2.606   4.025 -0.1035  1.4116  0.5548
 5235SOL    HW227168   3.177   2.518   4.131 -0.0145  0.9718  2.7974
 5236SOL     OW27169   4.329   1.156  12.089  0.4134 -0.1364  0.0652
 5236SOL    HW127170   4.338   1.178  12.182  0.4469  0.1257  0.0017
 5236SOL    HW227171   4.324   1.244  12.050 -1.9248 -0.2224  0.2117
 5237SOL     OW27172   3.101   0.517   7.114 -0.1057  0.4960  0.6387
 5237SOL    HW127173   3.009   0.521   7.138 -0.6588 -1.8224 -0.9948
 5237SOL    HW227174   3.097   0.546   7.023 -0.1232 -0.6335  0.2729
 5238SOL     OW27175   2.496   1.100  15.063  0.0610  0.8576  0.3531
 5238SOL    HW127176   2.442   1.035  15.019  0.8885  0.3813  0.0335
 5238SOL    HW227177   2.440   1.160  15.113  0.5202  1.0895  0.5994
 5239SOL     OW27178   1.608   1.416  11.465 -0.0640 -0.3629  0.6371
 5239SOL    HW127179   1.644   1.501  11.439  1.4648 -0.5454  2.1710
 5239SOL    HW227180   1.599   1.366  11.384 -1.4524  1.9121 -0.6290
 5240SOL     OW27181   4.289   3.657  12.730  0.0671 -0.5429  0.0195
 5240SOL    HW127182   4.198   3.676  12.751 -0.3726 -2.9083  0.1903
 5240SOL    HW227183   4.309   3.632  12.820  1.5708  3.4241  0.7686
 5241SOL     OW27184   3.336   0.587   4.019 -0.5418  0.4388  0.0170
 5241SOL    HW127185   3.369   0.667   4.060 -0.3531  0.8090 -0.8717
 5241SOL    HW227186   3.243   0.595   4.041 -0.7080  0.9525 -0.8689
 5242SOL     OW27187   3.675   0.574   4.856  0.5742  0.1984 -0.5426
 5242SOL    HW127188   3.668   0.667   4.836 -0.3266  0.5088  1.1791
 5242SOL    HW227189   3.685   0.578   4.951 -1.1535 -0.8366 -0.3356
 5243SOL     OW27190   2.685   0.925  14.894 -0.3592  0.3281  0.3608
 5243SOL    HW127191   2.674   0.927  14.799  1.8226 -1.9924  0.0731
 5243SOL    HW227192   2.765   0.878  14.915 -0.8325  0.0164  1.4868
 5244SOL     OW27193   2.144   4.422   3.003 -0.9120 -0.0923 -0.4352
 5244SOL    HW127194   2.142   4.402   3.097 -1.8031 -3.2988 -1.1362
 5244SOL    HW227195   2.188   4.341   2.976  2.0778  1.3225  0.1598
 5245SOL     OW27196   2.128   2.207  11.397  0.5896 -0.0957  0.0882
 5245SOL    HW127197   2.068   2.223  11.470  0.5974 -3.5064  0.8795
 5245SOL    HW227198   2.078   2.182  11.319 -0.2852  1.6977  0.0710
 5246SOL     OW27199   1.507   4.188   5.330  0.0606  0.2126 -0.6315
 5246SOL    HW127200   1.481   4.162   5.419  0.2039  0.3928 -0.5382
 5246SOL    HW227201   1.526   4.281   5.341  1.1153  0.0415 -1.0108
 5247SOL     OW27202   3.862   0.548   9.744  0.0292  0.2274  0.0782
 5247SOL    HW127203   3.912   0.606   9.801 -0.1886  1.7263 -1.2483
 5247SOL    HW227204   3.935   0.507   9.697  0.1941 -0.1672  0.6876
 5248SOL     OW27205   0.804   2.683   1.214  0.1015 -0.4910  0.4924
 5248SOL    HW127206   0.829   2.735   1.290 -1.4405 -0.1231  0.7478
 5248SOL    HW227207   0.874   2.619   1.227  1.2246  0.6395 -0.0281
 5249SOL     OW27208   1.423   0.502   9.425  0.4915  0.2293  0.0177
 5249SOL    HW127209   1.336   0.471   9.449  0.2162 -0.2554 -1.6303
 5249SOL    HW227210   1.479   0.425   9.418  1.4698  0.7777  1.7828
 5250SOL     OW27211   1.202   2.931   2.911 -0.7931  0.7863  0.0505
 5250SOL    HW127212   1.195   3.019   2.950 -0.5293  1.1330 -0.6711
 5250SOL    HW227213   1.117   2.915   2.871 -0.2959 -0.4439 -0.5045
 5251SOL     OW27214   3.962   1.947   4.614 -0.1431 -0.3909  0.1334
 5251SOL    HW127215   3.993   1.891   4.543  0.6622 -0.5288  0.5966
 5251SOL    HW227216   4.011   2.026   4.591  0.3359 -1.1729 -1.5573
 5252SOL     OW27217   0.933   0.249   7.773 -0.3191 -0.2141  0.5073
 5252SOL    HW127218   0.903   0.196   7.699  1.2282 -0.9073  0.3717
 5252SOL    HW227219   0.871   0.321   7.786  0.6357  0.2137  2.5960
 5253SOL     OW27220   4.041   0.625   1.575 -0.0782  0.0095  0.1627
 5253SOL    HW127221   3.993   0.542   1.579 -0.7417  0.4096  0.6473
 5253SOL    HW227222   4.016   0.658   1.488 -0.2328 -1.2556 -0.2632
 5254SOL     OW27223   0.537   1.980   7.761 -0.2847  0.2009 -0.2939
 5254SOL    HW127224   0.606   2.044   7.747  0.5282 -0.3879  1.0533
 5254SOL    HW227225   0.487   1.988   7.680  0.6919  0.6354 -0.8527
 5255SOL     OW27226   1.860   1.876  17.701 -0.0357 -0.7598 -0.6537
 5255SOL    HW127227   1.922   1.932  17.654 -1.4002 -0.1011 -1.6676
 5255SOL    HW227228   1.873   1.899   0.084  0.8595 -1.3445 -0.6367
 5256SOL     OW27229   1.143   2.992   5.915  0.5310 -0.0000  0.4127
 5256SOL    HW127230   1.213   3.052   5.888  0.7514 -0.2189  0.4976
 5256SOL    HW227231   1.071   3.052   5.932  2.2140  1.7397  1.3664
 5257SOL     OW27232   2.152   0.955   5.477  0.6641  0.2749 -0.0310
 5257SOL    HW127233   2.112   1.009   5.409 -0.7398 -0.3037  0.3366
 5257SOL    HW227234   2.129   0.867   5.448  2.2388 -0.2904  0.4026
 5258SOL     OW27235   1.301   1.864   5.500 -0.7985 -0.0760 -0.6859
 5258SOL    HW127236   1.328   1.884   5.590  1.2087  2.7646 -1.9359
 5258SOL    HW227237   1.387   1.860   5.458 -1.1922  0.5023 -1.5530
 5259SOL     OW27238   1.043   2.371   2.369 -0.4175 -0.0789  0.0795
 5259SOL    HW127239   1.134   2.360   2.341 -0.4546 -0.3264  0.0548
 5259SOL    HW227240   0.997   2.311   2.311 -0.7005 -2.0278  2.3276
 5260SOL     OW27241   3.285   0.070   3.057 -0.6009 -0.0968 -0.3080
 5260SOL    HW127242   3.267   0.035   2.970 -1.2574 -0.1791 -0.1437
 5260SOL    HW227243   3.305   0.162   3.039 -0.9040 -0.1502 -0.9182
 5261SOL     OW27244   4.349   1.509   1.319  0.0604 -0.7304 -0.0741
 5261SOL    HW127245   4.423   1.482   1.375  0.2670 -0.1920 -0.0949
 5261SOL    HW227246   4.370   1.602   1.315  0.4118 -0.8383 -0.6749
 5262SOL     OW27247   1.876   0.692  15.155 -0.2742 -0.0306  0.2229
 5262SOL    HW127248   1.790   0.660  15.179 -0.3001  0.3853  0.6753
 5262SOL    HW227249   1.919   0.610  15.128  0.3490  0.8285 -1.3917
 5263SOL     OW27250   1.197   3.960   7.861  0.3001  1.0808 -0.1939
 5263SOL    HW127251   1.197   4.005   7.946 -2.9130  0.1134  0.3172
 5263SOL    HW227252   1.130   3.895   7.880  0.7584  1.2136  1.9833
 5264SOL     OW27253   1.600   3.203   1.791  0.5021 -0.2866  0.1326
 5264SOL    HW127254   1.516   3.229   1.828  0.9976  2.7668 -0.8431
 5264SOL    HW227255   1.659   3.243   1.855  2.2504 -0.8409 -1.1157
 5265SOL     OW27256   2.678   3.047   3.621 -0.3912 -0.1961  0.3514
 5265SOL    HW127257   2.766   3.010   3.622 -0.0466  0.6847  2.6085
 5265SOL    HW227258   2.682   3.108   3.547  0.0406 -0.9839 -0.2732
 5266SOL     OW27259   0.399   0.573   2.698 -0.0357 -0.2892  0.3289
 5266SOL    HW127260   0.346   0.543   2.625  1.4865  0.9404 -1.2942
 5266SOL    HW227261   0.490   0.546   2.681  0.0005  0.4420 -0.6420
 5267SOL     OW27262   0.465   2.050   0.240 -0.5129  0.3390 -0.0856
 5267SOL    HW127263   0.498   2.137   0.220 -1.6460  1.0906  1.3071
 5267SOL    HW227264   0.462   2.017   0.151 -1.0592  1.3778 -0.4532
 5268SOL     OW27265   1.181   4.562   6.371 -0.2661 -0.8271 -0.4826
 5268SOL    HW127266   1.110   4.507   6.338 -1.9536 -0.8953  3.3443
 5268SOL    HW227267   1.205   4.519   6.453 -0.9202 -0.3707 -0.0499
 5269SOL     OW27268   2.378   3.943   0.272 -0.4357 -0.7626 -0.3877
 5269SOL    HW127269   2.293   3.985   0.260 -0.2803 -0.5087 -0.5940
 5269SOL    HW227270   2.373   3.870   0.210  1.8825 -2.9823  2.0593
 5270SOL     OW27271   1.139   1.212  16.895 -0.5659 -0.8437  0.2159
 5270SOL    HW127272   1.232   1.211  16.917 -0.2858 -1.8970 -1.0313
 5270SOL    HW227273   1.102   1.127  16.918 -1.6590 -0.1540  1.0291
 5271SOL     OW27274   0.661   3.219  17.398  0.4304  0.6998 -0.6406
 5271SOL    HW127275   0.668   3.309  17.366 -0.9649  0.8695 -0.4610
 5271SOL    HW227276   0.754   3.195  17.401  0.6649  1.4244 -1.9430
 5272SOL     OW27277   0.965   3.451   7.603 -0.0037  0.0894  0.1015
 5272SOL    HW127278   0.960   3.414   7.691  0.3235  2.0069  0.9386
 5272SOL    HW227279   0.958   3.380   7.539 -1.6782  0.0482  0.3453
 5273SOL     OW27280   1.651   3.853   1.691 -0.6708 -0.5912  0.6362
 5273SOL    HW127281   1.671   3.809   1.773  0.3463  0.7817  1.1296
 5273SOL    HW227282   1.583   3.915   1.717  0.5130  0.5037  1.0818
 5274SOL     OW27283   0.731   0.783  15.110  0.2877  0.7458  0.2131
 5274SOL    HW127284   0.776   0.811  15.190  0.4342 -0.2974  0.4915
 5274SOL    HW227285   0.747   0.690  15.124 -0.1723  0.7114  0.4927
 5275SOL     OW27286   3.017   0.485   4.369  0.7020  0.1356  0.3069
 5275SOL    HW127287   3.058   0.486   4.455  2.0794 -0.6099 -0.3454
 5275SOL    HW227288   3.088   0.446   4.318  0.0576 -0.6135 -0.0175
 5276SOL     OW27289   0.659   0.202   2.826  0.1670 -0.0716 -0.4053
 5276SOL    HW127290   0.640   0.171   2.914  1.0541  0.7775  0.0808
 5276SOL    HW227291   0.736   0.149   2.809  1.2786  0.7285  2.2016
 5277SOL     OW27292   2.887   0.776  12.653 -0.1815  0.3170  0.2638
 5277SOL    HW127293   2.982   0.784  12.644 -0.0879 -0.4951  0.5537
 5277SOL    HW227294   2.861   0.776  12.561 -1.2545 -0.5028  0.5691
 5278SOL     OW27295   0.449   0.690  15.444  0.1761  0.1130  0.0526
 5278SOL    HW127296   0.538   0.668  15.415  0.1559 -1.8222  1.5131
 5278SOL    HW227297   0.464   0.667  15.535  1.0949 -0.7752 -0.3186
 5279SOL     OW27298   3.085   2.664   7.898  0.0944  0.0212  0.2980
 5279SOL    HW127299   3.046   2.744   7.934 -0.5871 -0.1441 -0.0648
 5279SOL    HW227300   3.153   2.658   7.964  0.2638 -0.6320  0.0624
 5280SOL     OW27301   1.811   0.005   2.573 -0.3900  0.2176 -0.4217
 5280SOL    HW127302   1.837   4.704   2.485 -2.5380  0.8114 -1.2329
 5280SOL    HW227303   1.882   4.690   2.622  0.9455  1.8249 -0.9588
 5281SOL     OW27304   1.983   0.410   4.886 -0.2663  0.3754  0.3364
 5281SOL    HW127305   1.971   0.322   4.920 -0.1086 -0.1011 -0.8242
 5281SOL    HW227306   2.039   0.390   4.811 -1.5004  0.5055 -0.6238
 5282SOL     OW27307   3.533   4.147   7.770  0.3683 -0.1216  0.4569
 5282SOL    HW127308   3.529   4.051   7.769  1.7596 -0.1783  0.1888
 5282SOL    HW227309   3.626   4.166   7.781  0.5591 -0.7930  0.0145
 5283SOL     OW27310   1.281   1.510   5.167  0.1226  0.6739  0.7777
 5283SOL    HW127311   1.297   1.594   5.125  4.9644 -0.6585  0.0272
 5283SOL    HW227312   1.339   1.463   5.107 -2.2388 -0.4737 -0.6445
 5284SOL     OW27313   1.022   2.276   2.852  0.1580 -0.0278 -0.1442
 5284SOL    HW127314   1.109   2.244   2.828 -0.1854 -0.7130 -0.4906
 5284SOL    HW227315   0.987   2.282   2.763 -0.4332 -1.9274 -0.0298
 5285SOL     OW27316   4.502   3.006   2.241  0.1436 -0.2809  0.1591
 5285SOL    HW127317   4.502   3.054   2.323  0.9395  1.1103 -0.6496
 5285SOL    HW227318   4.564   2.935   2.257  1.7799  0.6371 -2.1269
 5286SOL     OW27319   3.732   2.646   5.583 -0.1996  0.4526  0.3408
 5286SOL    HW127320   3.801   2.707   5.608 -1.1205  0.9287  1.7097
 5286SOL    HW227321   3.745   2.588   5.658 -2.6992  0.3357  0.6761
 5287SOL     OW27322   1.135   3.965  16.472 -0.2344 -0.1704  0.0545
 5287SOL    HW127323   1.068   3.939  16.409  3.0403 -3.1335 -2.2100
 5287SOL    HW227324   1.220   3.942  16.434  0.7240  1.7140  1.0729
 5288SOL     OW27325   0.273   2.072   3.790  0.2975  0.2156 -0.0712
 5288SOL    HW127326   0.347   2.023   3.825  1.6212  3.6908  2.0194
 5288SOL    HW227327   0.222   1.995   3.764  0.1186 -0.2431  1.6060
 5289SOL     OW27328   3.507   3.866   0.396  0.8606 -0.0203  0.3491
 5289SOL    HW127329   3.429   3.843   0.346  2.0568 -2.8811 -0.1846
 5289SOL    HW227330   3.527   3.946   0.347  0.2832  0.8214  1.4747
 5290SOL     OW27331   0.141   0.915   1.959 -0.1572 -0.3108 -0.5180
 5290SOL    HW127332   0.079   0.988   1.966 -2.5601 -2.5191  1.5348
 5290SOL    HW227333   0.098   0.878   1.882 -1.8317 -0.7204  0.6044
 5291SOL     OW27334   4.595   0.558   9.058 -0.1103  0.4861  0.3323
 5291SOL    HW127335   4.560   0.517   8.979  0.6508  3.8385 -1.7506
 5291SOL    HW227336   4.641   0.627   9.011 -3.4978  2.7196  0.3059
 5292SOL     OW27337   2.547   3.709   7.303  0.3078  0.1227 -0.1288
 5292SOL    HW127338   2.547   3.796   7.344  1.9873 -0.5725  1.3238
 5292SOL    HW227339   2.457   3.677   7.300  0.4302 -0.3402  1.2166
 5293SOL     OW27340   0.163   1.353   9.407  0.3487 -1.1446 -0.2584
 5293SOL    HW127341   0.170   1.322   9.498  0.8385 -0.6082 -0.1147
 5293SOL    HW227342   0.248   1.392   9.390 -1.0478  1.0674 -2.1125
 5294SOL     OW27343   1.073   3.707  16.068 -0.0025  0.0234 -0.5551
 5294SOL    HW127344   1.015   3.639  16.104 -0.4606  0.2225 -0.9210
 5294SOL    HW227345   1.111   3.666  15.990  1.5343  0.4841 -0.0448
 5295SOL     OW27346   2.401   3.903  15.216 -0.0494  0.7023  0.3937
 5295SOL    HW127347   2.492   3.930  15.214  0.2192 -0.1033  1.9972
 5295SOL    HW227348   2.362   3.976  15.168 -0.2243  0.1026 -0.3929
 5296SOL     OW27349   3.244   3.802   6.556  1.0263 -0.5693  0.0461
 5296SOL    HW127350   3.166   3.854   6.536  1.2579 -0.2939 -0.1416
 5296SOL    HW227351   3.216   3.783   6.645 -0.7700  0.9950 -0.1868
 5297SOL     OW27352   3.748   1.215   4.656 -0.4208 -0.0891 -0.1994
 5297SOL    HW127353   3.747   1.287   4.592 -0.2326 -3.0615 -3.5976
 5297SOL    HW227354   3.703   1.145   4.609  0.3538 -1.4795  1.1698
 5298SOL     OW27355   3.792   3.731   7.222  0.5066 -0.3191  0.3937
 5298SOL    HW127356   3.816   3.777   7.141 -2.1556  1.2116  0.4712
 5298SOL    HW227357   3.841   3.649   7.216 -0.9910 -1.3015  1.5918
 5299SOL     OW27358   4.186   4.353   5.811  0.3335  0.2721 -0.2671
 5299SOL    HW127359   4.219   4.441   5.830  1.2017  0.1272 -1.0971
 5299SOL    HW227360   4.267   4.306   5.830  0.4883  0.6970  0.1154
 5300SOL     OW27361   2.070   2.267   1.125  0.2112  0.1924  0.4409
 5300SOL    HW127362   2.159   2.290   1.151  0.7201 -1.1596 -0.0939
 5300SOL    HW227363   2.044   2.189   1.173 -0.4826 -0.3361 -0.7771
 5301SOL     OW27364   3.950   0.780   8.901 -0.1257  0.2157 -0.5943
 5301SOL    HW127365   4.030   0.758   8.949 -0.4149 -2.7936 -1.4959
 5301SOL    HW227366   3.907   0.694   8.904 -0.3490  0.2470 -3.0194
 5302SOL     OW27367   3.134   4.110  13.612  0.5445  0.2887  0.3851
 5302SOL    HW127368   3.079   4.109  13.690 -0.1677  2.5567 -0.0867
 5302SOL    HW227369   3.176   4.027  13.634  0.4305  0.7700  2.4608
 5303SOL     OW27370   0.001   0.139  13.141 -0.8174  0.0589 -0.1764
 5303SOL    HW127371   4.688   0.086  13.072 -1.2177 -0.8079  0.7281
 5303SOL    HW227372   4.655   0.158  13.200  0.2325  0.6796  0.9221
 5304SOL     OW27373   0.255   1.837   5.838  0.0915 -0.2512 -0.6096
 5304SOL    HW127374   0.334   1.793   5.808  0.9226  0.8437 -0.0317
 5304SOL    HW227375   0.211   1.858   5.755  0.5551  1.2113 -0.4748
 5305SOL     OW27376   3.954   4.725   5.630  0.2522 -0.0918  0.0844
 5305SOL    HW127377   3.895   4.654   5.657  1.4539 -0.9579  0.4372
 5305SOL    HW227378   4.013   4.671   5.577 -1.7529  0.2507 -2.5005
 5306SOL     OW27379   4.461   4.666   7.595 -0.0382 -0.4092 -0.3123
 5306SOL    HW127380   4.474   4.595   7.658  0.4093  0.3922  0.4823
 5306SOL    HW227381   4.529   4.644   7.531  1.5295 -0.2858  1.3331
 5307SOL     OW27382   3.950   3.989   7.269  0.0916  0.2943 -0.5492
 5307SOL    HW127383   3.875   3.972   7.213 -1.1307  0.5903  1.0231
 5307SOL    HW227384   3.981   4.075   7.241  0.5983  0.2889 -0.0083
 5308SOL     OW27385   1.821   4.275   6.923 -0.0328  0.1016  0.0353
 5308SOL    HW127386   1.808   4.189   6.964  1.9002  0.0230  0.4908
 5308SOL    HW227387   1.806   4.337   6.994 -0.2355  0.5607 -0.4091
 5309SOL     OW27388   3.124   2.067   9.089  0.0055  0.5103  0.1245
 5309SOL    HW127389   3.029   2.077   9.100  0.1485 -1.5437  3.0799
 5309SOL    HW227390   3.140   2.000   9.155 -0.0658  1.3522  1.0029
 5310SOL     OW27391   1.689   2.829   2.503  0.1877 -0.0517 -0.2234
 5310SOL    HW127392   1.627   2.807   2.433 -0.7660  2.0510 -0.0550
 5310SOL    HW227393   1.626   2.861   2.567  0.5783 -0.6989  0.4788
 5311SOL     OW27394   1.939   1.496  13.522  0.6249 -0.2361  0.3740
 5311SOL    HW127395   2.026   1.484  13.561  0.1523  0.0805  1.5291
 5311SOL    HW227396   1.904   1.556  13.587  0.6192 -0.7843  0.8800
 5312SOL     OW27397   3.669   1.382   0.024  0.2475 -0.0983  0.1818
 5312SOL    HW127398   3.655   1.297   0.065  0.0192 -0.9486 -1.6624
 5312SOL    HW227399   3.600   1.436   0.064 -2.4552 -3.2856 -0.2217
 5313SOL     OW27400   3.668   1.389   3.531 -0.4209 -0.3073 -0.2270
 5313SOL    HW127401   3.629   1.442   3.600  1.0480  1.2410 -0.5718
 5313SOL    HW227402   3.600   1.372   3.466 -1.2021  0.4663  0.3994
 5314SOL     OW27403   4.076   3.354   4.515 -0.0561  0.1432  0.1305
 5314SOL    HW127404   4.016   3.376   4.443 -0.1771  2.4084  0.9219
 5314SOL    HW227405   4.081   3.437   4.561  1.0259 -0.0858  0.4211
 5315SOL     OW27406   4.145   3.843  11.095  0.9940  0.2814  0.1762
 5315SOL    HW127407   4.185   3.785  11.030 -1.2403 -0.6542 -0.3697
 5315SOL    HW227408   4.107   3.787  11.163 -1.9185  0.1496 -1.5596
 5316SOL     OW27409   4.130   2.606  10.484  0.4710  0.5550 -0.0913
 5316SOL    HW127410   4.162   2.516  10.496 -0.8107  0.4179  2.2031
 5316SOL    HW227411   4.076   2.617  10.562 -1.5269  2.5440 -1.7808
 5317SOL     OW27412   4.275   2.838   7.216 -0.2593  0.0583  0.1194
 5317SOL    HW127413   4.204   2.789   7.175 -0.3287  1.1842 -1.1304
 5317SOL    HW227414   4.345   2.780   7.185  1.1079  0.1725  3.0696
 5318SOL     OW27415   2.234   1.459   4.847 -0.3467  0.4852  0.3291
 5318SOL    HW127416   2.164   1.481   4.785  1.0017  2.8308 -0.3510
 5318SOL    HW227417   2.222   1.365   4.849 -1.2630  0.5955  0.1193
 5319SOL     OW27418   3.002   4.432   8.199 -0.3878  0.3480 -0.0339
 5319SOL    HW127419   3.095   4.411   8.194 -0.7245 -1.1985  0.3226
 5319SOL    HW227420   2.965   4.391   8.121 -1.8022  0.0175  0.8187
 5320SOL     OW27421   2.988   4.479   5.894 -0.3276 -0.3145 -0.3357
 5320SOL    HW127422   3.063   4.420   5.890 -0.4193 -0.4430 -0.1507
 5320SOL    HW227423   2.978   4.492   5.800  1.1290  0.0102 -0.4409
 5321SOL     OW27424   1.677   0.978  14.503 -0.3842  0.2506  0.0683
 5321SOL    HW127425   1.711   0.934  14.581  0.7372 -1.0995 -1.1795
 5321SOL    HW227426   1.614   0.915  14.468 -0.0696 -0.4124  0.7170
 5322SOL     OW27427   1.668   0.514   3.488  0.0580 -0.2284 -0.2536
 5322SOL    HW127428   1.716   0.442   3.531 -1.0958  0.3593  1.9854
 5322SOL    HW227429   1.583   0.473   3.477 -0.2421  0.0290  1.1089
 5323SOL     OW27430   4.705   1.018  13.784  0.1670 -0.4140  0.6172
 5323SOL    HW127431   0.004   1.109  13.770 -0.5636 -0.1462  1.0274
 5323SOL    HW227432   4.689   0.992  13.693  0.8963  1.0772  0.0568
 5324SOL     OW27433   1.827   1.867   1.503 -0.1374 -0.3492  0.1086
 5324SOL    HW127434   1.851   1.782   1.539  2.6221  1.3534  2.2475
 5324SOL    HW227435   1.752   1.848   1.447  1.0271 -2.1939 -0.8100
 5325SOL     OW27436   2.365   2.912   2.227 -0.0692  0.2591  0.1241
 5325SOL    HW127437   2.436   2.896   2.289 -2.3366 -1.2636  2.3760
 5325SOL    HW227438   2.288   2.912   2.285 -0.9966 -0.3996 -1.1234
 5326SOL     OW27439   2.919   1.105   0.166  0.1507 -0.0397  0.0087
 5326SOL    HW127440   2.916   1.017   0.201 -2.8347 -0.2558 -0.7827
 5326SOL    HW227441   2.825   1.122   0.164  0.1899  0.4489  2.6895
 5327SOL     OW27442   2.525   0.413   2.498 -0.1490  0.1918  0.4540
 5327SOL    HW127443   2.517   0.425   2.403  0.8321 -1.4560  0.1464
 5327SOL    HW227444   2.435   0.395   2.525 -0.6121  1.5354 -0.1937
 5328SOL     OW27445   1.107   1.600   6.579  0.1951 -0.7606  0.3316
 5328SOL    HW127446   1.087   1.675   6.635  3.0023 -1.0958  1.7639
 5328SOL    HW227447   1.099   1.634   6.489  2.2634  1.0143  0.8393
 5329SOL     OW27448   1.303   3.702  17.358  0.1348 -0.0853 -0.7006
 5329SOL    HW127449   1.355   3.680  17.281  1.9092  0.5101  0.3381
 5329SOL    HW227450   1.370   3.694  17.425 -1.4472  0.2635  0.9135
 5330SOL     OW27451   0.690   1.158  13.432 -0.0222 -0.9292 -0.3073
 5330SOL    HW127452   0.778   1.177  13.465 -0.0669  0.7147 -1.1565
 5330SOL    HW227453   0.713   1.128  13.344  1.3024 -2.5117  0.5739
 5331SOL     OW27454   0.955   1.081   0.647  0.3015 -0.7021  0.3118
 5331SOL    HW127455   0.959   0.991   0.681 -0.5548 -0.8782 -0.0412
 5331SOL    HW227456   1.046   1.097   0.670  0.1614 -1.8232  1.6857
 5332SOL     OW27457   3.526   3.984  13.910 -0.1271  1.0647  0.4555
 5332SOL    HW127458   3.462   4.055  13.903 -0.0268  1.2126  1.0733
 5332SOL    HW227459   3.589   4.029  13.854 -0.3384  0.9913  0.1620
 5333SOL     OW27460   2.730   4.075   2.245 -0.5832  0.1802  0.3628
 5333SOL    HW127461   2.647   4.032   2.228  0.0247 -1.0710  0.5557
 5333SOL    HW227462   2.743   4.048   2.336  0.3646  0.4265  0.3101
 5334SOL     OW27463   1.663   1.124   2.191 -0.0439 -0.6429  0.6616
 5334SOL    HW127464   1.662   1.039   2.235 -1.5835 -0.6210  0.6726
 5334SOL    HW227465   1.612   1.180   2.248 -1.5626 -0.3426 -0.9985
 5335SOL     OW27466   0.633   2.985   6.266  0.3344  0.1233 -0.5564
 5335SOL    HW127467   0.698   3.051   6.290 -0.1826 -0.0510  1.3767
 5335SOL    HW227468   0.685   2.926   6.212  2.3778  0.4670  1.0255
 5336SOL     OW27469   1.653   4.043   3.906  0.5163 -0.0568  0.4931
 5336SOL    HW127470   1.678   3.988   3.832  0.5860 -1.0841  1.2849
 5336SOL    HW227471   1.684   4.130   3.879 -3.4340  0.9826 -0.5863
 5337SOL     OW27472   2.036   2.111   0.473 -0.1769 -0.0103 -0.1348
 5337SOL    HW127473   2.131   2.105   0.462 -0.2727 -1.3706 -0.2195
 5337SOL    HW227474   2.031   2.198   0.513 -1.9964 -0.9937  1.7549
 5338SOL     OW27475   1.495   4.621   3.182  0.6177 -0.1956  0.1079
 5338SOL    HW127476   1.528   4.538   3.147 -0.4650  0.2393 -1.9221
 5338SOL    HW227477   1.466   4.661   3.100  0.6706  2.7782  1.5049
 5339SOL     OW27478   4.363   3.357  16.736  0.4918  0.1773  0.1332
 5339SOL    HW127479   4.284   3.305  16.749  0.6266  0.4408  1.9917
 5339SOL    HW227480   4.428   3.289  16.715  2.4838  1.8398  0.9477
 5340SOL     OW27481   2.986   4.716   8.624  0.2111  0.7190 -0.2861
 5340SOL    HW127482   3.024   4.690   8.540 -0.2406  0.8615 -0.5364
 5340SOL    HW227483   2.895   4.706   8.598  0.8301 -0.5505 -1.9356
 5341SOL     OW27484   0.523   2.341   7.705 -0.8325 -0.4853 -0.1162
 5341SOL    HW127485   0.547   2.398   7.632  0.1030 -0.3936  0.2713
 5341SOL    HW227486   0.427   2.332   7.702 -0.9864  0.8195  1.1734
 5342SOL     OW27487   3.818   3.823   3.695 -0.2207 -0.1501 -0.2554
 5342SOL    HW127488   3.866   3.775   3.627  0.7456  0.7390 -0.2013
 5342SOL    HW227489   3.757   3.870   3.639  1.5554 -0.7940 -2.7427
 5343SOL     OW27490   3.811   0.606   6.835 -0.1003  0.1080 -0.3675
 5343SOL    HW127491   3.845   0.621   6.747 -1.5693 -2.3375 -1.3522
 5343SOL    HW227492   3.887   0.588   6.890  0.0879 -0.4422 -0.8161
 5344SOL     OW27493   2.275   4.273  13.550 -0.4229 -0.4556 -0.3640
 5344SOL    HW127494   2.314   4.219  13.481  1.9425  0.2645  0.4072
 5344SOL    HW227495   2.311   4.222  13.623  0.2948 -0.7211 -0.9038
 5345SOL     OW27496   3.204   4.335   9.090  0.2306  0.4998  0.1582
 5345SOL    HW127497   3.198   4.242   9.111  2.3517  0.1990 -0.6299
 5345SOL    HW227498   3.175   4.373   9.173  1.0146 -1.7239  1.4688
 5346SOL     OW27499   1.237   1.635  15.482  0.1121 -0.0603 -0.0765
 5346SOL    HW127500   1.162   1.617  15.425  0.6499  1.9446 -1.4267
 5346SOL    HW227501   1.203   1.621  15.570 -2.0388  1.9245 -0.6266
 5347SOL     OW27502   1.617   0.048   6.799  0.2780  0.0915 -0.1495
 5347SOL    HW127503   1.596   0.080   6.712  2.1053 -0.0792 -0.6503
 5347SOL    HW227504   1.711   0.041   6.786  0.5209  1.9215  0.7091
 5348SOL     OW27505   1.917   0.810   3.734  1.0382  0.2428  0.1973
 5348SOL    HW127506   1.827   0.807   3.767  1.4995  1.0603  1.5217
 5348SOL    HW227507   1.941   0.718   3.742 -0.2670 -0.3245 -2.3680
 5349SOL     OW27508   1.753   3.539   1.759  0.1757 -0.4086 -0.4913
 5349SOL    HW127509   1.751   3.461   1.815  0.2097 -0.1752 -0.1630
 5349SOL    HW227510   1.840   3.570   1.786 -0.0867 -1.3754  1.4590
 5350SOL     OW27511   1.741   1.698   8.930 -0.3554 -0.4784  0.2989
 5350SOL    HW127512   1.837   1.697   8.931 -0.4166 -4.5075 -0.7690
 5350SOL    HW227513   1.727   1.747   8.849  0.6266  1.3514  1.2107
 5351SOL     OW27514   0.246   2.986  10.339  0.3970  0.1618  0.8584
 5351SOL    HW127515   0.220   3.022  10.254 -0.9486  1.8191  1.9929
 5351SOL    HW227516   0.336   3.016  10.353 -1.0310  2.9918  3.7758
 5352SOL     OW27517   3.247   0.464   2.135  0.3798  0.3391  0.0974
 5352SOL    HW127518   3.321   0.484   2.191  1.1756  1.1284 -1.2579
 5352SOL    HW227519   3.261   0.529   2.067  2.0436  0.8522  0.9379
 5353SOL     OW27520   2.733   2.892   3.262 -0.5884 -0.1578 -0.6987
 5353SOL    HW127521   2.672   2.884   3.188 -1.4954 -0.0013  0.0215
 5353SOL    HW227522   2.692   2.828   3.320 -0.3048  0.0137 -0.3119
 5354SOL     OW27523   2.579   2.120   8.067  0.2992  0.4411 -0.2525
 5354SOL    HW127524   2.610   2.122   8.158 -3.5656 -1.4777  1.0821
 5354SOL    HW227525   2.654   2.134   8.008 -0.2659 -1.1694 -1.3408
 5355SOL     OW27526   2.991   1.865  14.843  0.3391  0.5698  0.3197
 5355SOL    HW127527   2.972   1.792  14.784 -0.4724  0.9837  0.0746
 5355SOL    HW227528   2.911   1.876  14.894  0.2820  1.2941  0.0656
 5356SOL     OW27529   3.991   3.297   5.435  0.0232 -0.0355  0.5644
 5356SOL    HW127530   3.958   3.207   5.440 -0.7802  0.1499 -1.3860
 5356SOL    HW227531   3.932   3.330   5.368 -1.4939 -0.3933  1.7304
 5357SOL     OW27532   2.284   2.752  12.625 -0.2325 -0.4415 -0.1405
 5357SOL    HW127533   2.190   2.767  12.636 -0.2074  0.8613 -1.6905
 5357SOL    HW227534   2.312   2.836  12.660 -1.0984  0.2138 -1.0450
 5358SOL     OW27535   2.292   0.004  14.573  0.2253 -0.8849 -0.2335
 5358SOL    HW127536   2.224   4.676  14.534 -2.3465  1.7509  0.5644
 5358SOL    HW227537   2.252   0.029  14.656 -1.1533 -1.1882 -0.8176
 5359SOL     OW27538   3.230   1.342  10.908  0.1247  0.0365  0.6324
 5359SOL    HW127539   3.153   1.297  10.943  0.0707 -0.3327  0.0444
 5359SOL    HW227540   3.247   1.308  10.820 -0.9378  0.8342  0.1121
 5360SOL     OW27541   1.577   3.651   5.517 -0.3482 -0.1332 -0.4414
 5360SOL    HW127542   1.632   3.574   5.530 -1.0943 -0.9219 -1.9275
 5360SOL    HW227543   1.582   3.654   5.421 -0.8993  1.1001 -0.4455
 5361SOL     OW27544   1.278   1.926   2.132  0.4086 -0.1129 -0.5883
 5361SOL    HW127545   1.289   1.913   2.226 -2.2034  2.7898  0.1404
 5361SOL    HW227546   1.252   2.018   2.127  1.5232  0.2389  0.2163
 5362SOL     OW27547   3.945   2.755   7.261  0.6472  0.0563 -0.4718
 5362SOL    HW127548   3.972   2.826   7.202  1.4682  1.8253  2.0666
 5362SOL    HW227549   3.907   2.695   7.196  0.0217  1.1620 -1.1238
 5363SOL     OW27550   2.261   0.094   9.092  0.0341 -0.3307 -0.2977
 5363SOL    HW127551   2.260   0.174   9.039 -1.4165 -0.4896 -0.5046
 5363SOL    HW227552   2.194   0.038   9.052  2.2644 -1.2421 -2.7166
 5364SOL     OW27553   1.293   0.297   7.334 -0.2943 -0.2642  0.1071
 5364SOL    HW127554   1.264   0.360   7.268  0.2779  1.3395  1.3809
 5364SOL    HW227555   1.367   0.355   7.352  0.8877 -2.6304  2.8412
 5365SOL     OW27556   0.683   0.945  10.488 -0.1260  0.2731  0.3174
 5365SOL    HW127557   0.767   0.914  10.522 -0.3982 -0.1293  0.6286
 5365SOL    HW227558   0.659   0.991  10.568 -0.0812 -1.9745  1.6411
 5366SOL     OW27559   2.081   1.994   6.038 -0.1467  0.3507  0.2294
 5366SOL    HW127560   2.114   1.964   6.123 -3.0352  0.2065  1.3228
 5366SOL    HW227561   2.151   2.059   6.032  1.4636 -1.3416  0.7189
 5367SOL     OW27562   4.205   0.420   2.816 -0.3225 -0.1108  0.1522
 5367SOL    HW127563   4.247   0.500   2.849  1.3345 -0.9567  0.0788
 5367SOL    HW227564   4.221   0.412   2.722  0.3826 -2.5723  0.4890
 5368SOL     OW27565   3.485   1.929   0.512 -0.2508 -0.8001 -0.1889
 5368SOL    HW127566   3.453   1.845   0.547 -2.6785  0.7803  1.3927
 5368SOL    HW227567   3.445   1.937   0.425 -1.5599  0.3374  0.5330
 5369SOL     OW27568   1.542   4.007  11.396  0.4524 -0.2721 -0.0215
 5369SOL    HW127569   1.477   4.043  11.455  1.0152  0.6049  0.0676
 5369SOL    HW227570   1.483   4.013  11.321  2.6097 -2.3388 -1.9160
 5370SOL     OW27571   0.249   1.193  15.903 -0.0442  0.4949  0.2730
 5370SOL    HW127572   0.307   1.158  15.970  0.6515  1.8223  0.3501
 5370SOL    HW227573   0.309   1.225  15.835  0.1534 -1.3179 -0.4047
 5371SOL     OW27574   2.888   3.140   8.604 -0.3151 -0.4442 -0.1443
 5371SOL    HW127575   2.926   3.150   8.691  0.0464  1.1587 -0.4787
 5371SOL    HW227576   2.870   3.047   8.592  2.1816 -0.9264 -0.1138
 5372SOL     OW27577   2.768   0.996   1.414  0.2192  0.1354  0.0961
 5372SOL    HW127578   2.738   0.939   1.485  1.5639 -0.7616 -0.0351
 5372SOL    HW227579   2.826   1.055   1.462 -1.8304  0.9305  1.5777
 5373SOL     OW27580   4.720   3.754   2.709  0.2763 -0.3146 -0.8869
 5373SOL    HW127581   4.661   3.731   2.780  1.2252  1.0810  0.3565
 5373SOL    HW227582   0.072   3.713   2.743 -0.1424 -0.9205 -0.6485
 5374SOL     OW27583   1.557   0.446   7.372 -0.9151  0.1458  0.2303
 5374SOL    HW127584   1.554   0.360   7.414  1.2435  0.0496  0.2000
 5374SOL    HW227585   1.628   0.443   7.308 -1.9020  0.4959 -0.8893
 5375SOL     OW27586   4.176   2.682   4.510  0.4779 -0.1208 -0.3786
 5375SOL    HW127587   4.238   2.749   4.481  0.6760  0.0084  0.3514
 5375SOL    HW227588   4.185   2.693   4.605  2.6838 -0.6311 -0.5280
 5376SOL     OW27589   3.297   1.077  14.837  0.0144 -0.7102  0.1721
 5376SOL    HW127590   3.357   1.054  14.767 -0.2606 -1.0310  0.0404
 5376SOL    HW227591   3.281   1.171  14.831  0.1065 -0.6388  1.0723
 5377SOL     OW27592   0.304   0.499  13.603 -0.2135 -0.3019  0.4188
 5377SOL    HW127593   0.260   0.583  13.602 -1.2628 -0.8680 -0.8945
 5377SOL    HW227594   0.365   0.529  13.535 -0.0235 -1.7849 -0.0662
 5378SOL     OW27595   4.010   4.177   6.676 -0.4221 -0.0085 -0.5320
 5378SOL    HW127596   3.951   4.160   6.749 -0.4210 -1.0731 -0.7787
 5378SOL    HW227597   4.027   4.089   6.642 -1.8579 -0.9150  1.0940
 5379SOL     OW27598   1.539   2.399   3.793  0.2202 -0.1169  0.0250
 5379SOL    HW127599   1.493   2.319   3.766 -0.0407  1.2194 -3.5793
 5379SOL    HW227600   1.508   2.403   3.883 -0.1162 -2.6053  0.0152
 5380SOL     OW27601   3.456   2.283   5.080 -0.2887 -0.4312 -0.0221
 5380SOL    HW127602   3.483   2.345   5.013 -0.5592  1.4861  1.6536
 5380SOL    HW227603   3.399   2.223   5.032  1.8752 -0.5149 -2.5082
 5381SOL     OW27604   4.248   3.888   0.626  0.3166  0.3915 -0.0147
 5381SOL    HW127605   4.342   3.868   0.629  0.1264 -0.6192 -0.8301
 5381SOL    HW227606   4.243   3.959   0.562 -0.5708 -1.0857 -1.5651
 5382SOL     OW27607   3.248   3.811   9.619 -0.5927 -0.6977  1.1650
 5382SOL    HW127608   3.265   3.897   9.581 -0.5894 -0.1891  2.3092
 5382SOL    HW227609   3.214   3.837   9.705  0.5436 -1.6056  1.8827
 5383SOL     OW27610   3.668   2.491  17.616 -0.1989 -0.1704  0.2569
 5383SOL    HW127611   3.582   2.462  17.646 -0.7753 -0.5283 -1.7389
 5383SOL    HW227612   3.730   2.438  17.666 -0.4718 -0.7124  0.0209
 5384SOL     OW27613   0.284   4.383   9.566  0.4364 -0.2442 -0.0276
 5384SOL    HW127614   0.337   4.424   9.499 -0.1288  1.6539  0.6789
 5384SOL    HW227615   0.251   4.458   9.616 -0.2820  0.7448 -2.0072
 5385SOL     OW27616   4.056   2.668   3.019  0.5147 -0.3280 -0.1212
 5385SOL    HW127617   3.988   2.711   2.967  0.0768 -0.0145  0.7134
 5385SOL    HW227618   4.010   2.672   3.103  1.6255  1.3146  0.3953
 5386SOL     OW27619   1.894   1.445   8.152 -0.1697 -0.4837  0.3124
 5386SOL    HW127620   1.926   1.372   8.100  1.3819  0.9236 -0.6849
 5386SOL    HW227621   1.945   1.515   8.111  0.4525 -0.6486  0.8043
 5387SOL     OW27622   2.309   1.525   7.810  0.2602 -0.1673 -0.3452
 5387SOL    HW127623   2.327   1.539   7.903  0.5514 -0.3594 -0.3725
 5387SOL    HW227624   2.332   1.609   7.770 -0.0257  1.1979  2.3326
 5388SOL     OW27625   3.544   4.062   5.589  0.1237  0.1018  0.0959
 5388SOL    HW127626   3.458   4.099   5.569 -0.4099 -0.8938  0.5621
 5388SOL    HW227627   3.529   4.052   5.683  1.2244 -0.6827  0.1782
 5389SOL     OW27628   0.567   1.491  11.607  0.1049  0.0740 -0.5253
 5389SOL    HW127629   0.585   1.495  11.513 -1.2273 -0.1827 -0.7872
 5389SOL    HW227630   0.524   1.407  11.621  0.1092  0.5195  2.1725
 5390SOL     OW27631   3.086   0.398   3.400  0.1711  0.1916 -0.6025
 5390SOL    HW127632   3.026   0.340   3.448  2.0234 -2.3158 -1.3019
 5390SOL    HW227633   3.158   0.413   3.461 -1.2881 -1.0228  1.4227
 5391SOL     OW27634   2.900   2.551   7.715  0.0524 -0.2491 -0.3264
 5391SOL    HW127635   2.885   2.458   7.734  3.1617 -0.5299  0.7373
 5391SOL    HW227636   2.982   2.569   7.760 -0.1964 -2.1699  0.8837
 5392SOL     OW27637   1.465   2.636   8.001  0.0083 -0.6556 -0.0061
 5392SOL    HW127638   1.381   2.640   8.046  0.1532 -0.8876  0.2788
 5392SOL    HW227639   1.434   2.698   7.934 -0.0453  1.5142  1.9952
 5393SOL     OW27640   2.321   2.665  14.276 -0.1549 -0.1556  0.0807
 5393SOL    HW127641   2.315   2.594  14.212 -1.5328  0.5799 -0.5975
 5393SOL    HW227642   2.231   2.662  14.306  0.2772 -1.8652  1.2148
 5394SOL     OW27643   3.365   1.907  14.670  0.0736 -0.1270  0.5236
 5394SOL    HW127644   3.317   1.846  14.614  1.5538 -2.8018  2.1090
 5394SOL    HW227645   3.450   1.919  14.626 -0.1891  1.0156  0.3408
 5395SOL     OW27646   2.794   2.476   3.278  0.2134 -0.0811 -0.2583
 5395SOL    HW127647   2.730   2.423   3.231 -0.1608  0.6713 -0.5983
 5395SOL    HW227648   2.873   2.476   3.224 -0.7945 -0.9913 -1.7358
 5396SOL     OW27649   4.303   2.030   2.184 -0.3687 -0.0385 -0.1550
 5396SOL    HW127650   4.322   2.054   2.094  1.0393  0.0448  0.1563
 5396SOL    HW227651   4.318   1.936   2.187 -0.8177 -0.1378 -1.4262
 5397SOL     OW27652   0.866   1.968   6.629  0.6888  0.2071 -0.1065
 5397SOL    HW127653   0.860   1.993   6.537 -1.6593  0.0267 -0.0220
 5397SOL    HW227654   0.789   2.005   6.673  1.5210  1.0953  0.5803
 5398SOL     OW27655   2.535   3.255   3.873  0.7622 -0.2271 -0.2154
 5398SOL    HW127656   2.572   3.342   3.855 -1.5535  0.5623 -1.1972
 5398SOL    HW227657   2.539   3.256   3.969 -0.8239 -0.3075 -0.1444
 5399SOL     OW27658   1.790   1.010   1.028  0.1963 -0.3428  0.3983
 5399SOL    HW127659   1.879   0.974   1.023  1.1778  1.8229  2.3017
 5399SOL    HW227660   1.750   0.966   1.103  1.6862 -0.3400  1.1938
 5400SOL     OW27661   3.946   3.888   4.180 -0.6770  0.2394  0.2145
 5400SOL    HW127662   3.901   3.970   4.160  0.5099  0.7832 -0.1792
 5400SOL    HW227663   3.935   3.859   4.090 -0.8410  1.5025 -0.1666
 5401SOL     OW27664   3.812   0.853   9.562  0.3595 -0.2304  0.4024
 5401SOL    HW127665   3.860   0.895   9.634  2.8936 -1.5247 -0.5121
 5401SOL    HW227666   3.874   0.797   9.515 -1.4428 -0.6640 -1.4578
 5402SOL     OW27667   3.841   4.656   8.791  0.7160  0.2469 -0.0726
 5402SOL    HW127668   3.837   4.670   8.885 -4.3829  2.8004 -0.6394
 5402SOL    HW227669   3.749   4.646   8.768  1.2646  0.0285 -2.1822
 5403SOL     OW27670   2.524   2.077   3.996  0.2275 -0.3922 -0.2371
 5403SOL    HW127671   2.455   2.135   4.028 -0.1861  0.6661 -3.0408
 5403SOL    HW227672   2.588   2.086   4.067 -1.0556  1.5877  0.6529
 5404SOL     OW27673   4.509   3.895  12.182  0.0583  0.2276  0.0345
 5404SOL    HW127674   4.546   3.969  12.230  1.7626 -0.7140  0.1558
 5404SOL    HW227675   4.421   3.919  12.152  0.7393  0.2103 -1.9586
 5405SOL     OW27676   0.801   1.711   6.273 -0.3500  0.0773  0.9561
 5405SOL    HW127677   0.825   1.661   6.195 -1.0930 -0.5880  1.1526
 5405SOL    HW227678   0.761   1.646   6.332 -2.1197  0.5872  0.3043
 5406SOL     OW27679   2.522   0.945   2.006  0.2497 -0.5595  0.1131
 5406SOL    HW127680   2.453   0.881   2.022 -1.2100  0.3439 -2.5129
 5406SOL    HW227681   2.497   0.964   1.915 -2.3811 -1.1895  0.7144
 5407SOL     OW27682   4.260   1.945   0.055 -0.0391 -0.3471  0.2274
 5407SOL    HW127683   4.299   1.921   0.140 -0.2325 -0.0678  0.3937
 5407SOL    HW227684   4.319   2.017   0.035 -0.7828  0.2258  0.0781
 5408SOL     OW27685   4.293   1.162   3.405  0.3942 -0.1801 -0.2711
 5408SOL    HW127686   4.205   1.150   3.370 -0.4365  1.2045  1.3637
 5408SOL    HW227687   4.335   1.131   3.325 -0.2718 -1.0984 -0.2678
 5409SOL     OW27688   3.204   2.420  12.414  0.3059 -0.4219 -0.1911
 5409SOL    HW127689   3.296   2.431  12.388  0.6831 -0.2213  1.2515
 5409SOL    HW227690   3.217   2.404  12.507 -1.3085 -0.1351  0.0825
 5410SOL     OW27691   1.898   2.769  16.902 -0.0075  0.3692 -0.0964
 5410SOL    HW127692   1.836   2.701  16.874  2.3694 -1.6431 -0.5248
 5410SOL    HW227693   1.853   2.809  16.976  0.5776  0.1638  0.3743
 5411SOL     OW27694   1.707   1.300   1.185  0.0983  0.0483  0.2513
 5411SOL    HW127695   1.635   1.363   1.188 -0.7065 -0.7547 -2.4366
 5411SOL    HW227696   1.682   1.243   1.112  0.5631  0.5613 -0.3119
 5412SOL     OW27697   1.108   4.064   1.049 -0.2857 -0.3353  0.0225
 5412SOL    HW127698   1.121   4.044   1.141  0.1720  1.3497  0.3306
 5412SOL    HW227699   1.127   4.158   1.040 -4.4323  0.5192  0.1861
 5413SOL     OW27700   3.375   3.894   3.812  0.2466  0.2207  0.1265
 5413SOL    HW127701   3.393   3.973   3.761  0.3073 -0.1447 -0.4224
 5413SOL    HW227702   3.361   3.934   3.897  1.3354  0.1292  0.3559
 5414SOL     OW27703   3.530   0.845   3.318 -0.2161  0.6240  0.7853
 5414SOL    HW127704   3.505   0.913   3.256  3.1411  0.0660 -1.1866
 5414SOL    HW227705   3.512   0.768   3.264  2.5727 -0.5608  1.5491
 5415SOL     OW27706   2.258   0.275  10.127  0.3326  0.0533  0.3675
 5415SOL    HW127707   2.327   0.325  10.169 -0.5015  1.6114 -0.0933
 5415SOL    HW227708   2.196   0.340  10.092  0.9274  0.0756 -0.6398
 5416SOL     OW27709   2.803   1.210  13.959  0.2296  0.1056 -0.2021
 5416SOL    HW127710   2.738   1.147  13.991  1.1098 -0.2039  1.0124
 5416SOL    HW227711   2.772   1.287  14.007 -1.8737 -0.4659 -0.6699
 5417SOL     OW27712   0.933   0.765   2.977 -0.0964 -0.0243  0.3253
 5417SOL    HW127713   0.886   0.786   2.896 -0.5036  1.6048  0.9694
 5417SOL    HW227714   1.024   0.768   2.949  0.4354  1.1723  2.1387
 5418SOL     OW27715   2.150   1.916   1.305  0.0432 -0.8072  0.3615
 5418SOL    HW127716   2.134   1.823   1.295  2.7520 -0.9887 -2.1341
 5418SOL    HW227717   2.222   1.915   1.369 -1.7838 -0.9223  2.4331
 5419SOL     OW27718   1.154   1.001  13.170 -0.5550 -0.2695  0.4199
 5419SOL    HW127719   1.163   1.004  13.075  0.0380  1.3953  0.5137
 5419SOL    HW227720   1.213   1.072  13.197  2.6257 -1.7977 -2.4804
 5420SOL     OW27721   0.806   4.631  12.100  0.2552  0.4664 -0.0277
 5420SOL    HW127722   0.771   4.561  12.155 -1.0128 -0.7111 -2.3508
 5420SOL    HW227723   0.773   4.604  12.015  0.4786 -0.9547  0.3392
 5421SOL     OW27724   3.671   2.429   7.474 -0.1003  0.2704 -0.1721
 5421SOL    HW127725   3.755   2.400   7.439  0.1355  0.4440  0.2462
 5421SOL    HW227726   3.694   2.465   7.560 -0.8817  0.8917 -0.2186
 5422SOL     OW27727   4.565   2.451   7.900 -0.1044  0.0696 -0.3714
 5422SOL    HW127728   4.624   2.422   7.830  0.9231  0.0996  0.4799
 5422SOL    HW227729   4.482   2.415   7.870  0.5895 -2.1731  0.4250
 5423SOL     OW27730   0.979   3.336   0.739 -0.0978  0.3055  0.1548
 5423SOL    HW127731   1.039   3.265   0.764  1.5753  1.3984 -0.7783
 5423SOL    HW227732   1.011   3.406   0.795  1.7109  0.3481 -0.9574
 5424SOL     OW27733   3.729   2.331   3.031 -0.3261 -0.7502  0.0831
 5424SOL    HW127734   3.757   2.387   3.103 -0.0602 -0.9253  0.1176
 5424SOL    HW227735   3.774   2.247   3.045 -0.6096 -0.6099  1.8531
 5425SOL     OW27736   1.716   0.447   6.881  0.3986 -0.2757 -0.0076
 5425SOL    HW127737   1.708   0.368   6.934 -0.2119 -1.1525 -1.3960
 5425SOL    HW227738   1.806   0.479   6.894  0.2883  1.1774 -2.5718
 5426SOL     OW27739   4.071   2.760   5.566  1.1753  0.1719  0.3553
 5426SOL    HW127740   4.150   2.815   5.569  1.9271 -0.8470 -1.1202
 5426SOL    HW227741   4.044   2.767   5.475  3.3438  0.7678 -0.2505
 5427SOL     OW27742   1.031   3.801   7.979 -0.3054 -0.2610  0.0906
 5427SOL    HW127743   0.986   3.813   8.062  0.6005 -1.9426  0.8221
 5427SOL    HW227744   0.964   3.754   7.930  0.7660 -1.0771 -0.5999
 5428SOL     OW27745   3.404   3.639   3.692  0.1452  0.7591  0.6473
 5428SOL    HW127746   3.472   3.586   3.735  1.0637  0.6605 -0.9260
 5428SOL    HW227747   3.412   3.722   3.739  0.2595  1.4548 -0.6111
 5429SOL     OW27748   1.814   4.718   5.248 -0.1881  0.0707  0.6864
 5429SOL    HW127749   1.764   0.032   5.177  1.8475  0.2907 -0.6078
 5429SOL    HW227750   1.814   0.065   5.309 -1.9165  0.5811  0.0795
 5430SOL     OW27751   0.430   3.174   4.534 -0.1090 -0.1501  0.4259
 5430SOL    HW127752   0.351   3.120   4.543  0.3787 -0.5573  2.3492
 5430SOL    HW227753   0.404   3.244   4.474 -1.6885 -0.2928  0.9523
 5431SOL     OW27754   3.769   0.257   6.002  0.3716  0.1591  0.3233
 5431SOL    HW127755   3.727   0.311   5.934 -1.3607 -1.0859  0.3884
 5431SOL    HW227756   3.814   0.324   6.053  0.5760 -0.4879  0.9819
 5432SOL     OW27757   2.571   0.886  13.062 -0.2225 -0.1733 -0.6578
 5432SOL    HW127758   2.531   0.871  13.148  1.0733 -1.2618 -0.2396
 5432SOL    HW227759   2.527   0.816  13.014 -0.6105 -0.4215  0.0675
 5433SOL     OW27760   2.516   1.750  14.222  0.2472 -0.0714  0.0094
 5433SOL    HW127761   2.556   1.668  14.248 -0.0178 -0.2183 -0.0402
 5433SOL    HW227762   2.567   1.765  14.142 -0.9274 -0.8399 -0.8811
 5434SOL     OW27763   0.929   4.308   8.738 -0.4057  0.5253  0.0862
 5434SOL    HW127764   0.888   4.299   8.824 -2.0541 -1.0388 -0.8697
 5434SOL    HW227765   1.020   4.300   8.770 -0.2526  2.9653  0.2422
 5435SOL     OW27766   1.459   3.520   4.364 -0.3170  0.2775  0.0309
 5435SOL    HW127767   1.550   3.496   4.385  0.3872  1.0537 -2.0599
 5435SOL    HW227768   1.435   3.530   4.455  3.3306 -1.9974  1.2745
 5436SOL     OW27769   3.961   0.538   5.207  0.0527  0.3401 -0.3688
 5436SOL    HW127770   3.968   0.574   5.295  1.0695 -1.0332  0.1198
 5436SOL    HW227771   4.045   0.564   5.171 -0.6349  1.6298 -1.0172
 5437SOL     OW27772   1.732   0.504  12.692 -0.4284  0.0819 -0.2448
 5437SOL    HW127773   1.741   0.412  12.668  3.0920  0.0992  1.0163
 5437SOL    HW227774   1.657   0.503  12.751 -0.0583 -1.2174  0.1995
 5438SOL     OW27775   0.432   3.275  10.484  0.3866 -0.1826  0.1486
 5438SOL    HW127776   0.462   3.203  10.429 -1.3088 -1.2620  0.6527
 5438SOL    HW227777   0.462   3.238  10.567 -1.8230 -1.7206  0.2430
 5439SOL     OW27778   0.141   0.538  10.245 -0.4356  0.5180  0.5513
 5439SOL    HW127779   0.149   0.632  10.230  2.4783  0.1183 -0.3863
 5439SOL    HW227780   0.175   0.529  10.334 -0.3458 -2.2800  0.2398
 5440SOL     OW27781   3.115   2.059   0.316 -0.0141 -0.3715 -0.6372
 5440SOL    HW127782   3.075   2.132   0.363 -1.3123 -1.1244 -0.5760
 5440SOL    HW227783   3.040   2.033   0.263 -1.6644 -1.0121  1.9908
 5441SOL     OW27784   0.583   3.801   1.872 -0.9588  0.7968  0.1723
 5441SOL    HW127785   0.662   3.810   1.818 -0.3975  2.7340  1.3067
 5441SOL    HW227786   0.526   3.762   1.806  0.1834  0.4869 -0.6160
 5442SOL     OW27787   1.399   0.506   8.165 -0.1428  0.6393 -0.0148
 5442SOL    HW127788   1.363   0.510   8.076 -0.6675 -1.5258  0.0989
 5442SOL    HW227789   1.385   0.417   8.196  2.8140  0.9443  2.1767
 5443SOL     OW27790   4.522   3.595   4.459 -0.1963  0.1777 -0.4485
 5443SOL    HW127791   4.598   3.600   4.401  0.9477 -0.8926  0.9498
 5443SOL    HW227792   4.450   3.601   4.397  0.8943  1.3647 -1.5906
 5444SOL     OW27793   0.036   2.057   2.621  0.0393 -0.2583 -0.0364
 5444SOL    HW127794   4.676   2.098   2.622  0.5044  0.6498  3.2769
 5444SOL    HW227795   0.024   1.974   2.668 -0.1588  0.7884  1.7825
 5445SOL     OW27796   3.732   3.875   9.674 -0.1164  0.7488  0.4142
 5445SOL    HW127797   3.770   3.960   9.652  0.3611  0.9189  1.9233
 5445SOL    HW227798   3.750   3.820   9.598 -0.4359 -0.3551  1.1418
 5446SOL     OW27799   0.384   0.206   1.327  0.0783 -0.0465  0.1278
 5446SOL    HW127800   0.403   0.198   1.421 -0.9817 -1.1812  0.2402
 5446SOL    HW227801   0.346   0.120   1.310  0.7659 -0.5851  1.2959
 5447SOL     OW27802   2.438   0.213   2.153 -0.7422 -0.5921  0.3968
 5447SOL    HW127803   2.406   0.300   2.175  1.8703  0.4963 -0.1214
 5447SOL    HW227804   2.373   0.193   2.085  0.6153  0.6824 -1.2789
 5448SOL     OW27805   0.160   0.040   6.079 -0.0201  0.3579 -0.4060
 5448SOL    HW127806   0.065   0.051   6.081 -0.0352  0.4534 -1.3267
 5448SOL    HW227807   0.184   0.046   6.171 -1.4849 -0.1854  0.0052
 5449SOL     OW27808   3.485   2.411   6.862  0.3415 -0.3808  0.3274
 5449SOL    HW127809   3.447   2.415   6.774  1.1610 -1.0472 -0.0594
 5449SOL    HW227810   3.525   2.324   6.853 -1.1421 -1.2749  2.4388
 5450SOL     OW27811   3.331   4.676   7.939  0.2002  0.1807  0.5895
 5450SOL    HW127812   3.412   4.724   7.925  0.5982 -1.4233 -2.6154
 5450SOL    HW227813   3.323   4.688   8.034  0.6762 -1.1281  0.7939
 5451SOL     OW27814   3.486   3.685   3.415 -0.2589  0.3828  0.2206
 5451SOL    HW127815   3.476   3.644   3.502  0.4266 -0.4922 -0.1010
 5451SOL    HW227816   3.409   3.649   3.372 -0.0619  0.7039 -0.4052
 5452SOL     OW27817   3.794   4.372   9.304 -0.3142  0.0791  0.2807
 5452SOL    HW127818   3.725   4.314   9.272 -1.7374  0.3485  2.8572
 5452SOL    HW227819   3.824   4.410   9.222  1.0011 -2.8924 -0.6459
 5453SOL     OW27820   4.553   4.000   5.268  0.1504 -0.0322 -0.5095
 5453SOL    HW127821   4.530   4.081   5.223 -3.7755 -2.1532 -2.3030
 5453SOL    HW227822   4.637   3.990   5.224  0.2338 -0.1479 -0.3231
 5454SOL     OW27823   1.289   4.573  15.853 -0.2713  0.0411 -0.5091
 5454SOL    HW127824   1.346   4.573  15.931  0.5560 -0.8308 -1.1182
 5454SOL    HW227825   1.268   4.666  15.844  0.2882  0.1719 -0.4837
 5455SOL     OW27826   1.605   1.350  11.220 -0.2990 -0.7384  0.1118
 5455SOL    HW127827   1.699   1.345  11.206 -0.5953  1.2565 -2.5288
 5455SOL    HW227828   1.584   1.374  11.130  0.7133 -1.4486 -0.3056
 5456SOL     OW27829   4.522   1.457   5.779  0.1095 -0.5162  0.0944
 5456SOL    HW127830   4.490   1.464   5.689 -1.5513  0.4280  0.7551
 5456SOL    HW227831   4.616   1.470   5.772  0.1254 -1.3030 -1.1285
 5457SOL     OW27832   0.589   1.753   7.884  0.6292  0.1415 -0.0897
 5457SOL    HW127833   0.576   1.820   7.817 -1.4286 -2.1128 -2.0069
 5457SOL    HW227834   0.548   1.790   7.962  2.4672 -1.1892  1.4990
 5458SOL     OW27835   4.277   2.683   1.164  0.7344  0.4515 -0.8560
 5458SOL    HW127836   4.238   2.679   1.251  0.8528  0.0765 -0.8191
 5458SOL    HW227837   4.354   2.626   1.175  1.3642  1.1505 -1.5883
 5459SOL     OW27838   2.815   2.912  16.879  0.4878 -0.0524 -0.0651
 5459SOL    HW127839   2.757   2.898  16.954  0.0700  0.2238 -0.3388
 5459SOL    HW227840   2.900   2.886  16.916  1.0369  1.0583 -0.5358
 5460SOL     OW27841   2.172   2.972  11.999 -0.4517  0.7514  0.1830
 5460SOL    HW127842   2.225   3.051  11.998  0.2129  0.2994 -1.6320
 5460SOL    HW227843   2.219   2.933  12.073  1.1337  0.3946 -1.0098
 5461SOL     OW27844   0.354   2.494   6.910 -0.3040  0.1400 -0.4099
 5461SOL    HW127845   0.344   2.577   6.864 -1.3265 -0.1898 -0.7842
 5461SOL    HW227846   0.282   2.503   6.972 -2.0391  0.4682 -2.4738
 5462SOL     OW27847   4.122   3.853   5.822 -0.5136  0.3587  0.3761
 5462SOL    HW127848   4.206   3.891   5.797 -1.0666  0.5328 -1.2153
 5462SOL    HW227849   4.083   3.839   5.736  3.3228 -1.2817 -1.0802
 5463SOL     OW27850   2.324   0.034   4.734 -0.3675  0.8575  0.2286
 5463SOL    HW127851   2.307   0.008   4.644 -0.2227  0.9304  0.1811
 5463SOL    HW227852   2.236   0.033   4.772  0.1637 -0.0952  1.4327
 5464SOL     OW27853   1.133   3.162  16.651 -0.2855 -0.0804  0.0168
 5464SOL    HW127854   1.086   3.109  16.586  1.1349 -1.5469  0.1719
 5464SOL    HW227855   1.189   3.217  16.597 -0.3900  1.9073  1.9564
 5465SOL     OW27856   1.680   0.192   7.727  0.3715 -0.3066 -0.1124
 5465SOL    HW127857   1.672   0.169   7.820 -0.7663 -0.2845 -0.2037
 5465SOL    HW227858   1.755   0.251   7.730  0.7630 -0.6849 -2.3817
 5466SOL     OW27859   3.942   3.775   3.216 -0.5845 -0.2166  0.4249
 5466SOL    HW127860   3.992   3.702   3.254  2.2402  1.5242  0.0374
 5466SOL    HW227861   3.857   3.731   3.209 -1.0758  0.8014  0.0673
 5467SOL     OW27862   4.664   3.966   8.383  0.1953 -0.4461  0.3319
 5467SOL    HW127863   4.635   3.994   8.470  1.0188 -2.6547  1.3447
 5467SOL    HW227864   0.030   3.949   8.402  0.3185 -0.8167 -0.6079
 5468SOL     OW27865   2.623   2.529  10.071 -0.0354 -0.3784 -0.0562
 5468SOL    HW127866   2.689   2.497  10.010  1.8140  3.0415  0.1180
 5468SOL    HW227867   2.546   2.523  10.015  0.9674  3.1682 -1.8219
 5469SOL     OW27868   3.104   2.322   0.423 -0.4970 -0.0959 -0.3705
 5469SOL    HW127869   3.193   2.309   0.391 -0.3869 -0.0139 -0.0930
 5469SOL    HW227870   3.077   2.397   0.369  0.8656  0.5160 -0.1870
 5470SOL     OW27871   2.905   4.296  13.361  0.1710 -0.1011 -0.5149
 5470SOL    HW127872   2.899   4.390  13.341  2.3072  0.6274  2.3318
 5470SOL    HW227873   2.873   4.291  13.451 -1.3484  0.7906 -0.9921
 5471SOL     OW27874   3.539   4.260  13.551  0.2176  0.5596  0.1150
 5471SOL    HW127875   3.484   4.319  13.500 -0.8119  1.2458  1.9959
 5471SOL    HW227876   3.609   4.321  13.572  3.4825 -2.5872 -1.6564
 5472SOL     OW27877   3.549   4.632   6.711 -0.0399  0.4816  0.4364
 5472SOL    HW127878   3.610   4.620   6.638  0.2663  0.0007  0.7732
 5472SOL    HW227879   3.491   4.706   6.694 -0.9569 -1.1537 -3.4409
 5473SOL     OW27880   1.571   4.575   2.300 -0.2034  0.5524  0.3680
 5473SOL    HW127881   1.644   4.513   2.287 -0.6843  0.5282 -2.1923
 5473SOL    HW227882   1.503   4.512   2.275  2.5224 -2.8301  1.3943
 5474SOL     OW27883   1.327   3.250   1.893 -0.1730 -0.0834  0.5989
 5474SOL    HW127884   1.283   3.331   1.865  2.1498  0.5741 -1.1045
 5474SOL    HW227885   1.301   3.188   1.824  2.3809 -0.8171  0.3088
 5475SOL     OW27886   3.897   3.180   7.611  0.2726  0.0162 -0.8108
 5475SOL    HW127887   3.888   3.163   7.517  0.9582  1.0469 -1.0564
 5475SOL    HW227888   3.986   3.151   7.631  0.4638  2.0641  1.3195
 5476SOL     OW27889   2.325   3.755   2.766  0.3997 -0.2058 -0.0839
 5476SOL    HW127890   2.331   3.659   2.776  2.4133  0.0029  0.6925
 5476SOL    HW227891   2.278   3.778   2.687  1.2889  1.4144 -0.1375
 5477SOL     OW27892   2.357   0.764   5.671 -0.2212  0.1422 -0.4888
 5477SOL    HW127893   2.325   0.692   5.617  1.3041 -1.8861  1.2898
 5477SOL    HW227894   2.393   0.718   5.747  0.8478  2.2753  0.2922
 5478SOL     OW27895   3.989   0.866  12.031  0.5302 -0.2814  0.1994
 5478SOL    HW127896   3.934   0.825  12.097  0.3426  0.3408  0.4331
 5478SOL    HW227897   3.980   0.802  11.960  3.0651  0.0689 -0.4564
 5479SOL     OW27898   3.860   2.311   7.025  0.4797 -0.2632 -0.4242
 5479SOL    HW127899   3.949   2.275   7.032  0.3244  0.2032  4.0555
 5479SOL    HW227900   3.848   2.311   6.930 -0.6788 -1.3787 -0.2841
 5480SOL     OW27901   1.139   0.132  13.032  0.3236 -0.3165  0.2411
 5480SOL    HW127902   1.234   0.143  13.031  0.3615 -0.6329  0.4133
 5480SOL    HW227903   1.113   0.188  12.959  0.3444 -0.0749  0.4188
 5481SOL     OW27904   1.624   1.189   7.661  0.0123 -0.4158 -0.3383
 5481SOL    HW127905   1.597   1.124   7.596  0.7158 -0.9479 -0.0995
 5481SOL    HW227906   1.705   1.146   7.690  1.9169  3.0092 -0.6017
 5482SOL     OW27907   0.847   0.158  14.083 -0.2387 -0.1029 -0.1920
 5482SOL    HW127908   0.931   0.199  14.064 -0.6715  1.0035  0.2610
 5482SOL    HW227909   0.795   0.182  14.006 -1.9956 -1.0210  0.6984
 5483SOL     OW27910   4.344   2.926   1.041  0.2330 -0.5217  0.1373
 5483SOL    HW127911   4.347   2.835   1.071  0.3965  0.1705  2.2434
 5483SOL    HW227912   4.254   2.931   1.008 -0.0203 -0.0470  0.8975
 5484SOL     OW27913   2.197   2.001   8.988 -0.2373  0.3149  0.1056
 5484SOL    HW127914   2.196   1.906   8.997  0.4038 -0.1306 -4.2348
 5484SOL    HW227915   2.109   2.029   9.012 -0.3011 -0.4658  0.7640
 5485SOL     OW27916   0.890   1.316   9.627 -0.1609 -0.0669 -0.3237
 5485SOL    HW127917   0.983   1.318   9.604  0.1209  2.5022  1.0837
 5485SOL    HW227918   0.847   1.293   9.545 -0.6399 -1.8909  0.4351
 5486SOL     OW27919   2.380   2.320   7.962  0.7258 -0.0077 -0.1065
 5486SOL    HW127920   2.395   2.412   7.984 -1.3799  0.3397 -0.0681
 5486SOL    HW227921   2.452   2.277   8.007 -0.0541 -0.1552  0.9969
 5487SOL     OW27922   4.241   3.968  11.989  0.0383 -0.1802 -0.5184
 5487SOL    HW127923   4.189   3.954  11.910 -1.6089  0.3075  0.4953
 5487SOL    HW227924   4.177   3.962  12.059 -0.9186 -2.0989 -1.5455
 5488SOL     OW27925   2.392   2.389  13.854  0.0659  0.2683  0.2763
 5488SOL    HW127926   2.381   2.427  13.941 -0.5681  0.8688 -0.0602
 5488SOL    HW227927   2.432   2.307  13.883  0.7184  1.0237  1.4919
 5489SOL     OW27928   0.329   3.466   4.576  0.0368 -0.4195  0.5306
 5489SOL    HW127929   0.380   3.544   4.555 -0.9322 -0.4735 -2.1527
 5489SOL    HW227930   0.321   3.432   4.486 -2.1976 -1.2368  1.0321
 5490SOL     OW27931   4.382   2.947   6.485  0.1679 -0.0285  0.0030
 5490SOL    HW127932   4.424   2.935   6.400  0.9091 -1.2705  0.5506
 5490SOL    HW227933   4.375   3.041   6.505 -0.3312 -0.3532  1.3186
 5491SOL     OW27934   3.348   1.667   3.867 -0.3662  0.4404  0.2085
 5491SOL    HW127935   3.266   1.635   3.832  0.2095  0.4603 -1.1470
 5491SOL    HW227936   3.324   1.693   3.956 -0.4780 -1.2475  0.6758
 5492SOL     OW27937   2.481   1.983  17.319 -0.3089 -0.2552  0.3315
 5492SOL    HW127938   2.471   1.936  17.403  4.3290  0.3621  1.1943
 5492SOL    HW227939   2.494   2.075  17.343 -0.4667 -0.1149 -0.1343
 5493SOL     OW27940   2.766   2.196  15.572 -0.0899  0.4740  0.1602
 5493SOL    HW127941   2.843   2.215  15.519  0.9683  1.6485  2.1073
 5493SOL    HW227942   2.770   2.100  15.579  1.4383  0.3366 -2.6338
 5494SOL     OW27943   3.974   1.055  17.460 -0.0359  0.1991  0.0622
 5494SOL    HW127944   4.069   1.059  17.468 -0.2500  0.0653  2.5044
 5494SOL    HW227945   3.943   1.141  17.487  2.7851  1.8146 -1.8769
 5495SOL     OW27946   4.634   2.099   5.577  0.5900  0.6167  0.4221
 5495SOL    HW127947   4.564   2.156   5.546  0.3596 -1.0909 -2.2126
 5495SOL    HW227948   4.702   2.102   5.510  0.2987 -3.1156 -0.0247
 5496SOL     OW27949   3.430   1.812   3.428  0.0048 -0.1468 -0.3304
 5496SOL    HW127950   3.430   1.717   3.420  1.2658 -0.1137 -0.8871
 5496SOL    HW227951   3.521   1.833   3.450  0.5142  1.2167 -3.6235
 5497SOL     OW27952   4.565   0.396   3.389  0.2625  0.3451  0.5083
 5497SOL    HW127953   4.658   0.417   3.395 -0.0318  2.0852 -1.0400
 5497SOL    HW227954   4.541   0.319   3.441 -0.6429 -0.0301 -0.4652
 5498SOL     OW27955   3.426   4.204   1.136  0.4311 -0.3053  0.0775
 5498SOL    HW127956   3.433   4.128   1.078  2.3274  0.4194 -0.6550
 5498SOL    HW227957   3.520   4.211   1.150  0.3488  0.4615  0.2632
 5499SOL     OW27958   1.479   4.066   1.677 -0.2842  0.6139  0.3396
 5499SOL    HW127959   1.427   4.145   1.688 -0.8867  0.1845  0.5799
 5499SOL    HW227960   1.567   4.096   1.656  0.1196  0.0900  1.2975
 5500SOL     OW27961   0.264   3.638  12.298 -0.1907 -0.1651  0.2174
 5500SOL    HW127962   0.184   3.597  12.331 -0.6368  1.0976  0.6950
 5500SOL    HW227963   0.247   3.676  12.212  1.9787  0.7831  0.2062
 5501SOL     OW27964   0.124   0.499  13.362 -0.2110 -0.1604  0.8825
 5501SOL    HW127965   0.029   0.504  13.363 -0.2102 -0.0021  0.0881
 5501SOL    HW227966   0.149   0.564  13.427  0.2656  0.0477  0.4874
 5502SOL     OW27967   4.111   0.153   2.326 -0.1148  0.4052 -0.1030
 5502SOL    HW127968   4.202   0.149   2.299 -0.6955 -1.7312 -1.7403
 5502SOL    HW227969   4.119   0.123   2.416  0.0632  0.6469 -0.0371
 5503SOL     OW27970   2.112   1.021   1.268 -0.2555  0.3678  0.1289
 5503SOL    HW127971   2.088   1.091   1.328 -0.1242  0.8413 -0.3701
 5503SOL    HW227972   2.198   1.051   1.239  0.3868 -1.3442  0.2324
 5504SOL     OW27973   2.382   2.371  15.959 -0.3930 -0.8191 -0.4879
 5504SOL    HW127974   2.430   2.409  16.033  1.5603 -1.9850 -1.1829
 5504SOL    HW227975   2.324   2.314  16.009 -1.4846 -0.0113 -0.8097
 5505SOL     OW27976   2.946   4.012   5.213 -0.0962  0.4339  0.0135
 5505SOL    HW127977   2.854   3.985   5.207  0.3460 -1.1068  0.0760
 5505SOL    HW227978   2.956   4.081   5.147  1.0789  0.4547  0.2163
 5506SOL     OW27979   2.318   0.011   8.073  0.4829  0.4128  0.1616
 5506SOL    HW127980   2.293   4.672   8.137  2.1371 -0.3145  0.0498
 5506SOL    HW227981   2.307   4.688   7.992  1.3432  1.5224 -0.6403
 5507SOL     OW27982   0.338   3.326   9.353  0.2874 -0.6589 -0.0469
 5507SOL    HW127983   0.286   3.261   9.305  0.5873 -2.3415  1.8758
 5507SOL    HW227984   0.270   3.391   9.374  1.0746  0.7649 -2.0144
 5508SOL     OW27985   3.196   2.743   1.572 -0.0878 -0.8849 -0.4002
 5508SOL    HW127986   3.241   2.746   1.488  2.0721 -0.7208  0.7715
 5508SOL    HW227987   3.270   2.709   1.622  1.1162  1.0280 -0.9060
 5509SOL     OW27988   3.930   3.020   6.004 -0.7410 -0.3771  0.2011
 5509SOL    HW127989   3.860   3.023   5.938 -0.1374 -1.6655 -0.4995
 5509SOL    HW227990   3.937   3.114   6.022  0.0185  0.0243 -2.0925
 5510SOL     OW27991   3.258   0.728   1.638 -0.1440 -0.1109 -0.1541
 5510SOL    HW127992   3.333   0.717   1.580 -2.0680 -2.8937 -2.0816
 5510SOL    HW227993   3.266   0.823   1.654 -0.1568  0.4812 -3.6300
 5511SOL     OW27994   1.939   2.087   1.390  0.2392 -0.1648  0.1557
 5511SOL    HW127995   2.021   2.046   1.363 -0.3318 -1.6867  0.7440
 5511SOL    HW227996   1.877   2.018   1.413 -0.4866 -0.1197 -1.6848
 5512SOL     OW27997   4.493   1.298   7.121 -0.7875 -0.2021 -0.0100
 5512SOL    HW127998   4.470   1.258   7.205 -1.3691  2.4225  1.0852
 5512SOL    HW227999   4.492   1.391   7.142  0.6279 -0.2577  0.3284
 5513SOL     OW28000   3.170   3.087   4.750 -0.5339 -0.6214 -0.0908
 5513SOL    HW128001   3.251   3.124   4.716 -0.7390  0.2128  0.3257
 5513SOL    HW228002   3.147   3.021   4.684  1.3585 -0.8820 -0.4910
 5514SOL     OW28003   3.072   0.521   8.221  0.0735 -0.4257  0.2122
 5514SOL    HW128004   3.056   0.544   8.312 -0.7652 -0.8226  0.1600
 5514SOL    HW228005   3.148   0.465   8.238  1.6160  1.8073  0.6700
 5515SOL     OW28006   0.798   1.375   2.509 -0.2635 -0.3039 -0.3654
 5515SOL    HW128007   0.793   1.413   2.597  0.4659 -1.7944  0.3336
 5515SOL    HW228008   0.846   1.298   2.540 -0.1958 -0.9342 -2.0216
 5516SOL     OW28009   2.668   0.463   4.808 -0.2392 -0.0135 -0.0511
 5516SOL    HW128010   2.637   0.551   4.787  1.0421  0.5881  0.5897
 5516SOL    HW228011   2.753   0.460   4.763  0.9262  1.7007  2.0594
 5517SOL     OW28012   0.081   2.486   6.577  0.1969 -0.1051  0.4476
 5517SOL    HW128013   0.064   2.394   6.560 -0.6485  0.2613 -0.6537
 5517SOL    HW228014   0.176   2.487   6.562  0.3744 -3.3805  1.5004
 5518SOL     OW28015   4.034   4.295   7.223  0.1241 -0.6068  0.1135
 5518SOL    HW128016   4.022   4.365   7.287 -0.1976  0.0499 -0.6518
 5518SOL    HW228017   4.068   4.345   7.148 -2.0285  0.6930  0.0213
 5519SOL     OW28018   4.566   1.481   7.936 -0.1734 -0.1009  0.7965
 5519SOL    HW128019   4.623   1.408   7.910  0.0567  0.1555  0.5684
 5519SOL    HW228020   4.620   1.559   7.951 -1.1838  0.4938  1.2978
 5520SOL     OW28021   3.990   3.929   1.870 -0.0519 -0.8038 -0.0324
 5520SOL    HW128022   4.058   3.973   1.921 -1.5014  0.8051  0.5340
 5520SOL    HW228023   3.958   4.005   1.820  1.6496 -1.0695 -1.5500
 5521SOL     OW28024   2.766   2.780   7.692 -0.2397  0.4485 -0.2348
 5521SOL    HW128025   2.753   2.790   7.787 -0.7930 -0.2712 -0.2339
 5521SOL    HW228026   2.830   2.709   7.687 -1.1244 -0.4536  1.0310
 5522SOL     OW28027   3.611   4.259   4.021 -0.6164  0.1142  0.3067
 5522SOL    HW128028   3.659   4.338   4.044  0.6587 -0.5809  0.0203
 5522SOL    HW228029   3.639   4.237   3.932  0.2410 -0.4362  0.7102
 5523SOL     OW28030   1.985   3.551  15.268 -0.5314 -1.0622 -0.1582
 5523SOL    HW128031   2.063   3.596  15.235 -0.0914 -0.6963  1.3868
 5523SOL    HW228032   1.921   3.540  15.198 -0.4627 -0.4770 -0.3153
 5524SOL     OW28033   0.845   3.627   9.636 -0.0916 -0.5281 -0.3080
 5524SOL    HW128034   0.918   3.567   9.655  0.6513  0.7210  0.7373
 5524SOL    HW228035   0.765   3.574   9.634 -0.9023  0.6524  1.3188
 5525SOL     OW28036   2.958   0.383   3.696  0.2065 -0.4686 -0.4786
 5525SOL    HW128037   2.909   0.465   3.685  1.9666  0.7496  0.5193
 5525SOL    HW228038   3.041   0.407   3.738 -0.2386 -0.0948  0.1958
 5526SOL     OW28039   2.829   2.262  14.157 -0.2156 -0.5378 -0.3949
 5526SOL    HW128040   2.871   2.189  14.111 -0.5437 -1.6964  1.1237
 5526SOL    HW228041   2.903   2.300  14.205  0.2614 -2.2725  0.2442
 5527SOL     OW28042   4.491   2.107   2.577  0.4322 -0.3399 -0.3311
 5527SOL    HW128043   4.423   2.135   2.515 -0.6834 -2.1495  0.0762
 5527SOL    HW228044   4.444   2.039   2.626  0.2486 -0.1437 -0.2357
 5528SOL     OW28045   2.501   1.082  15.781  0.5219 -0.6224 -0.8677
 5528SOL    HW128046   2.417   1.089  15.826  1.4150 -1.0340  0.8561
 5528SOL    HW228047   2.460   1.092  15.695  0.2962  0.4894 -0.6275
 5529SOL     OW28048   4.341   1.317   8.342 -0.1997  0.1244  0.0402
 5529SOL    HW128049   4.356   1.266   8.422 -0.2429  2.3019  1.4593
 5529SOL    HW228050   4.274   1.382   8.364 -0.1029  0.0784  0.4678
 5530SOL     OW28051   0.258   4.124   4.572 -0.2899  0.4765 -0.0596
 5530SOL    HW128052   0.305   4.198   4.533  2.4577 -0.8651  0.7064
 5530SOL    HW228053   0.309   4.044   4.556 -1.1488  0.6455 -3.5874
 5531SOL     OW28054   3.122   1.252   6.983 -0.9310  0.2340  0.2691
 5531SOL    HW128055   3.122   1.307   6.904 -0.9785 -2.5222 -1.6748
 5531SOL    HW228056   3.085   1.171   6.946  0.1419  0.1792 -0.7079
 5532SOL     OW28057   0.070   1.250  11.388 -0.4528  0.4735 -0.3116
 5532SOL    HW128058   4.712   1.290  11.368 -0.3774  0.2725 -1.0371
 5532SOL    HW228059   0.042   1.160  11.406 -1.0606  0.7604  0.1863
 5533SOL     OW28060   0.635   0.820  12.538  0.4128  0.0671 -0.3203
 5533SOL    HW128061   0.715   0.862  12.569  0.6176 -0.9490  0.4984
 5533SOL    HW228062   0.613   0.877  12.464 -2.8991 -0.0789  0.5562
 5534SOL     OW28063   2.373   3.383  13.105 -0.0920 -0.7433 -0.3041
 5534SOL    HW128064   2.302   3.447  13.104  1.3991  0.9624  0.8004
 5534SOL    HW228065   2.425   3.418  13.178  1.2901 -0.9005 -1.2185
 5535SOL     OW28066   1.994   0.748   7.838 -0.2964 -0.6532 -0.0230
 5535SOL    HW128067   1.900   0.730   7.828  0.2170 -1.2502 -3.5066
 5535SOL    HW228068   1.979   0.816   7.905  0.3632  0.3707 -0.9116
 5536SOL     OW28069   1.579   2.840   7.147 -0.4356 -0.0046 -0.1448
 5536SOL    HW128070   1.622   2.802   7.070 -1.4127 -0.9857 -0.2168
 5536SOL    HW228071   1.535   2.760   7.177  0.5321 -1.5197 -2.6812
 5537SOL     OW28072   0.126   2.993   8.604  0.5148 -0.3507 -0.2531
 5537SOL    HW128073   0.153   2.912   8.647 -0.1313  0.9686  2.6222
 5537SOL    HW228074   0.214   3.030   8.605  0.6181 -0.5730 -0.9890
 5538SOL     OW28075   2.013   0.809  17.700  0.4583 -0.2527 -0.6522
 5538SOL    HW128076   2.072   0.836  17.630  0.0623  0.2281 -0.8024
 5538SOL    HW228077   2.066   0.778   0.063  1.9662 -0.0950 -1.6733
 5539SOL     OW28078   0.883   3.829  11.945 -0.1941  0.0037  0.0500
 5539SOL    HW128079   0.895   3.737  11.966  1.2990  0.1194 -0.2624
 5539SOL    HW228080   0.813   3.828  11.880  0.6204  0.5522 -0.8490
 5540SOL     OW28081   4.638   1.401  10.634  0.0120  0.0269 -0.1726
 5540SOL    HW128082   4.624   1.464  10.563 -1.2762  0.4691  0.4763
 5540SOL    HW228083   4.591   1.448  10.703 -1.6480 -0.7257 -0.8045
 5541SOL     OW28084   3.876   4.145   3.689  0.1843 -0.5246  0.4531
 5541SOL    HW128085   3.937   4.133   3.761 -0.4185 -0.0635  1.0350
 5541SOL    HW228086   3.794   4.108   3.721 -0.9520  1.2451 -0.4056
 5542SOL     OW28087   0.862   2.019   4.324 -0.1421 -0.8394 -0.2073
 5542SOL    HW128088   0.788   1.979   4.278 -0.1837  0.1518 -0.9925
 5542SOL    HW228089   0.915   1.941   4.339 -0.5907 -1.3785 -1.4079
 5543SOL     OW28090   4.421   4.159   5.861  0.1225 -0.4522 -0.7321
 5543SOL    HW128091   4.419   4.067   5.836 -0.6913 -1.0808  1.6049
 5543SOL    HW228092   4.502   4.168   5.912 -1.7548  1.4475  1.8923
 5544SOL     OW28093   1.491   1.848   0.890 -0.0144  0.9704  0.8735
 5544SOL    HW128094   1.407   1.880   0.922  0.1267  0.2507  1.9757
 5544SOL    HW228095   1.463   1.825   0.802 -1.4555  0.2561  1.5011
 5545SOL     OW28096   2.401   2.998   2.776 -0.1204 -0.6353  0.5157
 5545SOL    HW128097   2.323   3.054   2.768 -0.8276 -1.6454  0.3121
 5545SOL    HW228098   2.458   3.024   2.704 -1.2051  1.6392  0.4922
 5546SOL     OW28099   3.597   1.115   8.641 -0.1441  0.1795  0.3111
 5546SOL    HW128100   3.606   1.183   8.574  0.5124  0.3541  0.5818
 5546SOL    HW228101   3.505   1.089   8.629 -0.0656  0.1907 -0.3347
 5547SOL     OW28102   0.354   2.815   2.814 -0.2512  0.1963 -0.2147
 5547SOL    HW128103   0.260   2.801   2.801 -0.4759 -3.2573  5.5766
 5547SOL    HW228104   0.386   2.725   2.811  0.3155  0.3550  1.3318
 5548SOL     OW28105   1.450   4.075   5.593 -0.0327  0.0845 -0.0736
 5548SOL    HW128106   1.419   3.996   5.638  1.3397 -0.5780 -0.2937
 5548SOL    HW228107   1.431   4.138   5.663 -0.4362 -0.3536  0.2131
 5549SOL     OW28108   2.224   0.792  14.070 -0.0630 -0.1722  0.3227
 5549SOL    HW128109   2.292   0.859  14.062  0.6938 -1.1010 -0.9913
 5549SOL    HW228110   2.206   0.767  13.979 -1.1796  0.3203  0.4102
 5550SOL     OW28111   4.700   3.417  12.916  0.4901  0.2638  0.5591
 5550SOL    HW128112   0.002   3.440  13.004 -0.9594 -1.0267  1.3845
 5550SOL    HW228113   4.658   3.497  12.884  1.4794  0.3487 -0.5414
 5551SOL     OW28114   0.710   0.637  16.918 -0.5178  0.5016  0.2923
 5551SOL    HW128115   0.694   0.638  17.012  0.3258  0.0447  0.4422
 5551SOL    HW228116   0.623   0.626  16.878 -0.6851  1.2482  0.4602
 5552SOL     OW28117   0.319   3.347  12.346 -0.7093 -0.4990  0.3315
 5552SOL    HW128118   0.328   3.420  12.285  2.1355 -0.9760  0.1892
 5552SOL    HW228119   0.258   3.378  12.412 -1.3691  2.2446 -1.5783
 5553SOL     OW28120   3.154   2.310   0.684 -0.0843  0.2312  0.1935
 5553SOL    HW128121   3.117   2.307   0.595  0.7008 -0.5142 -0.1031
 5553SOL    HW228122   3.079   2.279   0.735  1.2664 -1.9980  0.8217
 5554SOL     OW28123   3.422   2.008  11.060  0.8906 -0.8431 -0.3042
 5554SOL    HW128124   3.393   1.917  11.060  1.1385 -0.9217  0.9430
 5554SOL    HW228125   3.499   2.000  11.117  0.7872 -0.2687 -0.0821
 5555SOL     OW28126   2.840   3.039   6.084  0.0325 -0.2675 -0.3669
 5555SOL    HW128127   2.885   3.123   6.091  0.0672 -0.5051  2.4984
 5555SOL    HW228128   2.916   2.984   6.106  0.4746  0.2885 -0.4805
 5556SOL     OW28129   3.676   0.967   4.931  0.2563  0.1117 -0.1080
 5556SOL    HW128130   3.614   0.917   4.878  0.0016  0.6905 -0.3627
 5556SOL    HW228131   3.660   0.936   5.020  1.0518  0.6789  0.2324
 5557SOL     OW28132   3.472   2.395   5.825 -0.2798  0.5315 -0.0586
 5557SOL    HW128133   3.429   2.481   5.823  1.7432  1.6096  1.9849
 5557SOL    HW228134   3.521   2.393   5.907 -1.2666  0.4114  0.5265
 5558SOL     OW28135   3.658   1.889   8.859  0.3875  0.2247 -0.2242
 5558SOL    HW128136   3.684   1.804   8.894 -0.1952 -0.1777 -0.7618
 5558SOL    HW228137   3.565   1.869   8.847  0.6646 -1.2094  0.0664
 5559SOL     OW28138   0.625   3.221   3.478 -0.0165 -0.2930 -0.2494
 5559SOL    HW128139   0.530   3.209   3.487 -0.0575 -1.0539 -1.6102
 5559SOL    HW228140   0.627   3.231   3.383  1.6509  1.4422 -0.0189
 5560SOL     OW28141   1.846   1.638   6.673  0.0837  0.2079  0.4285
 5560SOL    HW128142   1.927   1.634   6.724  0.0651 -0.0485  0.4392
 5560SOL    HW228143   1.850   1.551   6.633  4.1497  1.1831 -1.3314
 5561SOL     OW28144   2.423   1.190  16.797 -0.0345  0.3422 -0.8014
 5561SOL    HW128145   2.425   1.285  16.801 -0.3503  0.3960 -1.9008
 5561SOL    HW228146   2.478   1.179  16.719  0.6821 -0.7745 -0.1406
 5562SOL     OW28147   3.765   1.851   3.186 -0.0173  0.6392 -0.2437
 5562SOL    HW128148   3.753   1.906   3.264 -1.3354  3.4956 -2.4781
 5562SOL    HW228149   3.767   1.766   3.230  1.4155  0.2975 -1.0006
 5563SOL     OW28150   0.736   3.516  11.752 -0.5547 -0.1302 -0.0598
 5563SOL    HW128151   0.829   3.533  11.736  0.1414 -0.3066  3.8866
 5563SOL    HW228152   0.732   3.510  11.847  0.0063 -0.5304 -0.0673
 5564SOL     OW28153   2.364   2.589   3.652  0.5982 -0.2316  1.0632
 5564SOL    HW128154   2.350   2.511   3.599  1.9002 -0.5998  1.2604
 5564SOL    HW228155   2.409   2.548   3.725  2.7020 -0.7504 -0.5244
 5565SOL     OW28156   4.425   0.338   7.400  0.2799 -0.2720 -0.5131
 5565SOL    HW128157   4.481   0.411   7.374  0.8909 -0.8495 -0.8010
 5565SOL    HW228158   4.404   0.364   7.490 -0.7376 -0.1780 -0.7793
 5566SOL     OW28159   2.828   0.862   8.723  0.4381  0.0040  0.3479
 5566SOL    HW128160   2.828   0.778   8.768 -0.2769 -0.2548 -0.1466
 5566SOL    HW228161   2.750   0.863   8.669 -0.5788 -0.1813  1.8181
 5567SOL     OW28162   0.443   3.400   4.330 -0.7426  0.5286 -0.4830
 5567SOL    HW128163   0.435   3.404   4.235 -0.8226 -0.6194 -0.5173
 5567SOL    HW228164   0.534   3.430   4.325 -0.1460 -0.8781  1.6551
 5568SOL     OW28165   0.312   3.509   9.685 -0.4585 -0.2890 -0.2596
 5568SOL    HW128166   0.274   3.535   9.602  2.8217  1.2743 -1.2791
 5568SOL    HW228167   0.380   3.575   9.699  0.4479 -0.8943 -1.7213
 5569SOL     OW28168   3.714   0.875  10.930 -0.4102  0.2588  0.0855
 5569SOL    HW128169   3.692   0.952  10.878  1.9558  2.1191  1.8537
 5569SOL    HW228170   3.781   0.917  10.984 -0.6264 -0.2278  0.7251
 5570SOL     OW28171   4.309   0.904  12.654 -0.3137 -0.1202 -0.0427
 5570SOL    HW128172   4.255   0.948  12.720 -2.3724  0.2211 -1.9226
 5570SOL    HW228173   4.322   0.822  12.702 -0.5936  0.4026  0.9274
 5571SOL     OW28174   1.965   2.663   1.678  0.2326 -0.4484 -0.3692
 5571SOL    HW128175   1.924   2.648   1.763  0.5765 -0.3262 -0.1814
 5571SOL    HW228176   1.899   2.622   1.623 -1.7489 -0.4776  2.0244
 5572SOL     OW28177   0.172   2.182   7.952  0.3146  0.5338  0.9065
 5572SOL    HW128178   0.088   2.196   7.997  0.2820  4.0042 -0.1808
 5572SOL    HW228179   0.198   2.273   7.937  0.3360  0.0652 -1.8245
 5573SOL     OW28180   4.074   1.220   4.643  0.8235 -0.1415 -0.4354
 5573SOL    HW128181   4.139   1.154   4.667  0.3650  0.2595  1.9640
 5573SOL    HW228182   3.998   1.204   4.699  0.8667  0.9063 -0.0717
 5574SOL     OW28183   1.210   0.034   5.080 -0.3468 -1.2602  0.1370
 5574SOL    HW128184   1.294   4.725   5.107  1.0649  0.0136 -2.6524
 5574SOL    HW228185   1.170   0.047   5.166  4.1097 -2.8764  2.4525
 5575SOL     OW28186   2.171   0.291  13.805  0.6651 -0.1216 -0.2336
 5575SOL    HW128187   2.083   0.328  13.808  1.4473  1.7232  0.4369
 5575SOL    HW228188   2.169   0.254  13.716 -0.2650  1.4468 -0.8606
 5576SOL     OW28189   0.299   3.527   2.553  0.0379 -0.3020 -0.0061
 5576SOL    HW128190   0.327   3.438   2.575  1.4393 -0.1133 -0.9900
 5576SOL    HW228191   0.206   3.508   2.539  0.4467 -1.0933 -1.7044
 5577SOL     OW28192   0.255   0.580   4.878  0.6035 -0.4551  0.5307
 5577SOL    HW128193   0.319   0.512   4.857  1.7253  1.3269 -1.7913
 5577SOL    HW228194   0.175   0.529   4.868  0.3734 -0.0275  0.1612
 5578SOL     OW28195   1.689   2.833   7.911  0.3821 -0.3468 -0.3214
 5578SOL    HW128196   1.704   2.758   7.853  1.1964 -2.2707  2.4027
 5578SOL    HW228197   1.650   2.789   7.986 -0.0622 -0.0362 -0.3682
 5579SOL     OW28198   2.394   1.633   5.232  0.1515 -0.2783  0.0406
 5579SOL    HW128199   2.382   1.677   5.148  2.6422 -0.8188 -0.6008
 5579SOL    HW228200   2.327   1.666   5.292 -0.6746  1.2277 -1.7216
 5580SOL     OW28201   1.187   0.535   2.957 -0.8285 -0.1129 -0.1170
 5580SOL    HW128202   1.206   0.509   3.047 -1.0560  3.3403  0.9409
 5580SOL    HW228203   1.136   0.459   2.928 -1.0738 -0.3743  0.9871
 5581SOL     OW28204   3.987   0.001   1.509 -0.1160 -0.1115 -0.1375
 5581SOL    HW128205   3.919   0.064   1.487  0.2403  0.8726  1.5549
 5581SOL    HW228206   3.964   4.661   1.444  0.0533  1.6961 -2.0901
 5582SOL     OW28207   2.074   4.122   9.304  0.2987  0.4439 -0.0455
 5582SOL    HW128208   2.084   4.045   9.360 -1.1830  0.0827 -0.2640
 5582SOL    HW228209   1.979   4.137   9.307  0.0340 -1.0999 -0.5245
 5583SOL     OW28210   0.397   0.339  15.527 -0.7167  0.2639 -0.3352
 5583SOL    HW128211   0.367   0.294  15.449  0.5849 -1.5155  0.1906
 5583SOL    HW228212   0.440   0.413  15.484 -2.4767  0.2943 -2.0107
 5584SOL     OW28213   4.298   0.484  10.801 -0.0202  0.5591  0.5687
 5584SOL    HW128214   4.343   0.513  10.722 -0.2075 -3.3250 -0.9711
 5584SOL    HW228215   4.230   0.423  10.772  1.4072 -0.0164 -1.5339
 5585SOL     OW28216   0.009   1.422   5.140 -0.2032 -0.0825 -0.8050
 5585SOL    HW128217   4.672   1.488   5.114 -1.0259 -0.7156 -0.3853
 5585SOL    HW228218   0.059   1.476   5.202 -2.7395 -0.1301  1.2754
 5586SOL     OW28219   2.822   3.933   5.816  0.1932  0.1247  0.4482
 5586SOL    HW128220   2.880   4.008   5.801 -0.0481  0.0425 -0.9124
 5586SOL    HW228221   2.748   3.977   5.859  0.8456  1.0102  0.6632
 5587SOL     OW28222   3.583   2.417   9.723 -0.4791  0.7191 -0.5382
 5587SOL    HW128223   3.598   2.400   9.631 -0.9702 -0.4122 -0.4044
 5587SOL    HW228224   3.536   2.339   9.751  3.1178 -1.4913 -0.6031
 5588SOL     OW28225   4.312   2.309  15.920  0.0260  0.0101 -0.1441
 5588SOL    HW128226   4.327   2.265  15.837 -2.0772 -0.4386 -0.2795
 5588SOL    HW228227   4.247   2.376  15.898 -0.3475  0.1080  1.2543
 5589SOL     OW28228   1.240   2.221   4.652 -0.0030  0.0636  0.3591
 5589SOL    HW128229   1.208   2.159   4.717  2.0500 -0.4994  0.8228
 5589SOL    HW228230   1.243   2.159   4.579  1.7216 -1.2936  1.6027
 5590SOL     OW28231   2.655   2.933   9.140  0.0244  0.4972 -0.6203
 5590SOL    HW128232   2.595   2.954   9.212  0.7207  4.0884 -1.0496
 5590SOL    HW228233   2.647   2.838   9.137  1.5689  0.2758  2.5703
 5591SOL     OW28234   1.156   2.093   7.744 -0.0595  0.4191 -0.1630
 5591SOL    HW128235   1.124   2.147   7.672 -1.2409 -0.3911 -0.2537
 5591SOL    HW228236   1.239   2.063   7.707  0.3789  1.0380  0.3380
 5592SOL     OW28237   3.709   2.376  13.897 -0.1604 -0.0146  0.1652
 5592SOL    HW128238   3.681   2.464  13.870 -0.4499 -0.3629 -0.6699
 5592SOL    HW228239   3.665   2.329  13.826  0.0424 -0.0491  0.0626
 5593SOL     OW28240   2.285   4.481   7.309 -0.1350 -0.0206 -0.2525
 5593SOL    HW128241   2.227   4.500   7.235 -0.5327  0.7281  0.2449
 5593SOL    HW228242   2.360   4.447   7.260  0.6937  1.2812  0.1035
 5594SOL     OW28243   0.334   3.784   5.926  0.3489 -0.1911 -0.1800
 5594SOL    HW128244   0.310   3.877   5.927  0.7083 -0.0981 -0.1680
 5594SOL    HW228245   0.350   3.778   6.020 -2.0802  1.9609  0.3790
 5595SOL     OW28246   1.347   0.034   8.938 -0.4607 -0.4954  0.3698
 5595SOL    HW128247   1.372   0.126   8.947 -0.3939 -0.6579  1.8763
 5595SOL    HW228248   1.297   0.024   9.020  1.6268 -1.9995  1.4688
 5596SOL     OW28249   1.554   1.082   4.510 -0.0622 -0.1008  0.3434
 5596SOL    HW128250   1.512   1.059   4.427  1.2986  0.2595 -0.4487
 5596SOL    HW228251   1.596   1.166   4.492  0.7831 -0.1914  1.8891
 5597SOL     OW28252   0.336   4.163   5.637  0.2486  0.3265  0.5344
 5597SOL    HW128253   0.356   4.186   5.727  4.6074  1.2072 -0.6566
 5597SOL    HW228254   0.427   4.151   5.610  0.3457 -1.5156  1.6556
 5598SOL     OW28255   0.219   1.374   3.948 -0.2362 -0.0434  0.0205
 5598SOL    HW128256   0.241   1.387   3.856  0.9636 -1.5981  0.0866
 5598SOL    HW228257   0.269   1.295   3.970 -1.2871 -0.5357  0.6490
 5599SOL     OW28258   1.168   4.707   8.456  0.0718 -0.3255  0.0305
 5599SOL    HW128259   1.203   0.067   8.471  1.2925 -0.6702 -0.7549
 5599SOL    HW228260   1.074   4.719   8.445  0.4569  0.2157 -2.5878
 5600SOL     OW28261   0.696   2.794   2.570  0.4709  0.1155 -0.2058
 5600SOL    HW128262   0.780   2.782   2.527  0.3894 -2.5588  0.4182
 5600SOL    HW228263   0.670   2.715   2.617  0.4445  0.0594 -0.3142
 5601SOL     OW28264   2.282   2.268  15.701  0.1513  0.0497 -0.0467
 5601SOL    HW128265   2.312   2.283  15.791 -0.1329  1.5011 -0.1968
 5601SOL    HW228266   2.364   2.283  15.654  0.0004  0.2508 -0.2480
 5602SOL     OW28267   3.985   3.210   3.824  0.0667 -0.4053  0.1402
 5602SOL    HW128268   4.076   3.231   3.843 -0.4685  2.0783 -0.0870
 5602SOL    HW228269   3.950   3.298   3.817  2.2881  0.4121 -0.6779
 5603SOL     OW28270   1.916   3.253  17.631  0.5371 -0.2865  0.0129
 5603SOL    HW128271   1.902   3.207   0.005  1.9564  1.7251  1.3572
 5603SOL    HW228272   1.825   3.229  17.612  0.4216 -1.0372  1.4460
 5604SOL     OW28273   2.188   4.115   4.705 -0.4473  0.5782 -0.1490
 5604SOL    HW128274   2.111   4.066   4.675  0.9579 -0.7598 -1.5614
 5604SOL    HW228275   2.253   4.095   4.638  0.0151 -3.0452  1.3565
 5605SOL     OW28276   0.664   1.053   0.903  0.0534  0.0843 -0.4903
 5605SOL    HW128277   0.572   1.079   0.915 -0.2385 -1.1693 -0.0300
 5605SOL    HW228278   0.704   1.140   0.900  0.1009  0.0467 -0.9356
 5606SOL     OW28279   2.945   4.546   9.179 -0.2933 -0.1310 -0.0319
 5606SOL    HW128280   2.888   4.470   9.164 -1.2473  0.1813  1.9729
 5606SOL    HW228281   2.875   4.610   9.182 -0.9775 -0.8989  0.3704
 5607SOL     OW28282   3.148   0.709   2.484  0.1475  0.2179 -0.3055
 5607SOL    HW128283   3.056   0.720   2.507  0.5723  1.3180  0.8355
 5607SOL    HW228284   3.157   0.614   2.477  1.1480  0.2209  0.8622
 5608SOL     OW28285   2.603   3.748   5.597  0.1936  0.3240  0.5383
 5608SOL    HW128286   2.523   3.702   5.571  1.3117 -0.9570 -0.6462
 5608SOL    HW228287   2.570   3.822   5.647  3.5263  1.3428  1.2082
 5609SOL     OW28288   4.527   3.916  13.775 -0.0013  0.0119 -0.4041
 5609SOL    HW128289   4.596   3.953  13.830  0.5159 -0.2565 -0.8732
 5609SOL    HW228290   4.564   3.908  13.687  0.5664  0.9993 -0.2620
 5610SOL     OW28291   0.687   0.141   5.874 -0.4713  0.3192  0.1415
 5610SOL    HW128292   0.627   0.154   5.801  0.1287 -1.4890 -0.6605
 5610SOL    HW228293   0.733   0.059   5.860 -0.0252  0.8266 -1.3442
 5611SOL     OW28294   4.114   0.658  14.392  0.3866 -0.1898 -0.1323
 5611SOL    HW128295   4.204   0.681  14.368  0.3127  1.2363  0.9710
 5611SOL    HW228296   4.074   0.744  14.381  0.9709  0.1871  0.7017
 5612SOL     OW28297   2.921   0.314   8.356 -0.0117 -0.4465  0.3814
 5612SOL    HW128298   3.007   0.310   8.316 -0.9748  0.8926 -1.7977
 5612SOL    HW228299   2.866   0.253   8.307  0.7424 -0.2015 -0.7685
 5613SOL     OW28300   0.746   3.790   9.312  0.2612 -0.3868 -0.6113
 5613SOL    HW128301   0.782   3.753   9.231  0.8334 -0.7307 -0.1946
 5613SOL    HW228302   0.702   3.716   9.353 -0.2323  0.6968  0.7993
 5614SOL     OW28303   2.790   2.896   8.227 -0.2187  0.5411  0.7756
 5614SOL    HW128304   2.759   2.825   8.283  1.4232  0.2426  1.3325
 5614SOL    HW228305   2.746   2.972   8.264  2.3999  1.5075  1.9485
 5615SOL     OW28306   4.049   4.386   1.867 -0.1231 -0.1628 -0.2104
 5615SOL    HW128307   4.129   4.392   1.919  0.1023 -0.3899 -0.5263
 5615SOL    HW228308   4.092   4.369   1.783  0.0455  1.5750 -0.4776
 5616SOL     OW28309   2.245   2.809   8.644  0.1416 -0.2061  0.0436
 5616SOL    HW128310   2.189   2.777   8.574  0.4491 -0.6968  0.0235
 5616SOL    HW228311   2.196   2.883   8.679  1.6364  1.2511 -0.9009
 5617SOL     OW28312   3.625   3.496   3.756  0.1892  0.2572 -0.2731
 5617SOL    HW128313   3.712   3.507   3.717  0.6138 -1.1418  0.2636
 5617SOL    HW228314   3.631   3.514   3.849  1.8552  0.2036 -0.3625
 5618SOL     OW28315   3.914   2.292   5.486 -0.5869  0.5635  0.1224
 5618SOL    HW128316   3.913   2.204   5.448 -0.6566  0.6957 -0.1842
 5618SOL    HW228317   3.824   2.322   5.472 -0.5430  0.0157 -1.3065
 5619SOL     OW28318   0.054   3.306   1.975  0.2206 -0.1703  0.1037
 5619SOL    HW128319   0.098   3.236   2.023  0.3165 -0.9613 -1.1151
 5619SOL    HW228320   0.126   3.335   1.919 -0.5383  1.8692  0.1940
 5620SOL     OW28321   1.322   1.623   1.323  0.0486  0.1538  0.1382
 5620SOL    HW128322   1.244   1.567   1.327 -0.1758  0.4349 -0.2748
 5620SOL    HW228323   1.278   1.707   1.337 -0.6667 -0.4930  1.8390
 5621SOL     OW28324   2.520   0.846   3.468 -0.7859 -0.1029 -0.4520
 5621SOL    HW128325   2.528   0.931   3.511  1.7635 -0.3923 -0.3320
 5621SOL    HW228326   2.610   0.818   3.485 -1.0499 -1.1380 -0.7454
 5622SOL     OW28327   0.604   0.850   4.422 -0.0649 -0.0543 -0.7609
 5622SOL    HW128328   0.691   0.888   4.412 -0.2356  0.2055 -1.2776
 5622SOL    HW228329   0.624   0.757   4.431 -1.0682 -0.1941 -0.0579
 5623SOL     OW28330   2.410   1.708   6.477 -0.6643  0.6209 -0.0800
 5623SOL    HW128331   2.482   1.730   6.419 -2.1666 -1.5620 -2.7476
 5623SOL    HW228332   2.442   1.734   6.564 -3.3374 -0.0081  1.0907
 5624SOL     OW28333   1.346   4.199   3.843  0.5324  0.2931 -0.1217
 5624SOL    HW128334   1.402   4.267   3.880 -0.7375  1.5433 -0.4872
 5624SOL    HW228335   1.394   4.180   3.762  1.2665  1.3054  0.0783
 5625SOL     OW28336   2.124   3.118   5.976  0.1339  0.4820 -0.1642
 5625SOL    HW128337   2.071   3.101   5.898  0.2661 -2.3217  0.3902
 5625SOL    HW228338   2.081   3.062   6.040 -1.8347  0.6795 -1.3143
 5626SOL     OW28339   4.119   0.509   9.298  0.3594 -0.1929  0.2351
 5626SOL    HW128340   4.159   0.460   9.369 -1.2865 -2.0717 -0.1390
 5626SOL    HW228341   4.048   0.559   9.339 -1.5557 -0.6962 -2.4365
 5627SOL     OW28342   3.922   2.449   0.666  0.1262  0.1262 -0.0391
 5627SOL    HW128343   3.941   2.394   0.742  0.9961  1.0583  0.4289
 5627SOL    HW228344   3.996   2.509   0.678 -0.9862  0.8107  3.5518
 5628SOL     OW28345   1.892   3.959   5.893  0.1353 -0.1255  0.3168
 5628SOL    HW128346   1.837   3.908   5.953  0.6611 -0.8974  0.1548
 5628SOL    HW228347   1.924   3.882   5.845 -2.7635 -1.9810  1.3057
 5629SOL     OW28348   2.826   3.964   7.266 -0.7277  0.4975 -0.1762
 5629SOL    HW128349   2.910   4.009   7.278 -1.2323  1.2376  0.5446
 5629SOL    HW228350   2.853   3.873   7.258  0.2983  0.6754  1.0680
 5630SOL     OW28351   1.595   1.979   2.942  0.0684 -0.0526  0.7812
 5630SOL    HW128352   1.650   2.017   3.010  0.1544 -0.9647  1.2297
 5630SOL    HW228353   1.529   1.941   3.000  0.4787 -1.9590 -0.0132
 5631SOL     OW28354   3.242   3.128   6.474 -0.1139 -0.4000 -0.4771
 5631SOL    HW128355   3.209   3.126   6.564  1.6995 -0.6551  0.1876
 5631SOL    HW228356   3.217   3.215   6.442  0.8855  0.5858  1.4294
 5632SOL     OW28357   1.843   3.487   6.315 -0.3049 -0.5837 -0.6233
 5632SOL    HW128358   1.832   3.519   6.226  0.7386  1.1082 -0.1495
 5632SOL    HW228359   1.902   3.412   6.308  0.2646 -0.1540 -0.4270
 5633SOL     OW28360   1.696   3.349   2.213  0.4126  0.3376  0.2477
 5633SOL    HW128361   1.726   3.289   2.282  2.0554  0.3208 -0.4703
 5633SOL    HW228362   1.615   3.303   2.190  0.7323 -0.7700  1.3298
 5634SOL     OW28363   1.921   3.019   1.816  0.6433  0.5281  0.4981
 5634SOL    HW128364   1.973   3.028   1.736 -1.5931  1.1756 -0.8848
 5634SOL    HW228365   1.891   3.109   1.827 -1.9581 -0.1798 -0.8785
 5635SOL     OW28366   4.071   0.218   7.778 -0.1034  0.0676  0.1026
 5635SOL    HW128367   4.084   0.160   7.853 -0.4618  1.2644  1.0906
 5635SOL    HW228368   4.139   0.188   7.718 -0.0240 -1.0150  0.7458
 5636SOL     OW28369   3.385   2.612   1.735  0.4360 -0.1595  0.0043
 5636SOL    HW128370   3.475   2.634   1.710  0.8023 -1.4936  0.1589
 5636SOL    HW228371   3.387   2.517   1.738  0.0633 -0.1974 -1.0634
 5637SOL     OW28372   3.589   3.835   1.766  0.2623  0.1339 -0.1665
 5637SOL    HW128373   3.495   3.853   1.770  0.4642  1.0124  0.7352
 5637SOL    HW228374   3.611   3.917   1.721  0.5975  0.9868  1.5551
 5638SOL     OW28375   2.803   3.392   0.257 -0.3809  0.1336  0.1642
 5638SOL    HW128376   2.768   3.437   0.180 -1.1533  0.8601  0.9424
 5638SOL    HW228377   2.730   3.345   0.297 -0.4639  0.4473  0.3880
 5639SOL     OW28378   2.253   3.066  16.697 -0.2330  0.2631  0.2390
 5639SOL    HW128379   2.194   3.002  16.735 -0.4955  1.2030  1.4201
 5639SOL    HW228380   2.208   3.087  16.615  0.0002 -0.0984  0.0193
 5640SOL     OW28381   3.899   3.022  12.714 -0.4120 -0.1501  0.2532
 5640SOL    HW128382   3.811   3.036  12.678 -1.3043 -1.0316  2.1032
 5640SOL    HW228383   3.945   3.072  12.646 -3.4269 -0.9924 -2.4517
 5641SOL     OW28384   4.017   4.561   7.997 -0.8144 -0.2180  0.4515
 5641SOL    HW128385   4.045   4.619   8.067 -1.3375 -1.0314  1.3393
 5641SOL    HW228386   4.099   4.513   7.986  1.1984  3.3355  0.1033
 5642SOL     OW28387   4.294   3.384   3.403  0.2186 -0.3427  0.3376
 5642SOL    HW128388   4.299   3.312   3.340  0.3644 -0.0290 -0.0176
 5642SOL    HW228389   4.388   3.402   3.414  0.2457 -0.2058 -0.0810
 5643SOL     OW28390   4.544   4.569   4.061  0.2503  0.1850 -0.7574
 5643SOL    HW128391   4.525   4.489   4.110  1.2376  0.5061  0.1416
 5643SOL    HW228392   4.543   4.633   4.132  0.3544 -0.4476 -0.1802
 5644SOL     OW28393   3.721   4.564  15.875 -0.1025 -0.2440 -0.2783
 5644SOL    HW128394   3.801   4.512  15.875 -0.5145 -0.8714 -1.3680
 5644SOL    HW228395   3.692   4.545  15.786 -1.1964 -1.1594  0.2672
 5645SOL     OW28396   1.769   1.701  11.904  0.8485  0.3450 -0.9290
 5645SOL    HW128397   1.840   1.656  11.857 -0.1274 -0.0815 -1.9727
 5645SOL    HW228398   1.801   1.782  11.946 -1.5545  0.8835 -0.1340
 5646SOL     OW28399   2.404   1.500   3.798 -0.0718  0.1314  0.7922
 5646SOL    HW128400   2.311   1.512   3.780  0.0754  1.5773  0.9892
 5646SOL    HW228401   2.437   1.586   3.827  1.0803  0.6236 -1.9859
 5647SOL     OW28402   3.984   0.791   7.025 -0.6135 -0.3050  0.2389
 5647SOL    HW128403   3.971   0.862   7.088  0.3562  0.3685 -0.3161
 5647SOL    HW228404   4.080   0.782   7.026 -0.8001 -2.3480 -0.2759
 5648SOL     OW28405   1.861   0.738  12.127  0.3280  0.1933  0.0901
 5648SOL    HW128406   1.922   0.672  12.096  0.0727  0.3502 -0.7767
 5648SOL    HW228407   1.833   0.780  12.045  3.0457 -0.3307 -1.1076
 5649SOL     OW28408   3.637   2.534   9.100 -0.3136 -0.0351 -0.4252
 5649SOL    HW128409   3.726   2.553   9.071 -0.3345  0.8792  0.1095
 5649SOL    HW228410   3.606   2.471   9.035 -1.3471  1.3292 -1.2610
 5650SOL     OW28411   0.207   3.988   8.737 -0.6089 -0.1677 -0.7073
 5650SOL    HW128412   0.138   4.035   8.785 -0.4828 -0.8203  0.0985
 5650SOL    HW228413   0.276   4.051   8.718 -0.7693  0.6264  1.4016
 5651SOL     OW28414   2.891   2.728   6.854  0.1978  0.8061 -0.3205
 5651SOL    HW128415   2.933   2.787   6.793 -0.0546  0.8756 -0.4292
 5651SOL    HW228416   2.849   2.674   6.787  0.8978  0.1841 -0.2594
 5652SOL     OW28417   2.528   1.739  17.227 -0.3316 -0.1649 -0.3851
 5652SOL    HW128418   2.524   1.829  17.260 -1.4854 -0.9822  1.7546
 5652SOL    HW228419   2.546   1.688  17.306  1.3489  0.9755 -0.0491
 5653SOL     OW28420   2.298   0.131  11.860  0.7153  0.2887 -0.2387
 5653SOL    HW128421   2.299   0.036  11.868  0.1313  0.6317  3.7785
 5653SOL    HW228422   2.388   0.157  11.883 -1.1090  5.0263  1.7010
 5654SOL     OW28423   2.742   2.537   2.590 -0.0775 -0.4085  0.1709
 5654SOL    HW128424   2.740   2.526   2.686  3.8184  1.1981  0.4483
 5654SOL    HW228425   2.748   2.443   2.570 -1.4381 -0.0137 -2.0339
 5655SOL     OW28426   2.326   1.769   8.271  0.0970 -0.2410  0.2435
 5655SOL    HW128427   2.384   1.842   8.290  0.3333 -0.7705  1.5543
 5655SOL    HW228428   2.240   1.807   8.251  1.1673  0.7090 -2.4511
 5656SOL     OW28429   1.486   1.838  15.517 -0.0185 -0.1201  0.0435
 5656SOL    HW128430   1.565   1.868  15.561 -0.7141  0.6613  0.7622
 5656SOL    HW228431   1.416   1.890  15.557 -1.7685 -0.8850 -1.9670
 5657SOL     OW28432   0.648   3.139   3.057 -0.3265  0.0660  0.5118
 5657SOL    HW128433   0.709   3.111   2.988  1.3773 -1.4007  2.6097
 5657SOL    HW228434   0.695   3.187   3.125  0.8801  1.3460 -1.1938
 5658SOL     OW28435   4.531   0.445   1.945  0.0541 -0.0314 -0.7593
 5658SOL    HW128436   4.612   0.473   1.989 -0.4812 -1.1341  0.9024
 5658SOL    HW228437   4.538   0.350   1.941  1.8182  0.0643 -0.0764
 5659SOL     OW28438   2.194   2.696   7.730 -0.0886 -0.5553 -0.1349
 5659SOL    HW128439   2.129   2.763   7.753 -1.1128 -1.2348 -1.0683
 5659SOL    HW228440   2.158   2.622   7.779 -2.4614  1.1416  0.7380
 5660SOL     OW28441   3.256   1.514   4.623  0.3011  0.7675  0.0406
 5660SOL    HW128442   3.313   1.575   4.577 -1.9786  2.2332 -0.8046
 5660SOL    HW228443   3.185   1.573   4.648  0.1371  0.0420  1.2939
 5661SOL     OW28444   2.641   0.877   6.710 -0.0581 -0.3703  0.1252
 5661SOL    HW128445   2.639   0.793   6.757  1.2562 -0.4257  0.1018
 5661SOL    HW228446   2.613   0.850   6.622  0.8153 -1.9319  0.3092
 5662SOL     OW28447   3.897   0.354  12.101  0.2700  0.0863  0.1736
 5662SOL    HW128448   3.855   0.434  12.069 -2.9757 -1.7878 -0.1954
 5662SOL    HW228449   3.966   0.385  12.160  0.8866  0.7100 -0.8529
 5663SOL     OW28450   2.458   4.426   8.622  0.0120 -0.4826  0.4225
 5663SOL    HW128451   2.443   4.506   8.672 -1.6122  0.2663 -1.2230
 5663SOL    HW228452   2.426   4.355   8.677 -2.0953  0.4009  0.3605
 5664SOL     OW28453   3.084   0.477   4.082 -0.0313  0.3298 -0.1236
 5664SOL    HW128454   2.989   0.465   4.085 -0.1748  1.2662 -0.8693
 5664SOL    HW228455   3.110   0.389   4.054 -1.4231 -0.1629  0.0943
 5665SOL     OW28456   1.049   0.893   8.417  0.0575 -0.3428 -0.0999
 5665SOL    HW128457   1.080   0.812   8.377  2.0091 -0.6318  1.9868
 5665SOL    HW228458   0.975   0.859   8.467  0.1537 -0.4829 -0.0550
 5666SOL     OW28459   3.600   1.703   1.594 -0.2623 -0.7418  0.3265
 5666SOL    HW128460   3.577   1.683   1.503 -0.0376  0.5820 -0.0134
 5666SOL    HW228461   3.591   1.612   1.621  0.5460 -1.2045 -0.9346
 5667SOL     OW28462   4.319   1.050   4.028  0.0342  0.6373 -0.5460
 5667SOL    HW128463   4.338   1.014   3.941 -0.1962 -1.5634  0.3094
 5667SOL    HW228464   4.399   1.098   4.049 -0.2458  0.4022  1.0276
 5668SOL     OW28465   2.929   3.863   4.391  0.1660 -0.3783 -0.2823
 5668SOL    HW128466   2.910   3.940   4.443  1.3192  0.6672 -1.4019
 5668SOL    HW228467   2.848   3.814   4.409  0.0857  0.3084  1.2228
 5669SOL     OW28468   1.618   0.483  15.934 -0.4741 -0.2125 -0.2218
 5669SOL    HW128469   1.525   0.474  15.913 -0.6339 -0.1634  0.4583
 5669SOL    HW228470   1.636   0.562  15.884 -0.9150  0.1670  0.2211
 5670SOL     OW28471   0.844   1.634   5.074 -0.0712  0.1514 -0.0142
 5670SOL    HW128472   0.753   1.605   5.076 -0.7646  2.4291  1.1797
 5670SOL    HW228473   0.850   1.697   5.146 -0.1097  0.1580 -0.0167
 5671SOL     OW28474   2.791   3.161   9.584 -0.1344 -0.2348 -0.4167
 5671SOL    HW128475   2.865   3.100   9.580  0.2638  0.1811  0.6883
 5671SOL    HW228476   2.775   3.156   9.490  0.6115 -4.5482 -0.3521
 5672SOL     OW28477   2.432   2.890   9.343  0.4291 -0.4415 -0.1332
 5672SOL    HW128478   2.409   2.980   9.364 -1.0762 -0.4540 -1.7770
 5672SOL    HW228479   2.345   2.863   9.315  0.9638 -0.2293 -1.9881
 5673SOL     OW28480   2.957   0.315   2.914  0.1059 -0.2863 -0.2035
 5673SOL    HW128481   2.935   0.315   3.007  1.0240  0.5014  0.0060
 5673SOL    HW228482   2.940   0.408   2.898  2.2094  0.2920  1.0026
 5674SOL     OW28483   4.059   3.236   7.913 -0.5501  0.2691 -0.1109
 5674SOL    HW128484   4.014   3.152   7.900 -1.9821  1.3386 -2.0605
 5674SOL    HW228485   4.081   3.223   8.005  1.5838 -1.8979 -0.9202
 5675SOL     OW28486   3.036   2.363   2.636 -0.0782 -0.3724  0.0608
 5675SOL    HW128487   2.983   2.304   2.690  0.1265 -0.8846 -0.2968
 5675SOL    HW228488   2.960   2.404   2.594  0.8406  1.3957  0.1387
 5676SOL     OW28489   0.358   0.814   7.035  0.2310  0.3762 -0.1871
 5676SOL    HW128490   0.326   0.757   6.965 -4.2342  1.4311  1.0333
 5676SOL    HW228491   0.393   0.882   6.977 -0.6839  0.7545 -0.2935
 5677SOL     OW28492   0.400   1.993   1.230 -0.4022 -0.0417  0.4665
 5677SOL    HW128493   0.417   1.900   1.216 -1.1966 -0.8232  4.6363
 5677SOL    HW228494   0.313   1.996   1.191  1.1494 -1.4206 -3.0944
 5678SOL     OW28495   3.322   4.367   5.022 -0.5230 -0.5670 -0.5468
 5678SOL    HW128496   3.286   4.449   5.055  0.1095 -0.6076  0.2380
 5678SOL    HW228497   3.289   4.364   4.932  4.2534  1.8249 -2.3172
 5679SOL     OW28498   1.550   2.297   2.517 -0.4222  0.2340  0.0050
 5679SOL    HW128499   1.560   2.268   2.608  4.7851  1.1423 -0.2593
 5679SOL    HW228500   1.642   2.314   2.495 -0.0979  0.3176  1.4378
 5680SOL     OW28501   3.613   1.627  12.103 -0.2590  0.3708  0.2818
 5680SOL    HW128502   3.630   1.721  12.112  1.0109  0.0057  1.7233
 5680SOL    HW228503   3.541   1.638  12.041  0.9720 -1.0593 -1.3741
 5681SOL     OW28504   1.349   0.091   0.541  0.2916  0.3104 -0.2748
 5681SOL    HW128505   1.291   0.166   0.555  0.9181  0.6887  0.2509
 5681SOL    HW228506   1.422   0.111   0.599  0.2576 -1.7650  0.4720
 5682SOL     OW28507   1.434   3.470   2.895  0.1048  0.2312  0.3571
 5682SOL    HW128508   1.347   3.510   2.895  1.3501  2.9487 -0.9265
 5682SOL    HW228509   1.415   3.393   2.948  0.3369 -1.2479 -1.6659
 5683SOL     OW28510   1.439   2.523   5.044  0.1525  0.4380  0.1288
 5683SOL    HW128511   1.375   2.452   5.055  0.0549  0.4761 -0.1770
 5683SOL    HW228512   1.467   2.500   4.955  3.9248 -0.4352  1.5468
 5684SOL     OW28513   4.361   3.059   4.012  0.5301  0.3133  0.1436
 5684SOL    HW128514   4.355   3.029   3.921  1.3888 -1.7939  0.7620
 5684SOL    HW228515   4.282   3.011   4.037 -0.5621  1.2237 -1.6051
 5685SOL     OW28516   3.506   3.379   7.984  0.4071 -0.3007  0.3982
 5685SOL    HW128517   3.466   3.393   7.899 -2.1445  2.8760  2.1162
 5685SOL    HW228518   3.585   3.328   7.967 -1.6371 -2.5885 -2.1104
 5686SOL     OW28519   2.481   1.668   4.671 -0.1688  0.3873  0.5065
 5686SOL    HW128520   2.444   1.625   4.594  1.8314 -1.1218  0.3829
 5686SOL    HW228521   2.402   1.701   4.713 -1.3697 -1.6784 -0.1461
 5687SOL     OW28522   1.485   0.278  12.460 -0.3738  0.2986  0.0888
 5687SOL    HW128523   1.530   0.345  12.409 -3.0714  2.2162  0.2650
 5687SOL    HW228524   1.552   0.264  12.528 -0.0304  3.1213  0.3271
 5688SOL     OW28525   1.363   0.659   5.870  0.3564 -0.3071  0.0510
 5688SOL    HW128526   1.289   0.606   5.843  0.3244  0.9999 -2.4310
 5688SOL    HW228527   1.319   0.731   5.915  0.9689 -0.8336  1.4997
 5689SOL     OW28528   3.672   0.412  17.171  0.1000 -0.1289 -0.1206
 5689SOL    HW128529   3.758   0.397  17.130  0.7955  5.2128 -0.6670
 5689SOL    HW228530   3.623   0.430  17.090 -0.8261 -0.3042  0.4042
 5690SOL     OW28531   0.501   4.724   0.891  0.3172  0.3712  0.0709
 5690SOL    HW128532   0.466   0.069   0.944 -0.3064 -0.9821  1.5126
 5690SOL    HW228533   0.590   0.028   0.876  0.7561 -1.1650 -0.4826
 5691SOL     OW28534   1.624   1.068   4.908  0.0863  0.0507 -0.1378
 5691SOL    HW128535   1.545   1.101   4.866  1.1234  0.7694 -1.5232
 5691SOL    HW228536   1.585   1.064   4.995  2.2001 -1.1156  0.7687
 5692SOL     OW28537   4.664   2.960  15.571  0.0745  0.2231 -0.3761
 5692SOL    HW128538   0.026   2.981  15.599  0.1545  0.2986 -0.6840
 5692SOL    HW228539   4.678   2.868  15.550 -2.1133  0.0679 -1.1432
 5693SOL     OW28540   2.800   4.112   6.900  0.2015 -0.1775 -0.3854
 5693SOL    HW128541   2.777   4.144   6.813  0.3151 -1.3186 -0.8335
 5693SOL    HW228542   2.873   4.171   6.919 -0.5879  0.5143  0.4428
 5694SOL     OW28543   0.425   4.381   1.637  0.1427 -0.1990  0.2269
 5694SOL    HW128544   0.337   4.362   1.606  0.7046 -1.0116 -0.8702
 5694SOL    HW228545   0.469   4.317   1.581  1.7249  0.1853  1.0298
 5695SOL     OW28546   1.992   0.356   6.780  0.0031  0.5921 -1.1438
 5695SOL    HW128547   2.087   0.356   6.774  0.1446  0.9971  0.9383
 5695SOL    HW228548   1.979   0.448   6.760 -0.8072  0.5577 -0.7734
 5696SOL     OW28549   0.315   4.060   6.045  0.4672 -0.5846 -0.2018
 5696SOL    HW128550   0.355   4.122   5.983 -3.4102  0.7590 -1.3988
 5696SOL    HW228551   0.233   4.103   6.071  0.6630 -0.7280  0.6458
 5697SOL     OW28552   3.095   3.894   0.722 -0.3980  0.1138  0.5971
 5697SOL    HW128553   3.085   3.908   0.816  1.4547  1.6588  0.5824
 5697SOL    HW228554   3.007   3.919   0.695 -0.2761  0.0801  0.1591
 5698SOL     OW28555   4.721   3.569   4.208  0.0971  0.2631  0.5925
 5698SOL    HW128556   0.079   3.580   4.167  0.8790  1.0843  2.4648
 5698SOL    HW228557   4.670   3.558   4.127 -0.7111 -0.0303  1.1445
 5699SOL     OW28558   0.495   2.969   8.140 -0.2088  0.1666 -0.6806
 5699SOL    HW128559   0.452   2.902   8.194 -0.7830  2.7358  2.0826
 5699SOL    HW228560   0.540   2.920   8.071  1.1258 -2.1203  1.8029
 5700SOL     OW28561   1.084   1.911  14.180  0.1239  0.1339  0.2101
 5700SOL    HW128562   1.070   1.866  14.097 -1.1816  0.0353  0.4843
 5700SOL    HW228563   1.000   1.953  14.197  0.0442 -0.0614  0.3000
 5701SOL     OW28564   3.790   3.996   8.052 -0.2581  0.1270 -0.3248
 5701SOL    HW128565   3.705   4.033   8.073 -0.4048 -0.2695 -0.2118
 5701SOL    HW228566   3.788   3.903   8.075 -0.0425  0.4778  1.0688
 5702SOL     OW28567   2.433   3.690   4.602  0.4682 -0.8405  0.0890
 5702SOL    HW128568   2.405   3.706   4.692 -0.7545 -0.3157 -0.3861
 5702SOL    HW228569   2.354   3.655   4.561  0.0658  1.5127 -1.1517
 5703SOL     OW28570   1.348   4.047  16.128  0.0776 -0.0404 -0.0756
 5703SOL    HW128571   1.387   3.959  16.130 -1.2491 -0.6618 -1.4934
 5703SOL    HW228572   1.258   4.030  16.158  0.5648 -0.5657  1.0918
 5704SOL     OW28573   1.892   3.575   3.856 -0.0180 -0.3670 -0.5685
 5704SOL    HW128574   1.870   3.598   3.946  0.0901 -1.4155 -0.2784
 5704SOL    HW228575   1.814   3.529   3.825 -1.2037  0.1929  1.6052
 5705SOL     OW28576   2.870   0.937   2.395  0.3790  0.3249 -0.0850
 5705SOL    HW128577   2.793   0.888   2.365  1.7057 -1.1576 -1.0397
 5705SOL    HW228578   2.878   0.895   2.480 -2.5589 -2.6457 -1.2582
 5706SOL     OW28579   1.934   2.001   0.857  0.3593  0.5371 -0.2363
 5706SOL    HW128580   1.855   2.026   0.904 -0.4427 -0.7132 -0.9440
 5706SOL    HW228581   1.901   1.954   0.780 -0.6551  0.5173  0.2202
 5707SOL     OW28582   3.130   1.294  14.563  0.3525 -0.4370  0.1562
 5707SOL    HW128583   3.184   1.311  14.641 -0.9948 -0.4246  1.0786
 5707SOL    HW228584   3.063   1.361  14.575  1.3027 -0.0717  3.5598
 5708SOL     OW28585   3.601   0.219  16.507 -0.1349  0.5623  0.1214
 5708SOL    HW128586   3.672   0.198  16.447 -1.6821  1.2837 -1.9793
 5708SOL    HW228587   3.527   0.246  16.452 -1.7210 -1.3989  1.2833
 5709SOL     OW28588   4.579   3.250   7.969  0.5584  0.3771 -0.5913
 5709SOL    HW128589   4.520   3.273   7.897  0.3302 -2.6521 -1.4132
 5709SOL    HW228590   4.542   3.167   8.000  0.4340  0.6314 -0.0691
 5710SOL     OW28591   2.732   0.015   1.862 -0.3841 -0.0664 -0.5359
 5710SOL    HW128592   2.773   0.026   1.948  1.8296 -2.5186 -1.3021
 5710SOL    HW228593   2.765   0.090   1.814  2.4522  0.7738  2.7113
 5711SOL     OW28594   0.734   3.611   5.276 -0.2613  0.5929 -0.0589
 5711SOL    HW128595   0.724   3.535   5.218  1.0860  2.1928 -2.3779
 5711SOL    HW228596   0.710   3.680   5.214  0.5957  2.4607  1.6726
 5712SOL     OW28597   3.050   3.573  12.506  0.0622  0.3483 -0.3432
 5712SOL    HW128598   2.963   3.612  12.495 -0.5922 -0.3574  2.4705
 5712SOL    HW228599   3.055   3.558  12.600  1.2687  1.8959 -0.1706
 5713SOL     OW28600   3.146   2.076   4.717 -0.1315 -0.2613 -0.4360
 5713SOL    HW128601   3.227   2.085   4.667  0.4815  3.2271  1.1998
 5713SOL    HW228602   3.113   2.165   4.716  0.7670  0.0701 -0.0778
 5714SOL     OW28603   2.018   4.526   4.030 -0.1790 -0.3694  0.0186
 5714SOL    HW128604   2.098   4.576   4.044  1.1299 -3.3853  3.1661
 5714SOL    HW228605   1.952   4.595   4.040  2.3216  2.1401 -0.8270
 5715SOL     OW28606   3.192   0.455   6.621  0.2385 -0.2830 -0.7743
 5715SOL    HW128607   3.216   0.538   6.578 -1.0014  0.3949 -0.1527
 5715SOL    HW228608   3.221   0.395   6.553  0.3335 -3.3767  2.0076
 5716SOL     OW28609   2.092   0.234  11.682  0.3102 -0.6500 -0.5885
 5716SOL    HW128610   2.155   0.287  11.633  0.0730 -1.3240 -1.6322
 5716SOL    HW228611   2.153   0.196  11.745  2.4987  0.1111 -2.2553
 5717SOL     OW28612   3.801   1.627  17.084  0.2176 -0.7005 -0.1019
 5717SOL    HW128613   3.851   1.681  17.022  2.7123 -0.9289  1.7218
 5717SOL    HW228614   3.724   1.683  17.093  2.9062  2.8947  0.5203
 5718SOL     OW28615   2.963   1.736   0.249 -0.1127 -0.1805 -0.5418
 5718SOL    HW128616   3.016   1.674   0.198  2.4516 -0.3758  2.3779
 5718SOL    HW228617   2.891   1.754   0.189 -0.7846  0.5986  0.4969
 5719SOL     OW28618   2.964   0.260   2.468 -0.3311 -0.2697  0.0027
 5719SOL    HW128619   2.970   0.217   2.553  0.2129  0.5836  0.3991
 5719SOL    HW228620   3.030   0.204   2.426  0.6317  1.4692 -0.8569
 5720SOL     OW28621   0.431   0.237   8.785  0.0428  0.2035  0.3012
 5720SOL    HW128622   0.391   0.180   8.850 -1.6222 -1.0604 -1.8324
 5720SOL    HW228623   0.432   0.174   8.713  0.6593 -0.0894  0.5645
 5721SOL     OW28624   4.439   2.147   0.029 -0.2415  0.3539 -0.1234
 5721SOL    HW128625   4.421   2.240   0.039  2.3961  0.8269  0.1749
 5721SOL    HW228626   4.504   2.145  17.669 -2.0391 -1.5679 -1.7399
 5722SOL     OW28627   0.660   4.311   0.950  0.2746 -0.2161  0.1050
 5722SOL    HW128628   0.690   4.220   0.944 -1.9274 -0.9337 -0.1006
 5722SOL    HW228629   0.569   4.300   0.976  0.4968 -1.8158  0.2191
 5723SOL     OW28630   4.483   1.846   8.078  0.0644  0.3431  0.0335
 5723SOL    HW128631   4.475   1.788   8.154 -1.0096 -1.7026 -1.6542
 5723SOL    HW228632   4.472   1.930   8.123  0.2092  0.4794 -0.1838
 5724SOL     OW28633   0.588   0.137  14.219  0.2192  0.6530  0.5336
 5724SOL    HW128634   0.543   0.089  14.149 -1.4923  1.6328  0.9736
 5724SOL    HW228635   0.674   0.125  14.178 -0.5212 -0.4063 -0.6952
 5725SOL     OW28636   4.462   0.614  13.097  0.1311 -0.1048 -0.1778
 5725SOL    HW128637   4.507   0.536  13.064 -0.8926 -0.9607  0.4526
 5725SOL    HW228638   4.393   0.577  13.153  0.8024 -0.2262  0.5669
 5726SOL     OW28639   0.542   0.012   6.403 -0.2365 -0.0359  0.2325
 5726SOL    HW128640   0.479   0.079   6.378  0.3160  0.3445 -0.1285
 5726SOL    HW228641   0.623   0.062   6.392  0.7959 -1.9875 -0.9413
 5727SOL     OW28642   3.833   2.269   0.906  0.6747  0.2658  0.2224
 5727SOL    HW128643   3.826   2.337   0.973  1.1671  2.1929 -1.6481
 5727SOL    HW228644   3.746   2.231   0.910  0.0091  1.6920 -0.6477
 5728SOL     OW28645   3.603   0.640   3.050 -0.0116 -0.6020 -0.0555
 5728SOL    HW128646   3.638   0.649   2.962  0.9517  0.9341  0.4686
 5728SOL    HW228647   3.656   0.567   3.082 -0.7892 -0.8319  0.7086
 5729SOL     OW28648   3.013   2.882   8.068 -0.0128  0.0125 -0.5257
 5729SOL    HW128649   3.018   2.974   8.041  1.0224 -0.3033 -1.3957
 5729SOL    HW228650   2.960   2.888   8.147  1.8727 -1.2547  0.8175
 5730SOL     OW28651   2.074   3.871   8.543 -0.6182 -0.6053 -0.1688
 5730SOL    HW128652   2.103   3.933   8.610  2.3742 -0.3684 -1.6740
 5730SOL    HW228653   1.985   3.850   8.570 -1.0269 -1.9347 -2.5277
 5731SOL     OW28654   2.639   3.519  17.201  0.0715  0.4042  0.0669
 5731SOL    HW128655   2.638   3.612  17.182  0.6483  0.8869  2.3433
 5731SOL    HW228656   2.575   3.487  17.137 -0.8588  1.1455  0.6309
 5732SOL     OW28657   2.598   2.270  17.134 -0.4812  0.2388  0.0155
 5732SOL    HW128658   2.667   2.230  17.082  1.4338  1.1235  1.8852
 5732SOL    HW228659   2.653   2.297  17.208 -1.1002  0.9112  0.2297
 5733SOL     OW28660   0.635   1.153   5.898  0.2348 -0.4248  0.5481
 5733SOL    HW128661   0.640   1.178   5.806 -0.4862  1.8544  1.1314
 5733SOL    HW228662   0.564   1.208   5.929  1.6145  2.1137 -0.8226
 5734SOL     OW28663   1.305   3.859   1.799 -0.3096  0.1941 -0.2447
 5734SOL    HW128664   1.372   3.918   1.764  0.0028  0.6000  1.0357
 5734SOL    HW228665   1.347   3.798   1.859  1.4112  2.5969  1.0149
 5735SOL     OW28666   2.911   2.438   1.740  0.0633 -0.4658  0.7359
 5735SOL    HW128667   2.947   2.428   1.652 -0.1154  1.3862  0.4546
 5735SOL    HW228668   2.965   2.381   1.795  1.7279 -1.1242 -1.5807
 5736SOL     OW28669   3.516   3.506   2.275  0.0991  0.4905 -0.1381
 5736SOL    HW128670   3.588   3.556   2.236  1.6891 -2.1155 -0.5556
 5736SOL    HW228671   3.499   3.436   2.212  1.3281  1.1495 -1.2111
 5737SOL     OW28672   2.103   2.040  17.618 -0.0882  0.4943  0.7468
 5737SOL    HW128673   2.084   2.097  17.693  0.2212 -1.4626  2.3182
 5737SOL    HW228674   2.197   2.028  17.632  0.2579  0.5106 -1.5410
 5738SOL     OW28675   1.316   4.423   4.928  0.0347  0.6760  0.9165
 5738SOL    HW128676   1.294   4.491   4.865  0.8951 -0.0953 -0.2140
 5738SOL    HW228677   1.235   4.376   4.944  0.4687 -0.3743  0.0498
 5739SOL     OW28678   4.314   1.269   8.630 -0.3711  0.8211 -0.0705
 5739SOL    HW128679   4.279   1.271   8.719 -0.4902  0.2982 -0.1036
 5739SOL    HW228680   4.235   1.248   8.580  0.5775 -2.4791 -0.2433
 5740SOL     OW28681   0.104   3.971   1.750  0.5189 -0.2824  0.0021
 5740SOL    HW128682   0.078   3.969   1.657 -0.6165 -0.8706  0.3286
 5740SOL    HW228683   0.018   3.952   1.787  0.8690  0.0227  0.9724
 5741SOL     OW28684   3.317   2.640   5.360 -0.2132 -0.4141  0.8615
 5741SOL    HW128685   3.231   2.682   5.370  1.0170  2.3671 -0.4342
 5741SOL    HW228686   3.337   2.636   5.454  2.8858 -0.4123  0.2023
 5742SOL     OW28687   2.304   0.834   8.366 -0.1324  0.1357  0.7269
 5742SOL    HW128688   2.213   0.804   8.373 -0.5083  1.1342  0.0588
 5742SOL    HW228689   2.299   0.920   8.324  3.2903  1.4327  3.0206
 5743SOL     OW28690   1.854   0.940   7.173 -0.4755  0.0038 -0.2410
 5743SOL    HW128691   1.921   0.897   7.227 -1.7015 -2.1865 -0.4674
 5743SOL    HW228692   1.863   1.030   7.205  1.4034 -0.8910  1.7825
 5744SOL     OW28693   0.004   2.946   8.972 -0.6721 -0.2908 -0.0862
 5744SOL    HW128694   4.660   2.921   9.030 -1.6310  0.6182 -0.8746
 5744SOL    HW228695   0.085   2.912   9.011  0.6332 -0.2075 -2.7433
 5745SOL     OW28696   1.662   2.781   8.185  0.1226  0.0568  0.4154
 5745SOL    HW128697   1.725   2.762   8.254  1.6967  0.5211 -0.9109
 5745SOL    HW228698   1.579   2.779   8.233 -1.4007 -0.7531 -2.2399
 5746SOL     OW28699   3.910   4.599  12.221 -0.1302  0.3623 -0.2020
 5746SOL    HW128700   3.935   4.578  12.131 -1.7571 -0.2094 -0.5294
 5746SOL    HW228701   3.961   4.678  12.240 -1.4730  1.4039 -0.9003
 5747SOL     OW28702   3.672   4.702   1.708  0.0131  0.4261 -0.2679
 5747SOL    HW128703   3.704   4.657   1.786 -0.8003 -0.4023 -0.4107
 5747SOL    HW228704   3.669   0.067   1.735 -1.1112 -0.4185  2.3886
 5748SOL     OW28705   4.367   2.150  13.533  0.3458 -0.2419  0.0412
 5748SOL    HW128706   4.413   2.234  13.529 -0.7862  0.4260  1.0066
 5748SOL    HW228707   4.298   2.176  13.471 -0.3530  2.5186  1.9544
 5749SOL     OW28708   1.472   1.844   7.254  0.2959  0.3254 -0.4441
 5749SOL    HW128709   1.487   1.758   7.212  2.8030 -0.6498  2.4740
 5749SOL    HW228710   1.378   1.849   7.236  0.5067  1.1305 -1.3202
 5750SOL     OW28711   1.304   2.050  13.436  0.2959  0.1727  0.8672
 5750SOL    HW128712   1.385   1.998  13.437 -1.8342 -3.1755  1.7264
 5750SOL    HW228713   1.263   2.012  13.358  1.9351 -1.3691  0.7523
 5751SOL     OW28714   2.366   4.691   6.310 -0.3344  0.3524 -0.8182
 5751SOL    HW128715   2.402   4.703   6.398  1.7169 -0.4647 -1.5431
 5751SOL    HW228716   2.302   4.620   6.321 -0.4538  0.4197 -1.0646
 5752SOL     OW28717   2.202   3.670  15.127 -0.2396  0.1579 -0.2790
 5752SOL    HW128718   2.242   3.704  15.047  0.8514 -2.1611 -0.7277
 5752SOL    HW228719   2.263   3.707  15.190  0.1642  1.4171 -1.4198
 5753SOL     OW28720   0.528   2.736   4.416 -0.7892 -0.1757  0.5743
 5753SOL    HW128721   0.576   2.790   4.479 -0.5200 -0.8041  0.9107
 5753SOL    HW228722   0.439   2.772   4.419 -1.3890 -1.6288  0.0568
 5754SOL     OW28723   4.628   3.387   6.345 -0.2478  0.0450 -0.0765
 5754SOL    HW128724   4.575   3.311   6.370 -1.4344  0.9233  0.0846
 5754SOL    HW228725   4.551   3.431   6.308  0.6953  1.8890  0.1353
 5755SOL     OW28726   1.056   3.745  17.279 -0.2127 -0.0592 -0.3743
 5755SOL    HW128727   1.146   3.727  17.304 -0.7688 -2.2748  0.0283
 5755SOL    HW228728   1.056   3.790  17.194 -1.9841 -3.5979 -2.2881
 5756SOL     OW28729   1.012   0.480  13.390  0.1594  0.0596 -0.2317
 5756SOL    HW128730   1.101   0.509  13.406 -0.1347  1.5221 -1.1861
 5756SOL    HW228731   1.030   0.389  13.370  1.8644  0.4773 -0.6110
 5757SOL     OW28732   4.534   0.653   3.994 -0.1016 -0.1995 -0.1002
 5757SOL    HW128733   4.504   0.605   4.072 -0.9522  0.9807  0.2892
 5757SOL    HW228734   4.558   0.739   4.029 -1.3940  0.1992 -0.1948
 5758SOL     OW28735   3.167   2.488   3.658 -0.5824 -0.4289  0.4894
 5758SOL    HW128736   3.224   2.530   3.722  0.6913 -0.9810 -0.2837
 5758SOL    HW228737   3.150   2.405   3.703 -1.2806 -0.5141  0.0701
 5759SOL     OW28738   1.009   3.283   5.086 -0.1409  0.4128  0.1432
 5759SOL    HW128739   1.039   3.241   5.167  3.5539  0.5468 -1.1605
 5759SOL    HW228740   0.923   3.242   5.071 -0.5342  1.1026  0.5217
 5760SOL     OW28741   2.043   1.677  17.107  0.1112  0.4790  0.6634
 5760SOL    HW128742   1.951   1.698  17.090 -0.1982  0.3317  2.1341
 5760SOL    HW228743   2.089   1.754  17.072 -0.2557 -0.0124 -0.8688
 5761SOL     OW28744   1.078   1.625   4.938  0.5609  0.0291 -0.1499
 5761SOL    HW128745   1.064   1.532   4.918  2.6535 -0.3181 -0.0147
 5761SOL    HW228746   1.004   1.638   4.998  0.6285 -0.7306  0.1039
 5762SOL     OW28747   2.201   3.108   7.638 -0.1034  0.4642  0.3243
 5762SOL    HW128748   2.211   3.089   7.545  1.9802  0.0342  0.6413
 5762SOL    HW228749   2.140   3.043   7.674 -1.2839  1.0416 -0.6378
 5763SOL     OW28750   2.820   4.335   1.792  0.4109  0.2056  0.2887
 5763SOL    HW128751   2.789   4.385   1.867  0.4744 -1.5267  1.4696
 5763SOL    HW228752   2.850   4.256   1.837 -2.5856 -0.8968  0.3643
 5764SOL     OW28753   3.840   1.165  10.157 -0.2945  0.7177  0.0554
 5764SOL    HW128754   3.810   1.114  10.233  0.4719 -0.5082 -0.4513
 5764SOL    HW228755   3.897   1.233  10.193 -0.3058  0.3854  0.7155
 5765SOL     OW28756   2.664   4.501   2.012  0.4167  0.1260 -0.0627
 5765SOL    HW128757   2.677   4.582   1.962  2.8304 -0.3850 -0.2596
 5765SOL    HW228758   2.578   4.472   1.981  0.3342  0.4262 -0.1243
 5766SOL     OW28759   0.063   4.452   2.897 -0.5146  0.0221  0.9747
 5766SOL    HW128760   0.103   4.524   2.946 -2.8825  0.1087  2.7598
 5766SOL    HW228761   0.037   4.385   2.960 -0.4283 -1.3726 -0.4604
 5767SOL     OW28762   3.941   3.279   8.970  0.3899 -0.0213  0.1810
 5767SOL    HW128763   3.985   3.254   8.889  1.3858  4.0223 -0.5147
 5767SOL    HW228764   3.899   3.195   8.990  0.3453  0.2258  1.1240
 5768SOL     OW28765   4.145   0.118   5.798  0.1258 -0.0492  0.7381
 5768SOL    HW128766   4.084   0.128   5.725 -2.9091  1.7385  3.4953
 5768SOL    HW228767   4.219   0.175   5.778  0.0617 -0.0404  0.5260
 5769SOL     OW28768   3.991   3.769  15.112  0.0766 -0.7200  0.4548
 5769SOL    HW128769   4.075   3.761  15.158  0.3742 -0.5428 -0.0435
 5769SOL    HW228770   3.966   3.858  15.136 -1.3816 -1.0149 -0.0023
 5770SOL     OW28771   2.302   2.398  14.132 -0.0650  0.4133 -0.1944
 5770SOL    HW128772   2.382   2.349  14.149  1.1065  2.5406  0.3759
 5770SOL    HW228773   2.245   2.334  14.176 -0.8348 -0.3918 -2.3821
 5771SOL     OW28774   4.641   2.322   6.831 -0.7138 -0.2389 -0.3505
 5771SOL    HW128775   4.687   2.332   6.748  0.2432  1.2476  0.3522
 5771SOL    HW228776   4.719   2.313   6.885 -0.9039  0.0182 -0.0350
 5772SOL     OW28777   1.283   1.186   6.939 -0.5145 -0.5624  0.1350
 5772SOL    HW128778   1.305   1.134   6.861  0.9337  0.9741 -0.4919
 5772SOL    HW228779   1.347   1.157   7.003  0.4574 -1.7261 -1.3785
 5773SOL     OW28780   2.643   1.451  14.008  0.4359 -0.1766  0.1037
 5773SOL    HW128781   2.635   1.460  14.103  0.2896  2.3372 -0.1501
 5773SOL    HW228782   2.643   1.541  13.976  1.1896  0.8139  2.8936
 5774SOL     OW28783   0.562   0.456  15.300  0.0226 -0.5386 -0.1773
 5774SOL    HW128784   0.520   0.408  15.228 -1.6511  0.5986  0.0353
 5774SOL    HW228785   0.637   0.488  15.251  1.5971 -2.2577  1.1347
 5775SOL     OW28786   0.564   3.073   2.092 -0.4220 -0.0488 -0.2252
 5775SOL    HW128787   0.626   3.146   2.085  1.0032 -1.3447 -1.1009
 5775SOL    HW228788   0.484   3.111   2.058 -0.1562  2.7256  2.2381
 5776SOL     OW28789   1.400   1.062  11.206  0.8366  0.4524  0.4288
 5776SOL    HW128790   1.328   1.003  11.227  0.3982  2.1768  3.8048
 5776SOL    HW228791   1.463   1.043  11.275  0.1146 -0.8063  0.7366
 5777SOL     OW28792   1.485   1.107   0.351 -0.3972 -0.6797 -0.4575
 5777SOL    HW128793   1.441   1.022   0.347  0.8956 -1.3683 -0.0885
 5777SOL    HW228794   1.560   1.090   0.295  1.7435  2.1857  1.5150
 5778SOL     OW28795   3.245   2.934   8.887 -0.5114  0.0767 -0.2889
 5778SOL    HW128796   3.307   2.862   8.899  0.4444  0.8020 -0.8222
 5778SOL    HW228797   3.267   2.990   8.961 -0.0846  0.2654 -0.5567
 5779SOL     OW28798   4.302   1.217   2.654 -0.0363 -0.4611  0.2540
 5779SOL    HW128799   4.269   1.199   2.743 -2.0397  0.3819 -0.3083
 5779SOL    HW228800   4.219   1.234   2.609  1.2445  1.3301 -1.4069
 5780SOL     OW28801   3.441   1.121  11.937 -0.1734 -0.4120  0.4816
 5780SOL    HW128802   3.421   1.213  11.950 -3.0000 -0.8523 -0.7142
 5780SOL    HW228803   3.401   1.069  12.007 -0.0782  2.0570  2.3775
 5781SOL     OW28804   1.710   2.086  10.275  0.2110  0.9214 -0.4670
 5781SOL    HW128805   1.640   2.109  10.213  1.5994  2.6400 -1.4041
 5781SOL    HW228806   1.656   2.072  10.353  0.6141  1.2845 -0.1274
 5782SOL     OW28807   2.375   0.011   9.950 -0.3399 -0.0467 -0.6074
 5782SOL    HW128808   2.383   4.667  10.014  1.7095  1.6898  1.0393
 5782SOL    HW228809   2.331   0.071  10.010  0.1241  0.6231 -0.9410
 5783SOL     OW28810   2.709   0.004  17.276 -0.5552 -0.7436  0.3811
 5783SOL    HW128811   2.618   4.701  17.276 -0.6905 -0.3144 -0.6093
 5783SOL    HW228812   2.707   0.055  17.195 -0.9455 -0.8006  0.3548
 5784SOL     OW28813   4.514   3.607   3.355 -0.0396 -0.5475  0.6247
 5784SOL    HW128814   4.580   3.645   3.414 -1.2460  0.8824  1.0396
 5784SOL    HW228815   4.449   3.677   3.352  0.7318  0.1189 -0.4723
 5785SOL     OW28816   3.997   0.595   2.150  0.0276 -0.5576 -0.2318
 5785SOL    HW128817   3.968   0.521   2.096 -2.0724 -1.3914  2.0626
 5785SOL    HW228818   4.058   0.636   2.089 -1.4160  0.9466 -0.6696
 5786SOL     OW28819   0.308   3.496  16.055 -0.0597 -0.4439 -0.5059
 5786SOL    HW128820   0.378   3.489  15.989  1.0763  2.2451  0.4026
 5786SOL    HW228821   0.319   3.574  16.110  0.9600  0.7597 -2.4212
 5787SOL     OW28822   0.499   1.781  11.733  0.6041  0.3952 -0.0881
 5787SOL    HW128823   0.527   1.845  11.798  3.4262 -2.1206  1.1728
 5787SOL    HW228824   0.570   1.716  11.733 -0.2907 -0.5956 -0.0662
 5788SOL     OW28825   2.241   0.367  12.028 -0.3434 -0.4648  0.0396
 5788SOL    HW128826   2.309   0.347  12.092 -0.9077 -0.5001  0.6205
 5788SOL    HW228827   2.259   0.297  11.966  3.0997 -0.1343  0.6513
 5789SOL     OW28828   1.732   3.890   0.417 -0.3668  0.5251  0.2283
 5789SOL    HW128829   1.709   3.800   0.395 -0.4472  0.5941  0.0289
 5789SOL    HW228830   1.794   3.878   0.489  0.1359 -1.4454 -0.5350
 5790SOL     OW28831   4.267   4.224  17.141 -0.6679  0.4138 -0.3646
 5790SOL    HW128832   4.349   4.226  17.189 -1.5912 -0.0683  1.2154
 5790SOL    HW228833   4.279   4.302  17.087 -2.5729  0.5649 -0.5561
 5791SOL     OW28834   3.601   3.447  10.083 -0.2911  0.1783  0.3333
 5791SOL    HW128835   3.590   3.395  10.003  2.1067  0.6022 -0.2645
 5791SOL    HW228836   3.696   3.446  10.095 -0.5894 -2.4670  2.6049
 5792SOL     OW28837   3.752   3.400   9.138 -0.2771 -0.2694  0.5596
 5792SOL    HW128838   3.796   3.454   9.204 -0.6627 -2.1217  2.3534
 5792SOL    HW228839   3.824   3.358   9.092  0.4821 -0.3983  1.8585
 5793SOL     OW28840   0.068   1.481   5.797  0.2796  0.2778  0.3095
 5793SOL    HW128841   0.087   1.507   5.707 -0.4484 -0.2152  0.0107
 5793SOL    HW228842   0.055   1.565   5.841 -0.2426  0.0595  0.5774
 5794SOL     OW28843   0.583   4.134   9.563  0.6412 -0.2510 -0.6045
 5794SOL    HW128844   0.677   4.138   9.542  0.7508 -0.0320 -0.0854
 5794SOL    HW228845   0.542   4.152   9.479  1.6565 -1.0594 -1.2724
 5795SOL     OW28846   1.167   0.648   9.714 -0.1927 -0.1046 -0.1299
 5795SOL    HW128847   1.242   0.596   9.744  1.9214  2.8217 -0.2973
 5795SOL    HW228848   1.097   0.587   9.738  1.6031 -1.6805  1.1519
 5796SOL     OW28849   1.928   1.241   7.233 -0.3312 -0.1044  0.1061
 5796SOL    HW128850   1.912   1.328   7.268 -0.0301 -1.6885  4.2007
 5796SOL    HW228851   1.990   1.257   7.162 -2.3356 -1.0108 -1.8243
 5797SOL     OW28852   1.205   2.195   5.811  0.2067 -0.1021  0.6128
 5797SOL    HW128853   1.216   2.109   5.852  1.8759 -0.6185 -0.9307
 5797SOL    HW228854   1.249   2.256   5.870  0.1240 -0.3074  0.8859
 5798SOL     OW28855   4.029   3.306   9.333  0.2337 -0.0829  0.0548
 5798SOL    HW128856   3.941   3.325   9.368 -1.0560 -2.3385 -1.9843
 5798SOL    HW228857   4.090   3.305   9.407 -0.0190  0.9837  0.2814
 5799SOL     OW28858   3.616   0.023   3.911  0.1084 -0.4288  1.0289
 5799SOL    HW128859   3.569   0.077   3.847  2.6860 -0.5842 -1.0059
 5799SOL    HW228860   3.665   0.097   3.947 -0.4562  1.2570 -1.6718
 5800SOL     OW28861   2.239   2.489   4.390 -0.4727  0.2438  0.2030
 5800SOL    HW128862   2.246   2.514   4.298  0.2766  2.2037  0.7929
 5800SOL    HW228863   2.250   2.572   4.437  1.8297  0.2887 -0.4223
 5801SOL     OW28864   3.271   4.114   7.684  0.6703 -0.2772 -0.1272
 5801SOL    HW128865   3.293   4.070   7.602 -0.4963 -1.6128  0.2860
 5801SOL    HW228866   3.361   4.113   7.719  0.8137  1.8361 -0.4566
 5802SOL     OW28867   1.678   3.615   0.387 -0.1786 -0.6494 -0.0174
 5802SOL    HW128868   1.676   3.574   0.473  0.2283 -0.4749  0.0774
 5802SOL    HW228869   1.592   3.590   0.354 -0.2066 -0.7908  0.1639
 5803SOL     OW28870   1.600   3.607   7.689  0.1530 -0.1622  0.4228
 5803SOL    HW128871   1.627   3.525   7.730  0.4955  0.5773  1.6969
 5803SOL    HW228872   1.543   3.575   7.619  0.5507  1.1508 -0.5016
 5804SOL     OW28873   1.478   4.250   9.462  0.2371 -0.3872  0.0296
 5804SOL    HW128874   1.480   4.346   9.466 -1.4791 -0.3655  0.1801
 5804SOL    HW228875   1.389   4.229   9.489  0.0493 -0.7461 -0.8653
 5805SOL     OW28876   1.023   1.825   4.440 -0.3309 -0.0171  0.4315
 5805SOL    HW128877   1.014   1.731   4.428  1.7339 -0.4277  2.0053
 5805SOL    HW228878   1.086   1.826   4.512  0.8093 -1.6107 -0.5535
 5806SOL     OW28879   4.437   3.498   2.509  0.3995  0.4139 -0.0528
 5806SOL    HW128880   4.428   3.485   2.414  1.4761  0.6739 -0.1897
 5806SOL    HW228881   4.475   3.585   2.520  1.1377  0.2982 -1.5798
 5807SOL     OW28882   4.726   0.815   9.240 -0.2742  0.4760 -0.0603
 5807SOL    HW128883   0.080   0.772   9.213  0.0451  0.2894  1.2255
 5807SOL    HW228884   0.012   0.910   9.241  1.3320  0.2453  0.4194
 5808SOL     OW28885   0.011   0.483   2.119  0.4312 -0.7250  0.0835
 5808SOL    HW128886   0.083   0.532   2.080 -0.0053  0.9300  1.3399
 5808SOL    HW228887   0.068   0.417   2.159  0.9858 -0.2060  0.1518
 5809SOL     OW28888   3.592   2.864  12.941  0.1634 -0.2614  0.0612
 5809SOL    HW128889   3.573   2.909  12.858  3.0506  0.3732 -0.2358
 5809SOL    HW228890   3.571   2.942  12.993  0.9162  0.3810 -0.6007
 5810SOL     OW28891   4.350   0.076   2.023 -0.0056  0.0767 -0.3913
 5810SOL    HW128892   4.278   0.135   2.001 -2.3764 -2.1815  1.2184
 5810SOL    HW228893   4.407   0.090   1.948  0.5755 -1.1905 -0.1838
 5811SOL     OW28894   1.253   2.897   4.751 -0.1713  0.6353  0.4936
 5811SOL    HW128895   1.276   2.857   4.835 -1.4844  1.9020  1.4612
 5811SOL    HW228896   1.277   2.829   4.688 -1.5759 -0.0600  0.7293
 5812SOL     OW28897   1.322   3.697  17.075  0.1445  0.4644 -0.1119
 5812SOL    HW128898   1.304   3.620  17.021  0.4025  0.2753  0.0715
 5812SOL    HW228899   1.377   3.749  17.016  0.1933  0.0300 -0.4512
 5813SOL     OW28900   4.113   3.681   3.904  0.1121  0.2402  0.2995
 5813SOL    HW128901   4.143   3.644   3.821 -1.0821  0.4904 -0.2384
 5813SOL    HW228902   4.140   3.604   3.954  2.6257  0.6547 -0.4069
 5814SOL     OW28903   4.458   4.478   2.725  0.0304 -0.3405 -0.5330
 5814SOL    HW128904   4.403   4.432   2.661  2.1561 -2.9687 -0.4668
 5814SOL    HW228905   4.531   4.488   2.663  0.8969  0.4188  0.6123
 5815SOL     OW28906   0.400   3.430   3.652 -1.2111 -0.1794 -0.1011
 5815SOL    HW128907   0.491   3.440   3.622 -0.1053  0.8410  3.5690
 5815SOL    HW228908   0.360   3.380   3.582 -2.2387 -0.6656  0.8307
 5816SOL     OW28909   0.007   4.513   5.996 -0.5338  0.0981 -0.0100
 5816SOL    HW128910   0.029   4.602   6.023 -0.4526 -1.0384  3.6555
 5816SOL    HW228911   4.646   4.496   6.029 -0.7913  1.4070 -0.0081
 5817SOL     OW28912   2.426   3.830  16.466 -0.2332  0.3145 -0.2026
 5817SOL    HW128913   2.386   3.917  16.470 -0.4432  0.1847  0.5651
 5817SOL    HW228914   2.516   3.851  16.442  0.6188  0.0324  2.8171
 5818SOL     OW28915   4.679   3.390   5.672 -0.0134 -0.1535  0.2170
 5818SOL    HW128916   0.035   3.423   5.637  0.7281 -0.4571  1.6945
 5818SOL    HW228917   4.627   3.359   5.597  2.3007  1.1550 -1.9327
 5819SOL     OW28918   1.429   1.263   9.812  0.4915 -0.1147  0.1846
 5819SOL    HW128919   1.462   1.184   9.854 -1.5721 -1.2981 -0.4331
 5819SOL    HW228920   1.356   1.225   9.764 -0.9193  3.3192 -0.3971
 5820SOL     OW28921   4.137   2.090  16.796 -0.1890  0.3841 -0.1059
 5820SOL    HW128922   4.202   2.023  16.777 -0.6680 -0.1904  0.2606
 5820SOL    HW228923   4.141   2.093  16.892 -2.9308  0.0853  0.0354
 5821SOL     OW28924   2.415   3.848   7.919 -0.3128  0.3101  0.0730
 5821SOL    HW128925   2.445   3.890   7.999  1.5657  0.2308 -0.5802
 5821SOL    HW228926   2.321   3.856   7.932 -0.4259 -2.0319  0.7673
 5822SOL     OW28927   0.737   0.608   2.633 -0.1147 -0.5290 -0.1859
 5822SOL    HW128928   0.814   0.577   2.681  0.4868  1.8487  0.4222
 5822SOL    HW228929   0.686   0.529   2.619  0.8750 -1.4305  1.3373
 5823SOL     OW28930   2.001   3.721  15.533 -0.6353  0.1613 -0.1539
 5823SOL    HW128931   1.934   3.771  15.486  2.4921  2.5884 -2.1199
 5823SOL    HW228932   1.947   3.668  15.591  0.2408  0.1870  0.6979
 5824SOL     OW28933   2.532   1.714   8.479  0.0501 -1.0367  0.1848
 5824SOL    HW128934   2.543   1.807   8.457  2.3846 -1.0533  1.3262
 5824SOL    HW228935   2.573   1.727   8.564  0.2975 -2.9475  0.3373
 5825SOL     OW28936   1.272   0.875  14.814 -0.4278  0.3470  0.2663
 5825SOL    HW128937   1.205   0.914  14.869 -0.4149 -1.1420  1.3193
 5825SOL    HW228938   1.216   0.860  14.738 -0.5498  1.5832  0.1053
 5826SOL     OW28939   3.974   1.376   8.970 -0.2416 -0.0864  0.5972
 5826SOL    HW128940   3.965   1.353   9.063 -0.5491  4.7820  1.7718
 5826SOL    HW228941   3.886   1.370   8.933  0.1457  1.9253 -0.6913
 5827SOL     OW28942   3.538   3.248  13.988 -0.2331 -0.5362 -0.4877
 5827SOL    HW128943   3.582   3.180  14.040  0.5067  1.1599  1.0988
 5827SOL    HW228944   3.579   3.225  13.904 -0.6382 -0.1451 -0.7932
 5828SOL     OW28945   2.522   3.325   4.885  0.3681  0.9819 -0.1957
 5828SOL    HW128946   2.431   3.341   4.909  0.3728 -2.4064  1.9490
 5828SOL    HW228947   2.528   3.369   4.800  2.0102 -0.1799 -0.6819
 5829SOL     OW28948   3.914   1.967  14.060 -0.5194 -0.4859  0.1934
 5829SOL    HW128949   3.887   2.058  14.071 -0.0468 -0.1049 -1.7357
 5829SOL    HW228950   3.910   1.954  13.965 -0.7682 -0.4099  0.1954
 5830SOL     OW28951   2.570   2.091   3.585  0.1121 -0.9624 -0.0773
 5830SOL    HW128952   2.496   2.081   3.525 -1.0501  0.1091  1.1737
 5830SOL    HW228953   2.592   2.184   3.576 -1.0347 -0.5967  0.8157
 5831SOL     OW28954   0.191   2.485   7.123  0.1885  0.1153  0.0748
 5831SOL    HW128955   0.117   2.545   7.114  0.2406  0.2615  0.6307
 5831SOL    HW228956   0.157   2.416   7.181  1.8699 -1.4188 -0.7629
 5832SOL     OW28957   2.255   0.514   8.643  0.3869  0.5927  0.0387
 5832SOL    HW128958   2.187   0.479   8.586  2.0298 -2.4092 -0.0699
 5832SOL    HW228959   2.333   0.486   8.594  0.6291 -0.2356  0.8878
 5833SOL     OW28960   3.816   2.612   5.201  0.0101  0.1156  0.3742
 5833SOL    HW128961   3.805   2.621   5.107  0.2185 -1.1187  0.2317
 5833SOL    HW228962   3.735   2.642   5.242 -1.8047 -1.0201 -2.4275
 5834SOL     OW28963   3.358   2.290   0.891 -0.0254  0.7858 -0.2080
 5834SOL    HW128964   3.302   2.283   0.813 -1.5100 -1.9782  1.1080
 5834SOL    HW228965   3.294   2.318   0.956 -1.4096 -2.7981 -0.0124
 5835SOL     OW28966   4.366   0.572   2.110  0.2451  0.5226 -0.2366
 5835SOL    HW128967   4.405   0.511   2.048  0.7383  1.8716 -1.2697
 5835SOL    HW228968   4.291   0.608   2.063  0.1773  1.0222  0.2483
 5836SOL     OW28969   0.008   0.699   7.912 -0.1892 -0.4615 -0.3690
 5836SOL    HW128970   0.059   0.696   7.993 -2.2006 -2.4805  0.8008
 5836SOL    HW228971   4.684   0.619   7.923 -0.7073 -0.0427  0.2282
 5837SOL     OW28972   2.289   0.360   2.671 -0.6014 -0.3983  0.9294
 5837SOL    HW128973   2.230   0.308   2.617  0.4023  0.1822 -0.7228
 5837SOL    HW228974   2.271   0.304   2.747 -0.3608 -1.9421 -0.1377
 5838SOL     OW28975   0.707   3.339   3.714  0.0769  0.0584 -0.6398
 5838SOL    HW128976   0.679   3.309   3.628 -3.4192 -0.4071  0.6369
 5838SOL    HW228977   0.781   3.385   3.675 -0.2373  0.1284 -1.1548
 5839SOL     OW28978   3.422   0.495   9.690  0.1659 -0.3071  0.2092
 5839SOL    HW128979   3.464   0.581   9.681 -0.7543  0.0529 -0.6566
 5839SOL    HW228980   3.488   0.445   9.738  0.8777  0.1111 -0.3340
 5840SOL     OW28981   0.183   3.854   6.729 -0.5573 -0.8630  0.3040
 5840SOL    HW128982   0.235   3.927   6.763 -0.0883 -0.6621 -0.8092
 5840SOL    HW228983   0.107   3.863   6.786 -1.7101 -0.4543 -1.2873
 5841SOL     OW28984   3.392   3.842  17.310 -0.4203 -0.0364 -0.0450
 5841SOL    HW128985   3.463   3.894  17.348  0.0986 -0.7516 -0.0431
 5841SOL    HW228986   3.356   3.900  17.242  0.0955 -0.4394 -0.6647
 5842SOL     OW28987   0.434   2.391  11.450  0.8518 -0.2290 -0.1129
 5842SOL    HW128988   0.471   2.362  11.366  1.1277 -0.0169 -0.0644
 5842SOL    HW228989   0.473   2.479  11.454  1.8680 -0.7618  1.4828
 5843SOL     OW28990   1.809   3.921  11.843 -0.3181 -0.1855 -0.3398
 5843SOL    HW128991   1.821   3.843  11.897  0.8200  0.6162  0.5589
 5843SOL    HW228992   1.824   3.892  11.754  3.4502  0.8257 -0.0125
 5844SOL     OW28993   4.070   1.460   3.961 -0.3145  0.2710  0.7519
 5844SOL    HW128994   4.055   1.396   3.892  0.0215 -0.6491  1.5253
 5844SOL    HW228995   4.042   1.410   4.038 -1.0117 -1.0397 -0.3634
 5845SOL     OW28996   4.096   2.962  10.987 -0.7535  0.3553 -0.1642
 5845SOL    HW128997   4.142   2.937  11.067  1.6980 -0.0836 -1.7185
 5845SOL    HW228998   4.012   2.995  11.018  0.0701  1.0073  1.3831
 5846SOL     OW28999   4.007   2.631  10.905  0.3166 -0.6338 -0.3671
 5846SOL    HW129000   4.077   2.573  10.876  0.7804  1.4578 -3.3782
 5846SOL    HW229001   4.034   2.716  10.871 -0.7497  0.5456  1.7147
 5847SOL     OW29002   1.040   4.615   7.529 -0.0215  0.0878  0.0185
 5847SOL    HW129003   1.100   4.658   7.590 -0.0873  1.7377 -1.0595
 5847SOL    HW229004   0.958   4.623   7.577  1.0358  0.3199  1.7917
 5848SOL     OW29005   0.043   0.468   3.042 -0.2062 -0.3890 -0.2763
 5848SOL    HW129006   0.124   0.480   3.093  0.1658 -2.0263 -0.4733
 5848SOL    HW229007   0.068   0.522   2.967  2.2286  0.3352  1.0487
 5849SOL     OW29008   3.628   2.757   1.628 -0.1924  0.3927  0.0638
 5849SOL    HW129009   3.606   2.785   1.716  2.9856 -1.8791  1.5589
 5849SOL    HW229010   3.712   2.712   1.628  0.1275  0.9784 -1.6683
 5850SOL     OW29011   1.180   0.982   9.299  0.1626  0.0042  0.4181
 5850SOL    HW129012   1.201   0.910   9.240  2.7407  0.6346  0.5982
 5850SOL    HW229013   1.175   0.925   9.376  1.5075 -0.6807 -0.0095
 5851SOL     OW29014   0.997   1.475   5.238  0.1124  0.1638  0.0537
 5851SOL    HW129015   0.949   1.538   5.184  0.7317 -0.3426 -1.0835
 5851SOL    HW229016   1.084   1.487   5.200 -0.9013  1.6982 -1.7798
 5852SOL     OW29017   0.844   2.812   7.330  0.2308 -0.1657 -0.0902
 5852SOL    HW129018   0.904   2.825   7.257  0.8306 -2.2116  0.0343
 5852SOL    HW229019   0.795   2.743   7.286 -1.5822 -1.5160  4.0366
 5853SOL     OW29020   2.181   1.256   7.033 -0.2004 -0.0071  0.2391
 5853SOL    HW129021   2.172   1.351   7.042 -0.3933 -0.0310  0.2922
 5853SOL    HW229022   2.265   1.243   7.077  0.2582  0.1595 -0.5914
 5854SOL     OW29023   0.718   1.915   4.089 -0.4222  0.5494 -0.5568
 5854SOL    HW129024   0.771   1.856   4.036  0.0853  1.0999 -0.6735
 5854SOL    HW229025   0.665   1.855   4.141 -1.6709  2.4405  0.3615
 5855SOL     OW29026   1.429   2.119   3.713  0.3436  0.1257  0.6408
 5855SOL    HW129027   1.452   2.052   3.649 -0.2853  0.6812 -0.1724
 5855SOL    HW229028   1.343   2.143   3.679  0.4514  1.6857  1.5006
 5856SOL     OW29029   3.420   4.719  14.563 -0.0465 -0.2787 -0.3803
 5856SOL    HW129030   3.449   0.028  14.648 -0.3841 -3.7433  1.2008
 5856SOL    HW229031   3.414   0.072  14.511 -2.1287 -1.6734 -2.2685
 5857SOL     OW29032   4.070   1.109   9.855  0.5530 -0.3631 -0.0255
 5857SOL    HW129033   4.125   1.032   9.847  2.0291  0.6461  0.2892
 5857SOL    HW229034   4.138   1.166   9.892  0.1422 -0.4547  0.8735
 5858SOL     OW29035   0.645   2.381  14.435 -0.2453 -0.0086  0.3301
 5858SOL    HW129036   0.568   2.436  14.424 -0.5950 -0.6198 -0.2214
 5858SOL    HW229037   0.686   2.380  14.349  0.0688 -0.1802  0.4799
 5859SOL     OW29038   2.536   4.013   4.114 -0.6634 -0.2829  0.0075
 5859SOL    HW129039   2.573   4.090   4.157  1.3231 -0.1466 -1.8991
 5859SOL    HW229040   2.594   4.019   4.038 -0.8350 -0.8287 -0.1713
 5860SOL     OW29041   4.400   4.413  14.834  0.3558 -0.0574  0.7112
 5860SOL    HW129042   4.426   4.362  14.911  0.7574  1.7029  1.7500
 5860SOL    HW229043   4.313   4.378  14.814  0.7865 -1.3247  1.0402
 5861SOL     OW29044   4.726   3.235   6.803  0.0008  0.3777 -0.0421
 5861SOL    HW129045   0.083   3.230   6.847 -1.2974 -1.5820  2.2120
 5861SOL    HW229046   0.026   3.280   6.723  2.4025 -0.2978  0.4195
 5862SOL     OW29047   1.751   1.353   6.676 -0.6444 -0.3584 -0.0466
 5862SOL    HW129048   1.750   1.330   6.769  0.6853 -0.1979  0.0163
 5862SOL    HW229049   1.657   1.369   6.671 -0.5891  0.0853  0.3867
 5863SOL     OW29050   2.937   2.512   2.259 -0.1464 -0.4546 -0.3620
 5863SOL    HW129051   2.934   2.587   2.200 -0.7032  0.4967  0.8671
 5863SOL    HW229052   2.880   2.452   2.212 -0.7525  1.3797 -1.9864
 5864SOL     OW29053   4.356   0.252  10.084  0.2023  0.3913 -0.2383
 5864SOL    HW129054   4.294   0.212  10.022 -1.5782 -0.0088  1.8156
 5864SOL    HW229055   4.338   0.216  10.171 -0.0989  1.3465  0.0901
 5865SOL     OW29056   4.348   3.531   1.179 -0.5254  0.1165 -0.6862
 5865SOL    HW129057   4.402   3.543   1.258 -0.3981 -0.7196 -0.6497
 5865SOL    HW229058   4.267   3.578   1.201  0.4063  0.9640  0.9523
 5866SOL     OW29059   4.614   3.429   7.107 -0.3992  0.2175 -0.2114
 5866SOL    HW129060   4.554   3.354   7.106 -0.8983  0.6454 -2.3412
 5866SOL    HW229061   4.685   3.393   7.161 -1.3321 -1.7264 -0.2859
 5867SOL     OW29062   3.673   0.777   1.198 -0.6744 -0.4619  0.1015
 5867SOL    HW129063   3.588   0.744   1.170 -1.2057  0.0915  1.0868
 5867SOL    HW229064   3.725   0.706   1.160  0.2719  0.0852  0.3583
 5868SOL     OW29065   3.275   0.390   5.557  0.1595 -0.3529 -0.3092
 5868SOL    HW129066   3.335   0.316   5.562  0.4472 -0.2842 -2.6685
 5868SOL    HW229067   3.264   0.382   5.651  2.6906  2.3815  0.2359
 5869SOL     OW29068   4.363   0.887   5.916  0.2495  0.4813  0.0044
 5869SOL    HW129069   4.399   0.872   5.829 -0.7733 -2.2991  0.0374
 5869SOL    HW229070   4.268   0.881   5.905  0.1394  2.2570  0.1382
 5870SOL     OW29071   3.829   2.412   8.614  0.9724  0.0567  0.5552
 5870SOL    HW129072   3.903   2.383   8.561  0.0465 -1.2574 -0.0138
 5870SOL    HW229073   3.838   2.506   8.607 -1.5238  0.2095 -0.5673
 5871SOL     OW29074   2.939   4.653   4.076  0.2081 -0.0837  0.1023
 5871SOL    HW129075   2.962   4.724   4.016  1.2010  2.3821  3.3284
 5871SOL    HW229076   2.953   4.573   4.026  0.7994 -1.1064  1.9162
 5872SOL     OW29077   4.646   1.848   6.343 -0.5485  0.2956  0.1416
 5872SOL    HW129078   4.698   1.900   6.282  0.4986 -0.5080  0.3510
 5872SOL    HW229079   4.561   1.850   6.299 -1.9384 -1.9014  2.7098
 5873SOL     OW29080   1.665   1.769   6.298  0.6200  0.3082 -0.2568
 5873SOL    HW129081   1.747   1.737   6.336 -0.1810 -1.3201  0.0889
 5873SOL    HW229082   1.637   1.844   6.351 -0.7875  0.4183 -1.1540
 5874SOL     OW29083   4.677   3.687  12.851  0.0770 -0.2656 -0.0343
 5874SOL    HW129084   4.639   3.773  12.870 -0.9618 -1.0235  1.2793
 5874SOL    HW229085   4.647   3.677  12.760  1.3392 -2.9019 -0.1584
 5875SOL     OW29086   1.702   3.790   9.505 -0.8924 -0.1382  0.3221
 5875SOL    HW129087   1.720   3.879   9.536 -0.5073  0.3489 -1.3207
 5875SOL    HW229088   1.608   3.803   9.495 -0.8328  0.5554  0.6228
 5876SOL     OW29089   0.716   0.928   7.520  0.1761  0.1806 -0.0211
 5876SOL    HW129090   0.725   0.959   7.430 -0.2359  0.3111 -0.0174
 5876SOL    HW229091   0.703   1.012   7.565 -3.4599 -0.2997 -0.1873
 5877SOL     OW29092   1.338   1.990   7.570 -0.2696 -0.4132  0.5182
 5877SOL    HW129093   1.285   2.002   7.491  0.6958  2.3363  0.2719
 5877SOL    HW229094   1.354   1.896   7.558 -2.5261 -0.8461  0.9937
 5878SOL     OW29095   3.893   1.323   9.523 -0.6079 -0.0074  0.8408
 5878SOL    HW129096   3.815   1.271   9.542  0.1108 -1.0465  0.9251
 5878SOL    HW229097   3.880   1.388   9.593 -0.5269 -0.9003  1.6770
 5879SOL     OW29098   1.999   2.911   6.758  0.5051 -0.1260 -0.0490
 5879SOL    HW129099   2.018   3.005   6.768 -0.7290  0.0897  0.1793
 5879SOL    HW229100   1.910   2.907   6.724  0.3023  0.4919  0.4075
 5880SOL     OW29101   4.305   3.727   9.827  0.4269 -0.3742  0.2545
 5880SOL    HW129102   4.380   3.718   9.886  1.4134 -1.0295 -1.1039
 5880SOL    HW229103   4.266   3.640   9.816 -0.6029  0.3024 -1.4085
 5881SOL     OW29104   2.953   0.399   4.733 -0.1352  0.0104 -0.4499
 5881SOL    HW129105   3.022   0.419   4.670 -0.6442 -1.6809 -1.5273
 5881SOL    HW229106   2.987   0.450   4.806 -0.6295 -0.5074  0.1423
 5882SOL     OW29107   1.279   2.466   3.481  0.0615  0.4038  0.0961
 5882SOL    HW129108   1.200   2.455   3.535 -1.7639  0.4850 -2.5435
 5882SOL    HW229109   1.349   2.452   3.544  1.7773 -0.0419 -1.9371
 5883SOL     OW29110   3.715   0.507   6.164 -0.3093 -0.6178  0.1077
 5883SOL    HW129111   3.669   0.476   6.242  1.5670  1.2972  1.9840
 5883SOL    HW229112   3.785   0.562   6.199 -1.4963  1.1613 -0.3535
 5884SOL     OW29113   1.534   0.233   5.927 -0.2264 -0.2267  0.3391
 5884SOL    HW129114   1.447   0.216   5.892 -0.2822 -0.8001  0.7548
 5884SOL    HW229115   1.525   0.289   6.004 -0.5257  2.0491 -1.3525
 5885SOL     OW29116   2.004   0.991   2.293 -0.3420 -0.4023  0.1459
 5885SOL    HW129117   1.980   1.070   2.244  0.5422  0.9229  1.8613
 5885SOL    HW229118   1.988   1.007   2.386  2.0244  2.8814  0.0059
 5886SOL     OW29119   1.736   2.620   7.581 -0.2106  0.3215  0.2559
 5886SOL    HW129120   1.795   2.558   7.624 -0.0227 -1.0102 -1.9486
 5886SOL    HW229121   1.769   2.705   7.613  0.9689  0.5925 -1.7004
 5887SOL     OW29122   2.204   1.031   1.662  0.0490 -0.0761  0.7953
 5887SOL    HW129123   2.222   0.955   1.606 -2.3138 -1.5577  2.0454
 5887SOL    HW229124   2.110   1.032   1.645  0.5080  2.0657 -1.5968
 5888SOL     OW29125   1.404   3.376   6.136  0.0223 -0.0077 -0.0186
 5888SOL    HW129126   1.406   3.307   6.202 -0.9741  0.6576  0.7276
 5888SOL    HW229127   1.317   3.367   6.098  0.1790 -2.1189  0.1709
 5889SOL     OW29128   3.303   0.992   1.775  0.3277 -0.2000 -0.2827
 5889SOL    HW129129   3.273   1.077   1.805  1.9949 -0.3336  1.7802
 5889SOL    HW229130   3.379   0.975   1.830 -0.5206  3.8444  2.1240
 5890SOL     OW29131   0.491   2.581   4.658 -0.0152  0.8153  0.4848
 5890SOL    HW129132   0.544   2.636   4.601  1.7757 -1.6419 -0.2371
 5890SOL    HW229133   0.471   2.506   4.601 -0.0017 -0.1287  1.7241
 5891SOL     OW29134   3.285   4.537   7.339 -0.1033 -0.0639  0.1177
 5891SOL    HW129135   3.314   4.624   7.311  3.2645 -1.5922 -1.1416
 5891SOL    HW229136   3.296   4.546   7.434  1.1585  3.6063 -0.3847
 5892SOL     OW29137   0.760   3.798   3.096 -0.2619  0.6363 -0.2130
 5892SOL    HW129138   0.761   3.893   3.088 -1.3494  0.6722  0.1460
 5892SOL    HW229139   0.668   3.775   3.081 -0.3473  1.9133 -1.6082
 5893SOL     OW29140   4.320   0.955   7.498  0.0299  0.6546  0.4482
 5893SOL    HW129141   4.380   1.012   7.546  3.4857 -3.1436  0.6310
 5893SOL    HW229142   4.274   1.011   7.435  2.8597  1.2208 -1.0990
 5894SOL     OW29143   0.814   0.199  12.017  0.8280  0.0585  0.0892
 5894SOL    HW129144   0.774   0.230  12.098  2.6407  0.5669  0.7841
 5894SOL    HW229145   0.780   0.109  12.014  1.0981 -0.0979  1.5097
 5895SOL     OW29146   3.245   3.338   2.932 -0.1006  0.0695  0.0332
 5895SOL    HW129147   3.268   3.351   3.024 -1.0547 -3.8989  0.8297
 5895SOL    HW229148   3.296   3.401   2.882  2.0908 -0.1037  2.0222
 5896SOL     OW29149   4.403   1.905   2.740 -0.1102 -0.0158 -0.2939
 5896SOL    HW129150   4.396   1.854   2.820  0.6331  0.9317  0.3663
 5896SOL    HW229151   4.309   1.903   2.721 -0.0315 -1.6274 -0.4979
 5897SOL     OW29152   1.685   1.052   6.045  0.4556  0.4224  0.0713
 5897SOL    HW129153   1.738   0.986   6.090 -1.0925 -0.7004  0.2368
 5897SOL    HW229154   1.655   1.010   5.964 -0.6489 -0.7972  1.1142
 5898SOL     OW29155   0.862   0.723   3.667 -0.2731 -0.3719  0.5386
 5898SOL    HW129156   0.776   0.764   3.671 -1.1016 -2.4884  4.4208
 5898SOL    HW229157   0.888   0.774   3.590  2.0746 -0.1591  1.4697
 5899SOL     OW29158   4.042   1.000  13.695 -0.1557  0.3438 -0.3663
 5899SOL    HW129159   3.953   1.026  13.718 -0.3100 -0.1468 -0.4280
 5899SOL    HW229160   4.049   0.926  13.754  0.7793 -0.0612 -0.9915
 5900SOL     OW29161   1.677   3.446  11.559 -0.4232  0.1339 -0.1958
 5900SOL    HW129162   1.737   3.433  11.632 -0.5041  0.6809 -0.0317
 5900SOL    HW229163   1.676   3.359  11.519  0.7400 -0.1506  0.3813
 5901SOL     OW29164   0.482   1.753  15.781  0.7840  0.1618 -0.2214
 5901SOL    HW129165   0.531   1.730  15.703  0.1104  2.4791 -1.3402
 5901SOL    HW229166   0.449   1.666  15.801  0.4575  0.4454  0.4926
 5902SOL     OW29167   4.612   3.299  13.298 -0.1644 -0.8173  0.0342
 5902SOL    HW129168   4.551   3.372  13.286 -1.4536 -1.5845  1.8980
 5902SOL    HW229169   4.578   3.261  13.379  0.9937  1.6664  1.6721
 5903SOL     OW29170   1.374   3.782   6.825  0.7948  0.2878 -0.0962
 5903SOL    HW129171   1.319   3.754   6.898  0.5659  0.2012 -0.3044
 5903SOL    HW229172   1.324   3.854   6.787 -1.1152 -0.6725  0.5973
 5904SOL     OW29173   4.159   2.523   9.553 -0.1726  0.2157 -0.6464
 5904SOL    HW129174   4.244   2.567   9.557  1.0058 -1.9402 -2.1095
 5904SOL    HW229175   4.118   2.579   9.619  0.3785 -1.4330  1.0986
 5905SOL     OW29176   0.423   0.515   7.573 -0.3047 -0.1861 -0.3714
 5905SOL    HW129177   0.436   0.599   7.530 -0.0081  0.0700  0.2371
 5905SOL    HW229178   0.334   0.490   7.547  0.2486  1.8860 -4.3312
 5906SOL     OW29179   2.867   2.135   4.027 -0.8515  0.1622  0.7250
 5906SOL    HW129180   2.881   2.145   3.933 -1.1444  1.4872  0.8216
 5906SOL    HW229181   2.958   2.135   4.057 -1.0253 -0.9670  1.2313
 5907SOL     OW29182   3.653   1.116  17.509 -0.1285 -0.5161  0.0436
 5907SOL    HW129183   3.642   1.027  17.477  2.6165 -0.7854 -0.2018
 5907SOL    HW229184   3.665   1.105  17.603 -0.7218 -1.6615 -0.0162
 5908SOL     OW29185   2.794   2.663   8.433 -0.6307 -0.0539  0.7094
 5908SOL    HW129186   2.748   2.648   8.516  0.1974 -2.9656  0.6395
 5908SOL    HW229187   2.845   2.740   8.459 -2.1047  1.9296 -2.2044
 5909SOL     OW29188   1.787   0.401   7.214 -0.0815 -0.3665 -0.1738
 5909SOL    HW129189   1.844   0.440   7.147  1.7251  0.9823  2.1566
 5909SOL    HW229190   1.746   0.330   7.164  1.0293 -0.4309 -1.0018
 5910SOL     OW29191   0.953   2.874   2.820  0.0797  0.0663  0.4116
 5910SOL    HW129192   0.859   2.874   2.837  0.5514  1.0750  2.9447
 5910SOL    HW229193   0.950   2.941   2.752 -0.0779  1.6726  2.0046
 5911SOL     OW29194   4.198   0.078   9.103 -0.3127  0.2720 -0.3963
 5911SOL    HW129195   4.114   0.121   9.123 -1.2972 -1.2579 -1.2531
 5911SOL    HW229196   4.258   0.143   9.140 -0.2865 -0.0766  0.1830
 5912SOL     OW29197   4.647   2.833  12.505 -0.2348 -0.2669 -0.0760
 5912SOL    HW129198   4.708   2.904  12.525  1.6848 -2.0943  0.6393
 5912SOL    HW229199   4.672   2.769  12.572 -1.2681  0.0252  0.5891
 5913SOL     OW29200   3.889   1.745   6.758  0.1861  0.0201 -0.2292
 5913SOL    HW129201   3.813   1.690   6.739  0.2644 -0.7251  1.5681
 5913SOL    HW229202   3.944   1.687   6.811 -1.0396 -0.9752 -0.0466
 5914SOL     OW29203   2.924   2.986   2.541 -0.5227  0.1476 -0.0933
 5914SOL    HW129204   2.984   3.021   2.475  0.8507 -2.7623 -0.4053
 5914SOL    HW229205   2.872   2.920   2.496  1.4114  0.6370 -3.0559
 5915SOL     OW29206   3.091   1.847   5.077 -0.0632  0.0923 -0.1541
 5915SOL    HW129207   3.078   1.899   5.157 -1.6768 -3.3056  1.7821
 5915SOL    HW229208   3.152   1.783   5.112 -1.0797  0.2905  2.0245
 5916SOL     OW29209   0.689   0.201  13.847  0.4536 -0.1712 -0.2010
 5916SOL    HW129210   0.689   0.107  13.861  0.0270 -0.0185  0.8408
 5916SOL    HW229211   0.681   0.199  13.751  2.6850  0.4512 -0.4002
 5917SOL     OW29212   3.460   3.038   3.107  0.1952 -0.4870  0.1338
 5917SOL    HW129213   3.457   3.134   3.114  0.8989 -0.3986 -0.7209
 5917SOL    HW229214   3.365   3.035   3.118  0.3527 -2.1607  0.9103
 5918SOL     OW29215   4.347   4.575   4.596  0.2911 -0.4204  0.1176
 5918SOL    HW129216   4.279   4.538   4.653  0.1107 -1.2918 -0.6693
 5918SOL    HW229217   4.396   4.494   4.583  1.2801  0.0507  0.9424
 5919SOL     OW29218   1.594   0.662   5.554 -0.5797  0.5870 -0.4478
 5919SOL    HW129219   1.593   0.621   5.641  1.5734  2.8380  0.6305
 5919SOL    HW229220   1.658   0.730   5.575  1.2976 -1.2404 -0.2781
 5920SOL     OW29221   0.050   1.666   8.892 -0.0951 -0.2687 -0.3538
 5920SOL    HW129222   0.109   1.710   8.831 -0.0691 -0.1557 -0.2487
 5920SOL    HW229223   0.097   1.584   8.899 -0.9306 -0.4969  2.6647
 5921SOL     OW29224   3.715   0.334   1.066  0.3359  0.2581  0.2781
 5921SOL    HW129225   3.693   0.332   0.973  1.0594  1.6354  0.0817
 5921SOL    HW229226   3.712   0.242   1.092  3.5183 -0.2684 -1.2184
 5922SOL     OW29227   1.796   0.815  11.874  0.3020  0.2252 -0.1094
 5922SOL    HW129228   1.803   0.886  11.809 -1.4429  0.0929 -0.4432
 5922SOL    HW229229   1.726   0.760  11.837  0.5450 -0.7696  0.9408
 5923SOL     OW29230   0.860   4.577   3.321 -0.6861 -0.4197  0.2802
 5923SOL    HW129231   0.939   4.574   3.375 -1.5660  0.0777  1.5968
 5923SOL    HW229232   0.794   4.567   3.390  1.0303 -1.1819  1.8297
 5924SOL     OW29233   1.071   1.082   2.266 -0.2605  0.0002  0.1345
 5924SOL    HW129234   1.014   1.153   2.237  1.1779  0.1241 -2.3805
 5924SOL    HW229235   1.154   1.128   2.277  0.2819 -0.4382 -2.0719
 5925SOL     OW29236   1.479   3.882  14.867 -0.1968 -0.6531  0.9274
 5925SOL    HW129237   1.399   3.878  14.815  0.9133 -4.4514 -0.4371
 5925SOL    HW229238   1.478   3.796  14.908 -2.8132 -0.8617  0.4001
 5926SOL     OW29239   0.804   1.971   8.985 -0.3699 -0.0746 -0.5413
 5926SOL    HW129240   0.873   1.941   8.926  0.6364 -2.4230  1.8107
 5926SOL    HW229241   0.824   1.937   9.072  2.0665 -0.9297 -1.4440
 5927SOL     OW29242   0.274   0.957  14.552 -0.6643  0.5241 -0.0647
 5927SOL    HW129243   0.238   1.017  14.487  2.5022  1.3788 -0.9997
 5927SOL    HW229244   0.248   0.873  14.515 -1.5765  0.2298  1.2358
 5928SOL     OW29245   2.682   4.175   4.778 -0.3996  0.5459 -0.7935
 5928SOL    HW129246   2.640   4.226   4.847 -0.5238  0.3236 -0.7039
 5928SOL    HW229247   2.622   4.102   4.762  1.4652 -1.0857 -0.3902
 5929SOL     OW29248   1.188   0.473   0.813 -0.6482 -0.5213 -0.2152
 5929SOL    HW129249   1.226   0.554   0.845 -0.3674 -0.4094 -0.8247
 5929SOL    HW229250   1.189   0.421   0.893  3.2394 -2.4454 -1.4960
 5930SOL     OW29251   2.141   1.891   6.299  0.7100  0.0380 -0.1743
 5930SOL    HW129252   2.131   1.808   6.347  0.1132 -0.6603 -1.5190
 5930SOL    HW229253   2.141   1.943   6.380  1.0713 -1.1757  0.6045
 5931SOL     OW29254   3.436   0.418   1.338  0.5549 -0.1745  0.2350
 5931SOL    HW129255   3.487   0.458   1.408  0.9673 -2.3291  1.1823
 5931SOL    HW229256   3.429   0.491   1.277  0.6898 -0.7850 -0.4982
 5932SOL     OW29257   1.740   0.173  15.623 -0.6453 -0.3386  0.3322
 5932SOL    HW129258   1.758   0.206  15.711  0.9659 -2.8057  0.9378
 5932SOL    HW229259   1.711   0.082  15.634 -4.1400  0.5985 -1.4063
 5933SOL     OW29260   2.447   0.986   1.743 -0.3845 -0.0657 -0.6330
 5933SOL    HW129261   2.355   1.003   1.720 -0.9978 -0.0725  1.7804
 5933SOL    HW229262   2.472   0.924   1.674  0.9728  3.3845 -3.2010
 5934SOL     OW29263   1.405   1.299   8.062 -0.0146 -0.4616  0.4131
 5934SOL    HW129264   1.474   1.307   8.127 -0.3989  0.1911  0.7512
 5934SOL    HW229265   1.430   1.364   7.996 -0.4681 -0.6397  0.0616
 5935SOL     OW29266   0.408   1.600  15.109 -0.1651 -0.0931  0.3079
 5935SOL    HW129267   0.433   1.691  15.098 -1.0845  0.2947  1.3914
 5935SOL    HW229268   0.313   1.608  15.102 -0.2408 -0.0192  1.4752
 5936SOL     OW29269   1.623   3.838   6.779  0.2988  0.1758 -0.0435
 5936SOL    HW129270   1.608   3.933   6.779 -0.1565  0.0997  0.1829
 5936SOL    HW229271   1.533   3.807   6.789  0.7556 -0.8416  0.9389
 5937SOL     OW29272   0.714   1.913   2.788 -0.1286  0.1004  0.2932
 5937SOL    HW129273   0.668   1.876   2.863  1.3156 -0.6193  0.8264
 5937SOL    HW229274   0.725   1.841   2.727 -0.6189  0.2170  0.0700
 5938SOL     OW29275   3.005   2.429   3.084 -0.7142 -0.2251  0.0940
 5938SOL    HW129276   3.007   2.498   3.018  1.3489 -2.6616 -2.3788
 5938SOL    HW229277   3.083   2.381   3.059 -1.0904 -1.4819  1.2911
 5939SOL     OW29278   0.085   1.437   6.536 -0.3293  0.4484  0.0270
 5939SOL    HW129279   0.076   1.426   6.442  1.2056 -0.5487 -0.0097
 5939SOL    HW229280   0.180   1.445   6.542 -0.3312 -1.2083  2.5960
 5940SOL     OW29281   1.174   2.693  14.851  0.6134 -0.3424 -0.7204
 5940SOL    HW129282   1.136   2.714  14.766  0.6500 -0.5445 -0.7859
 5940SOL    HW229283   1.258   2.739  14.842 -0.0081  0.5712 -1.9471
 5941SOL     OW29284   1.554   0.423   4.656 -0.1002  0.2036  0.0708
 5941SOL    HW129285   1.564   0.409   4.562 -0.3985 -0.6514  0.1695
 5941SOL    HW229286   1.640   0.461   4.674  1.3998 -2.5501 -1.3165
 5942SOL     OW29287   2.197   2.386  15.403  0.2325  0.8042  0.3347
 5942SOL    HW129288   2.286   2.412  15.379 -0.1490  1.3225 -0.5125
 5942SOL    HW229289   2.155   2.460  15.446  1.4163  0.9649  1.2372
 5943SOL     OW29290   2.781   2.315   7.856  0.4074 -0.5111 -0.5421
 5943SOL    HW129291   2.833   2.236   7.872  0.7912 -0.0304  0.6389
 5943SOL    HW229292   2.723   2.289   7.785 -0.2564  0.2316 -0.2660
 5944SOL     OW29293   0.395   0.388   4.733  0.1918 -0.9044 -0.1548
 5944SOL    HW129294   0.384   0.306   4.684 -0.0476 -1.0264  0.1062
 5944SOL    HW229295   0.484   0.364   4.760  0.3991  0.5684  0.4574
 5945SOL     OW29296   2.871   0.184   2.185 -0.3401  0.2442 -0.3674
 5945SOL    HW129297   2.893   0.223   2.269 -0.3604  1.0653 -0.7379
 5945SOL    HW229298   2.875   0.265   2.133 -0.5359 -0.0914 -0.9052
 5946SOL     OW29299   2.713   4.698  10.285 -0.2537 -0.1247  0.6302
 5946SOL    HW129300   2.700   4.608  10.317  1.4626 -0.4883  0.3261
 5946SOL    HW229301   2.622   4.715  10.309 -0.5209  1.6091 -1.6788
 5947SOL     OW29302   3.362   3.143  13.312  0.8597  0.0335 -0.2844
 5947SOL    HW129303   3.381   3.101  13.396 -2.2477 -1.9876 -0.5923
 5947SOL    HW229304   3.285   3.094  13.283 -0.4015  1.9306 -0.1590
 5948SOL     OW29305   2.492   0.156   4.290  0.1155  0.2578  0.8849
 5948SOL    HW129306   2.470   0.068   4.319 -2.1352  0.3602 -0.5494
 5948SOL    HW229307   2.566   0.129   4.235 -1.2689 -0.8185 -0.4380
 5949SOL     OW29308   0.728   1.202   6.665  0.4070  0.2086 -0.4830
 5949SOL    HW129309   0.762   1.254   6.592  0.0461 -0.1305 -0.8891
 5949SOL    HW229310   0.658   1.254   6.705 -0.1476  0.4607 -1.7891
 5950SOL     OW29311   2.561   2.231   2.909 -0.3114  0.1595 -0.3955
 5950SOL    HW129312   2.515   2.151   2.886 -0.1922  0.5671 -2.0477
 5950SOL    HW229313   2.523   2.295   2.848 -0.3191 -0.3808 -0.9532
 5951SOL     OW29314   0.935   4.424  10.298  0.3361  0.0357  0.3036
 5951SOL    HW129315   0.962   4.404  10.388  0.0958 -1.9861 -0.0593
 5951SOL    HW229316   0.911   4.516  10.304 -1.4811 -0.4910  1.3696
 5952SOL     OW29317   3.706   0.116  15.858 -0.2512  0.1356  0.4988
 5952SOL    HW129318   3.625   0.113  15.807 -0.5387 -2.0370  1.1134
 5952SOL    HW229319   3.702   0.029  15.897 -2.7480  0.2588  0.5245
 5953SOL     OW29320   1.403   3.128  15.770  0.3796 -0.2114  0.2682
 5953SOL    HW129321   1.441   3.091  15.691  0.3864 -0.6322  0.4688
 5953SOL    HW229322   1.413   3.049  15.823 -4.6862 -1.1990 -0.2423
 5954SOL     OW29323   0.173   0.215   2.890  0.1215 -0.0475 -0.6267
 5954SOL    HW129324   0.231   0.213   2.966  1.7793  0.3114 -1.8997
 5954SOL    HW229325   0.089   0.200   2.933  2.4502 -2.1524  3.1954
 5955SOL     OW29326   0.517   2.434   0.441  0.6021 -0.3641 -0.1372
 5955SOL    HW129327   0.490   2.455   0.530  0.6412 -0.4768 -0.0988
 5955SOL    HW229328   0.613   2.427   0.440  0.6791  0.2754  2.7564
 5956SOL     OW29329   0.087   4.333   4.808 -0.4211 -0.2074 -0.0736
 5956SOL    HW129330   0.042   4.253   4.780  0.2405 -0.9693  1.0478
 5956SOL    HW229331   0.164   4.333   4.751  1.3359  0.2469  2.3016
 5957SOL     OW29332   2.135   4.123   7.075 -0.1219 -0.2486 -0.0679
 5957SOL    HW129333   2.224   4.137   7.045 -0.1204 -0.6106 -0.2368
 5957SOL    HW229334   2.118   4.043   7.024 -2.9468  0.9170 -0.9763
 5958SOL     OW29335   1.623   1.608   0.987 -0.7675 -0.8520  0.0926
 5958SOL    HW129336   1.568   1.683   0.963 -0.5105  0.0730  2.4591
 5958SOL    HW229337   1.638   1.574   0.899 -1.7744  1.1985 -0.8776
 5959SOL     OW29338   2.655   2.106   5.988 -0.3057  0.3482  0.0854
 5959SOL    HW129339   2.679   2.128   6.078  1.2000  1.1497 -0.5207
 5959SOL    HW229340   2.729   2.141   5.938 -1.0745 -0.5819 -1.7147
 5960SOL     OW29341   0.400   3.612  13.175 -0.1965 -0.3043 -0.0434
 5960SOL    HW129342   0.338   3.660  13.120  0.3302 -0.0710 -0.4334
 5960SOL    HW229343   0.365   3.524  13.175  0.4545 -0.5688 -1.8330
 5961SOL     OW29344   3.941   0.507   8.591  0.1626 -0.3474  0.5076
 5961SOL    HW129345   3.931   0.440   8.659  0.2316 -2.4003 -1.5013
 5961SOL    HW229346   3.887   0.468   8.523 -2.9132  3.7876  0.6391
 5962SOL     OW29347   4.219   2.715   0.559  0.2588  0.1760  0.3655
 5962SOL    HW129348   4.312   2.698   0.543  0.3503  1.7973 -0.8250
 5962SOL    HW229349   4.205   2.646   0.624 -0.4727 -0.5575 -0.5832
 5963SOL     OW29350   4.235   1.585   8.584 -0.3311  0.3390  0.3765
 5963SOL    HW129351   4.312   1.529   8.586  1.2663  2.4087 -2.6662
 5963SOL    HW229352   4.219   1.595   8.678 -0.3627  0.3007  0.3749
 5964SOL     OW29353   1.496   1.439   7.535 -0.3646  0.3322  0.0449
 5964SOL    HW129354   1.555   1.378   7.579 -0.2534 -0.5681 -1.3511
 5964SOL    HW229355   1.418   1.390   7.510 -0.0029 -0.2436  0.0572
 5965SOL     OW29356   1.200   4.384   4.196  0.2215  0.6331 -0.4650
 5965SOL    HW129357   1.156   4.429   4.268 -0.3249  0.3539 -0.6195
 5965SOL    HW229358   1.245   4.459   4.157  4.6831 -0.9229  1.7674
 5966SOL     OW29359   2.167   2.636  15.249 -0.2271 -0.6143 -0.0628
 5966SOL    HW129360   2.254   2.598  15.265 -0.0401 -0.2058 -0.0970
 5966SOL    HW229361   2.133   2.568  15.192 -0.4846 -1.8406  1.5491
 5967SOL     OW29362   2.238   3.283   6.285  0.3584  0.1340  0.6313
 5967SOL    HW129363   2.260   3.233   6.206 -1.1597 -1.4717  1.2399
 5967SOL    HW229364   2.147   3.256   6.298 -0.0453  0.4336 -1.5118
 5968SOL     OW29365   2.955   0.418   7.880  0.5300  0.5975  0.3866
 5968SOL    HW129366   3.030   0.406   7.822  0.5077 -0.6280  0.6156
 5968SOL    HW229367   2.974   0.500   7.925  0.9009 -0.1666  1.6006
 5969SOL     OW29368   4.296   4.091  13.751 -0.4805  0.4303  0.3388
 5969SOL    HW129369   4.332   4.165  13.702 -0.1978  1.3580  1.9787
 5969SOL    HW229370   4.362   4.025  13.730 -1.6641 -0.6346 -0.0428
 5970SOL     OW29371   4.671   1.265  15.371  0.2578  0.2614 -0.4633
 5970SOL    HW129372   4.582   1.262  15.337  0.2430 -1.9959 -0.2373
 5970SOL    HW229373   4.685   1.170  15.376 -0.5143  0.1542 -0.3541
 5971SOL     OW29374   4.262   4.071   3.484  0.3927  0.2437  0.3660
 5971SOL    HW129375   4.279   4.107   3.570  0.6014 -2.6871  1.5521
 5971SOL    HW229376   4.167   4.072   3.477  0.5972  1.1476 -2.6386
 5972SOL     OW29377   1.171   1.716   8.611 -0.7859 -0.2814  0.5354
 5972SOL    HW129378   1.096   1.732   8.554  0.2923  0.3539 -0.7158
 5972SOL    HW229379   1.129   1.650   8.666 -2.9162  1.1052  0.5676
 5973SOL     OW29380   0.746   0.581  17.190  0.2249  0.0956  0.3530
 5973SOL    HW129381   0.736   0.489  17.215  3.6576 -0.2258  0.5163
 5973SOL    HW229382   0.810   0.608  17.255 -0.5684  2.1031  0.2849
 5974SOL     OW29383   0.956   4.712   1.736 -0.2088  0.3583 -0.1498
 5974SOL    HW129384   0.969   4.691   1.828  1.1461 -1.7807 -0.8357
 5974SOL    HW229385   0.983   0.076   1.730 -0.5669  0.3678 -1.5856
 5975SOL     OW29386   2.558   2.448   4.359  0.3430 -0.2318  0.6615
 5975SOL    HW129387   2.637   2.476   4.312 -1.7271  1.3710 -1.8732
 5975SOL    HW229388   2.504   2.528   4.355 -3.0795 -2.6096 -1.0563
 5976SOL     OW29389   0.517   0.194   7.828 -0.2453  0.0678 -0.4331
 5976SOL    HW129390   0.510   0.285   7.799 -1.8222 -0.2494 -1.0682
 5976SOL    HW229391   0.549   0.202   7.917  0.5924  1.9066 -0.9039
 5977SOL     OW29392   1.349   1.822   7.976  0.1916 -0.2742  0.1533
 5977SOL    HW129393   1.345   1.907   8.019  0.5925 -1.0827  1.7822
 5977SOL    HW229394   1.267   1.789   8.014  0.9915 -2.1264  0.2772
 5978SOL     OW29395   0.982   1.518  13.978 -0.1621  0.3015 -0.8652
 5978SOL    HW129396   1.057   1.524  14.038  0.1034 -1.2721 -1.0441
 5978SOL    HW229397   1.027   1.485  13.900 -0.9219 -1.5298 -0.5291
 5979SOL     OW29398   0.067   0.256   8.020 -0.8284 -0.2169 -0.3209
 5979SOL    HW129399   0.062   0.161   8.013  0.4808 -0.1206 -2.5718
 5979SOL    HW229400   0.156   0.264   8.054 -1.2390  0.5755  0.5933
 5980SOL     OW29401   0.706   2.578   4.265  0.2499 -0.0366 -0.1735
 5980SOL    HW129402   0.672   2.489   4.275 -2.4210  0.9329 -0.4986
 5980SOL    HW229403   0.645   2.617   4.329 -0.4240 -0.9250 -0.2602
 5981SOL     OW29404   4.001   3.994   5.177  0.2351  0.1963  0.0481
 5981SOL    HW129405   3.998   4.083   5.143  0.4522  0.3196  0.3545
 5981SOL    HW229406   3.946   4.000   5.255  1.0406 -0.3551  0.6608
 5982SOL     OW29407   3.854   0.646  15.887  0.0740  0.5838 -0.7837
 5982SOL    HW129408   3.795   0.683  15.953  0.4932  1.2075 -0.7584
 5982SOL    HW229409   3.793   0.596  15.833  1.0624  0.9072 -2.1908
 5983SOL     OW29410   4.394   1.619   3.687 -0.3150  0.0887 -0.1509
 5983SOL    HW129411   4.352   1.593   3.605  1.5401 -0.5704 -0.8976
 5983SOL    HW229412   4.475   1.665   3.665 -0.1266 -0.2201 -0.1044
 5984SOL     OW29413   3.520   3.658   7.177 -0.1875 -0.2520  0.2398
 5984SOL    HW129414   3.595   3.619   7.133 -0.4966 -0.5334 -0.0445
 5984SOL    HW229415   3.468   3.676   7.098  0.8195  0.3079 -0.2827
 5985SOL     OW29416   0.116   4.519   3.167 -0.0997 -0.4091 -0.5642
 5985SOL    HW129417   0.047   4.579   3.141  0.2832 -0.7875 -2.4699
 5985SOL    HW229418   0.080   4.433   3.145 -3.1095  0.5832  0.5953
 5986SOL     OW29419   0.608   2.260   2.623 -0.2665  1.0642 -0.1601
 5986SOL    HW129420   0.573   2.228   2.706  1.1193  0.8042  0.3245
 5986SOL    HW229421   0.615   2.182   2.567 -1.7540 -0.3087  1.5869
 5987SOL     OW29422   4.643   2.917   6.972  0.2559 -0.3410 -0.1401
 5987SOL    HW129423   0.006   2.930   7.002  0.1185 -1.3843  0.7350
 5987SOL    HW229424   4.646   2.893   6.880 -0.5031  1.0918 -0.5332
 5988SOL     OW29425   0.716   0.301   1.948  0.0159 -0.4544  0.1366
 5988SOL    HW129426   0.726   0.369   1.881 -1.2717 -1.4931 -1.1141
 5988SOL    HW229427   0.724   0.354   2.027  0.5018  0.2489 -0.3897
 5989SOL     OW29428   1.737   4.506   4.978 -0.0178 -0.3822  0.9744
 5989SOL    HW129429   1.662   4.478   5.030 -0.1417 -1.3228  0.2818
 5989SOL    HW229430   1.689   4.491   4.897 -0.4250 -1.7075  1.4594
 5990SOL     OW29431   0.281   1.370   8.849 -0.3304 -0.0969 -0.6994
 5990SOL    HW129432   0.369   1.372   8.811  1.1238 -1.7925  2.6187
 5990SOL    HW229433   0.285   1.440   8.913  1.0484 -1.8779  1.1599
 5991SOL     OW29434   2.589   0.466  13.564 -0.4110 -0.1422  0.8917
 5991SOL    HW129435   2.599   0.529  13.493 -2.4296  0.1120  0.8523
 5991SOL    HW229436   2.569   0.386  13.516  1.7368  0.1743 -0.5437
 5992SOL     OW29437   4.489   2.389   5.754  0.4772  0.1282  0.0352
 5992SOL    HW129438   4.448   2.304   5.738 -2.5349  1.6307 -0.1827
 5992SOL    HW229439   4.521   2.407   5.666  2.0957 -0.1203  0.5812
 5993SOL     OW29440   2.590   3.940   7.427 -0.6081  0.0043 -0.6588
 5993SOL    HW129441   2.632   3.928   7.512  0.0156  0.3776 -0.9173
 5993SOL    HW229442   2.670   3.941   7.375 -0.2729  1.2292 -0.1021
 5994SOL     OW29443   0.008   4.491   9.489  0.0261  0.0315  0.2828
 5994SOL    HW129444   0.075   4.528   9.547  0.3325 -0.8208  0.4699
 5994SOL    HW229445   0.006   4.550   9.414 -2.0742  0.2100  0.4989
 5995SOL     OW29446   2.050   1.267  17.709  0.6439 -0.0046  0.0368
 5995SOL    HW129447   2.071   1.361   0.006  2.0832 -0.2774 -0.5690
 5995SOL    HW229448   2.034   1.258  17.615  1.7804 -3.2137  0.1606
 5996SOL     OW29449   1.074   4.706   3.025  0.3430 -0.1986 -0.2950
 5996SOL    HW129450   1.013   0.013   2.959  1.4768  1.5782 -0.4103
 5996SOL    HW229451   1.155   0.016   2.992  1.0151  0.9420  2.6621
 5997SOL     OW29452   3.410   1.735   2.461  0.0619 -0.2215  0.4241
 5997SOL    HW129453   3.404   1.755   2.554 -0.3683 -0.9731  0.5604
 5997SOL    HW229454   3.428   1.641   2.463  2.0188  0.1406  0.2012
 5998SOL     OW29455   4.119   4.209   3.112  0.2507  0.4299 -0.1503
 5998SOL    HW129456   4.054   4.187   3.178  0.4035  0.5260  0.0320
 5998SOL    HW229457   4.065   4.258   3.050  0.5867  1.2019  0.1603
 5999SOL     OW29458   3.885   2.072   8.094 -0.1516  0.2718  0.2158
 5999SOL    HW129459   3.924   1.985   8.092  1.2187  0.9015 -0.7849
 5999SOL    HW229460   3.833   2.070   8.174  0.9506 -0.2341  0.9200
 6000SOL     OW29461   4.605   0.496   4.358  0.2759 -0.4872  0.3951
 6000SOL    HW129462   4.649   0.557   4.417 -0.0075 -2.6964  2.8692
 6000SOL    HW229463   4.584   0.432   4.426 -2.0416  0.0511  0.1596
 6001SOL     OW29464   4.101   0.832  15.339  0.0730  0.5816  0.4093
 6001SOL    HW129465   4.108   0.791  15.425 -1.9373 -0.0650  0.2684
 6001SOL    HW229466   4.190   0.864  15.324  0.8269 -0.9055  1.7038
 6002SOL     OW29467   3.452   3.579   9.076  0.4567 -0.0992 -0.0237
 6002SOL    HW129468   3.467   3.493   9.036  0.2524 -0.9607  1.7240
 6002SOL    HW229469   3.377   3.617   9.032  1.3709  2.1856  0.4121
 6003SOL     OW29470   0.208   4.297  13.503  0.6529  0.0655  0.3458
 6003SOL    HW129471   0.265   4.241  13.555  2.3463  0.2891 -1.2573
 6003SOL    HW229472   0.274   4.334  13.444 -0.1205  3.0266  1.3091
 6004SOL     OW29473   1.081   3.230   5.356 -0.2009 -0.3997 -0.0289
 6004SOL    HW129474   1.138   3.171   5.406  0.4257 -0.0957 -0.3810
 6004SOL    HW229475   1.010   3.237   5.419  0.9021 -3.4072  1.5755
 6005SOL     OW29476   1.266   0.913  17.619 -0.2359 -0.0387  0.0140
 6005SOL    HW129477   1.293   0.985  17.676  0.5970 -0.0858 -0.3324
 6005SOL    HW229478   1.293   0.839  17.673 -1.2766  0.4259  1.1873
 6006SOL     OW29479   2.676   1.144   4.610 -0.0395 -0.3919  0.3850
 6006SOL    HW129480   2.700   1.177   4.697  0.3740 -0.3871  0.2671
 6006SOL    HW229481   2.629   1.219   4.575 -1.1923 -2.2885 -2.1608
 6007SOL     OW29482   1.305   4.475  11.804  0.0476  0.2531  0.4203
 6007SOL    HW129483   1.324   4.535  11.732 -1.6211 -0.5628 -0.7057
 6007SOL    HW229484   1.241   4.530  11.849 -1.3925  0.5176 -1.9290
 6008SOL     OW29485   1.670   0.130   7.999  0.1979  0.3779  0.2282
 6008SOL    HW129486   1.579   0.105   8.016  0.4078  0.0615  0.8580
 6008SOL    HW229487   1.720   0.053   8.025 -1.2473 -0.7971 -0.4441
 6009SOL     OW29488   1.461   1.162   8.421  0.1518  0.8766  0.0373
 6009SOL    HW129489   1.426   1.233   8.474  0.1019  0.0411  1.1101
 6009SOL    HW229490   1.470   1.196   8.332  0.1449  0.2813 -0.1901
 6010SOL     OW29491   4.002   1.161   3.897 -0.4242 -0.6017  0.7256
 6010SOL    HW129492   4.088   1.119   3.888 -2.0352 -3.6203 -0.7989
 6010SOL    HW229493   3.994   1.200   3.810 -0.0153 -2.6181 -0.2220
 6011SOL     OW29494   0.137   0.041  10.268 -0.0446  0.0137  0.0378
 6011SOL    HW129495   0.067   0.023  10.330 -0.0662 -1.2166 -0.3523
 6011SOL    HW229496   0.104   0.121  10.227 -3.1676 -0.8215  0.9552
 6012SOL     OW29497   3.029   4.243   6.940  0.5202  0.0573  0.3432
 6012SOL    HW129498   3.071   4.258   7.025 -2.2245  1.6058  1.4102
 6012SOL    HW229499   3.106   4.209   6.893  1.0987  1.1551  0.5090
 6013SOL     OW29500   1.521   0.422   6.111  0.2626 -0.3522  0.2594
 6013SOL    HW129501   1.437   0.421   6.156 -0.3092  1.6687 -0.7656
 6013SOL    HW229502   1.547   0.495   6.167  3.5142  0.2209 -1.9859
 6014SOL     OW29503   0.624   3.413   8.187  0.0162 -0.3920 -0.9136
 6014SOL    HW129504   0.616   3.505   8.212 -0.9395 -0.8036  0.3176
 6014SOL    HW229505   0.538   3.409   8.145 -0.6550 -0.7583  0.5117
 6015SOL     OW29506   1.297   0.200   8.495 -0.3551  0.5714 -0.4392
 6015SOL    HW129507   1.318   0.280   8.543  2.5287  0.6233 -1.7964
 6015SOL    HW229508   1.371   0.204   8.434  1.1130  2.6061  1.4437
 6016SOL     OW29509   1.898   3.354  16.284  0.0523 -0.7978  0.0475
 6016SOL    HW129510   1.981   3.402  16.293 -1.9464  1.8489  4.0288
 6016SOL    HW229511   1.925   3.322  16.198 -1.9248  2.4540 -1.8143
 6017SOL     OW29512   2.816   4.128  13.185  0.3714  0.3442 -0.4778
 6017SOL    HW129513   2.868   4.160  13.258  2.4285 -1.6737 -1.0604
 6017SOL    HW229514   2.870   4.159  13.112  0.6989  0.1326 -0.3232
 6018SOL     OW29515   3.457   1.357   8.814 -0.7983  0.2842  0.1796
 6018SOL    HW129516   3.417   1.442   8.797  1.1214  1.4101  1.3479
 6018SOL    HW229517   3.396   1.295   8.773 -0.5250 -0.2119  0.5250
 6019SOL     OW29518   4.549   0.907   4.582  0.0371 -0.1465 -0.3705
 6019SOL    HW129519   4.560   0.905   4.487 -4.6787  0.0364 -0.9427
 6019SOL    HW229520   4.536   1.002   4.593 -1.6501 -0.4487  0.2222
 6020SOL     OW29521   0.637   3.324  13.428  0.2436 -0.0303  0.6914
 6020SOL    HW129522   0.666   3.394  13.370  0.5165 -0.8910 -0.2208
 6020SOL    HW229523   0.586   3.270  13.368 -1.5117  0.8033  1.4536
 6021SOL     OW29524   4.345   2.421  16.335 -0.0490 -0.1836  0.4771
 6021SOL    HW129525   4.358   2.482  16.262  2.1667 -2.1428 -0.7742
 6021SOL    HW229526   4.376   2.341  16.291  0.5864  0.4052 -0.1404
 6022SOL     OW29527   1.513   3.416  15.799 -0.5306 -0.3471  0.5407
 6022SOL    HW129528   1.443   3.368  15.756 -1.0907 -1.4183  2.6149
 6022SOL    HW229529   1.587   3.396  15.741 -1.3034  0.5760 -0.7515
 6023SOL     OW29530   4.343   4.433   3.800  0.1106  0.4703  0.1930
 6023SOL    HW129531   4.254   4.454   3.827  0.6208  1.5031  1.0434
 6023SOL    HW229532   4.340   4.346   3.759 -0.6280 -1.1891  3.7346
 6024SOL     OW29533   2.569   2.693   1.378 -0.1553 -0.0913 -0.5648
 6024SOL    HW129534   2.474   2.686   1.382 -0.1408 -0.5588 -1.0149
 6024SOL    HW229535   2.574   2.754   1.305 -1.5665  1.6577  0.8099
 6025SOL     OW29536   2.012   0.105   6.282 -0.1680 -0.0484 -0.0824
 6025SOL    HW129537   1.941   0.045   6.259 -0.8939  0.4729  0.8302
 6025SOL    HW229538   2.018   0.149   6.197 -0.9105  0.5191  0.1631
 6026SOL     OW29539   2.869   1.310   7.803  0.1464 -0.3419  0.0974
 6026SOL    HW129540   2.933   1.257   7.851  1.7255  1.3299 -0.1188
 6026SOL    HW229541   2.808   1.241   7.780  0.0891 -0.0392 -0.6697
 6027SOL     OW29542   1.089   3.666  16.841 -0.4735 -0.0392  0.1718
 6027SOL    HW129543   1.031   3.618  16.900 -2.0039  0.5121 -0.8795
 6027SOL    HW229544   1.075   3.633  16.752  1.8677 -0.5941  0.0028
 6028SOL     OW29545   4.096   3.894   6.935  0.0082  0.5340 -0.1398
 6028SOL    HW129546   4.133   3.934   7.014  0.0621  0.2768 -0.0361
 6028SOL    HW229547   4.167   3.908   6.872 -0.4617  1.0390 -0.5617
 6029SOL     OW29548   1.932   1.603   3.517 -0.3285  0.2192  0.3575
 6029SOL    HW129549   1.998   1.546   3.556 -0.2304 -0.1630 -0.3626
 6029SOL    HW229550   1.976   1.656   3.450  0.3399  0.5901  1.0836
 6030SOL     OW29551   1.792   4.471   7.146 -0.2327 -0.3150  0.2084
 6030SOL    HW129552   1.826   4.421   7.221 -0.8891 -0.8454  0.1578
 6030SOL    HW229553   1.731   4.537   7.179  1.1330  0.8037  0.4598
 6031SOL     OW29554   0.172   0.207   4.928 -0.1789  0.3626 -0.4640
 6031SOL    HW129555   0.161   0.174   5.017 -1.3090  1.8585 -0.0383
 6031SOL    HW229556   0.263   0.234   4.916  0.1031 -1.0898 -1.5607
 6032SOL     OW29557   2.168   4.289   7.764 -0.4538  0.0933 -0.3132
 6032SOL    HW129558   2.148   4.370   7.811  0.2079 -1.5525  2.8050
 6032SOL    HW229559   2.219   4.310   7.686  0.5903 -0.7879  0.1325
 6033SOL     OW29560   2.359   0.200   3.359  0.1641 -0.6324 -0.4503
 6033SOL    HW129561   2.378   0.119   3.310  0.3125 -1.1023  0.3919
 6033SOL    HW229562   2.316   0.243   3.285  0.1278  0.1520  0.0320
 6034SOL     OW29563   1.508   3.182   3.332 -0.0577 -0.4133 -0.2301
 6034SOL    HW129564   1.593   3.163   3.373 -0.3822 -0.1736  0.5394
 6034SOL    HW229565   1.449   3.164   3.405 -2.8013  0.7588 -2.1669
 6035SOL     OW29566   3.806   0.777   8.475  0.8645  0.1368  0.1342
 6035SOL    HW129567   3.810   0.833   8.553  1.1963 -0.7217  0.7376
 6035SOL    HW229568   3.876   0.713   8.485  1.7061  0.9998 -0.2686
 6036SOL     OW29569   4.598   0.251   5.830 -0.9350  0.1589 -0.1348
 6036SOL    HW129570   4.560   0.166   5.853 -0.2469  0.2670  1.4113
 6036SOL    HW229571   4.539   0.308   5.879 -0.2732 -0.1502  1.0297
 6037SOL     OW29572   1.662   2.510  17.566 -0.2268 -0.0531  0.0635
 6037SOL    HW129573   1.666   2.502  17.662  1.5219  0.0459 -0.0044
 6037SOL    HW229574   1.715   2.433  17.550  1.0414  0.8325  0.0324
 6038SOL     OW29575   4.554   1.159   6.650 -0.2926  0.2172 -0.2482
 6038SOL    HW129576   4.464   1.165   6.682 -0.6780 -1.4794 -0.9835
 6038SOL    HW229577   4.530   1.160   6.557  0.4483 -2.4290 -0.4824
 6039SOL     OW29578   4.540   2.698  11.041 -0.4413 -0.0468  0.7003
 6039SOL    HW129579   4.459   2.704  10.989 -0.9774 -1.2802  1.3711
 6039SOL    HW229580   4.527   2.605  11.061 -2.5256  0.4524  1.6882
 6040SOL     OW29581   0.391   3.628   8.218 -0.4136 -0.4622 -0.0396
 6040SOL    HW129582   0.338   3.618   8.297  0.4042 -1.6084  0.3568
 6040SOL    HW229583   0.421   3.719   8.222  1.5009 -1.0055 -2.0948
 6041SOL     OW29584   3.232   0.068   7.476 -0.7478 -0.1339 -0.5564
 6041SOL    HW129585   3.245   4.713   7.524  0.6859  0.3621 -0.0906
 6041SOL    HW229586   3.298   0.122   7.519 -0.6026  0.1080 -1.0885
 6042SOL     OW29587   3.776   2.417   3.292 -0.1059 -0.6851 -0.8534
 6042SOL    HW129588   3.829   2.495   3.306  1.3099 -1.6030 -1.1648
 6042SOL    HW229589   3.718   2.412   3.368 -0.7865 -0.4420 -1.3519
 6043SOL     OW29590   0.611   1.453  15.969  0.4948  0.2029 -0.2849
 6043SOL    HW129591   0.588   1.516  15.901  1.7833 -0.1426 -1.0447
 6043SOL    HW229592   0.526   1.411  15.983  0.8427 -0.4167 -0.0080
 6044SOL     OW29593   0.690   3.295   2.066  0.0367  0.0849  0.4206
 6044SOL    HW129594   0.698   3.385   2.034 -0.6134 -0.8312 -2.2809
 6044SOL    HW229595   0.630   3.316   2.138 -1.2318 -0.6363 -0.4277
 6045SOL     OW29596   0.157   2.360   6.192  0.0261  0.1869  0.0535
 6045SOL    HW129597   0.194   2.319   6.114 -0.1599 -1.4857  0.8618
 6045SOL    HW229598   0.115   2.284   6.233 -2.3133  0.2828 -2.1739
 6046SOL     OW29599   3.967   0.019   6.958 -0.0176  0.2582 -0.0192
 6046SOL    HW129600   4.041   4.713   7.010 -0.7103 -0.0680  0.7513
 6046SOL    HW229601   3.993   0.108   6.937 -0.3800  1.3461  4.2775
 6047SOL     OW29602   3.530   0.189   9.101  0.0335  0.5476  0.0996
 6047SOL    HW129603   3.530   0.283   9.086  1.3949  0.7346  1.3040
 6047SOL    HW229604   3.439   0.167   9.081  0.1296  0.2558 -0.0185
 6048SOL     OW29605   0.945   2.937   9.328  0.3584  0.5113  0.3721
 6048SOL    HW129606   0.915   3.007   9.270 -0.6013  0.5488  0.9108
 6048SOL    HW229607   0.926   2.863   9.270 -0.7549  1.2076 -0.1432
 6049SOL     OW29608   3.413   0.265   8.456  0.4923  0.3630 -0.4654
 6049SOL    HW129609   3.480   0.247   8.390  0.1244 -2.3270 -0.0770
 6049SOL    HW229610   3.443   0.221   8.535  0.6928  0.4769 -0.4781
 6050SOL     OW29611   1.194   2.362   4.273  0.1344 -0.6119 -0.1576
 6050SOL    HW129612   1.139   2.435   4.303 -1.7559 -1.8231 -0.7097
 6050SOL    HW229613   1.122   2.303   4.253 -0.7312  1.2068 -2.4770
 6051SOL     OW29614   4.186   0.609   8.542 -0.7844 -0.6607  0.6016
 6051SOL    HW129615   4.215   0.651   8.623  0.0675 -0.1709  0.0418
 6051SOL    HW229616   4.098   0.577   8.562 -0.6617  0.0997  2.3825
 6052SOL     OW29617   3.450   3.683  16.359 -0.1913 -0.4211 -0.4808
 6052SOL    HW129618   3.541   3.704  16.378  0.0060 -3.8087  2.2972
 6052SOL    HW229619   3.454   3.630  16.279  0.2658  1.5676 -1.7628
 6053SOL     OW29620   3.304   1.513   6.635  0.4945  0.4025 -0.1032
 6053SOL    HW129621   3.337   1.497   6.547 -0.1047 -0.8811 -0.0845
 6053SOL    HW229622   3.291   1.608   6.628 -0.4016  0.3499  0.9007
 6054SOL     OW29623   0.206   4.232  16.095  0.4043  0.5768  0.1823
 6054SOL    HW129624   0.280   4.210  16.152 -0.5495 -0.5024  1.0295
 6054SOL    HW229625   0.153   4.152  16.088 -1.7330  2.0213  0.0789
 6055SOL     OW29626   2.349   3.344   2.521  0.1565  0.0175  0.5018
 6055SOL    HW129627   2.351   3.387   2.435  2.0608 -0.4585  0.3011
 6055SOL    HW229628   2.344   3.418   2.582 -0.3098 -0.3708  0.9329
 6056SOL     OW29629   1.400   2.257   3.348 -0.4838 -0.3846  0.0042
 6056SOL    HW129630   1.378   2.336   3.396  1.7155 -0.2880  0.8462
 6056SOL    HW229631   1.489   2.281   3.321 -0.9856  2.3259  0.7410
 6057SOL     OW29632   4.308   2.463   3.739  0.1079 -0.5164  0.3740
 6057SOL    HW129633   4.282   2.371   3.734 -0.2496 -0.4744  1.4564
 6057SOL    HW229634   4.223   2.494   3.769  0.8203  2.1462 -0.3890
 6058SOL     OW29635   1.864   1.635  11.217  0.1207 -0.3640  0.2955
 6058SOL    HW129636   1.887   1.544  11.199 -2.8860 -0.9828 -0.2853
 6058SOL    HW229637   1.809   1.624  11.294  0.8498 -0.8525  0.7458
 6059SOL     OW29638   1.663   3.771   1.962  0.5138  0.1998 -0.6503
 6059SOL    HW129639   1.699   3.836   2.023  2.7251 -1.3390 -0.3107
 6059SOL    HW229640   1.718   3.694   1.978  0.2276  0.4516  1.6366
 6060SOL     OW29641   2.882   0.486   2.334  0.4236 -0.2840 -0.7993
 6060SOL    HW129642   2.910   0.416   2.393 -2.0972 -0.1428  0.6017
 6060SOL    HW229643   2.950   0.479   2.267  1.8060  0.8427  0.4603
 6061SOL     OW29644   2.661   3.022   2.631  1.1352  0.0701 -0.5913
 6061SOL    HW129645   2.626   2.969   2.559  2.7959 -1.2176 -0.4701
 6061SOL    HW229646   2.755   3.035   2.616  1.0300  0.3096 -1.0304
 6062SOL     OW29647   1.715   3.837   3.747 -0.4586  0.3891 -0.3219
 6062SOL    HW129648   1.654   3.763   3.744  0.3821 -0.3188  0.0903
 6062SOL    HW229649   1.797   3.790   3.761 -1.4274 -2.1069 -2.9421
 6063SOL     OW29650   3.964   1.110   4.892 -0.0192  0.0789 -0.0970
 6063SOL    HW129651   3.892   1.061   4.931 -0.1493 -1.8547 -2.7853
 6063SOL    HW229652   4.013   1.030   4.874  2.9582  1.9829 -0.4861
 6064SOL     OW29653   1.031   4.493  14.562 -0.4687  0.1542  0.4666
 6064SOL    HW129654   1.092   4.551  14.517  0.6245 -0.0037  1.7428
 6064SOL    HW229655   0.947   4.532  14.535 -1.3840 -1.9539  0.2610
 6065SOL     OW29656   1.051   4.446   2.698  0.0691  0.0493  0.6259
 6065SOL    HW129657   0.960   4.461   2.670 -0.2443  0.2569  1.7451
 6065SOL    HW229658   1.084   4.533   2.720 -0.5100  0.7353 -1.2288
 6066SOL     OW29659   3.412   0.241   8.814 -0.3086  0.4669 -0.4423
 6066SOL    HW129660   3.404   0.181   8.889 -0.5703 -0.8282 -1.5027
 6066SOL    HW229661   3.503   0.268   8.828 -1.1092  2.9088 -0.0689
 6067SOL     OW29662   3.371   1.484   3.423  0.1814 -0.4215  0.0095
 6067SOL    HW129663   3.337   1.466   3.511 -2.0068  1.2162 -0.5107
 6067SOL    HW229664   3.401   1.404   3.379  0.5242 -1.2514  1.7429
 6068SOL     OW29665   1.795   0.693   0.433  0.6145  0.3784 -0.3009
 6068SOL    HW129666   1.881   0.731   0.446  1.3637 -0.8233 -1.8323
 6068SOL    HW229667   1.738   0.760   0.470  0.8500  0.2898  0.2194
 6069SOL     OW29668   2.754   2.946   6.441  0.2678  0.2892  0.0222
 6069SOL    HW129669   2.699   2.964   6.365  0.1603  2.7498  0.6634
 6069SOL    HW229670   2.819   2.886   6.405  0.7155  1.8345 -1.7275
 6070SOL     OW29671   4.365   0.186   9.313 -0.0987 -0.2706  0.2591
 6070SOL    HW129672   4.459   0.183   9.332 -0.3870 -0.3473  1.7188
 6070SOL    HW229673   4.363   0.278   9.287  1.4266  0.0336  1.1942
 6071SOL     OW29674   3.360   3.052   8.166 -0.1983 -0.4257  0.5840
 6071SOL    HW129675   3.305   3.065   8.089 -1.1529  0.6177  1.4400
 6071SOL    HW229676   3.391   3.141   8.181 -0.9731  0.1196 -1.1031
 6072SOL     OW29677   2.112   4.005   5.370 -0.1630  0.0842 -0.0880
 6072SOL    HW129678   2.024   4.041   5.372 -0.4375 -0.5983 -0.1566
 6072SOL    HW229679   2.121   4.001   5.465 -0.9140 -1.4328 -0.0837
 6073SOL     OW29680   4.041   0.431   4.856  0.1595  0.2439  0.8100
 6073SOL    HW129681   4.014   0.519   4.830 -0.3542  0.0190  0.5846
 6073SOL    HW229682   4.042   0.388   4.771 -0.3621 -1.6583  1.7816
 6074SOL     OW29683   1.709   1.902  17.306  0.6208 -0.0666 -0.6596
 6074SOL    HW129684   1.761   1.981  17.291  1.4111 -0.8840 -2.2533
 6074SOL    HW229685   1.742   1.844  17.237 -0.6417 -0.5889 -0.8290
 6075SOL     OW29686   4.565   1.213   7.859 -0.3043  0.4522 -0.0988
 6075SOL    HW129687   4.533   1.214   7.949 -1.7231  0.3331 -0.5988
 6075SOL    HW229688   4.659   1.199   7.874  0.0387  1.8102 -1.0246
 6076SOL     OW29689   4.654   0.357   5.582  0.7182  0.1911 -0.2184
 6076SOL    HW129690   4.680   0.286   5.523  0.5974  0.1006 -0.1623
 6076SOL    HW229691   4.646   0.307   5.664  1.2963  0.1506 -0.1851
 6077SOL     OW29692   1.802   0.422   2.702  0.0871  0.2783  0.1543
 6077SOL    HW129693   1.845   0.424   2.617  1.0102 -1.7392  0.5776
 6077SOL    HW229694   1.733   0.484   2.678  0.3005  0.7608  0.7726
 6078SOL     OW29695   4.338   2.284   7.851 -0.7973  0.0311  0.2651
 6078SOL    HW129696   4.278   2.348   7.813  1.3084  0.4966 -2.2119
 6078SOL    HW229697   4.280   2.244   7.916  0.4831 -1.6906  0.3632
 6079SOL     OW29698   2.580   2.055  13.405  0.1264 -0.1824  0.5233
 6079SOL    HW129699   2.621   2.100  13.479 -0.2960  0.1903  0.5317
 6079SOL    HW229700   2.489   2.068  13.432 -0.4074 -0.5275 -1.0968
 6080SOL     OW29701   2.777   4.357   7.227 -0.1082 -0.0736  0.4772
 6080SOL    HW129702   2.827   4.426   7.185  0.9822 -0.9466  0.3258
 6080SOL    HW229703   2.836   4.318   7.291  1.1514  0.2540 -0.4984
 6081SOL     OW29704   0.662   1.204   8.479  0.1967 -0.3827  0.1046
 6081SOL    HW129705   0.738   1.146   8.491 -0.4826 -1.2855  0.0271
 6081SOL    HW229706   0.603   1.159   8.418  0.8818  0.1740 -0.9629
 6082SOL     OW29707   4.555   4.298  15.954  0.3706  0.4187 -0.4499
 6082SOL    HW129708   4.525   4.365  16.015 -1.4634 -0.7946  0.0170
 6082SOL    HW229709   4.572   4.221  16.008 -1.8020 -0.4851 -1.0664
 6083SOL     OW29710   3.304   4.151   5.532 -0.7366  0.1623  0.3917
 6083SOL    HW129711   3.230   4.208   5.550 -0.2924  0.8498  0.0688
 6083SOL    HW229712   3.261   4.073   5.498 -1.4002 -0.0197  1.6704
 6084SOL     OW29713   0.983   0.815   0.716 -0.1108  0.0332 -0.9114
 6084SOL    HW129714   0.939   0.748   0.768 -2.6081  2.5642  0.2078
 6084SOL    HW229715   1.077   0.797   0.723  0.1316  1.4224 -0.5111
 6085SOL     OW29716   0.424   4.638   7.886 -0.3705  0.3910  0.5914
 6085SOL    HW129717   0.505   4.604   7.925 -1.9140 -1.2663  2.3707
 6085SOL    HW229718   0.461   4.724   7.868 -1.1187 -0.0100 -2.8271
 6086SOL     OW29719   2.684   1.964   0.347 -0.4922 -0.0337 -0.2936
 6086SOL    HW129720   2.702   1.918   0.429  1.7818 -1.0238 -1.3488
 6086SOL    HW229721   2.631   1.897   0.304 -1.4947  1.2624 -1.0680
 6087SOL     OW29722   4.404   4.360   1.351  0.3420 -0.4774  0.1776
 6087SOL    HW129723   4.443   4.287   1.399 -0.6767 -0.0810  1.6010
 6087SOL    HW229724   4.375   4.408   1.429  0.7980  0.7223 -0.3826
 6088SOL     OW29725   3.739   4.416   7.088  0.0675  0.2517 -0.0170
 6088SOL    HW129726   3.675   4.345   7.084  0.4481 -0.1032  0.2669
 6088SOL    HW229727   3.781   4.412   7.002  2.3403 -3.0104  1.2590
 6089SOL     OW29728   0.317   4.258   7.947 -0.7154 -0.0335 -0.4544
 6089SOL    HW129729   0.310   4.231   8.038  0.9329 -0.8661 -0.5640
 6089SOL    HW229730   0.364   4.183   7.911  1.2463  0.4452  1.1142
 6090SOL     OW29731   3.708   2.148   9.204 -0.1077  0.0022 -0.2384
 6090SOL    HW129732   3.781   2.135   9.144 -1.4096 -1.9292 -1.3776
 6090SOL    HW229733   3.651   2.200   9.147 -1.1441 -0.3424  0.4747
 6091SOL     OW29734   0.452   3.480   7.428  0.3361 -0.5550  0.7591
 6091SOL    HW129735   0.384   3.522   7.481 -2.3687 -0.9068 -2.4381
 6091SOL    HW229736   0.415   3.512   7.345 -0.1137 -2.0975  0.3702
 6092SOL     OW29737   3.892   2.990   5.187 -0.2189  0.1219 -0.1539
 6092SOL    HW129738   3.802   3.019   5.181 -0.1651  0.0772 -1.1185
 6092SOL    HW229739   3.912   3.020   5.098  1.3641  0.0690  0.1673
 6093SOL     OW29740   2.826   1.266   3.375 -0.4850 -0.0011  0.0291
 6093SOL    HW129741   2.833   1.207   3.300  0.6229  0.2667 -0.0862
 6093SOL    HW229742   2.746   1.226   3.410  0.1835  0.7023  2.3341
 6094SOL     OW29743   0.964   3.922   4.665 -0.8327 -0.0445  0.7521
 6094SOL    HW129744   0.917   3.851   4.623  2.2655 -2.0334  0.6540
 6094SOL    HW229745   1.034   3.873   4.708  0.3243  1.6789  0.8459
 6095SOL     OW29746   4.043   3.305   6.669 -0.0042 -0.4733 -0.0633
 6095SOL    HW129747   3.959   3.334   6.706 -0.1271 -1.0911  0.1327
 6095SOL    HW229748   4.078   3.313   6.758 -0.2888  3.8195 -0.3401
 6096SOL     OW29749   0.316   3.047  11.442  0.0659 -0.4977 -0.2847
 6096SOL    HW129750   0.333   2.964  11.398 -2.3751 -1.0396 -0.1813
 6096SOL    HW229751   0.372   3.041  11.520 -0.2687 -0.3047 -0.0322
 6097SOL     OW29752   0.732   1.974   6.234 -0.2701 -0.1794  0.7981
 6097SOL    HW129753   0.760   2.034   6.303 -0.3091 -0.7966  1.3560
 6097SOL    HW229754   0.749   1.886   6.268  0.8281 -0.2376  0.0794
 6098SOL     OW29755   0.272   4.633   4.264 -0.5203  0.2699  0.0058
 6098SOL    HW129756   0.200   4.584   4.303 -1.8330  1.9530 -0.2810
 6098SOL    HW229757   0.253   4.721   4.295  2.9184  1.0586 -0.1204
 6099SOL     OW29758   4.011   0.564   5.479 -0.5356 -0.1713 -0.2328
 6099SOL    HW129759   4.086   0.516   5.444  0.8792  0.1117  2.3864
 6099SOL    HW229760   4.011   0.521   5.565 -2.5319  1.1407  0.4238
 6100SOL     OW29761   2.624   0.934   0.055 -0.3093 -0.1875  0.2903
 6100SOL    HW129762   2.691   0.935   0.123 -0.8750 -1.7042  0.8596
 6100SOL    HW229763   2.655   0.876  17.695  0.1989  1.1916 -0.6351
 6101SOL     OW29764   1.890   0.540   8.035  0.2837  0.0142 -0.1452
 6101SOL    HW129765   1.863   0.564   8.123 -0.7394  1.0931 -0.7530
 6101SOL    HW229766   1.803   0.551   7.996 -0.1615 -3.1401 -0.0208
 6102SOL     OW29767   1.796   2.155   7.316  0.3430  0.3294 -0.2521
 6102SOL    HW129768   1.870   2.194   7.363 -1.3528  3.2031 -0.0104
 6102SOL    HW229769   1.849   2.094   7.264 -1.2220  0.3085 -1.7931
 6103SOL     OW29770   0.920   3.538  13.078 -0.3863  0.5095  0.4662
 6103SOL    HW129771   0.958   3.623  13.056  0.0084 -0.0510 -1.0618
 6103SOL    HW229772   0.830   3.557  13.049  0.3018 -0.1034 -2.1349
 6104SOL     OW29773   1.816   0.192  10.102 -0.5538 -0.4951 -0.5500
 6104SOL    HW129774   1.901   0.217  10.067 -0.3205  0.2391  0.5357
 6104SOL    HW229775   1.755   0.209  10.031  0.2902  1.4859 -0.8041
 6105SOL     OW29776   4.342   2.320  12.075  0.3397 -0.6282 -0.0864
 6105SOL    HW129777   4.325   2.306  11.982 -0.1151  0.6345 -0.1949
 6105SOL    HW229778   4.404   2.392  12.071  0.0588 -0.3407  0.5508
 6106SOL     OW29779   1.249   1.022   6.144 -0.8630 -0.3107 -0.2011
 6106SOL    HW129780   1.182   0.970   6.099  0.3219 -0.9803 -1.1819
 6106SOL    HW229781   1.286   1.077   6.075  0.4906  1.3880  1.9011
 6107SOL     OW29782   2.247   2.317  12.400 -0.1188  0.2965 -0.6010
 6107SOL    HW129783   2.239   2.372  12.478 -3.1643  0.8571 -1.2844
 6107SOL    HW229784   2.297   2.243  12.434 -1.6608 -0.6530 -0.3956
 6108SOL     OW29785   1.033   2.902   4.420  0.1404  0.4483  0.1491
 6108SOL    HW129786   1.106   2.935   4.368 -0.0071 -2.3663 -1.8658
 6108SOL    HW229787   1.007   2.835   4.357  0.1397 -0.5589  1.2044
 6109SOL     OW29788   4.098   3.624   8.816  0.9319  0.2995 -0.3055
 6109SOL    HW129789   4.128   3.550   8.763 -1.5755 -1.3529  0.5940
 6109SOL    HW229790   4.102   3.592   8.907 -0.5172 -0.9502 -0.6905
 6110SOL     OW29791   3.681   2.725   6.406 -0.3363 -0.6669 -0.1176
 6110SOL    HW129792   3.678   2.647   6.462 -0.9098 -1.1273 -0.7964
 6110SOL    HW229793   3.731   2.682   6.337 -1.6596  0.7024 -1.9330
 6111SOL     OW29794   4.630   0.171   7.441 -0.0445 -0.5860 -0.6218
 6111SOL    HW129795   4.547   0.220   7.448  0.3607  0.0846 -0.5179
 6111SOL    HW229796   4.658   0.145   7.529 -1.3072 -0.1527 -0.0810
 6112SOL     OW29797   0.582   1.277   6.258 -0.0352  0.6661 -0.0534
 6112SOL    HW129798   0.534   1.225   6.323  0.5283 -0.5035 -0.5877
 6112SOL    HW229799   0.524   1.274   6.182 -1.4542  1.5717  0.9975
 6113SOL     OW29800   3.728   4.489   1.154 -0.0109  0.4228 -0.4977
 6113SOL    HW129801   3.652   4.490   1.211  0.5907  2.9434  0.2435
 6113SOL    HW229802   3.723   4.394   1.143  1.1565  0.3392 -0.3947
 6114SOL     OW29803   1.854   4.267  13.841  0.0795  0.3629 -0.6704
 6114SOL    HW129804   1.911   4.225  13.776  1.6903 -0.1491  1.0769
 6114SOL    HW229805   1.923   4.313  13.889  1.0702 -0.6932 -1.0979
 6115SOL     OW29806   0.421   0.976  15.249  0.3725  0.1540  0.1680
 6115SOL    HW129807   0.499   0.921  15.257  0.2622  0.3979  2.7311
 6115SOL    HW229808   0.370   0.940  15.177  0.3874  0.7261 -0.1327
 6116SOL     OW29809   1.486   1.123   7.128 -0.5672 -0.2246 -0.6966
 6116SOL    HW129810   1.535   1.088   7.202 -0.9703  0.8126  0.0610
 6116SOL    HW229811   1.554   1.112   7.062  3.7897 -1.6829  4.0296
 6117SOL     OW29812   3.963   4.595   9.953  0.3052 -0.0251 -0.1298
 6117SOL    HW129813   3.894   4.530   9.969  1.5860 -1.1700  0.7068
 6117SOL    HW229814   4.037   4.542   9.925  0.9821  1.6550 -1.5601
 6118SOL     OW29815   0.198   3.841   8.481 -0.0814 -0.1727 -0.4721
 6118SOL    HW129816   0.288   3.854   8.451  0.1558  2.5821  1.4252
 6118SOL    HW229817   0.215   3.868   8.572 -0.3410 -2.6686  0.3048
 6119SOL     OW29818   0.737   3.517   5.917  0.2462  0.1808  0.0731
 6119SOL    HW129819   0.748   3.505   6.011 -1.7026 -0.9271  0.1633
 6119SOL    HW229820   0.691   3.600   5.911 -2.3984 -1.4519 -2.5221
 6120SOL     OW29821   3.490   1.338   7.925 -0.3137  0.1435 -0.8120
 6120SOL    HW129822   3.543   1.324   7.846  2.1967 -0.2948  0.9512
 6120SOL    HW229823   3.410   1.367   7.881 -1.0331 -0.4606  0.0967
 6121SOL     OW29824   2.250   4.651   6.751 -0.1846 -0.3291  0.0150
 6121SOL    HW129825   2.181   4.680   6.691  0.5001  0.0355 -0.5983
 6121SOL    HW229826   2.293   4.585   6.698 -1.4011 -0.3377 -0.9661
 6122SOL     OW29827   1.271   0.696   0.923 -0.1889 -0.5204  0.5844
 6122SOL    HW129828   1.361   0.724   0.939 -0.6443  1.4809 -0.4126
 6122SOL    HW229829   1.223   0.757   0.979 -0.9138 -1.8678  1.4365
 6123SOL     OW29830   3.743   3.770   6.619  0.2024 -0.0759  0.1649
 6123SOL    HW129831   3.782   3.832   6.557  0.9850 -0.0038  0.7370
 6123SOL    HW229832   3.655   3.775   6.581  0.8928 -2.1214 -1.6359
 6124SOL     OW29833   1.295   1.209   9.202 -0.3337  0.2804  0.5559
 6124SOL    HW129834   1.375   1.160   9.186  0.0601  2.0331 -2.9080
 6124SOL    HW229835   1.235   1.139   9.229 -2.3460  1.2955 -1.3224
 6125SOL     OW29836   1.505   1.468   6.392 -0.4642 -0.0277 -0.0934
 6125SOL    HW129837   1.594   1.443   6.367 -0.3990 -1.2213  1.3374
 6125SOL    HW229838   1.518   1.536   6.458  1.4273  0.6811 -1.2122
 6126SOL     OW29839   1.080   2.617   2.439  1.1542 -0.0341  0.2037
 6126SOL    HW129840   1.054   2.528   2.416 -0.8516  0.2809  1.2501
 6126SOL    HW229841   1.002   2.651   2.394  0.7921 -2.0720 -0.6849
 6127SOL     OW29842   3.298   0.357   3.063 -0.1601  0.1981 -0.3087
 6127SOL    HW129843   3.366   0.370   3.130  0.9618  0.4549 -1.5020
 6127SOL    HW229844   3.220   0.393   3.106 -1.4930  0.3094 -2.8361
 6128SOL     OW29845   4.463   0.514  12.068 -0.6641  0.3558 -0.1431
 6128SOL    HW129846   4.390   0.568  12.096  0.0779  1.8820 -1.1549
 6128SOL    HW229847   4.491   0.560  11.989 -0.2955 -0.2534 -0.3765
 6129SOL     OW29848   2.902   0.308   3.186  0.0770  0.5152  0.3689
 6129SOL    HW129849   2.824   0.362   3.169 -0.9026 -0.6857  1.0740
 6129SOL    HW229850   2.952   0.349   3.256 -0.7939  3.1229 -0.5082
 6130SOL     OW29851   2.620   2.132  13.963  0.3401  0.1565  0.0996
 6130SOL    HW129852   2.641   2.052  13.914 -0.1502  0.3702 -0.4611
 6130SOL    HW229853   2.671   2.201  13.922  1.0597 -1.0384 -1.0356
 6131SOL     OW29854   2.272   3.399   1.916 -0.0760 -0.6145 -1.3008
 6131SOL    HW129855   2.253   3.338   1.844  0.4388 -3.4914  1.0313
 6131SOL    HW229856   2.276   3.327   1.978 -1.1783 -1.2728 -1.9862
 6132SOL     OW29857   1.781   2.560  14.948  0.2777 -0.8529  0.4378
 6132SOL    HW129858   1.804   2.479  14.902  0.8977 -0.0819 -0.6096
 6132SOL    HW229859   1.690   2.560  14.920  0.1024  1.9843  1.0013
 6133SOL     OW29860   0.553   0.406   9.604  0.6567  0.7123 -0.5491
 6133SOL    HW129861   0.481   0.442   9.656 -0.6104 -0.0872 -1.7680
 6133SOL    HW229862   0.562   0.312   9.619  0.9371  0.9635  0.8791
 6134SOL     OW29863   1.861   3.909   7.118  0.0559 -0.0115  0.4784
 6134SOL    HW129864   1.839   3.996   7.150  2.9815 -0.0032  2.4433
 6134SOL    HW229865   1.803   3.850   7.166  0.6235 -1.2455 -0.3368
 6135SOL     OW29866   3.336   1.552   8.678 -0.1722 -0.5947 -0.1272
 6135SOL    HW129867   3.334   1.634   8.727  2.5728  0.2124 -1.3631
 6135SOL    HW229868   3.251   1.560   8.634 -0.1619  0.3717  0.0324
 6136SOL     OW29869   4.061   3.159   2.882 -0.3897 -0.2943 -0.3162
 6136SOL    HW129870   4.006   3.108   2.942 -1.9577  0.1022 -1.4209
 6136SOL    HW229871   3.991   3.211   2.843 -1.5488 -1.8546 -0.3543
 6137SOL     OW29872   2.337   3.719   5.525 -0.3002 -0.0727  0.2617
 6137SOL    HW129873   2.286   3.750   5.600  0.1077 -1.4597  1.1070
 6137SOL    HW229874   2.355   3.802   5.482  0.6944  0.6198  2.0335
 6138SOL     OW29875   2.527   0.437   4.052  0.7489  0.2046  0.1058
 6138SOL    HW129876   2.616   0.471   4.049  0.7664  0.0860 -1.0256
 6138SOL    HW229877   2.481   0.510   4.094  0.9124  0.9984 -1.0920
 6139SOL     OW29878   3.693   2.042   2.629 -0.5173  0.5721 -0.8302
 6139SOL    HW129879   3.639   2.111   2.591 -0.0781  2.6108  2.2447
 6139SOL    HW229880   3.697   1.978   2.557 -0.6110  1.9645 -2.0595
 6140SOL     OW29881   0.628   3.020   4.409  0.0941 -0.3285 -0.5065
 6140SOL    HW129882   0.700   3.059   4.460  1.2600 -1.6523 -1.1328
 6140SOL    HW229883   0.555   3.076   4.435  0.6087 -0.9263  2.2259
 6141SOL     OW29884   2.925   4.595   3.604  0.1707 -0.1899 -0.1087
 6141SOL    HW129885   2.833   4.607   3.580  0.0470 -1.6578 -0.3839
 6141SOL    HW229886   2.965   4.682   3.597  1.6898 -1.0100 -1.6730
 6142SOL     OW29887   4.686   1.216   5.851 -0.0728  0.0724 -0.0809
 6142SOL    HW129888   4.707   1.309   5.854 -0.0096  0.1180 -1.9374
 6142SOL    HW229889   4.666   1.196   5.759 -1.7958  0.8845  0.1096
 6143SOL     OW29890   3.874   3.707   8.700  0.3279 -0.2979 -0.3735
 6143SOL    HW129891   3.950   3.650   8.701  0.6755  0.1728  0.0086
 6143SOL    HW229892   3.861   3.711   8.794  1.5424  1.1795 -0.2721
 6144SOL     OW29893   2.848   3.745  16.958 -0.6587  0.1665 -0.0940
 6144SOL    HW129894   2.889   3.831  16.961  1.4873 -0.8401 -0.6302
 6144SOL    HW229895   2.759   3.762  16.989 -1.8027 -2.5774 -1.8524
 6145SOL     OW29896   0.194   1.165   2.868  0.3830  0.0373 -0.5512
 6145SOL    HW129897   0.105   1.195   2.885 -0.0290 -1.6909  0.3499
 6145SOL    HW229898   0.217   1.154   2.960 -0.5363  0.0369 -0.3269
 6146SOL     OW29899   3.008   4.121   5.813 -0.7174 -0.6333 -0.1020
 6146SOL    HW129900   2.998   4.184   5.742 -1.0641 -0.8332 -0.2254
 6146SOL    HW229901   3.103   4.124   5.824 -0.5441  1.7976 -2.2555
 6147SOL     OW29902   3.491   0.005   4.625 -0.1867 -0.3778  0.3305
 6147SOL    HW129903   3.450   0.091   4.617 -1.1833 -0.6113  2.7034
 6147SOL    HW229904   3.441   4.694   4.553  1.1688 -0.9526 -0.3065
 6148SOL     OW29905   3.545   1.057   6.689  0.3211  0.7344  0.1757
 6148SOL    HW129906   3.597   0.995   6.740  1.8040  0.4833 -1.6374
 6148SOL    HW229907   3.589   1.057   6.603 -1.5709  0.0682 -0.7965
 6149SOL     OW29908   3.566   3.924   7.279  0.3181 -0.2752 -0.4769
 6149SOL    HW129909   3.637   3.926   7.343 -2.2796 -1.1594  2.4328
 6149SOL    HW229910   3.583   3.833   7.253  1.6887  0.2317 -1.3413
 6150SOL     OW29911   2.636   2.192   9.406 -0.2506  1.1488 -0.3237
 6150SOL    HW129912   2.604   2.254   9.340 -0.6696 -0.6012 -1.7876
 6150SOL    HW229913   2.565   2.204   9.469  0.2930  0.4871  0.4106
 6151SOL     OW29914   2.063   0.470  14.007 -0.3026 -0.4028 -0.3933
 6151SOL    HW129915   1.983   0.482  13.955 -2.3085 -0.4518  2.7039
 6151SOL    HW229916   2.108   0.555  14.001 -0.5834 -0.2512 -0.3678
 6152SOL     OW29917   3.542   2.391   2.111  0.0976 -0.1321 -0.1546
 6152SOL    HW129918   3.533   2.338   2.031  0.7685 -0.4277 -0.0298
 6152SOL    HW229919   3.499   2.328   2.168 -1.0278 -0.1024 -0.9604
 6153SOL     OW29920   0.207   0.778   7.491  0.1797  0.8488  0.1186
 6153SOL    HW129921   0.183   0.779   7.398  1.0061 -1.4806 -0.1190
 6153SOL    HW229922   0.138   0.721   7.526  1.0808 -1.1804 -1.3893
 6154SOL     OW29923   0.135   0.325   1.102 -0.2380  0.0242 -0.9231
 6154SOL    HW129924   0.169   0.404   1.144 -0.8707 -0.3750  0.3533
 6154SOL    HW229925   0.094   0.281   1.177  1.7919 -1.1273 -0.4968
 6155SOL     OW29926   1.447   4.195  13.547  0.1975 -0.4900  0.0396
 6155SOL    HW129927   1.507   4.265  13.571 -0.6193  0.0679  0.4562
 6155SOL    HW229928   1.437   4.149  13.630 -1.3360  0.4777  0.3972
 6156SOL     OW29929   1.068   3.007   3.607 -0.1265  0.1382  0.5366
 6156SOL    HW129930   1.100   2.970   3.689 -1.9772 -0.4939  0.9805
 6156SOL    HW229931   1.000   3.064   3.643  0.6248  0.6839  1.0694
 6157SOL     OW29932   3.629   3.679  17.116  0.2939  0.2072  0.9580
 6157SOL    HW129933   3.627   3.696  17.022 -1.7658  2.4903  1.4031
 6157SOL    HW229934   3.711   3.632  17.134  0.6865  0.5637  0.1300
 6158SOL     OW29935   1.457   1.945  17.451 -0.0233  0.5903  0.3391
 6158SOL    HW129936   1.545   1.925  17.419 -0.1837 -2.3140  1.7847
 6158SOL    HW229937   1.420   1.861  17.424 -1.2118  1.7165 -1.6096
 6159SOL     OW29938   3.967   4.707   0.781 -0.2194  0.2170 -0.1940
 6159SOL    HW129939   3.936   4.707   0.690 -3.7758 -2.0257  1.0320
 6159SOL    HW229940   3.983   0.073   0.797 -0.2061  0.8073 -3.6447
 6160SOL     OW29941   1.126   2.602   6.971 -0.4777 -0.0350 -0.4117
 6160SOL    HW129942   1.164   2.568   7.053 -0.9153  0.1747 -0.1270
 6160SOL    HW229943   1.073   2.527   6.943  1.2029 -1.0045 -1.0600
 6161SOL     OW29944   3.560   0.635  10.964  0.4556 -0.9854  0.4030
 6161SOL    HW129945   3.513   0.667  10.888  1.1647  4.1626  2.1697
 6161SOL    HW229946   3.632   0.697  10.966 -0.2086 -0.2043 -0.4243
 6162SOL     OW29947   1.239   2.465   7.187  0.8370  0.0623 -0.2253
 6162SOL    HW129948   1.284   2.402   7.242 -0.3014 -1.1179 -0.6314
 6162SOL    HW229949   1.321   2.503   7.156  1.4534 -0.7575  0.4114
 6163SOL     OW29950   2.323   1.446   1.979 -0.5832  0.0311  0.1291
 6163SOL    HW129951   2.247   1.401   1.943  0.2283  0.9904 -2.7396
 6163SOL    HW229952   2.365   1.484   1.902 -2.6679  0.0570 -1.0116
 6164SOL     OW29953   4.172   2.617  13.262 -0.5790 -0.1020  0.4534
 6164SOL    HW129954   4.174   2.558  13.187  2.8256  1.6890 -0.8981
 6164SOL    HW229955   4.239   2.674  13.226 -1.3618 -0.0614 -0.9149
 6165SOL     OW29956   0.653   4.293   8.457 -0.2935 -0.5922 -0.1369
 6165SOL    HW129957   0.691   4.280   8.370  3.6844  0.7345  1.3809
 6165SOL    HW229958   0.677   4.209   8.496  0.9795 -0.6284 -1.0009
 6166SOL     OW29959   4.517   3.446   1.640 -0.2257  0.6910  0.0530
 6166SOL    HW129960   4.537   3.501   1.564 -0.1889 -0.4750 -0.7818
 6166SOL    HW229961   4.579   3.373   1.630 -1.8995 -0.4869 -1.6656
 6167SOL     OW29962   2.162   2.222  10.428 -0.4352  0.7067  0.2010
 6167SOL    HW129963   2.184   2.302  10.476  0.8560  0.5370 -0.0844
 6167SOL    HW229964   2.251   2.210  10.393 -0.1994  2.7095  0.1231
 6168SOL     OW29965   2.651   1.636   8.116  0.0486  0.2161  0.1607
 6168SOL    HW129966   2.709   1.635   8.192  1.1799 -3.1571 -0.7273
 6168SOL    HW229967   2.711   1.604   8.049 -0.0646  0.8195 -0.2278
 6169SOL     OW29968   3.104   0.959   6.208  0.2435  0.2194  0.0551
 6169SOL    HW129969   3.062   1.026   6.262 -0.5076  0.7429 -1.1772
 6169SOL    HW229970   3.121   1.020   6.136  0.2370  1.8890  1.4801
 6170SOL     OW29971   3.371   2.922   7.868 -0.3037  0.1877  0.2113
 6170SOL    HW129972   3.401   3.007   7.834 -0.6754 -0.0914 -0.8036
 6170SOL    HW229973   3.321   2.884   7.797  0.2728  1.3474 -0.8114
 6171SOL     OW29974   2.016   2.366  15.718 -0.0131 -0.6563 -1.0403
 6171SOL    HW129975   2.010   2.441  15.660  0.3615  1.6104  1.8621
 6171SOL    HW229976   2.103   2.332  15.700  0.2506  0.2351 -1.4285
 6172SOL     OW29977   3.005   1.592   6.887 -0.2247  0.0632 -0.2618
 6172SOL    HW129978   3.010   1.590   6.982  1.7965  0.5880 -0.3703
 6172SOL    HW229979   3.090   1.557   6.861 -0.7840 -0.5707 -1.3054
 6173SOL     OW29980   1.554   2.591   5.910 -0.1759 -0.3886 -0.3820
 6173SOL    HW129981   1.636   2.566   5.867  0.4288  0.5673  0.2191
 6173SOL    HW229982   1.571   2.684   5.921 -2.6256  0.3778 -3.1596
 6174SOL     OW29983   1.809   3.558   2.074 -0.5341  0.5942 -0.0406
 6174SOL    HW129984   1.765   3.483   2.113  0.2291  1.4407  2.4484
 6174SOL    HW229985   1.899   3.554   2.105 -1.1190 -1.4844  1.3349
 6175SOL     OW29986   3.087   0.566   5.224  0.3401 -0.1187  0.2896
 6175SOL    HW129987   3.144   0.490   5.229 -0.0408 -0.6125 -2.9801
 6175SOL    HW229988   3.010   0.519   5.258  1.2936  0.3715  3.1170
 6176SOL     OW29989   4.129   0.781  12.445  0.2038  0.2226 -0.1095
 6176SOL    HW129990   4.081   0.844  12.500  1.8621  2.2527 -0.9607
 6176SOL    HW229991   4.164   0.727  12.516 -0.2851 -1.3030 -1.0494
 6177SOL     OW29992   3.855   4.510   6.838 -0.1732 -0.2132  0.0562
 6177SOL    HW129993   3.764   4.537   6.828  0.7389  1.7738 -2.9806
 6177SOL    HW229994   3.905   4.576   6.885  1.3213  0.7736 -2.9039
 6178SOL     OW29995   0.091   1.368   7.874  0.2444  0.1602  0.6372
 6178SOL    HW129996   0.160   1.328   7.925  0.9146 -0.0950 -0.4642
 6178SOL    HW229997   0.143   1.430   7.824  0.7215  1.8113  3.1975
 6179SOL     OW29998   0.408   3.442  12.035 -0.0033 -0.2496  0.1256
 6179SOL    HW129999   0.314   3.434  12.024 -0.0324  0.5920 -0.2066
 6179SOL    HW230000   0.437   3.400  11.953  1.6634 -0.3486  0.7606
 6180SOL     OW30001   1.143   4.422   3.293  0.7167  0.3502 -0.5093
 6180SOL    HW130002   1.080   4.358   3.325  1.3327 -0.3296 -0.6742
 6180SOL    HW230003   1.133   4.485   3.365 -0.7154 -0.9020  0.3692
 6181SOL     OW30004   0.908   3.079   8.896  0.1579  0.2646 -0.4102
 6181SOL    HW130005   1.002   3.101   8.901  0.2357  0.1366 -1.3752
 6181SOL    HW230006   0.914   2.998   8.946  0.8686  1.2608  1.1326
 6182SOL     OW30007   0.398   2.358  17.651  0.1789  0.0575  0.5034
 6182SOL    HW130008   0.326   2.303  17.682  0.1323  0.0882  0.4497
 6182SOL    HW230009   0.448   2.368   0.022  1.4706  0.6249 -0.3611
 6183SOL     OW30010   1.112   3.218  10.030 -0.1637 -0.7293 -0.1576
 6183SOL    HW130011   1.059   3.242   9.954  1.8513  1.9305 -0.7152
 6183SOL    HW230012   1.073   3.280  10.092  0.1356  0.2864 -0.9778
 6184SOL     OW30013   3.531   2.418   1.078 -0.0398 -0.7607 -0.3460
 6184SOL    HW130014   3.455   2.477   1.074  1.0552  0.8390  2.2123
 6184SOL    HW230015   3.531   2.377   0.991  0.1416 -1.6205  0.0584
 6185SOL     OW30016   3.634   0.360   2.350  0.0080  0.6430 -0.5413
 6185SOL    HW130017   3.571   0.391   2.414 -0.3007 -0.2408 -0.4184
 6185SOL    HW230018   3.714   0.358   2.403 -1.7072 -1.7888  1.9535
 6186SOL     OW30019   4.321   0.556   1.517  0.1928  0.6966  0.4905
 6186SOL    HW130020   4.254   0.625   1.524 -3.3135 -2.8050  1.2211
 6186SOL    HW230021   4.303   0.527   1.428 -0.3166 -0.1177  0.8629
 6187SOL     OW30022   0.530   2.296   0.187 -0.0819  0.4682  0.5085
 6187SOL    HW130023   0.490   2.360   0.245 -0.0537 -0.5739  1.6835
 6187SOL    HW230024   0.624   2.305   0.206 -0.2007  2.3254  0.2160
 6188SOL     OW30025   1.106   4.225   7.147 -0.0288 -0.2490 -0.2120
 6188SOL    HW130026   1.089   4.303   7.201  0.8817 -1.4055  1.7542
 6188SOL    HW230027   1.020   4.183   7.156 -0.0830 -0.1901 -0.4639
 6189SOL     OW30028   0.354   1.022   2.139 -0.0312  1.0392  0.3517
 6189SOL    HW130029   0.366   0.955   2.207 -0.4235  0.0320 -0.5823
 6189SOL    HW230030   0.292   0.990   2.074 -0.2875  0.9384  0.6422
 6190SOL     OW30031   2.289   3.934   6.261 -0.3748 -0.0602 -0.6582
 6190SOL    HW130032   2.288   3.998   6.332  0.1891 -0.0865 -0.6191
 6190SOL    HW230033   2.215   3.961   6.207 -0.0377  0.0784 -1.0529
 6191SOL     OW30034   3.719   1.736  15.427 -0.7934  0.0864 -0.7495
 6191SOL    HW130035   3.796   1.789  15.404 -0.4810 -0.2528 -0.4944
 6191SOL    HW230036   3.673   1.720  15.344  0.1294  2.1127 -1.6612
 6192SOL     OW30037   2.883   3.462   0.984 -0.5712  0.5175  0.0478
 6192SOL    HW130038   2.945   3.481   0.914 -2.0580 -0.0324 -1.4260
 6192SOL    HW230039   2.854   3.551   1.005 -0.4640  0.5825 -0.0773
 6193SOL     OW30040   0.884   4.505   1.566  0.3506  0.3314 -0.1611
 6193SOL    HW130041   0.906   4.578   1.624 -0.6072 -0.2114  0.8917
 6193SOL    HW230042   0.882   4.550   1.481 -0.6806  1.8740  0.6769
 6194SOL     OW30043   1.450   0.419   3.253 -0.5850 -0.2471  0.1797
 6194SOL    HW130044   1.356   0.437   3.246 -0.6532 -0.8792 -0.6503
 6194SOL    HW230045   1.449   0.412   3.348 -0.4736  0.4182  0.2305
 6195SOL     OW30046   1.883   3.825   0.632  0.4596  0.6097 -0.1144
 6195SOL    HW130047   1.899   3.791   0.720 -1.0190 -1.1615 -0.5332
 6195SOL    HW230048   1.963   3.795   0.591  0.6490  2.1375 -0.8617
 6196SOL     OW30049   3.755   2.906   2.668 -0.0930  0.0531  0.5257
 6196SOL    HW130050   3.691   2.875   2.603  1.1387 -0.2987 -0.5266
 6196SOL    HW230051   3.695   2.943   2.733 -1.4212 -0.1592 -0.5618
 6197SOL     OW30052   1.959   1.132  17.444  0.1914  0.3204  0.0316
 6197SOL    HW130053   1.911   1.092  17.517 -1.9746  1.5094 -0.7478
 6197SOL    HW230054   1.886   1.168  17.395 -0.2296 -1.0973 -0.3791
 6198SOL     OW30055   3.572   4.415  10.079  0.1800  0.2454  0.0222
 6198SOL    HW130056   3.651   4.383  10.035  1.0237 -0.2798  1.8989
 6198SOL    HW230057   3.607   4.441  10.164  1.4448 -0.0074 -0.4163
 6199SOL     OW30058   3.823   2.596   6.211 -0.0139  0.1331  0.0095
 6199SOL    HW130059   3.905   2.560   6.245  0.2623 -0.3131 -1.0987
 6199SOL    HW230060   3.855   2.650   6.138 -0.2112 -1.2853 -1.1318
 6200SOL     OW30061   0.374   0.115  13.743 -0.1387 -0.5664  0.6131
 6200SOL    HW130062   0.384   0.129  13.649  0.6221  2.4653  1.1362
 6200SOL    HW230063   0.292   0.162  13.758 -0.9961 -0.8015 -3.2819
 6201SOL     OW30064   0.474   0.468   3.790 -0.2906  0.0368  1.1901
 6201SOL    HW130065   0.501   0.376   3.791  0.1435  0.1302 -1.0252
 6201SOL    HW230066   0.551   0.525   3.796  0.8416 -1.5422  1.5687
 6202SOL     OW30067   3.393   1.193   0.192  0.2121 -0.5108  0.2347
 6202SOL    HW130068   3.330   1.154   0.253  0.2794  0.4595  0.9335
 6202SOL    HW230069   3.420   1.277   0.229 -3.1935  1.2614 -1.2666
 6203SOL     OW30070   2.105   2.220   0.825  0.0310  0.0498 -0.0673
 6203SOL    HW130071   2.117   2.212   0.920 -3.2372 -0.6760  0.2914
 6203SOL    HW230072   2.047   2.144   0.819  0.3722 -0.2891  0.8906
 6204SOL     OW30073   0.098   0.773  15.219  0.0709  0.1896  0.3422
 6204SOL    HW130074   0.145   0.694  15.246 -2.1450 -1.2988 -0.1457
 6204SOL    HW230075   0.144   0.795  15.138 -1.0064 -0.2051 -0.3947
 6205SOL     OW30076   2.937   0.130  10.198 -0.0687  0.1190 -0.2985
 6205SOL    HW130077   2.917   0.217  10.162 -0.1787  1.0979  2.0813
 6205SOL    HW230078   2.861   0.104  10.249 -1.5045  2.7820 -1.0881
 6206SOL     OW30079   3.563   2.932   6.257  0.7606  0.5573 -0.0960
 6206SOL    HW130080   3.609   3.013   6.279  0.3535  1.3068 -2.0580
 6206SOL    HW230081   3.595   2.867   6.320 -1.0225  0.3427  0.5878
 6207SOL     OW30082   1.862   1.033   8.807 -0.0646  0.0163 -0.5528
 6207SOL    HW130083   1.803   1.029   8.731  0.2825  1.2584 -0.8955
 6207SOL    HW230084   1.795   1.049   8.873 -0.9016 -0.3121 -1.3207
 6208SOL     OW30085   3.744   0.479   7.606  0.0823 -0.1989  0.1297
 6208SOL    HW130086   3.716   0.571   7.605  1.7583  0.3142 -1.2733
 6208SOL    HW230087   3.811   0.484   7.675 -0.9651 -0.4290  1.1559
 6209SOL     OW30088   3.262   4.602  16.569 -0.9311  0.0520  0.0938
 6209SOL    HW130089   3.306   4.684  16.591  1.3855 -0.6234 -2.0139
 6209SOL    HW230090   3.327   4.564  16.510 -0.8338  0.1128  0.1624
 6210SOL     OW30091   2.683   2.954   4.345 -0.1513 -0.3176  0.0570
 6210SOL    HW130092   2.607   2.962   4.403 -0.6131 -2.0957 -0.2767
 6210SOL    HW230093   2.643   2.961   4.258  2.3594 -1.2758 -1.1873
 6211SOL     OW30094   0.573   2.991   2.388  0.2419  0.2831 -0.0157
 6211SOL    HW130095   0.624   2.989   2.307 -0.0540 -1.2082 -0.1583
 6211SOL    HW230096   0.614   2.921   2.438  0.9834  2.5423  2.5268
 6212SOL     OW30097   0.039   0.433  14.110  0.2598  0.4822  0.0253
 6212SOL    HW130098   0.112   0.464  14.056 -1.1579 -1.0126 -2.7561
 6212SOL    HW230099   0.019   0.348  14.072  0.6407 -0.8001  2.7383
 6213SOL     OW30100   3.523   4.710   3.189 -0.2253 -0.1116  0.9140
 6213SOL    HW130101   3.433   0.005   3.169  0.1512 -1.7303 -2.4908
 6213SOL    HW230102   3.573   0.036   3.127  0.3686 -1.5247  0.1741
 6214SOL     OW30103   3.486   3.146   7.796 -0.3242 -0.4671 -0.2919
 6214SOL    HW130104   3.560   3.183   7.748 -0.7347 -0.1007 -0.6340
 6214SOL    HW230105   3.402   3.177   7.763  1.1569  1.0838 -2.5390
 6215SOL     OW30106   2.904   1.057   6.431  0.4133  0.3772  0.2870
 6215SOL    HW130107   2.929   0.966   6.442  0.5049  0.2472 -1.0691
 6215SOL    HW230108   2.845   1.070   6.505 -1.0940  0.0416 -0.8598
 6216SOL     OW30109   3.289   4.354   4.475 -0.2646 -0.6492  0.1087
 6216SOL    HW130110   3.242   4.398   4.405  1.9458 -0.2634 -1.1208
 6216SOL    HW230111   3.326   4.279   4.427  1.2033  0.5718 -0.6496
 6217SOL     OW30112   4.060   1.238   2.473  0.0566  0.1848  0.6379
 6217SOL    HW130113   3.968   1.264   2.478 -0.9431 -2.7689 -2.8553
 6217SOL    HW230114   4.060   1.144   2.458  2.7748 -0.0616  2.0777
 6218SOL     OW30115   0.734   1.704  11.838 -0.4205 -0.3763  0.1237
 6218SOL    HW130116   0.781   1.783  11.813 -0.0088 -1.1656 -1.6212
 6218SOL    HW230117   0.738   1.706  11.933  0.5641  1.3643  0.0367
 6219SOL     OW30118   3.575   0.072   7.806  0.2474  0.0596 -0.0253
 6219SOL    HW130119   3.535   0.093   7.721  0.7737 -1.6100 -0.6944
 6219SOL    HW230120   3.646   0.012   7.781  1.2150  2.0670 -2.0785
 6220SOL     OW30121   2.721   1.198   8.126 -0.0824 -0.2139  0.1360
 6220SOL    HW130122   2.665   1.190   8.049  0.0969 -0.1447 -0.0018
 6220SOL    HW230123   2.652   1.194   8.193 -0.4240  2.4194 -0.0512
 6221SOL     OW30124   3.203   2.588   8.394  0.1770 -0.1843 -0.5369
 6221SOL    HW130125   3.241   2.673   8.372 -1.0322  0.4133 -0.2792
 6221SOL    HW230126   3.270   2.549   8.451  1.8397  2.1409 -0.9119
 6222SOL     OW30127   4.652   4.494  10.000 -0.5109 -0.5535  0.1755
 6222SOL    HW130128   4.644   4.476   9.906  2.0848  0.0182 -0.1635
 6222SOL    HW230129   4.677   4.410  10.037  2.2401  0.5135  0.7515
 6223SOL     OW30130   2.578   2.643  14.393  0.5507  0.1126  0.0737
 6223SOL    HW130131   2.496   2.637  14.343 -0.1701 -1.1483  1.3974
 6223SOL    HW230132   2.557   2.662  14.484 -0.0678  1.1789 -0.2876
 6224SOL     OW30133   0.313   3.292  11.775  0.0796 -0.0732 -0.1617
 6224SOL    HW130134   0.365   3.364  11.739  1.7897 -1.0389  0.3644
 6224SOL    HW230135   0.232   3.285  11.726  1.5726  1.4212 -2.8155
 6225SOL     OW30136   3.504   2.096   9.392  0.1490 -0.6232 -0.3579
 6225SOL    HW130137   3.556   2.148   9.453  2.1980 -2.8656 -0.1761
 6225SOL    HW230138   3.565   2.093   9.318 -0.3739  1.4966 -0.8738
 6226SOL     OW30139   3.358   1.583  15.147  0.5146 -0.2208  0.3248
 6226SOL    HW130140   3.312   1.515  15.096 -1.5950  0.5945  1.1213
 6226SOL    HW230141   3.359   1.645  15.074 -1.0790  0.6031  0.9879
 6227SOL     OW30142   1.470   1.080  10.944 -0.7236 -0.3860 -0.1556
 6227SOL    HW130143   1.465   1.113  11.034 -0.6396 -0.5232 -0.1002
 6227SOL    HW230144   1.533   1.009  10.953 -1.9198 -1.2553  1.5668
 6228SOL     OW30145   2.380   0.633  11.049  0.1236  0.1616  0.4859
 6228SOL    HW130146   2.404   0.647  10.958 -1.5532  2.2398  0.3490
 6228SOL    HW230147   2.428   0.551  11.059  3.5010  2.1654  0.7021
 6229SOL     OW30148   0.095   1.283   4.494  0.9742 -0.1130  0.3351
 6229SOL    HW130149   0.057   1.309   4.410 -1.7514 -2.3997  0.8571
 6229SOL    HW230150   0.094   1.187   4.503 -1.3972  0.1034  2.4638
 6230SOL     OW30151   3.702   1.646   2.907  0.2161 -0.2158 -0.3112
 6230SOL    HW130152   3.720   1.668   2.816  2.6558 -1.4846 -0.1417
 6230SOL    HW230153   3.639   1.712   2.935 -2.6175 -2.0506 -2.3361
 6231SOL     OW30154   3.282   2.201   4.280 -0.3258  0.0792 -0.1089
 6231SOL    HW130155   3.249   2.197   4.369 -0.0782 -0.7136 -0.0575
 6231SOL    HW230156   3.244   2.122   4.242 -1.8409 -0.7872  3.2951
 6232SOL     OW30157   4.224   2.255   2.509  0.2221 -0.0303  0.3165
 6232SOL    HW130158   4.147   2.312   2.516 -1.9183 -3.0412  1.3367
 6232SOL    HW230159   4.217   2.226   2.418 -0.3836  1.5353 -0.1362
 6233SOL     OW30160   3.899   2.157   2.273  0.0982 -0.0635  0.2733
 6233SOL    HW130161   3.824   2.114   2.232 -1.2598  1.9028  0.7215
 6233SOL    HW230162   3.866   2.246   2.264 -1.3985 -0.8249 -1.7197
 6234SOL     OW30163   0.865   2.078   3.889 -0.2049  0.2183  0.3498
 6234SOL    HW130164   0.819   2.056   3.970 -1.4286  3.2970  0.4933
 6234SOL    HW230165   0.939   2.017   3.894 -1.5987 -1.3330  2.3408
 6235SOL     OW30166   3.468   2.627  15.319  0.2072 -0.1755 -0.4714
 6235SOL    HW130167   3.502   2.603  15.405  0.9212  0.9614 -0.4307
 6235SOL    HW230168   3.539   2.664  15.267  0.7451 -0.2057  0.2431
 6236SOL     OW30169   3.246   0.735   7.746  0.5708 -0.5019 -0.7752
 6236SOL    HW130170   3.251   0.675   7.672  2.3272 -2.2120  0.7416
 6236SOL    HW230171   3.225   0.671   7.814  0.9402  0.6481  0.4271
 6237SOL     OW30172   4.222   4.474  17.060 -0.4546  0.0240  0.3605
 6237SOL    HW130173   4.150   4.535  17.045  0.2293  1.4495  2.9177
 6237SOL    HW230174   4.264   4.476  16.974 -4.4798 -0.5895 -1.6354
 6238SOL     OW30175   2.253   2.038   5.470  0.1927 -0.1947  0.2499
 6238SOL    HW130176   2.279   2.105   5.407  1.8368  0.1650  1.3057
 6238SOL    HW230177   2.164   2.065   5.489 -0.7143 -2.3680 -0.8556
 6239SOL     OW30178   1.091   1.052   0.292  0.0111 -0.3340  0.0073
 6239SOL    HW130179   1.043   1.135   0.297  2.8974  1.4150 -1.8218
 6239SOL    HW230180   1.123   1.040   0.381  1.6699  0.6392 -0.4654
 6240SOL     OW30181   3.480   2.432   6.362  0.3791  0.7561 -0.4574
 6240SOL    HW130182   3.424   2.505   6.335 -0.8056  0.9863  2.7226
 6240SOL    HW230183   3.525   2.462   6.441  0.2579  2.5232 -1.0457
 6241SOL     OW30184   0.905   0.887   4.386 -0.6100  0.6984 -0.0483
 6241SOL    HW130185   0.870   0.800   4.404  2.0934 -0.8897 -2.3667
 6241SOL    HW230186   0.985   0.887   4.439 -0.1900 -0.8279 -0.6837
 6242SOL     OW30187   1.711   3.303  10.406  0.2210 -0.4736 -0.6060
 6242SOL    HW130188   1.807   3.303  10.405  0.2028  0.2504 -3.2140
 6242SOL    HW230189   1.686   3.338  10.320  2.0735 -2.2432 -1.8477
 6243SOL     OW30190   3.775   0.037  13.745 -0.1009 -0.1152  0.4700
 6243SOL    HW130191   3.733   0.103  13.691  0.9165 -0.1434 -0.3620
 6243SOL    HW230192   3.864   0.032  13.710 -0.0173  1.4347  0.4517
 6244SOL     OW30193   3.800   1.667   5.158 -0.2597  0.0716 -0.1924
 6244SOL    HW130194   3.833   1.578   5.169 -0.6638 -0.3169 -2.0546
 6244SOL    HW230195   3.720   1.652   5.107  1.3861  0.5407 -2.8789
 6245SOL     OW30196   3.688   3.490   6.514 -0.0573  0.5793  0.0484
 6245SOL    HW130197   3.682   3.513   6.421 -1.8173  0.7850  0.2098
 6245SOL    HW230198   3.747   3.561   6.536  1.2461 -1.1968  2.2346
 6246SOL     OW30199   3.522   0.460   1.991  0.3024  0.0648  0.1101
 6246SOL    HW130200   3.556   0.526   2.051 -0.4902 -0.1331  0.7837
 6246SOL    HW230201   3.581   0.386   2.010  1.2770  0.5715 -0.9393
 6247SOL     OW30202   3.745   3.091  10.530  0.1219 -0.0365 -0.0742
 6247SOL    HW130203   3.753   3.043  10.613 -1.2604  1.3150  0.8542
 6247SOL    HW230204   3.817   3.058  10.477 -0.2296  0.0383 -0.5899
 6248SOL     OW30205   1.408   4.121   3.557  0.3146  0.1414  0.1142
 6248SOL    HW130206   1.321   4.086   3.538  0.6287 -0.7838  0.3711
 6248SOL    HW230207   1.462   4.057   3.512  1.1589  2.1608 -1.7561
 6249SOL     OW30208   0.243   3.152   6.926 -0.7479  0.2497  0.2723
 6249SOL    HW130209   0.277   3.215   6.989  1.4008 -0.7262  0.0669
 6249SOL    HW230210   0.224   3.085   6.992  2.5522 -1.1154 -0.1731
 6250SOL     OW30211   4.340   2.720   5.943 -0.5845  0.4401  0.4484
 6250SOL    HW130212   4.377   2.808   5.952  0.5854  0.0213 -0.2150
 6250SOL    HW230213   4.264   2.727   5.886 -1.0234 -1.9082  0.7324
 6251SOL     OW30214   0.372   1.352  14.295  0.2344 -0.3246  0.3486
 6251SOL    HW130215   0.369   1.271  14.244 -0.2367 -0.4042  0.4969
 6251SOL    HW230216   0.305   1.331  14.361  0.6735 -0.4370  0.7585
 6252SOL     OW30217   2.638   2.008   6.505  0.3594 -0.2020  0.0898
 6252SOL    HW130218   2.589   2.019   6.423  1.7315  1.9197 -0.4248
 6252SOL    HW230219   2.603   1.922   6.528  0.5433 -0.6205 -1.1897
 6253SOL     OW30220   2.415   4.213   5.939  0.1099  0.2577 -0.1298
 6253SOL    HW130221   2.477   4.286   5.936 -1.4398  1.6085  1.0130
 6253SOL    HW230222   2.340   4.267   5.963 -3.0027 -2.6831 -3.4301
 6254SOL     OW30223   3.335   2.864   5.753  0.3158  0.0894  0.1727
 6254SOL    HW130224   3.317   2.941   5.807  0.4264  0.4321 -0.2749
 6254SOL    HW230225   3.250   2.826   5.774  0.1612 -0.2450 -1.0682
 6255SOL     OW30226   4.167   1.788   4.449  0.4622  0.2785  0.5649
 6255SOL    HW130227   4.224   1.743   4.512 -1.6622 -0.3349  2.0906
 6255SOL    HW230228   4.219   1.780   4.370  0.3899  0.6684  0.4819
 6256SOL     OW30229   1.177   4.259   8.889 -0.3351  0.4508 -0.0824
 6256SOL    HW130230   1.173   4.354   8.902  0.7068  0.4453  0.3067
 6256SOL    HW230231   1.271   4.242   8.892 -0.3208  0.1868 -2.3924
 6257SOL     OW30232   1.169   2.120  10.894  0.2044  0.2548 -0.1394
 6257SOL    HW130233   1.108   2.138  10.966  1.3953  2.1852  0.3893
 6257SOL    HW230234   1.223   2.199  10.888 -0.0629  0.2375 -2.8750
 6258SOL     OW30235   0.089   4.307  11.972  0.1698 -0.3601  0.5792
 6258SOL    HW130236   0.063   4.293  12.063 -0.4932  1.4347  0.6745
 6258SOL    HW230237   0.182   4.324  11.988  0.3772 -0.3673 -0.6160
 6259SOL     OW30238   1.297   0.498   6.877 -0.1604  0.9053 -0.7492
 6259SOL    HW130239   1.290   0.491   6.782 -3.9486 -0.1377 -0.4211
 6259SOL    HW230240   1.372   0.557   6.878 -0.8951  1.8245 -0.2733
 6260SOL     OW30241   1.366   2.827   3.273  0.1334  0.2116 -0.8151
 6260SOL    HW130242   1.461   2.826   3.261  0.3855  0.5417  1.0913
 6260SOL    HW230243   1.330   2.874   3.198 -1.8029 -2.2364 -1.4304
 6261SOL     OW30244   4.651   4.013   7.133  0.9971  0.0791  0.2958
 6261SOL    HW130245   4.712   3.955   7.178  0.7833 -1.0439 -0.8736
 6261SOL    HW230246   4.668   4.087   7.192  2.7728 -1.8582  2.2630
 6262SOL     OW30247   2.531   1.229   2.048  0.3319 -0.1325  0.4955
 6262SOL    HW130248   2.484   1.147   2.061  0.2439 -0.0062  0.9906
 6262SOL    HW230249   2.459   1.283   2.015 -1.3786 -1.5225  1.9539
 6263SOL     OW30250   0.691   3.435   8.625  0.3059  0.3391 -0.3962
 6263SOL    HW130251   0.755   3.507   8.629 -1.9387  2.1498  2.9950
 6263SOL    HW230252   0.732   3.366   8.573 -1.1101  0.0335 -1.1163
 6264SOL     OW30253   2.179   4.617   4.513 -0.2104 -0.4822 -0.7303
 6264SOL    HW130254   2.085   4.629   4.504  0.0180 -0.0294 -2.6857
 6264SOL    HW230255   2.192   4.534   4.559 -0.2366  0.5872  1.1856
 6265SOL     OW30256   3.043   4.389   0.001 -0.5289 -0.1247 -0.2525
 6265SOL    HW130257   2.963   4.340  17.692 -0.6906  0.6302 -1.6212
 6265SOL    HW230258   3.051   4.388   0.096 -3.3509 -0.2347 -0.0110
 6266SOL     OW30259   2.340   1.327   5.178  0.0450  0.1440  0.3090
 6266SOL    HW130260   2.308   1.410   5.214  0.5297 -0.3968  1.9914
 6266SOL    HW230261   2.264   1.294   5.129 -1.2137  1.4224  1.4197
 6267SOL     OW30262   0.673   4.494   3.523 -0.5212  0.1138  0.2533
 6267SOL    HW130263   0.614   4.568   3.540 -0.5880 -0.1708  1.3013
 6267SOL    HW230264   0.730   4.502   3.600  1.6826 -0.5789 -1.3049
 6268SOL     OW30265   3.075   1.737   5.910  0.1180 -0.6885 -0.3773
 6268SOL    HW130266   3.138   1.754   5.840 -0.0989 -0.1454 -0.4404
 6268SOL    HW230267   2.993   1.738   5.860  0.4862  0.3967 -0.9556
 6269SOL     OW30268   2.264   3.428   6.691  0.1317  0.2827  0.2549
 6269SOL    HW130269   2.198   3.493   6.669  0.0138 -0.7994 -2.6199
 6269SOL    HW230270   2.212   3.373   6.749  0.0720  0.4076  0.3178
 6270SOL     OW30271   2.051   4.483  14.774  0.0154 -0.0686 -0.0539
 6270SOL    HW130272   2.082   4.452  14.859 -1.6426  0.9270  0.8889
 6270SOL    HW230273   2.085   4.572  14.781  2.3422 -0.9983  0.4279
 6271SOL     OW30274   2.435   3.236   5.612  0.3458 -0.0916  0.0067
 6271SOL    HW130275   2.373   3.309   5.619 -1.4545 -1.5540 -0.6819
 6271SOL    HW230276   2.515   3.264   5.656  0.5015 -0.8074  0.1808
 6272SOL     OW30277   0.119   0.913   7.830 -0.2862 -0.4960  0.2562
 6272SOL    HW130278   0.144   0.928   7.921 -0.1744 -0.6682  0.2526
 6272SOL    HW230279   0.071   0.831   7.828 -0.4471 -0.4254  1.4083
 6273SOL     OW30280   3.836   2.721  12.461 -0.2557  0.1879 -0.2612
 6273SOL    HW130281   3.857   2.760  12.546 -1.3258 -0.2735  0.2205
 6273SOL    HW230282   3.835   2.801  12.407  1.1805  0.2662 -0.1567
 6274SOL     OW30283   3.775   1.879   0.571 -0.1392 -0.1668 -0.2112
 6274SOL    HW130284   3.774   1.899   0.665 -1.3425  0.8724 -0.4318
 6274SOL    HW230285   3.681   1.894   0.559 -0.6228 -1.8070  1.4175
 6275SOL     OW30286   2.741   0.822   1.621  0.1721 -0.7040  0.1180
 6275SOL    HW130287   2.836   0.817   1.636  0.3213 -0.1056 -0.6278
 6275SOL    HW230288   2.709   0.736   1.650  3.3062 -2.4095 -1.4613
 6276SOL     OW30289   1.916   0.295   4.207 -0.2089  0.4068 -0.3747
 6276SOL    HW130290   1.971   0.370   4.185 -1.4329  1.4140 -0.0133
 6276SOL    HW230291   1.872   0.333   4.283  1.6110  1.5030  0.1277
 6277SOL     OW30292   4.392   0.405   7.650 -0.3728  0.1926  0.6068
 6277SOL    HW130293   4.409   0.356   7.730  1.7468 -1.6099 -0.9429
 6277SOL    HW230294   4.327   0.473   7.670 -1.2202 -0.6675  0.7891
 6278SOL     OW30295   2.325   1.042   5.668 -0.8067  0.4786 -0.2208
 6278SOL    HW130296   2.348   0.954   5.697  0.9584  1.3077  0.8627
 6278SOL    HW230297   2.268   1.027   5.592 -2.3787  0.7457  0.8905
 6279SOL     OW30298   4.108   0.598   6.672 -0.5205  0.2266  0.0461
 6279SOL    HW130299   4.184   0.555   6.634 -2.6958 -3.3887 -0.2698
 6279SOL    HW230300   4.142   0.676   6.716 -0.7116 -1.2178  2.7475
 6280SOL     OW30301   1.525   2.215   4.924 -0.1513  0.4561 -0.0442
 6280SOL    HW130302   1.575   2.200   4.844  0.3467  1.0219  0.1621
 6280SOL    HW230303   1.590   2.269   4.969 -0.6502  1.1341 -0.1388
 6281SOL     OW30304   2.645   3.949   8.590 -0.0436  0.7605  0.3004
 6281SOL    HW130305   2.612   3.913   8.507  3.0919 -1.2300 -0.1180
 6281SOL    HW230306   2.701   4.021   8.561  0.4298  0.7090  1.1007
 6282SOL     OW30307   2.279   2.421  10.585 -0.0687 -0.1289  0.4861
 6282SOL    HW130308   2.266   2.427  10.680 -0.0211 -3.3221  0.7064
 6282SOL    HW230309   2.371   2.396  10.585 -0.4115 -1.4383 -1.7406
 6283SOL     OW30310   4.368   2.624   5.221  0.1676 -0.6914  0.5202
 6283SOL    HW130311   4.347   2.684   5.150  2.4574  0.8664  1.1456
 6283SOL    HW230312   4.441   2.668   5.265  2.2822 -1.3119 -2.4195
 6284SOL     OW30313   4.318   4.152   3.727  0.4056  0.0945  0.3334
 6284SOL    HW130314   4.279   4.089   3.787  2.4054  0.0324  1.5930
 6284SOL    HW230315   4.409   4.137   3.755  0.6397  2.6848  0.9814
 6285SOL     OW30316   0.774   4.615  13.004  0.0633 -0.0072 -0.0850
 6285SOL    HW130317   0.762   4.696  13.054 -0.0539 -0.8728  1.2903
 6285SOL    HW230318   0.839   4.635  12.937 -1.4775  1.8359 -1.0392
 6286SOL     OW30319   3.084   3.412  11.313 -0.1534 -0.5518 -0.0928
 6286SOL    HW130320   3.178   3.427  11.321 -0.0228 -1.6642  0.5410
 6286SOL    HW230321   3.044   3.498  11.323 -2.9813 -1.7185 -1.5848
 6287SOL     OW30322   1.459   4.137  13.263  0.1495 -0.3278 -0.1694
 6287SOL    HW130323   1.466   4.146  13.358  0.3883  2.2347 -0.4271
 6287SOL    HW230324   1.365   4.120  13.257  0.3458 -2.0780  1.6422
 6288SOL     OW30325   3.059   0.376   8.631 -0.0855  0.5260 -0.4331
 6288SOL    HW130326   3.053   0.440   8.561 -1.8430 -0.0895 -0.8425
 6288SOL    HW230327   3.070   0.299   8.575 -0.5759  0.9236 -1.0793
 6289SOL     OW30328   4.240   3.297   6.884 -0.2706  0.0098 -0.0394
 6289SOL    HW130329   4.308   3.236   6.857  0.7406  0.5833  1.2103
 6289SOL    HW230330   4.290   3.378   6.875 -0.9308  0.5723  1.3389
 6290SOL     OW30331   2.346   4.726   5.795 -0.3298  0.0080  0.5630
 6290SOL    HW130332   2.436   0.020   5.820  0.0668 -1.1969  0.1858
 6290SOL    HW230333   2.295   0.041   5.864  0.1925 -0.4995  1.2596
 6291SOL     OW30334   1.836   0.149   0.823 -0.5318 -0.6530 -0.3271
 6291SOL    HW130335   1.915   0.202   0.828  0.9181 -3.0307  1.5821
 6291SOL    HW230336   1.874   0.067   0.854 -3.0775 -1.4557  0.6538
 6292SOL     OW30337   2.120   0.638  11.159  0.7758 -0.1122  0.6582
 6292SOL    HW130338   2.210   0.641  11.128  0.7151 -0.2415  0.4683
 6292SOL    HW230339   2.078   0.635  11.073 -3.0061  1.7589  2.4447
 6293SOL     OW30340   1.334   4.619  11.582  0.7352  0.0368 -0.3948
 6293SOL    HW130341   1.427   4.620  11.562  0.6268  1.0734 -0.8655
 6293SOL    HW230342   1.296   4.620  11.494  0.5194  1.2384 -0.2900
 6294SOL     OW30343   1.154   1.569   2.831  0.1610  0.4279  0.1373
 6294SOL    HW130344   1.209   1.647   2.836 -1.4729  1.7530 -2.8499
 6294SOL    HW230345   1.205   1.495   2.800  0.2845  0.3455  0.5333
 6295SOL     OW30346   2.507   3.976   3.120  0.5336  0.3261  0.3497
 6295SOL    HW130347   2.482   4.053   3.171 -2.4923 -0.5349  0.1822
 6295SOL    HW230348   2.416   3.961   3.094  1.5049 -0.0287 -2.8046
 6296SOL     OW30349   4.313   2.237   6.128  0.0594 -0.0600 -0.7450
 6296SOL    HW130350   4.229   2.256   6.170  0.1832 -0.0013 -0.5238
 6296SOL    HW230351   4.311   2.296   6.052 -0.8893 -0.7150 -1.2302
 6297SOL     OW30352   0.470   3.126   9.066  0.0991  0.2370  0.0017
 6297SOL    HW130353   0.473   3.222   9.068 -4.9879  0.3582  0.4353
 6297SOL    HW230354   0.520   3.107   8.986 -0.1511 -0.7232  0.0861
 6298SOL     OW30355   2.607   1.746   6.293  0.3498  0.7991  0.1625
 6298SOL    HW130356   2.681   1.687   6.283  0.4277  0.5358  2.2395
 6298SOL    HW230357   2.588   1.790   6.210 -1.0263  0.0294  0.0674
 6299SOL     OW30358   2.611   1.522  11.103  0.3534  0.2815 -0.5695
 6299SOL    HW130359   2.690   1.490  11.146  0.3965  2.2296  0.8087
 6299SOL    HW230360   2.636   1.612  11.080  0.4383  0.0277 -1.4651
 6300SOL     OW30361   1.066   3.124   1.810  0.2558 -0.0851 -0.2509
 6300SOL    HW130362   1.092   3.154   1.723 -1.2591  1.5589 -0.1492
 6300SOL    HW230363   0.997   3.060   1.791  2.8704 -2.8622 -0.4997
 6301SOL     OW30364   2.859   2.080   2.973 -0.4490  0.1727  0.0644
 6301SOL    HW130365   2.819   2.011   3.025  0.5216 -1.1188 -0.9029
 6301SOL    HW230366   2.948   2.047   2.968 -0.8062 -0.6721 -0.6838
 6302SOL     OW30367   4.695   3.207   9.847 -0.4819 -0.4011 -0.0408
 6302SOL    HW130368   4.649   3.236   9.926 -0.2949 -0.0548 -0.0552
 6302SOL    HW230369   0.056   3.245   9.855 -1.5628  2.2221 -0.4845
 6303SOL     OW30370   2.847   0.875   0.261 -0.3425  1.1414 -0.1551
 6303SOL    HW130371   2.810   0.889   0.348 -0.2131  0.0020  0.0894
 6303SOL    HW230372   2.883   0.787   0.270 -0.7015  0.7847 -2.1622
 6304SOL     OW30373   3.979   0.150  10.525 -0.0699  0.0332  0.5847
 6304SOL    HW130374   3.924   0.227  10.510  1.3978  0.7089 -1.2869
 6304SOL    HW230375   4.060   0.189  10.558 -0.2049 -0.7954  1.8735
 6305SOL     OW30376   2.208   4.267  15.305 -0.5524 -0.7330 -0.0739
 6305SOL    HW130377   2.181   4.213  15.231 -1.2099 -0.0401 -0.3281
 6305SOL    HW230378   2.303   4.262  15.299 -0.6089  0.0536 -1.4975
 6306SOL     OW30379   4.432   4.238  16.707  0.4597  0.8819 -0.2529
 6306SOL    HW130380   4.470   4.314  16.663 -0.9469  0.7115 -1.7715
 6306SOL    HW230381   4.400   4.285  16.784 -3.9932 -2.9682  0.2631
 6307SOL     OW30382   2.382   4.078  11.457  0.0741  0.5419  0.6530
 6307SOL    HW130383   2.291   4.101  11.475  0.1442  0.1476  1.5290
 6307SOL    HW230384   2.375   3.987  11.484  0.0999  0.2574 -0.3092
 6308SOL     OW30385   3.409   0.752   9.299 -0.0477 -0.3880 -0.5570
 6308SOL    HW130386   3.413   0.659   9.322  0.3070 -0.2349 -0.0033
 6308SOL    HW230387   3.493   0.784   9.332 -0.1175  1.4768 -2.1824
 6309SOL     OW30388   4.287   1.206   6.741  0.3206  0.5466  0.5024
 6309SOL    HW130389   4.310   1.288   6.697  0.2992 -0.3169 -1.1205
 6309SOL    HW230390   4.202   1.176   6.708  1.9856  0.6845 -3.8551
 6310SOL     OW30391   3.654   0.551   5.483 -0.2122  0.0000  0.0945
 6310SOL    HW130392   3.645   0.614   5.555 -0.6027 -2.2057  1.9832
 6310SOL    HW230393   3.749   0.539   5.481 -0.3054 -0.4474 -1.8197
 6311SOL     OW30394   1.893   0.384  11.060  0.0913  0.1353 -0.3231
 6311SOL    HW130395   1.847   0.301  11.048 -0.0820  0.5943 -3.0097
 6311SOL    HW230396   1.872   0.430  10.979  0.7977  1.6622  0.3674
 6312SOL     OW30397   2.321   1.834  14.011  0.8605  0.6047  0.0735
 6312SOL    HW130398   2.370   1.811  14.091  1.4839 -0.3800 -0.5961
 6312SOL    HW230399   2.304   1.744  13.986 -1.4674  0.9236  0.5772
 6313SOL     OW30400   4.511   0.333   2.624 -0.5911 -0.1701 -0.4157
 6313SOL    HW130401   4.439   0.373   2.577 -0.4205  0.5298 -0.0870
 6313SOL    HW230402   4.472   0.245   2.626 -1.6605  0.3760  2.3765
 6314SOL     OW30403   0.693   1.246  14.454 -0.3963  0.0851 -0.1729
 6314SOL    HW130404   0.608   1.272  14.489  0.1495 -0.8787  1.9060
 6314SOL    HW230405   0.685   1.151  14.447 -1.6577  0.3326 -2.0238
 6315SOL     OW30406   0.190   0.274  15.017 -0.2609  0.6580  0.2402
 6315SOL    HW130407   0.140   0.324  14.952 -0.5547 -0.8143 -0.6796
 6315SOL    HW230408   0.272   0.322  15.026 -1.1867  1.7569  2.8054
 6316SOL     OW30409   4.140   0.107  14.751 -0.3517  0.2057 -0.2873
 6316SOL    HW130410   4.197   0.177  14.783 -0.5391 -0.3754  1.3037
 6316SOL    HW230411   4.135   0.138  14.660 -0.7705  0.7527 -0.0837
 6317SOL     OW30412   3.704   1.658  15.149  0.3083 -0.4093 -0.0222
 6317SOL    HW130413   3.630   1.685  15.094  0.8333 -0.8537 -0.9474
 6317SOL    HW230414   3.768   1.699  15.090 -1.6886  3.7592  0.6645
 6318SOL     OW30415   1.651   0.810   3.819 -0.1744  0.0145 -0.3903
 6318SOL    HW130416   1.621   0.719   3.812  0.9685 -0.3177 -0.8348
 6318SOL    HW230417   1.679   0.802   3.910 -0.6920 -0.3420 -0.2601
 6319SOL     OW30418   1.673   2.812   3.769  0.0144 -0.0985 -0.2773
 6319SOL    HW130419   1.729   2.887   3.790  0.8629 -1.2865  1.7454
 6319SOL    HW230420   1.592   2.859   3.750 -0.3472 -0.7346 -0.3090
 6320SOL     OW30421   2.122   2.419   8.243  0.2810  0.0410 -0.3708
 6320SOL    HW130422   2.129   2.335   8.288 -2.7619 -0.6822 -1.2509
 6320SOL    HW230423   2.216   2.433   8.233  0.4762 -1.0441  0.0187
 6321SOL     OW30424   0.748   3.021   7.033  0.1224  0.2178 -0.3874
 6321SOL    HW130425   0.668   2.968   7.029  0.6333 -0.5463 -0.4654
 6321SOL    HW230426   0.797   2.994   6.955  3.1696  1.3555  1.1252
 6322SOL     OW30427   1.274   0.355   6.215 -0.1012 -0.3322  0.1137
 6322SOL    HW130428   1.242   0.286   6.272 -1.7189  0.8874  0.6999
 6322SOL    HW230429   1.218   0.347   6.137 -0.3604 -1.7641  0.4587
 6323SOL     OW30430   4.541   2.886   9.143 -0.1429  0.4970  0.4166
 6323SOL    HW130431   4.472   2.859   9.082 -0.2086 -1.2945  1.2647
 6323SOL    HW230432   4.536   2.980   9.127  2.1476  0.7696  1.2198
 6324SOL     OW30433   0.179   2.920   7.082  0.3469  0.0384 -0.2855
 6324SOL    HW130434   0.234   2.875   7.017  0.8051 -0.0806  0.1887
 6324SOL    HW230435   0.212   2.885   7.165 -0.5091 -1.4887 -0.5966
 6325SOL     OW30436   4.103   2.146   4.465  0.0030  0.0436  0.1978
 6325SOL    HW130437   4.186   2.136   4.511 -0.9050  0.4543  1.9565
 6325SOL    HW230438   4.141   2.171   4.381 -1.0937 -0.4114 -0.4353
 6326SOL     OW30439   3.117   3.972   6.288  0.6145 -0.2845 -0.2437
 6326SOL    HW130440   3.118   3.908   6.217  0.4450 -0.6349  0.0679
 6326SOL    HW230441   3.026   3.998   6.272  2.1440  2.2168 -4.7432
 6327SOL     OW30442   1.025   0.567   0.476 -0.4678  0.2135 -0.6673
 6327SOL    HW130443   0.979   0.503   0.422 -1.5037  1.3583 -1.1334
 6327SOL    HW230444   0.970   0.565   0.555 -0.1164 -0.6551 -0.4430
 6328SOL     OW30445   3.193   3.152   9.488 -0.2745  0.2774  0.4138
 6328SOL    HW130446   3.216   3.245   9.481  0.5605  0.2017  2.1221
 6328SOL    HW230447   3.140   3.155   9.409  1.1818  0.0125 -0.5684
 6329SOL     OW30448   0.613   0.072   4.037 -0.0782 -0.0582  0.1857
 6329SOL    HW130449   0.699   0.115   4.038  0.2114 -0.6254 -0.8280
 6329SOL    HW230450   0.550   0.140   4.011  1.5392  1.7307  0.9186
 6330SOL     OW30451   1.905   4.539   0.145  0.5114 -0.2134 -0.7891
 6330SOL    HW130452   1.842   4.557   0.214  1.3683  1.5407 -0.4624
 6330SOL    HW230453   1.849   4.541   0.067 -2.6333  1.9225  1.5557
 6331SOL     OW30454   1.738   1.682  11.448  0.0706 -0.5212 -0.1364
 6331SOL    HW130455   1.791   1.629  11.508  0.7424  0.3667  0.0640
 6331SOL    HW230456   1.703   1.747  11.509  1.3397  1.3184 -1.3702
 6332SOL     OW30457   2.622   3.325   2.730  0.3728 -0.0833  0.3529
 6332SOL    HW130458   2.682   3.386   2.688 -0.1768  0.4875  0.3967
 6332SOL    HW230459   2.630   3.245   2.677 -0.8523 -0.6636  1.0463
 6333SOL     OW30460   0.684   2.600   6.020 -0.3094  0.1866  0.0517
 6333SOL    HW130461   0.719   2.627   5.935 -0.7977  0.2656 -0.1280
 6333SOL    HW230462   0.616   2.665   6.040  0.2250  1.6625 -2.9061
 6334SOL     OW30463   0.691   0.251  13.569  0.2884 -0.2129 -0.0187
 6334SOL    HW130464   0.635   0.247  13.492 -0.7753  1.2579  0.6866
 6334SOL    HW230465   0.751   0.322  13.543 -0.1238  0.5397  1.0873
 6335SOL     OW30466   1.707   4.174   2.324  0.1213  0.2317 -0.4575
 6335SOL    HW130467   1.634   4.157   2.383 -0.6556 -1.2355 -1.8361
 6335SOL    HW230468   1.783   4.142   2.372 -1.5339 -1.9487  0.6913
 6336SOL     OW30469   0.461   0.010  15.854  0.3958 -0.0544  0.0036
 6336SOL    HW130470   0.502   0.074  15.797  0.7873 -0.0307  0.3080
 6336SOL    HW230471   0.473   4.659  15.800 -1.9832 -1.9249  2.1689
 6337SOL     OW30472   1.089   1.653   9.585 -0.1507  0.0358 -0.6020
 6337SOL    HW130473   1.172   1.693   9.613  0.4082  0.6419 -3.1376
 6337SOL    HW230474   1.065   1.577   9.638 -0.6553  1.5443  1.3293
 6338SOL     OW30475   2.454   3.118  16.465  0.5774  0.2244 -1.4134
 6338SOL    HW130476   2.500   3.187  16.512 -0.9312  0.4586 -0.2728
 6338SOL    HW230477   2.518   3.047  16.452  0.4314 -0.3298  0.8293
 6339SOL     OW30478   2.283   2.388   6.946  1.1513  0.0964  0.2670
 6339SOL    HW130479   2.286   2.458   6.881 -0.7023  0.6551  0.7821
 6339SOL    HW230480   2.255   2.438   7.023 -0.8629  1.7287 -1.5112
 6340SOL     OW30481   3.937   2.375   7.367  0.2110 -0.2833 -0.3957
 6340SOL    HW130482   3.903   2.385   7.278 -1.9923 -1.1073  0.3511
 6340SOL    HW230483   3.941   2.280   7.374  2.5069 -0.3064 -2.1361
 6341SOL     OW30484   1.314   3.783   8.878 -0.5545  0.2956 -0.1435
 6341SOL    HW130485   1.366   3.714   8.836 -0.6574  0.9883 -1.3808
 6341SOL    HW230486   1.353   3.861   8.839 -1.4433  0.2908 -1.0091
 6342SOL     OW30487   1.835   4.184   9.257 -0.3688  0.0387 -0.4434
 6342SOL    HW130488   1.749   4.224   9.268 -0.4375  0.2175 -1.5451
 6342SOL    HW230489   1.836   4.141   9.171  0.9341 -0.5770 -0.1262
 6343SOL     OW30490   4.132   1.729   4.174  0.1832  0.2258 -0.2550
 6343SOL    HW130491   4.226   1.710   4.171 -0.0862 -1.2093  0.1267
 6343SOL    HW230492   4.116   1.741   4.081 -0.9305  0.9603  0.0330
 6344SOL     OW30493   3.960   3.305   9.831 -0.3076  0.1832 -0.6608
 6344SOL    HW130494   3.983   3.222   9.871 -0.1600  0.1572 -0.7995
 6344SOL    HW230495   3.899   3.334   9.900 -0.6754 -0.3753 -0.7558
 6345SOL     OW30496   3.094   0.057   7.063 -0.6245 -0.3563  0.0843
 6345SOL    HW130497   3.092   0.121   6.992  0.6267 -0.8069 -0.3679
 6345SOL    HW230498   3.168   0.006   7.030 -0.8014  0.3270 -1.3778
 6346SOL     OW30499   2.208   0.159  13.174 -0.2178  0.0160  0.0084
 6346SOL    HW130500   2.167   0.201  13.098 -3.8713  1.4204  2.7664
 6346SOL    HW230501   2.294   0.199  13.180 -1.2656  2.0967  1.2360
 6347SOL     OW30502   3.254   1.218   6.007  0.2085  0.5416  0.1198
 6347SOL    HW130503   3.183   1.156   5.990 -0.9052  1.8894 -0.1674
 6347SOL    HW230504   3.253   1.284   5.938 -1.0508 -0.1715 -0.5524
 6348SOL     OW30505   3.447   3.200   4.681  0.6751  0.4403  0.2596
 6348SOL    HW130506   3.440   3.294   4.690 -1.3854  0.0907  2.0885
 6348SOL    HW230507   3.542   3.187   4.687  0.7601  1.0610  0.2212
 6349SOL     OW30508   4.415   3.447   2.250  0.0664  0.1300  0.1983
 6349SOL    HW130509   4.447   3.496   2.174 -0.7270 -0.1975 -0.3447
 6349SOL    HW230510   4.338   3.406   2.211 -0.0867  0.2727  0.3530
 6350SOL     OW30511   2.850   0.847  13.063  0.3027  0.1451 -0.4965
 6350SOL    HW130512   2.762   0.885  13.065 -0.0601 -0.8316  2.4731
 6350SOL    HW230513   2.871   0.887  12.979 -1.3189 -0.2470 -1.0787
 6351SOL     OW30514   0.779   1.613  17.176  0.3209 -0.3322  0.0055
 6351SOL    HW130515   0.837   1.544  17.144  0.2782 -0.6071  0.5213
 6351SOL    HW230516   0.840   1.685  17.192 -1.3852  1.5668 -2.0271
 6352SOL     OW30517   0.872   0.634   0.940 -0.2419 -0.1469  0.6257
 6352SOL    HW130518   0.908   0.637   1.028  2.9793  1.1353 -0.7444
 6352SOL    HW230519   0.826   0.550   0.947 -0.3312 -0.0767  0.8652
 6353SOL     OW30520   2.340   2.230   5.296 -0.6218  0.2771  0.0263
 6353SOL    HW130521   2.409   2.231   5.231  0.3302 -1.9421  1.0023
 6353SOL    HW230522   2.319   2.323   5.303 -0.5201  0.2378  0.9310
 6354SOL     OW30523   1.690   3.574   2.989  0.0600 -0.1396 -0.0933
 6354SOL    HW130524   1.653   3.639   3.048 -0.0144  0.1838 -0.4944
 6354SOL    HW230525   1.615   3.537   2.943 -0.5420  0.3777  0.4790
 6355SOL     OW30526   2.805   2.732   8.875 -0.0457  0.1337  0.2732
 6355SOL    HW130527   2.826   2.798   8.941 -0.1371  0.9129 -0.4639
 6355SOL    HW230528   2.735   2.687   8.922 -0.1480  1.0487  0.9937
 6356SOL     OW30529   3.993   2.773   2.270  0.3004 -0.1234  0.6602
 6356SOL    HW130530   4.060   2.716   2.308 -0.5847 -0.8355  1.1589
 6356SOL    HW230531   4.041   2.854   2.255  2.1452 -1.1473  0.9102
 6357SOL     OW30532   3.112   1.864  15.260  0.0552  0.7562 -0.1417
 6357SOL    HW130533   3.044   1.926  15.287 -0.8202  0.0965 -0.8174
 6357SOL    HW230534   3.155   1.841  15.342 -0.4460 -0.8905 -0.3304
 6358SOL     OW30535   0.021   0.332   6.185  0.0662  0.1842 -0.0480
 6358SOL    HW130536   0.056   0.253   6.142 -1.1626  0.5043 -1.6439
 6358SOL    HW230537   0.009   0.395   6.114 -2.3282 -0.2359 -0.0227
 6359SOL     OW30538   3.405   2.462   7.976 -0.1229  0.5458 -0.6868
 6359SOL    HW130539   3.450   2.396   8.029 -0.8497 -0.3898 -1.2552
 6359SOL    HW230540   3.370   2.528   8.035  0.7616  1.3311 -1.0330
 6360SOL     OW30541   1.314   1.451   7.055 -0.0143  0.4845 -0.4663
 6360SOL    HW130542   1.285   1.505   6.982 -1.6440  0.9008  0.4950
 6360SOL    HW230543   1.285   1.366   7.021  0.2791  0.1011  0.2557
 6361SOL     OW30544   1.271   4.005   6.720  0.0214  0.0681 -0.8255
 6361SOL    HW130545   1.360   4.038   6.727 -0.2238  0.2372  1.5075
 6361SOL    HW230546   1.225   4.087   6.737 -1.7173 -0.6583 -1.9898
 6362SOL     OW30547   2.311   2.279   3.992  0.5279  0.3984  0.0751
 6362SOL    HW130548   2.247   2.233   4.046 -1.1624  2.2486 -0.3499
 6362SOL    HW230549   2.309   2.367   4.030  0.8063  1.6254 -2.7450
 6363SOL     OW30550   4.683   1.425   3.984  0.2058  0.1844  0.2398
 6363SOL    HW130551   4.681   1.490   4.054  2.8455 -1.0064  1.4372
 6363SOL    HW230552   0.050   1.411   3.974  0.2000  1.5567 -1.7980
 6364SOL     OW30553   4.493   0.737   7.557  0.3731  0.4575  0.0167
 6364SOL    HW130554   4.432   0.675   7.516 -0.3258  0.8278  0.4865
 6364SOL    HW230555   4.456   0.820   7.526  2.0978  0.2625 -2.5143
 6365SOL     OW30556   2.575   1.780   6.674 -0.5666  0.3465 -0.1163
 6365SOL    HW130557   2.586   1.842   6.746 -0.7145 -1.2585  1.2757
 6365SOL    HW230558   2.666   1.760   6.651 -0.0716  1.0321  1.2388
 6366SOL     OW30559   0.275   4.015   5.318 -0.3511  0.2352 -0.0809
 6366SOL    HW130560   0.273   4.098   5.270 -0.5729 -0.1473 -0.7234
 6366SOL    HW230561   0.307   3.959   5.247  0.1510 -0.7061  0.8791
 6367SOL     OW30562   3.130   0.566   5.779 -0.0162 -0.6472 -0.2305
 6367SOL    HW130563   3.152   0.653   5.747 -2.2160  0.5604  1.4844
 6367SOL    HW230564   3.036   0.558   5.762 -0.2604 -1.4900  1.5552
 6368SOL     OW30565   2.909   1.786  15.696 -0.5747 -0.0485  0.8007
 6368SOL    HW130566   2.876   1.850  15.759 -0.2347 -0.4576  1.3982
 6368SOL    HW230567   2.887   1.842  15.622 -0.0081 -1.0592 -0.1359
 6369SOL     OW30568   2.337   3.467  15.315  0.4937  0.1785 -0.3930
 6369SOL    HW130569   2.378   3.381  15.301 -0.3275 -0.3997  0.6768
 6369SOL    HW230570   2.402   3.528  15.281  0.7218 -0.7693 -1.6249
 6370SOL     OW30571   0.586   3.598   3.250  0.4110 -0.2284  0.0331
 6370SOL    HW130572   0.537   3.681   3.244 -0.3507 -0.7400 -0.9136
 6370SOL    HW230573   0.574   3.577   3.342 -1.6680  1.5093  0.1967
 6371SOL     OW30574   2.216   3.179   2.693  0.4601 -0.3800  0.3288
 6371SOL    HW130575   2.265   3.233   2.631 -1.2234  1.6791  0.8015
 6371SOL    HW230576   2.135   3.231   2.693  1.3433  0.9930  0.9031
 6372SOL     OW30577   0.132   3.411  12.032 -0.4782  0.2349 -0.2306
 6372SOL    HW130578   0.144   3.317  12.045 -1.6671  0.1024 -0.0091
 6372SOL    HW230579   0.042   3.422  12.064  0.1133  1.5755  0.9711
 6373SOL     OW30580   3.570   0.440   6.834 -0.1959 -0.4486 -0.1785
 6373SOL    HW130581   3.645   0.500   6.835  0.0030 -0.6996 -0.2638
 6373SOL    HW230582   3.524   0.455   6.917 -3.3833 -0.6573 -1.9015
 6374SOL     OW30583   1.001   3.777  17.566  0.1599  0.0886  0.1744
 6374SOL    HW130584   1.080   3.775  17.621 -1.1428 -0.2616  2.0267
 6374SOL    HW230585   1.035   3.823  17.489  1.9053 -0.0625  0.8606
 6375SOL     OW30586   3.434   3.513   7.390  0.5641 -0.3065 -0.3110
 6375SOL    HW130587   3.456   3.573   7.318  1.6994  1.0249  1.1617
 6375SOL    HW230588   3.351   3.489   7.350 -0.4677 -0.6014  2.0314
 6376SOL     OW30589   3.921   0.973   1.050 -0.2188  0.2935 -0.1739
 6376SOL    HW130590   3.857   1.031   1.007 -0.8836 -0.9926 -0.9237
 6376SOL    HW230591   3.965   0.932   0.976  2.3790  0.7722  1.1245
 6377SOL     OW30592   0.391   2.555   7.277  0.2537 -0.2758 -0.0469
 6377SOL    HW130593   0.380   2.492   7.349  0.3705 -0.8637 -0.5401
 6377SOL    HW230594   0.338   2.516   7.207  1.8525 -3.4613  0.5001
 6378SOL     OW30595   2.244   1.255   2.226 -0.0859 -0.0737  0.4210
 6378SOL    HW130596   2.225   1.344   2.254  1.5064  1.4746 -3.4753
 6378SOL    HW230597   2.211   1.245   2.136 -1.0277 -1.1950  0.8905
 6379SOL     OW30598   1.178   4.374   9.216 -0.4426  0.0838  0.0115
 6379SOL    HW130599   1.176   4.453   9.270  2.1288  1.0635 -1.3011
 6379SOL    HW230600   1.224   4.412   9.141  0.9059 -2.5751 -0.5187
 6380SOL     OW30601   2.487   2.981   4.540 -0.0544 -0.1901 -0.3741
 6380SOL    HW130602   2.524   3.002   4.625  1.4700  0.2837 -1.1505
 6380SOL    HW230603   2.400   3.012   4.566 -0.2782 -1.0726 -0.0566
 6381SOL     OW30604   1.732   2.135   5.498 -0.1672  0.0105  0.0557
 6381SOL    HW130605   1.642   2.161   5.482 -0.6661 -1.0355  1.1133
 6381SOL    HW230606   1.721   2.100   5.587  3.0496  0.6223  0.7060
 6382SOL     OW30607   0.828   3.148   9.201 -0.5537  0.5046  0.1638
 6382SOL    HW130608   0.776   3.202   9.260 -0.9243 -0.8872  1.0940
 6382SOL    HW230609   0.899   3.211   9.189 -0.4062  0.3660  0.3115
 6383SOL     OW30610   4.109   1.485   4.647  0.2158 -0.1500 -0.5919
 6383SOL    HW130611   4.069   1.400   4.661 -0.6849  0.2014 -1.0614
 6383SOL    HW230612   4.035   1.538   4.616 -0.3231 -0.2779  0.4609
 6384SOL     OW30613   2.127   2.857   2.373  0.2508 -0.0268  0.5855
 6384SOL    HW130614   2.106   2.884   2.463 -0.7600 -0.2811  0.4319
 6384SOL    HW230615   2.038   2.842   2.341  0.6184  0.5128 -0.7122
 6385SOL     OW30616   4.435   0.672   2.369  0.2818 -0.0770 -0.1697
 6385SOL    HW130617   4.502   0.725   2.327 -0.1588  0.6605  0.0538
 6385SOL    HW230618   4.407   0.617   2.296 -1.2899  0.7528 -0.2092
 6386SOL     OW30619   3.364   0.372  16.943  0.6690  0.1697 -0.3635
 6386SOL    HW130620   3.348   0.448  16.998 -1.0925 -0.3624 -0.1416
 6386SOL    HW230621   3.307   0.300  16.970  1.5659 -0.8000 -1.0862
 6387SOL     OW30622   1.732   1.073   6.987  0.1796 -0.1126  0.0522
 6387SOL    HW130623   1.762   1.011   7.054  0.9502 -0.8132 -0.9524
 6387SOL    HW230624   1.750   1.030   6.904  2.5254  0.8929  0.0490
 6388SOL     OW30625   3.490   0.816   3.998  0.0366 -0.6564 -0.2633
 6388SOL    HW130626   3.544   0.830   4.075 -0.7121  0.0366  0.1429
 6388SOL    HW230627   3.495   0.904   3.960  1.9858 -0.1874  1.1304
 6389SOL     OW30628   2.052   2.738   0.818  0.2835 -0.4429  0.5053
 6389SOL    HW130629   2.034   2.674   0.887 -3.2235 -0.0248  0.0066
 6389SOL    HW230630   2.126   2.694   0.776  0.4902  1.7480 -1.3784
 6390SOL     OW30631   1.475   3.072   2.916  0.1185  0.4508 -0.3178
 6390SOL    HW130632   1.507   2.986   2.943  1.1464  0.5120 -1.3747
 6390SOL    HW230633   1.380   3.069   2.907  0.0670 -1.6554  0.9435
 6391SOL     OW30634   1.960   0.465  11.309  0.4677  0.2356  0.3234
 6391SOL    HW130635   2.036   0.515  11.280 -0.6876  1.6687 -0.2360
 6391SOL    HW230636   1.937   0.416  11.230  0.7958  0.9327 -0.1986
 6392SOL     OW30637   3.946   4.642   9.157  0.7515 -0.2954 -0.3435
 6392SOL    HW130638   3.983   4.650   9.069  0.8427 -0.6232 -0.3360
 6392SOL    HW230639   3.862   4.598   9.141  0.6059 -0.4774  0.8787
 6393SOL     OW30640   0.592   1.524   5.116 -0.3241  0.9668  0.3050
 6393SOL    HW130641   0.548   1.465   5.055  0.6789  0.9414 -0.3781
 6393SOL    HW230642   0.520   1.584   5.139  0.0739  1.7313 -0.4345
 6394SOL     OW30643   4.216   1.846   5.922  0.2567 -0.4255  0.4162
 6394SOL    HW130644   4.231   1.876   5.833  0.8820  0.6092  0.8657
 6394SOL    HW230645   4.160   1.919   5.949  0.3440 -0.0629 -0.4023
 6395SOL     OW30646   3.542   2.814   3.730  0.0927  0.5845 -0.4337
 6395SOL    HW130647   3.541   2.811   3.634  0.3654 -0.1627 -0.4160
 6395SOL    HW230648   3.604   2.885   3.747  1.4926 -1.4380  2.9144
 6396SOL     OW30649   1.970   3.517  17.628  0.5589  0.2346  0.6790
 6396SOL    HW130650   1.992   3.545  17.539 -1.6702  2.3784  0.7861
 6396SOL    HW230651   1.949   3.425  17.613  0.4370  0.6454 -1.6995
 6397SOL     OW30652   1.910   0.388  16.404 -0.1084 -0.3973  0.1376
 6397SOL    HW130653   1.982   0.363  16.462 -0.1234  0.2822  0.4494
 6397SOL    HW230654   1.841   0.406  16.468  0.0172 -1.6062  0.6121
 6398SOL     OW30655   4.261   1.287   6.337 -0.4532 -0.6716 -0.0378
 6398SOL    HW130656   4.314   1.360   6.303  0.9738 -0.6611  2.2096
 6398SOL    HW230657   4.290   1.297   6.428  0.6785  1.2454 -0.5945
 6399SOL     OW30658   1.480   1.692   2.800  0.0742  0.3430  0.1930
 6399SOL    HW130659   1.419   1.766   2.809 -1.9576 -1.4942  1.4430
 6399SOL    HW230660   1.472   1.647   2.884  0.5725 -0.2458 -0.0746
 6400SOL     OW30661   0.927   4.588   4.977 -0.0496 -0.8292  0.4514
 6400SOL    HW130662   0.985   4.650   5.022 -1.1040  0.3028  0.2392
 6400SOL    HW230663   0.843   4.633   4.986  1.4281  2.3601 -1.8766
 6401SOL     OW30664   0.751   3.876   6.793  0.4554  0.5421 -0.1926
 6401SOL    HW130665   0.835   3.884   6.747  0.5660 -1.0858 -0.2783
 6401SOL    HW230666   0.777   3.852   6.882 -0.7717  2.7263  0.7441
 6402SOL     OW30667   3.078   0.875   0.524  0.5370 -0.2292  0.1847
 6402SOL    HW130668   3.105   0.856   0.434  0.7801  0.6614  0.0729
 6402SOL    HW230669   3.041   0.788   0.541  1.5674 -0.9179 -1.0997
 6403SOL     OW30670   3.044   2.777   4.310 -0.4550  0.6187 -0.0288
 6403SOL    HW130671   3.068   2.789   4.218  0.8303 -1.1674  0.0670
 6403SOL    HW230672   3.039   2.681   4.314  3.7918  0.5050  2.4586
 6404SOL     OW30673   1.679   4.675   3.822 -0.4301  0.0360 -0.1014
 6404SOL    HW130674   1.651   4.674   3.913 -1.7064 -1.7753 -0.5142
 6404SOL    HW230675   1.709   4.585   3.814  0.9846  0.2001  3.4811
 6405SOL     OW30676   2.612   1.586   5.697 -0.5059  0.1621  0.4228
 6405SOL    HW130677   2.561   1.605   5.776  0.6610  1.4820  0.8396
 6405SOL    HW230678   2.632   1.493   5.705  0.6777  0.3995  0.1335
 6406SOL     OW30679   3.040   2.338   1.945  0.4397 -0.2137 -0.1581
 6406SOL    HW130680   3.087   2.422   1.946 -0.6246  0.3687  0.6710
 6406SOL    HW230681   3.062   2.302   2.031  1.8140  1.1745  0.0765
 6407SOL     OW30682   1.311   0.897   1.620 -0.2249 -0.2625 -0.0178
 6407SOL    HW130683   1.318   0.909   1.715  0.5699  1.7986 -0.3493
 6407SOL    HW230684   1.356   0.979   1.601  0.2664 -0.0144  2.2341
 6408SOL     OW30685   3.671   3.295   7.684 -0.2097 -0.4965 -0.2348
 6408SOL    HW130686   3.750   3.250   7.654  0.5234  1.6866 -1.5968
 6408SOL    HW230687   3.658   3.331   7.596 -0.9040  1.0268  0.4967
 6409SOL     OW30688   1.199   2.386   5.560  0.1673  0.2935 -0.0308
 6409SOL    HW130689   1.229   2.345   5.641 -1.1719  1.8456  1.2573
 6409SOL    HW230690   1.153   2.461   5.599 -0.1802  0.1897 -0.2366
 6410SOL     OW30691   2.714   3.418   5.085  0.4563 -0.4194 -0.4190
 6410SOL    HW130692   2.648   3.395   5.019 -0.6719  2.4903 -0.2825
 6410SOL    HW230693   2.663   3.471   5.146 -0.0141 -0.7001 -0.5716
 6411SOL     OW30694   0.776   1.675  14.096 -0.3620 -0.4291 -0.1871
 6411SOL    HW130695   0.711   1.649  14.031  0.2762  1.0449 -1.4234
 6411SOL    HW230696   0.849   1.662  14.036 -0.7295 -1.8174 -0.3409
 6412SOL     OW30697   1.220   2.593   2.155 -0.4341  0.0937  0.3426
 6412SOL    HW130698   1.190   2.679   2.123 -1.2802  0.3046  1.7247
 6412SOL    HW230699   1.198   2.536   2.082 -1.1250  0.1818  0.4824
 6413SOL     OW30700   0.312   0.922  15.500 -0.1617  0.9797 -0.0379
 6413SOL    HW130701   0.334   0.829  15.504 -1.2720  0.6212 -2.3856
 6413SOL    HW230702   0.367   0.956  15.429  0.7781  0.2213  0.3360
 6414SOL     OW30703   3.567   3.299   6.085  0.1529 -0.8341  0.1466
 6414SOL    HW130704   3.479   3.273   6.113 -0.9268  1.0960 -1.4799
 6414SOL    HW230705   3.549   3.299   5.991 -1.8653  0.5686  0.5383
 6415SOL     OW30706   3.291   1.607   7.908 -0.3047  0.1364 -0.0489
 6415SOL    HW130707   3.298   1.537   7.843  0.9946 -0.2054  0.4488
 6415SOL    HW230708   3.205   1.633   7.877 -0.2456 -0.2210 -0.5086
 6416SOL     OW30709   2.498   3.413  11.809 -0.1073  0.4880 -0.4118
 6416SOL    HW130710   2.462   3.325  11.795  2.9789 -0.7912 -0.2328
 6416SOL    HW230711   2.474   3.428  11.901 -0.5649 -1.2040 -0.2472
 6417SOL     OW30712   4.656   4.267  12.440  0.1102 -0.0756 -0.1173
 6417SOL    HW130713   4.582   4.211  12.419 -0.7429  0.0306  2.6263
 6417SOL    HW230714   4.681   4.233  12.526  0.2112  0.5439  0.1019
 6418SOL     OW30715   2.536   4.101   0.423 -0.1603 -0.2117  0.2470
 6418SOL    HW130716   2.478   4.098   0.500  0.2302 -1.8894  0.4749
 6418SOL    HW230717   2.484   4.039   0.372 -1.4947 -0.1692  1.5481
 6419SOL     OW30718   0.161   3.254   7.673  0.0816  0.3276  0.5703
 6419SOL    HW130719   0.245   3.264   7.628 -1.2935 -0.2649 -2.1317
 6419SOL    HW230720   0.191   3.196   7.742 -0.2940 -0.4648  0.0679
 6420SOL     OW30721   1.449   1.551   5.854  0.5355 -0.0358 -0.4761
 6420SOL    HW130722   1.380   1.593   5.803  1.0842  0.4295 -0.8323
 6420SOL    HW230723   1.418   1.553   5.944  0.5005 -1.7319 -0.4512
 6421SOL     OW30724   2.101   0.055  14.805  0.2467  0.0011 -0.1964
 6421SOL    HW130725   2.049   0.124  14.764  1.3903 -0.2124 -2.0093
 6421SOL    HW230726   2.029   0.031  14.863  1.1064 -1.1924  0.3838
 6422SOL     OW30727   1.730   2.454  17.252 -0.4175 -0.5291 -0.5229
 6422SOL    HW130728   1.636   2.441  17.249 -0.8063  2.1799 -0.0585
 6422SOL    HW230729   1.761   2.364  17.264 -0.3972 -0.1334  2.4443
 6423SOL     OW30730   0.456   4.170   9.079 -0.6731 -0.7989 -0.5554
 6423SOL    HW130731   0.533   4.114   9.070 -1.3381 -2.1755  2.0509
 6423SOL    HW230732   0.377   4.115   9.085 -1.0087 -0.2390  0.0878
 6424SOL     OW30733   1.649   0.613   8.763 -0.3110 -0.3760  0.1550
 6424SOL    HW130734   1.606   0.540   8.808 -1.6215  0.1867 -0.1771
 6424SOL    HW230735   1.575   0.642   8.708 -0.7029 -2.5355 -0.4630
 6425SOL     OW30736   4.389   2.095  16.959 -0.2807  0.2563  0.3342
 6425SOL    HW130737   4.444   2.090  16.881 -0.1363 -1.2205  0.5395
 6425SOL    HW230738   4.352   2.183  16.966 -0.0334  0.4994 -1.4615
 6426SOL     OW30739   3.019   1.338   5.308 -0.1164  0.2094 -0.4793
 6426SOL    HW130740   2.958   1.360   5.379  0.3475  0.2287 -0.0916
 6426SOL    HW230741   2.974   1.257   5.284  0.1576  0.1408 -0.7562
 6427SOL     OW30742   1.495   1.082   3.955 -0.4384  0.0593  0.0897
 6427SOL    HW130743   1.501   1.149   3.888  1.9409 -0.1452  0.1085
 6427SOL    HW230744   1.447   1.012   3.910 -0.1504 -0.6398  0.8536
 6428SOL     OW30745   4.370   4.096   6.256 -0.1359 -0.3741  0.1164
 6428SOL    HW130746   4.407   4.039   6.322 -0.6090  0.1062  0.7955
 6428SOL    HW230747   4.277   4.074   6.248 -0.6057  0.8096  2.2983
 6429SOL     OW30748   1.853   2.646   6.518  0.2958 -0.1282 -0.5154
 6429SOL    HW130749   1.842   2.738   6.540 -0.4961 -0.2984 -0.1720
 6429SOL    HW230750   1.780   2.614   6.573  0.5214 -1.6486 -1.1100
 6430SOL     OW30751   0.052   1.063   3.154 -0.6540  0.5181  0.1614
 6430SOL    HW130752   4.710   1.024   3.100  1.8016  1.5079 -3.7087
 6430SOL    HW230753   0.110   0.988   3.158 -0.8492  0.2692 -1.5420
 6431SOL     OW30754   3.355   1.086   9.303 -0.2113  0.0272  0.0633
 6431SOL    HW130755   3.288   1.116   9.364  0.2966 -0.5234  0.8829
 6431SOL    HW230756   3.364   1.163   9.247  3.6887  0.0655  0.7511
 6432SOL     OW30757   0.631   1.531   7.389  0.3574 -0.7357 -0.4281
 6432SOL    HW130758   0.627   1.570   7.301  1.7428  1.0297  0.2785
 6432SOL    HW230759   0.612   1.604   7.448 -0.5994 -1.7165  0.4511
 6433SOL     OW30760   4.342   3.863   9.596 -0.1139 -0.2981  0.2748
 6433SOL    HW130761   4.248   3.845   9.597  0.1093 -1.5555 -1.3735
 6433SOL    HW230762   4.354   3.853   9.691 -0.0692  0.6467  0.3725
 6434SOL     OW30763   4.340   2.511  14.181  0.3488  0.4992 -0.7583
 6434SOL    HW130764   4.281   2.466  14.121 -0.4638 -2.0989  1.9516
 6434SOL    HW230765   4.300   2.490  14.265 -2.0925  1.5242 -1.6569
 6435SOL     OW30766   1.954   2.306  14.350  0.2910 -0.3239 -0.0240
 6435SOL    HW130767   1.871   2.345  14.379  0.3477 -0.5776  0.4665
 6435SOL    HW230768   2.021   2.370  14.374 -0.7878  0.8547 -0.1368
 6436SOL     OW30769   4.019   0.713   4.760 -0.5998  0.1222  0.5728
 6436SOL    HW130770   4.082   0.729   4.690 -0.8585 -1.5170 -0.0450
 6436SOL    HW230771   3.939   0.756   4.733 -1.3660 -2.0073 -0.5196
 6437SOL     OW30772   4.239   2.082   6.717 -0.1301  0.1931  0.6986
 6437SOL    HW130773   4.301   2.012   6.696  0.5106  1.3039 -1.1448
 6437SOL    HW230774   4.162   2.050   6.669 -0.5564  0.7695  1.0077
 6438SOL     OW30775   3.902   0.321  17.022  0.0991  0.5484  0.3947
 6438SOL    HW130776   3.841   0.249  17.006  0.5677 -0.2683  2.4130
 6438SOL    HW230777   3.934   0.334  16.932  2.2999 -1.1699  0.9563
 6439SOL     OW30778   1.173   2.172   3.641 -0.2727  0.0134 -0.3009
 6439SOL    HW130779   1.121   2.253   3.643 -1.3753 -0.6310 -2.1951
 6439SOL    HW230780   1.160   2.129   3.556 -1.9375  1.6133 -0.8829
 6440SOL     OW30781   1.452   1.903   3.517 -0.7809  0.2203  0.2028
 6440SOL    HW130782   1.530   1.909   3.462  0.7369  2.4313  2.5794
 6440SOL    HW230783   1.391   1.839   3.481  1.1616 -0.9164 -1.0479
 6441SOL     OW30784   2.701   2.267   3.128 -0.1624 -0.4709  0.1614
 6441SOL    HW130785   2.774   2.214   3.097  0.7261  0.9967 -0.2642
 6441SOL    HW230786   2.653   2.260   3.045  1.2238  0.3098 -0.7070
 6442SOL     OW30787   4.042   3.670  12.800  0.3222 -1.1928  0.0250
 6442SOL    HW130788   3.975   3.728  12.765  2.9415  1.6002 -0.3079
 6442SOL    HW230789   4.006   3.586  12.771  2.8705 -2.3530  0.2135
 6443SOL     OW30790   3.691   2.953   3.431 -0.2346  0.3192  0.2912
 6443SOL    HW130791   3.683   2.922   3.341 -0.0979  0.5231  0.2075
 6443SOL    HW230792   3.602   2.987   3.439 -0.1624  0.8698 -1.1686
 6444SOL     OW30793   4.220   0.728   8.793  0.0383  0.1387  0.3668
 6444SOL    HW130794   4.182   0.648   8.827  2.3751 -1.0381  0.2256
 6444SOL    HW230795   4.214   0.782   8.872  0.8694  0.7134  0.0385
 6445SOL     OW30796   1.658   1.042  17.607  0.2190 -0.2018  0.4231
 6445SOL    HW130797   1.604   1.106  17.653  0.2037 -1.5106  2.2232
 6445SOL    HW230798   1.689   0.991  17.683  0.1083  0.6621  1.0482
 6446SOL     OW30799   3.802   0.229   6.647  0.6554  0.5877 -0.3006
 6446SOL    HW130800   3.858   0.257   6.719  1.4409 -0.0611 -0.6660
 6446SOL    HW230801   3.852   0.162   6.600 -1.9169 -0.6564 -1.2472
 6447SOL     OW30802   2.078   3.836   3.753 -0.5161  0.3519 -0.4872
 6447SOL    HW130803   2.026   3.907   3.791  0.6074  0.4724  0.8315
 6447SOL    HW230804   2.131   3.878   3.686  3.3358 -2.2566  0.9142
 6448SOL     OW30805   2.215   3.891  15.481  0.0532 -0.1843 -0.3299
 6448SOL    HW130806   2.165   3.810  15.476 -1.4753  0.7796 -0.6018
 6448SOL    HW230807   2.159   3.959  15.444 -0.3983 -0.0662  0.5636
 6449SOL     OW30808   3.396   2.442   2.452 -0.1781  0.2512  0.0163
 6449SOL    HW130809   3.313   2.408   2.417 -0.5586  2.3672 -1.1511
 6449SOL    HW230810   3.423   2.509   2.389 -2.2122  1.3977  0.3352
 6450SOL     OW30811   0.917   0.215   9.518 -0.1205 -0.2755  0.2779
 6450SOL    HW130812   0.872   0.166   9.449 -0.7979 -0.3605  0.7775
 6450SOL    HW230813   0.870   0.191   9.598  0.0337 -0.2346  0.3795
 6451SOL     OW30814   3.559   1.392   7.381  0.3586 -0.0758 -0.2389
 6451SOL    HW130815   3.481   1.349   7.414  0.7637  0.1545  1.0091
 6451SOL    HW230816   3.523   1.473   7.346 -0.4014 -0.3150 -0.0087
 6452SOL     OW30817   1.948   2.384  12.518 -0.1115 -0.2118 -0.2458
 6452SOL    HW130818   1.979   2.374  12.428 -0.2696 -2.1792 -0.0936
 6452SOL    HW230819   1.856   2.358  12.520  0.4658 -2.3369 -0.6721
 6453SOL     OW30820   3.709   0.202   7.529 -0.1918  0.3411 -0.4749
 6453SOL    HW130821   3.743   0.289   7.550  1.5589 -0.9158  1.8724
 6453SOL    HW230822   3.774   0.175   7.464  0.6665  0.9982  0.1068
 6454SOL     OW30823   3.118   1.021   2.513  0.3377 -0.1318 -0.0640
 6454SOL    HW130824   3.197   1.053   2.470 -1.0878  0.5825 -2.1350
 6454SOL    HW230825   3.125   0.928   2.489  0.1540  0.2202 -1.4194
 6455SOL     OW30826   3.620   4.146   6.596  0.1638  0.3989 -0.6447
 6455SOL    HW130827   3.562   4.222   6.591 -1.3481 -0.6781  0.5504
 6455SOL    HW230828   3.566   4.076   6.633  1.0041 -0.4920 -1.0998
 6456SOL     OW30829   4.216   1.216   3.692  0.1965 -0.6908 -0.0859
 6456SOL    HW130830   4.264   1.185   3.614  2.2035 -0.8282  1.1998
 6456SOL    HW230831   4.289   1.248   3.745 -1.3875 -0.1646  1.7280
 6457SOL     OW30832   0.604   2.286  11.675  0.0142 -0.3136  0.5824
 6457SOL    HW130833   0.673   2.286  11.609  0.1283  2.0925  0.6982
 6457SOL    HW230834   0.528   2.324  11.632  1.6040  2.6473  0.4159
 6458SOL     OW30835   2.029   2.731   5.383  0.4008 -0.3967  0.3792
 6458SOL    HW130836   2.025   2.637   5.398 -1.3001 -0.1939  1.2333
 6458SOL    HW230837   2.111   2.749   5.427  0.7193  2.1325 -1.1946
 6459SOL     OW30838   4.002   4.014   2.628 -0.5323  0.0820 -0.4634
 6459SOL    HW130839   3.977   3.936   2.577 -3.2063 -0.0450  1.0076
 6459SOL    HW230840   3.923   4.036   2.678 -1.4069 -0.2279 -1.7177
 6460SOL     OW30841   2.520   1.478   8.392 -0.4038 -0.0721 -0.3442
 6460SOL    HW130842   2.497   1.569   8.411  0.3872 -0.2580  1.5580
 6460SOL    HW230843   2.613   1.483   8.368 -0.7464 -1.5965 -1.9691
 6461SOL     OW30844   4.521   3.688  10.755 -0.2994 -0.4930  0.3174
 6461SOL    HW130845   4.584   3.754  10.723  0.2785 -0.7110  1.0011
 6461SOL    HW230846   4.538   3.685  10.849 -4.1682 -0.9537  0.9954
 6462SOL     OW30847   0.301   0.160   3.720  0.1491 -0.1869 -0.0483
 6462SOL    HW130848   0.227   0.190   3.774 -1.9251 -1.1279 -2.3605
 6462SOL    HW230849   0.279   0.181   3.629  1.6878 -0.9991 -0.6047
 6463SOL     OW30850   0.148   0.801  10.196  0.5168  0.4387  0.1428
 6463SOL    HW130851   0.136   0.756  10.112 -1.2226  2.5309 -0.7498
 6463SOL    HW230852   0.143   0.894  10.176  0.5431 -0.1003 -2.3656
 6464SOL     OW30853   2.871   1.293  12.033 -0.7064 -0.6146 -0.5243
 6464SOL    HW130854   2.802   1.346  11.993 -1.4147  0.1705  1.7135
 6464SOL    HW230855   2.848   1.201  12.016  0.3223 -0.9911  0.1073
 6465SOL     OW30856   4.618   3.721  16.936  0.3547 -0.1296 -0.0986
 6465SOL    HW130857   4.565   3.673  16.999  0.0662  0.8171  0.3853
 6465SOL    HW230858   4.566   3.797  16.909  0.8530 -0.3803 -1.7598
 6466SOL     OW30859   2.875   4.588   4.343 -0.7052 -0.0183  0.2979
 6466SOL    HW130860   2.892   4.625   4.256 -2.3433  2.5419  1.0775
 6466SOL    HW230861   2.872   4.672   4.389  0.2248  0.4288 -0.4356
 6467SOL     OW30862   4.256   4.353   8.636 -0.8936 -0.4589 -0.4567
 6467SOL    HW130863   4.210   4.433   8.661  0.5497 -0.0528  0.9624
 6467SOL    HW230864   4.237   4.346   8.543 -0.2303 -0.9347 -0.5569
 6468SOL     OW30865   1.496   0.178  12.138  0.9116 -0.1593 -0.7981
 6468SOL    HW130866   1.576   0.223  12.112  1.2210  0.6591  1.5999
 6468SOL    HW230867   1.456   0.232  12.206  0.1999 -0.2545 -1.1367
 6469SOL     OW30868   3.174   4.270   6.119  0.2162 -0.1702 -0.5395
 6469SOL    HW130869   3.253   4.253   6.171  2.4143  2.9289 -2.8412
 6469SOL    HW230870   3.193   4.214   6.043 -2.7092 -0.1165 -1.2964
 6470SOL     OW30871   4.307   3.578   4.311  0.2321 -0.0339 -0.1615
 6470SOL    HW130872   4.261   3.549   4.233 -0.5926  1.7428 -0.3267
 6470SOL    HW230873   4.246   3.647   4.336 -0.7933 -1.6383  1.7737
 6471SOL     OW30874   1.597   1.885   7.886  0.2001 -0.9728  0.0075
 6471SOL    HW130875   1.575   1.938   7.808  0.7091  0.2497  0.6898
 6471SOL    HW230876   1.509   1.862   7.916 -0.8919  3.4995  0.3182
 6472SOL     OW30877   0.789   0.554  13.521  0.1141  0.8803  0.0674
 6472SOL    HW130878   0.866   0.532  13.468  1.1691 -0.4852  2.1409
 6472SOL    HW230879   0.834   0.570  13.604 -0.1333 -0.8163  0.5302
 6473SOL     OW30880   2.559   4.081   6.267  0.0245 -0.1185 -0.0570
 6473SOL    HW130881   2.487   4.115   6.319 -0.8606 -1.8713 -0.1551
 6473SOL    HW230882   2.564   4.156   6.207  1.6177 -0.0702  0.1223
 6474SOL     OW30883   0.318   2.646   3.141 -0.3569 -0.4194  0.2359
 6474SOL    HW130884   0.371   2.712   3.097  0.0689 -0.5820  0.5073
 6474SOL    HW230885   0.386   2.608   3.197 -0.4034  1.8882  1.8512
 6475SOL     OW30886   3.762   2.091   7.854  0.1804 -0.0232 -0.0271
 6475SOL    HW130887   3.793   2.074   7.943  0.3717  2.8397  0.4371
 6475SOL    HW230888   3.669   2.111   7.863  0.5800  1.5362  0.5384
 6476SOL     OW30889   3.024   4.215  11.537  0.1368  0.3530 -0.4275
 6476SOL    HW130890   2.962   4.145  11.553 -0.1021  1.1187  2.0082
 6476SOL    HW230891   3.052   4.233  11.626 -1.3472  1.1428 -0.1170
 6477SOL     OW30892   3.582   0.247   3.489  0.1267 -0.0585  0.5765
 6477SOL    HW130893   3.638   0.176   3.457  1.2640  1.1926 -0.2070
 6477SOL    HW230894   3.568   0.212   3.577  0.8623 -0.6051  0.4756
 6478SOL     OW30895   4.274   2.605  11.156  0.0812 -0.0598 -0.1388
 6478SOL    HW130896   4.269   2.668  11.084  0.6937 -0.9393 -0.9462
 6478SOL    HW230897   4.316   2.528  11.119 -2.0771  0.3115 -3.3289
 6479SOL     OW30898   4.559   0.901   2.676 -0.4149 -0.4806 -0.0421
 6479SOL    HW130899   4.569   0.934   2.586 -0.5166 -0.0327  0.1104
 6479SOL    HW230900   4.491   0.837   2.655 -1.2780  0.6839 -0.8318
 6480SOL     OW30901   0.227   3.927   5.588  0.1283  0.6041 -0.1790
 6480SOL    HW130902   0.254   3.925   5.496  0.2739  0.5876 -0.1353
 6480SOL    HW230903   0.239   4.021   5.599  0.4262  0.4599  0.7367
 6481SOL     OW30904   3.361   3.230   5.592 -0.2888  0.2981 -0.3465
 6481SOL    HW130905   3.384   3.232   5.499 -0.4452  0.6385 -0.3768
 6481SOL    HW230906   3.269   3.202   5.593  0.0587 -0.9351 -2.0480
 6482SOL     OW30907   4.305   1.469   3.469  0.6934  0.1358  0.3717
 6482SOL    HW130908   4.221   1.447   3.428 -0.5538  1.2457  2.3295
 6482SOL    HW230909   4.330   1.381   3.497 -2.5877 -1.5133 -1.8871
 6483SOL     OW30910   1.380   2.585   2.365 -0.6286 -0.7950 -0.0673
 6483SOL    HW130911   1.418   2.672   2.377 -2.1219 -0.0936 -0.5065
 6483SOL    HW230912   1.298   2.613   2.324 -0.1336 -0.3422 -0.7634
 6484SOL     OW30913   3.620   2.130   5.229 -0.0854 -0.1784 -0.0365
 6484SOL    HW130914   3.573   2.194   5.175 -2.6179 -2.7058 -0.8151
 6484SOL    HW230915   3.634   2.180   5.309 -0.3116  1.3242 -0.9314
 6485SOL     OW30916   0.106   0.607   8.146  0.5178  0.3303  0.1201
 6485SOL    HW130917   0.161   0.541   8.188  0.2502 -0.0792 -0.1719
 6485SOL    HW230918   0.046   0.616   8.220 -1.5966 -1.4306 -1.3837
 6486SOL     OW30919   3.316   1.276   4.280  0.7535  0.2271 -0.2051
 6486SOL    HW130920   3.259   1.320   4.217  2.6311  0.7935 -1.5001
 6486SOL    HW230921   3.401   1.285   4.237  0.8380 -0.4371 -0.1838
 6487SOL     OW30922   2.229   2.044   9.270 -0.5898  0.0695  0.5063
 6487SOL    HW130923   2.319   2.012   9.277  0.7063  3.7088  0.6238
 6487SOL    HW230924   2.215   2.048   9.175 -0.2077  2.1644  0.5440
 6488SOL     OW30925   2.016   4.700   6.540  0.2397 -0.8555 -0.3826
 6488SOL    HW130926   1.948   4.634   6.526 -2.6410  1.7844  1.0834
 6488SOL    HW230927   2.034   0.009   6.453  0.4834  2.1099  0.8923
 6489SOL     OW30928   2.434   1.848  12.552 -0.8404  0.0962 -0.7551
 6489SOL    HW130929   2.402   1.857  12.462 -0.5173  2.8736 -0.6027
 6489SOL    HW230930   2.423   1.753  12.556  1.1526 -0.1139 -0.5745
 6490SOL     OW30931   2.491   4.025  15.476  0.5655  0.3739 -0.2744
 6490SOL    HW130932   2.420   3.965  15.450  0.1357 -0.2292  2.3232
 6490SOL    HW230933   2.461   4.048  15.564  2.4180  0.6563  0.2726
 6491SOL     OW30934   4.617   2.817   5.784  0.1206 -0.4466 -0.5447
 6491SOL    HW130935   4.531   2.790   5.751  0.2878  0.3744 -1.6379
 6491SOL    HW230936   4.592   2.902   5.819 -3.2715 -0.8438 -2.0228
 6492SOL     OW30937   3.200   2.648   4.602  0.0051  0.5245 -0.5554
 6492SOL    HW130938   3.252   2.616   4.675 -0.9784 -1.8401 -0.8591
 6492SOL    HW230939   3.113   2.652   4.641  1.0382 -3.1670  2.1259
 6493SOL     OW30940   4.490   1.602  13.620 -0.3072  0.2226 -0.4719
 6493SOL    HW130941   4.517   1.691  13.641  0.1047 -0.0599  0.2011
 6493SOL    HW230942   4.437   1.573  13.694 -0.5239 -0.1593 -0.7735
 6494SOL     OW30943   0.289   1.101   8.422 -0.0412 -0.3443 -0.5760
 6494SOL    HW130944   0.284   1.119   8.516  1.4404  0.1080 -0.5767
 6494SOL    HW230945   0.251   1.178   8.381  0.4039 -0.1872 -0.7006
 6495SOL     OW30946   0.495   3.709   2.112  0.3186 -0.2114 -0.7134
 6495SOL    HW130947   0.476   3.629   2.063 -1.9717 -0.4981  0.6300
 6495SOL    HW230948   0.554   3.744   2.045  3.6300  0.9351  2.8016
 6496SOL     OW30949   1.105   0.943  15.427 -0.1252  0.1636 -0.5972
 6496SOL    HW130950   1.098   0.978  15.516  1.4721 -3.5329  0.9744
 6496SOL    HW230951   1.201   0.937  15.420 -0.0480  1.2835 -0.5428
 6497SOL     OW30952   2.088   4.703   3.003  0.6151  0.3377  1.0786
 6497SOL    HW130953   2.030   4.686   3.077 -0.6086 -2.5418 -0.5763
 6497SOL    HW230954   2.130   4.617   3.005  1.0077  0.5445  1.7394
 6498SOL     OW30955   2.639   1.625  17.456  0.0399 -0.1161  0.1398
 6498SOL    HW130956   2.666   1.552  17.512  0.2390 -1.3529 -1.5611
 6498SOL    HW230957   2.727   1.646  17.424 -0.8783  1.1309 -1.5329
 6499SOL     OW30958   4.079   0.799   5.002  0.2347  0.1420 -0.0400
 6499SOL    HW130959   4.070   0.765   4.913 -1.7439  3.5207 -1.1194
 6499SOL    HW230960   4.158   0.851   4.988 -0.6213  1.1590 -1.0848
 6500SOL     OW30961   4.079   1.489  16.224  0.4923 -0.4343 -0.5224
 6500SOL    HW130962   4.028   1.471  16.145  0.7667 -3.7190  0.0426
 6500SOL    HW230963   4.169   1.463  16.202  0.2826 -0.8853 -0.8450
 6501SOL     OW30964   0.872   0.928  13.531  0.0377 -0.3604  1.0615
 6501SOL    HW130965   0.916   1.011  13.518 -0.5834 -0.2043  0.0127
 6501SOL    HW230966   0.801   0.937  13.468  0.7948  1.5756  0.4865
 6502SOL     OW30967   3.367   4.115   3.644 -0.1525 -0.0592 -0.2890
 6502SOL    HW130968   3.282   4.157   3.660  0.9138  1.4968  1.2311
 6502SOL    HW230969   3.357   4.089   3.552  0.2047  0.3846 -0.4482
 6503SOL     OW30970   0.911   0.015   8.484  0.3613  0.2551  0.1649
 6503SOL    HW130971   0.908   0.082   8.552 -1.7474 -1.3805  1.6998
 6503SOL    HW230972   0.882   4.664   8.532 -0.6172  0.5374  0.0398
 6504SOL     OW30973   0.984   3.557   4.035 -0.1828 -0.1367 -0.3347
 6504SOL    HW130974   0.914   3.622   4.039 -0.3935 -0.3937  0.1582
 6504SOL    HW230975   1.039   3.582   4.110 -0.1268  0.2303 -0.4952
 6505SOL     OW30976   0.066   2.732   8.539 -0.3670 -0.1676 -0.6223
 6505SOL    HW130977   0.130   2.669   8.506 -1.5434 -1.7115  0.0359
 6505SOL    HW230978   0.047   2.696   8.626  0.1739  0.3439 -0.2918
 6506SOL     OW30979   0.621   3.839   8.843  0.6675  0.3358  0.1753
 6506SOL    HW130980   0.593   3.765   8.789 -2.4507  1.6665 -0.0149
 6506SOL    HW230981   0.610   3.901   8.770 -1.2505 -0.2517 -0.0397
 6507SOL     OW30982   2.264   3.577   3.159 -0.3020  0.0777  0.0210
 6507SOL    HW130983   2.309   3.578   3.244  1.2836 -0.1816 -0.8221
 6507SOL    HW230984   2.295   3.495   3.121 -0.7844 -0.1593  0.1358
 6508SOL     OW30985   3.312   2.760   2.451 -0.1023 -0.1343 -0.3026
 6508SOL    HW130986   3.243   2.695   2.454  0.2977 -0.6528 -2.7845
 6508SOL    HW230987   3.262   2.838   2.429 -0.7466 -0.7295 -0.9175
 6509SOL     OW30988   1.903   0.922   8.302  0.1341 -0.0610  0.1304
 6509SOL    HW130989   1.840   0.941   8.232  0.7176 -0.0838 -0.3961
 6509SOL    HW230990   1.854   0.898   8.381  1.8692  0.7850  1.4573
 6510SOL     OW30991   2.887   0.723   2.562 -0.5020 -0.3338  0.1115
 6510SOL    HW130992   2.834   0.671   2.503 -0.6089  3.9428 -3.5293
 6510SOL    HW230993   2.820   0.723   2.630 -0.4693 -2.0751  0.1435
 6511SOL     OW30994   4.033   2.327   8.434  0.5421  0.0393 -0.0178
 6511SOL    HW130995   4.119   2.356   8.465  0.5062 -1.5553  1.5336
 6511SOL    HW230996   4.058   2.235   8.424 -0.8925 -0.7193  3.3791
 6512SOL     OW30997   0.057   2.330   8.885 -0.5371 -0.2786 -0.5212
 6512SOL    HW130998   0.033   2.242   8.912  2.1570 -0.5779  0.9436
 6512SOL    HW230999   0.029   2.370   8.967 -1.3939 -2.0627  0.0571
 6513SOL     OW31000   2.465   1.781   7.714 -0.0309 -0.4184  0.5700
 6513SOL    HW131001   2.521   1.793   7.791  1.7176 -1.6779 -0.4942
 6513SOL    HW231002   2.384   1.823   7.743 -0.0358  0.9477 -1.4019
 6514SOL     OW31003   4.023   1.909   6.216  0.3131  0.1699 -0.3962
 6514SOL    HW131004   4.048   1.999   6.237 -0.5108  0.5918 -1.2101
 6514SOL    HW231005   4.000   1.925   6.124  2.2491 -0.5032 -0.9943
 6515SOL     OW31006   3.700   0.594   3.609  0.4521  0.1841  0.4615
 6515SOL    HW131007   3.612   0.556   3.607  0.1502  0.7411  3.1757
 6515SOL    HW231008   3.719   0.588   3.702 -1.3154 -0.3878  0.7701
 6516SOL     OW31009   0.040   2.508   1.636  0.1356  0.1420  0.1298
 6516SOL    HW131010   4.690   2.558   1.609 -1.4275 -1.5754  1.4155
 6516SOL    HW231011   0.027   2.428   1.585 -0.0397  1.5223 -1.9727
 6517SOL     OW31012   2.567   0.554  12.114 -0.4521 -0.1088  0.0370
 6517SOL    HW131013   2.481   0.586  12.085  1.0398  3.6423 -0.2815
 6517SOL    HW231014   2.537   0.486  12.175 -3.1072  1.6911  0.7545
 6518SOL     OW31015   2.641   2.406   8.571 -0.0511  0.0774 -0.0842
 6518SOL    HW131016   2.659   2.495   8.601 -0.8637  0.1327  0.2501
 6518SOL    HW231017   2.547   2.401   8.552 -0.1937  1.0712  0.3575
 6519SOL     OW31018   0.047   2.872   3.044 -0.9003  0.1030  0.3034
 6519SOL    HW131019   0.039   2.967   3.054 -2.1747 -0.0982  1.2328
 6519SOL    HW231020   0.098   2.867   2.963 -0.8754  1.3577  0.2450
 6520SOL     OW31021   3.353   4.560   5.429  0.3560  0.2065 -0.4060
 6520SOL    HW131022   3.290   4.577   5.358 -0.2030  0.2522  0.1008
 6520SOL    HW231023   3.327   4.613   5.504  0.4115 -2.6781  1.6472
 6521SOL     OW31024   0.416   2.294   0.980 -0.1312  0.9719 -0.3253
 6521SOL    HW131025   0.354   2.223   0.961  0.9152 -0.2072  0.6559
 6521SOL    HW231026   0.362   2.373   0.984 -1.8142 -0.2026  0.4451
 6522SOL     OW31027   0.425   0.925   4.787  0.1992 -0.1357 -0.1825
 6522SOL    HW131028   0.336   0.907   4.758 -0.6271  2.5216  0.7144
 6522SOL    HW231029   0.467   0.843   4.759 -2.3653 -2.6435  3.2185
 6523SOL     OW31030   4.257   2.855   9.695 -0.4311  0.2551  0.0555
 6523SOL    HW131031   4.183   2.797   9.710 -0.2440 -0.1762 -0.6691
 6523SOL    HW231032   4.292   2.811   9.618 -1.7863 -1.0932  0.2235
 6524SOL     OW31033   2.327   3.386   8.837 -0.2663  0.4338 -0.3156
 6524SOL    HW131034   2.232   3.383   8.846 -0.3970  0.6952 -1.6042
 6524SOL    HW231035   2.347   3.476   8.863 -0.1119  0.5348 -0.7908
 6525SOL     OW31036   0.557   3.545   5.562  0.7918 -0.0018 -0.0322
 6525SOL    HW131037   0.503   3.522   5.638  0.1625 -0.2596 -0.5573
 6525SOL    HW231038   0.580   3.634   5.590  0.4032  0.3765 -0.9356
 6526SOL     OW31039   2.434   3.837   2.316 -0.2319  0.4381  0.0907
 6526SOL    HW131040   2.406   3.921   2.353 -1.5264 -0.5610  1.3372
 6526SOL    HW231041   2.396   3.778   2.380  1.0165 -2.1234 -1.5311
 6527SOL     OW31042   0.713   1.447   8.285  0.0916 -0.5435 -0.2999
 6527SOL    HW131043   0.687   1.404   8.204  0.8093 -1.0975 -0.2327
 6527SOL    HW231044   0.767   1.390   8.340 -0.6851 -0.4139  0.5853
 6528SOL     OW31045   0.812   2.176   6.438  0.0444 -0.3237  0.2404
 6528SOL    HW131046   0.888   2.233   6.430 -2.0073  2.2736 -0.5605
 6528SOL    HW231047   0.760   2.237   6.491  0.3616  0.1263  0.0310
 6529SOL     OW31048   1.153   1.566   6.876 -0.7163 -0.1569 -0.0900
 6529SOL    HW131049   1.181   1.636   6.816  0.5331  0.5024  1.2636
 6529SOL    HW231050   1.131   1.497   6.814 -1.6930 -0.9759  1.1899
 6530SOL     OW31051   1.146   0.823   5.898 -0.0778 -0.2356  0.3265
 6530SOL    HW131052   1.078   0.864   5.952 -0.5949  1.5990 -1.7278
 6530SOL    HW231053   1.174   0.893   5.840 -0.9239  0.2962  0.5552
 6531SOL     OW31054   4.545   1.631   8.696  0.1263 -0.0421 -0.6113
 6531SOL    HW131055   4.523   1.719   8.726  2.9950 -0.3681  2.4123
 6531SOL    HW231056   4.565   1.584   8.777 -0.5053 -0.3947 -0.6550
 6532SOL     OW31057   2.014   1.339   5.595  0.1880 -0.4393 -0.3727
 6532SOL    HW131058   1.993   1.286   5.672 -0.9299  0.3342 -0.1511
 6532SOL    HW231059   1.974   1.290   5.524 -0.8209 -0.9618  0.5577
 6533SOL     OW31060   0.831   0.334   7.344 -0.7448  0.8103 -0.4178
 6533SOL    HW131061   0.818   0.355   7.252 -1.1517 -0.4039 -0.6441
 6533SOL    HW231062   0.818   0.423   7.375 -0.7689  0.5055  0.4427
 6534SOL     OW31063   4.718   2.664  12.712  0.3127 -0.3861 -0.4161
 6534SOL    HW131064   0.074   2.690  12.672  0.5624 -1.0338 -0.3149
 6534SOL    HW231065   0.012   2.576  12.741  1.0797  0.3997  1.3989
 6535SOL     OW31066   2.567   0.656  13.379 -0.1099  0.4372  0.0795
 6535SOL    HW131067   2.635   0.643  13.313 -0.0950  0.8191  0.0214
 6535SOL    HW231068   2.492   0.644  13.321 -0.9684  1.7331  0.9127
 6536SOL     OW31069   2.744   2.200   6.244  0.3918 -0.2483  0.3155
 6536SOL    HW131070   2.819   2.251   6.215  0.3751  0.0896  0.8573
 6536SOL    HW231071   2.796   2.133   6.290 -1.0134 -0.9718  0.8647
 6537SOL     OW31072   3.762   2.026  13.262  0.0612 -0.1538  0.1133
 6537SOL    HW131073   3.805   1.959  13.315  1.1279 -1.2175 -2.0765
 6537SOL    HW231074   3.820   2.038  13.187 -3.8821 -0.5988 -3.0278
 6538SOL     OW31075   1.698   4.689  10.181  0.1001 -0.4832 -0.0658
 6538SOL    HW131076   1.679   0.002  10.266  1.7800  0.6749 -0.2421
 6538SOL    HW231077   1.770   0.020  10.156  1.0177 -1.1826  0.9936
 6539SOL     OW31078   0.569   3.367   9.195 -0.1262 -0.1747  0.2680
 6539SOL    HW131079   0.548   3.443   9.141 -0.7582 -1.2478 -1.0172
 6539SOL    HW231080   0.478   3.361   9.224 -0.2921 -0.1592 -0.2454
 6540SOL     OW31081   4.346   0.747   2.610  0.1553  0.2330  0.0277
 6540SOL    HW131082   4.396   0.707   2.538 -0.4565  0.3187 -0.4404
 6540SOL    HW231083   4.314   0.826   2.567 -0.4667  0.1515  0.3525
 6541SOL     OW31084   2.016   2.113   4.555  0.4331 -0.2291 -0.2935
 6541SOL    HW131085   1.970   2.093   4.474 -2.1907  2.1335  0.6284
 6541SOL    HW231086   2.108   2.089   4.542  1.1317  1.7035  1.0395
 6542SOL     OW31087   3.555   3.056  13.141  0.2213 -0.4504 -0.3656
 6542SOL    HW131088   3.488   3.094  13.199  1.1473 -0.7352  0.9016
 6542SOL    HW231089   3.630   3.108  13.168  1.2834 -2.3596  0.3320
 6543SOL     OW31090   0.138   3.870   7.235 -0.0779 -0.5190  0.2606
 6543SOL    HW131091   0.183   3.842   7.155  0.1629  0.3388  0.0938
 6543SOL    HW231092   0.111   3.791   7.280  2.5247 -3.1259 -2.7540
 6544SOL     OW31093   3.554   2.397   4.843  0.7798 -0.1253 -0.0067
 6544SOL    HW131094   3.625   2.414   4.781 -1.3483  0.2611 -2.2981
 6544SOL    HW231095   3.568   2.304   4.859  1.6143 -0.1221 -0.7093
 6545SOL     OW31096   4.339   3.907  10.835  0.3905 -0.6173  0.6401
 6545SOL    HW131097   4.276   3.919  10.763 -0.1474 -2.5487  0.8056
 6545SOL    HW231098   4.381   3.828  10.802 -1.1276 -1.0738 -0.2197
 6546SOL     OW31099   3.331   3.878   1.849  0.5580 -0.5915  0.3365
 6546SOL    HW131100   3.268   3.908   1.783 -0.2057 -1.1306  0.8242
 6546SOL    HW231101   3.277   3.821   1.904  0.7860 -1.6105 -0.4938
 6547SOL     OW31102   3.636   4.084   4.289  0.4797  0.4192 -0.6012
 6547SOL    HW131103   3.662   4.063   4.379 -2.1147  0.7561  0.2190
 6547SOL    HW231104   3.557   4.134   4.311  0.5877  0.7217 -0.9024
 6548SOL     OW31105   2.591   1.019   2.508  0.1916 -0.0206  0.2851
 6548SOL    HW131106   2.560   0.935   2.543  1.7393 -0.0917  1.4635
 6548SOL    HW231107   2.596   1.006   2.413 -1.7163  0.4944  0.1125
 6549SOL     OW31108   3.704   2.011   8.310  0.1971 -0.4564  0.1796
 6549SOL    HW131109   3.689   2.081   8.374 -0.9767 -0.1662 -0.4210
 6549SOL    HW231110   3.743   1.943   8.366  0.2617 -1.7823 -1.4671
 6550SOL     OW31111   1.497   0.989   5.160  0.1326  0.2039  0.1750
 6550SOL    HW131112   1.442   1.055   5.203  1.0627  1.7011 -0.9309
 6550SOL    HW231113   1.442   0.910   5.162 -1.7385  1.4938 -0.3642
 6551SOL     OW31114   1.021   1.807   3.132 -0.1122  0.0329 -0.3474
 6551SOL    HW131115   0.994   1.843   3.217  1.1297  1.6040 -0.6043
 6551SOL    HW231116   1.008   1.877   3.069 -0.3365 -0.4758 -0.8649
 6552SOL     OW31117   2.742   2.266   5.221 -0.1060 -0.3042 -0.3672
 6552SOL    HW131118   2.715   2.357   5.213  0.3371 -0.2597 -1.3975
 6552SOL    HW231119   2.709   2.244   5.308 -0.9470  0.5028 -0.4905
 6553SOL     OW31120   2.583   4.395   8.062 -0.2092 -0.3753 -0.2633
 6553SOL    HW131121   2.601   4.378   8.155 -2.6584  0.3825  0.3786
 6553SOL    HW231122   2.594   4.491   8.062 -0.4787 -0.3402  0.9517
 6554SOL     OW31123   3.601   4.462   3.618  0.0070 -0.1357  0.4634
 6554SOL    HW131124   3.587   4.415   3.536 -0.2588 -0.6146  0.7855
 6554SOL    HW231125   3.565   4.543   3.581  0.7903 -0.0196 -0.0398
 6555SOL     OW31126   0.097   4.537  12.255 -0.4670  0.2353 -0.4346
 6555SOL    HW131127   0.061   4.618  12.290  0.1665  0.2103  0.2800
 6555SOL    HW231128   0.151   4.570  12.182  0.4817  3.3309  1.6674
 6556SOL     OW31129   0.890   0.721   7.623  0.0391 -0.2939  0.2570
 6556SOL    HW131130   0.968   0.772   7.601  1.5798 -2.3391  0.9694
 6556SOL    HW231131   0.818   0.784   7.613 -0.6221 -1.3102 -1.4365
 6557SOL     OW31132   1.339   0.980   3.738 -0.7536 -0.0300 -0.3834
 6557SOL    HW131133   1.295   1.037   3.675 -2.6943  0.8272  1.7603
 6557SOL    HW231134   1.391   0.921   3.683  0.5131  1.4094 -0.7228
 6558SOL     OW31135   3.144   2.587   1.924  0.3855  0.4788  0.6611
 6558SOL    HW131136   3.089   2.665   1.935 -0.0180  0.3073 -0.1243
 6558SOL    HW231137   3.161   2.591   1.830 -3.5454  0.4747 -0.0442
 6559SOL     OW31138   4.063   0.579  14.025  0.5117  0.9386  0.5043
 6559SOL    HW131139   4.108   0.660  14.050  1.9474  0.2679  0.0847
 6559SOL    HW231140   4.142   0.536  13.995 -0.6186 -0.2812 -0.6708
 6560SOL     OW31141   1.584   3.491   3.342 -0.2035 -0.2887 -0.3772
 6560SOL    HW131142   1.643   3.431   3.388 -0.5765 -1.1431 -1.0232
 6560SOL    HW231143   1.567   3.438   3.264 -0.0147  0.1843 -0.7402
 6561SOL     OW31144   1.211   2.747   7.297 -0.1289  0.4226 -0.3552
 6561SOL    HW131145   1.211   2.655   7.271  1.8668  0.4493 -0.4354
 6561SOL    HW231146   1.164   2.798   7.231  0.6451 -1.3569 -2.2935
 6562SOL     OW31147   4.113   2.640   6.252 -0.3077  0.1486 -0.6288
 6562SOL    HW131148   4.206   2.620   6.262 -0.5461  0.0050  1.3460
 6562SOL    HW231149   4.122   2.720   6.200  0.4336  0.2175 -0.3932
 6563SOL     OW31150   4.346   4.663   3.434 -0.1659  0.6685  0.3549
 6563SOL    HW131151   4.266   4.706   3.464 -0.8306  1.1675 -2.0975
 6563SOL    HW231152   4.315   4.598   3.371  1.1381  0.6465 -0.2647
 6564SOL     OW31153   1.736   1.417  10.754  0.1338 -0.0536 -0.5410
 6564SOL    HW131154   1.761   1.329  10.782  0.7765  1.0628  2.3830
 6564SOL    HW231155   1.820   1.461  10.751 -0.2115  0.5724 -0.9050
 6565SOL     OW31156   0.411   3.974  15.128  0.3317  0.0385  0.1302
 6565SOL    HW131157   0.343   3.914  15.157  1.1995 -0.7692  0.5129
 6565SOL    HW231158   0.487   3.916  15.139  1.3604  1.2747 -0.4286
 6566SOL     OW31159   0.047   0.287   2.618 -0.1219  0.3792  0.1903
 6566SOL    HW131160   0.059   0.267   2.711 -2.1978 -0.2202  0.3174
 6566SOL    HW231161   4.683   0.314   2.622 -0.1392  0.4337 -0.5991
 6567SOL     OW31162   2.455   3.130   7.335  0.3059 -0.2519 -0.4598
 6567SOL    HW131163   2.409   3.151   7.254 -1.0359 -3.1020 -0.4315
 6567SOL    HW231164   2.524   3.196   7.344  1.2190 -1.0975 -1.2002
 6568SOL     OW31165   3.113   2.469   6.412 -0.0138  0.1542  0.2929
 6568SOL    HW131166   3.069   2.425   6.340  0.1106 -0.0579  0.3465
 6568SOL    HW231167   3.050   2.447   6.481  0.3041  1.8778  1.1488
 6569SOL     OW31168   2.289   0.966   2.294  0.0346  0.5652 -0.0383
 6569SOL    HW131169   2.194   0.969   2.286  0.0172  0.4555  0.1342
 6569SOL    HW231170   2.307   1.058   2.273 -0.5904  0.7336  0.1843
 6570SOL     OW31171   4.623   0.799  12.119 -0.6315  0.1802 -0.0561
 6570SOL    HW131172   4.543   0.756  12.089 -1.1950  0.8219  0.5038
 6570SOL    HW231173   4.669   0.725  12.157  2.8081  2.3657 -0.0256
 6571SOL     OW31174   1.445   2.591  17.404 -0.3620  0.5443 -0.3279
 6571SOL    HW131175   1.520   2.553  17.449 -1.1498 -1.5730 -0.7777
 6571SOL    HW231176   1.466   2.587  17.311  0.2581 -0.7138 -0.1334
 6572SOL     OW31177   2.121   1.102   8.384 -0.5925 -0.1589  0.5524
 6572SOL    HW131178   2.197   1.071   8.336 -2.3513  0.9675 -2.9049
 6572SOL    HW231179   2.047   1.048   8.358  0.2442 -1.0093 -0.0690
 6573SOL     OW31180   1.696   1.902   5.040  0.1040 -0.3622  0.0748
 6573SOL    HW131181   1.741   1.949   4.970 -1.1253 -1.1752 -1.2711
 6573SOL    HW231182   1.694   1.961   5.115 -0.1910  0.2946 -0.4467
 6574SOL     OW31183   0.676   3.654   7.404  0.5013 -0.3116 -0.3311
 6574SOL    HW131184   0.648   3.638   7.494  0.2600 -1.8164 -0.6654
 6574SOL    HW231185   0.600   3.609   7.367 -0.0250  0.5530 -0.3060
 6575SOL     OW31186   3.011   3.065   8.850  0.3143  0.0531 -0.3991
 6575SOL    HW131187   2.951   3.094   8.918  0.5758 -3.3938  1.3232
 6575SOL    HW231188   3.053   2.990   8.892 -1.4089 -0.1663  0.9146
 6576SOL     OW31189   2.818   1.238  17.181  0.4225  0.8382  0.1555
 6576SOL    HW131190   2.819   1.326  17.218 -0.0947  1.1564 -0.5809
 6576SOL    HW231191   2.877   1.183  17.233 -0.3461 -0.6854 -0.5663
 6577SOL     OW31192   3.906   3.032   7.012  0.4443 -0.5923 -0.4147
 6577SOL    HW131193   3.835   3.074   6.964  0.7046  3.8470  3.0429
 6577SOL    HW231194   3.954   2.986   6.944 -0.2533  1.0566 -2.0107
 6578SOL     OW31195   2.544   1.503  16.079 -0.2078 -0.6039  0.5242
 6578SOL    HW131196   2.636   1.485  16.060 -0.4513 -1.4048  0.0869
 6578SOL    HW231197   2.512   1.452  16.004  0.4881 -0.1469 -0.0755
 6579SOL     OW31198   2.775   3.527   7.415 -0.2638 -0.2232 -0.0810
 6579SOL    HW131199   2.700   3.579   7.385  0.9066  1.0526 -0.8128
 6579SOL    HW231200   2.783   3.558   7.505 -1.3611 -2.5973  0.8290
 6580SOL     OW31201   1.530   3.024   6.945  0.8255 -0.5897 -1.1010
 6580SOL    HW131202   1.535   2.976   7.028  1.5381  2.5191  0.6575
 6580SOL    HW231203   1.492   3.111   6.959 -0.4414 -1.3096 -0.0628
 6581SOL     OW31204   3.412   2.866   5.086 -0.4925  0.4083  0.7713
 6581SOL    HW131205   3.360   2.946   5.074  0.9233  0.8586 -2.3598
 6581SOL    HW231206   3.488   2.880   5.030  0.0771  0.3515  1.5317
 6582SOL     OW31207   0.452   1.299   6.030 -0.3010  0.4209 -0.4128
 6582SOL    HW131208   0.486   1.379   5.991 -0.5469  2.1823  3.0584
 6582SOL    HW231209   0.357   1.308   6.018 -0.6872  1.7911  3.5952
 6583SOL     OW31210   1.587   1.191  14.386  0.2163 -0.1029 -0.2494
 6583SOL    HW131211   1.610   1.123  14.449  1.3445  0.2343 -0.2902
 6583SOL    HW231212   1.671   1.233  14.364  1.0154 -2.8690 -2.5236
 6584SOL     OW31213   2.672   1.749  13.980 -0.5022  0.2087 -0.5825
 6584SOL    HW131214   2.679   1.808  13.905 -0.9949  1.5749  0.4320
 6584SOL    HW231215   2.764   1.764  14.002  0.0122 -2.5051 -0.9475
 6585SOL     OW31216   3.036   1.235   3.517 -0.1821 -0.1532  0.3130
 6585SOL    HW131217   3.097   1.211   3.447 -1.3732 -0.0662 -0.7601
 6585SOL    HW231218   2.966   1.272   3.463  0.0272  0.1569  0.2538
 6586SOL     OW31219   2.390   1.595   8.062 -0.2345  0.3352  0.5645
 6586SOL    HW131220   2.483   1.595   8.086 -0.1548  0.9829  0.2387
 6586SOL    HW231221   2.360   1.634   8.145  0.8161 -0.5876  1.3790
 6587SOL     OW31222   3.896   0.428  15.065 -0.0556  0.0503 -0.5238
 6587SOL    HW131223   3.917   0.520  15.084  1.2829 -0.3922  0.0762
 6587SOL    HW231224   3.917   0.429  14.971  1.3237 -1.8417 -0.2261
 6588SOL     OW31225   3.405   3.009   1.311 -0.1511 -0.0155  0.2537
 6588SOL    HW131226   3.362   2.932   1.347  1.1553 -0.6515  0.4701
 6588SOL    HW231227   3.497   3.006   1.339  0.4295  2.1783 -1.2990
 6589SOL     OW31228   1.818   1.523  16.619 -0.7399  0.0662 -0.0573
 6589SOL    HW131229   1.873   1.573  16.558  0.2266  1.1487  1.7180
 6589SOL    HW231230   1.810   1.441  16.570 -0.9517 -0.9264  1.6432
 6590SOL     OW31231   0.501   1.372   8.633  0.1046 -0.0466 -0.2759
 6590SOL    HW131232   0.556   1.315   8.579  1.6664 -0.3896  1.6800
 6590SOL    HW231233   0.470   1.436   8.569  2.8532  1.2162 -0.3282
 6591SOL     OW31234   1.086   4.510   9.629  0.0984  0.2749 -0.0136
 6591SOL    HW131235   1.154   4.533   9.692  1.1359  1.4282 -1.5790
 6591SOL    HW231236   1.005   4.506   9.681 -0.1253  2.1072 -0.2360
 6592SOL     OW31237   3.960   0.943   0.277  0.5595  0.4743  0.0163
 6592SOL    HW131238   3.945   0.859   0.321  2.4523 -1.3421 -2.8201
 6592SOL    HW231239   3.866   0.942   0.257  0.9051  1.7274 -1.6647
 6593SOL     OW31240   0.298   1.326   3.673  0.0639  0.2591 -0.1249
 6593SOL    HW131241   0.233   1.290   3.613 -0.0411  0.8225 -0.3599
 6593SOL    HW231242   0.379   1.279   3.654 -0.0766  0.6290 -1.6374
 6594SOL     OW31243   0.976   0.414   8.266  0.2725  0.6002  0.0856
 6594SOL    HW131244   0.951   0.469   8.192 -0.3048  1.4545  0.9260
 6594SOL    HW231245   0.990   0.478   8.335  1.4912  0.9131 -0.4435
 6595SOL     OW31246   2.093   4.355   2.142  0.3738 -0.1776 -0.3870
 6595SOL    HW131247   2.150   4.432   2.133 -0.5053  0.3785 -1.2535
 6595SOL    HW231248   2.010   4.403   2.133  1.0443  1.2769  1.2538
 6596SOL     OW31249   4.333   1.740   5.497  0.3090 -0.0186 -0.9049
 6596SOL    HW131250   4.281   1.711   5.421  0.0028 -0.1402 -0.6480
 6596SOL    HW231251   4.344   1.654   5.537  3.5838 -1.4243 -4.8090
 6597SOL     OW31252   4.111   0.019   3.547 -0.0252  0.3612  0.1381
 6597SOL    HW131253   4.064   0.022   3.464 -0.7338 -2.1458  0.4528
 6597SOL    HW231254   4.085   4.659   3.576  2.1779 -0.7062 -1.0604
 6598SOL     OW31255   2.732   2.643   3.727  0.0111  0.2993 -0.0252
 6598SOL    HW131256   2.655   2.587   3.734  1.4901 -1.9211 -1.2856
 6598SOL    HW231257   2.746   2.662   3.819 -1.3377 -1.8450  0.6210
 6599SOL     OW31258   0.311   0.225   5.397 -0.2024  0.2178 -0.4212
 6599SOL    HW131259   0.398   0.260   5.417  0.6747 -1.2241 -1.7502
 6599SOL    HW231260   0.300   0.160   5.467  1.6814  0.2766 -0.0631
 6600SOL     OW31261   0.262   2.852   4.414 -0.5770 -0.5034 -0.2752
 6600SOL    HW131262   0.256   2.927   4.473 -3.4978 -1.7822  1.0472
 6600SOL    HW231263   0.207   2.888   4.345  3.5016  1.0604 -2.7353
 6601SOL     OW31264   0.222   4.038   4.852  0.9880  0.6433  0.3135
 6601SOL    HW131265   0.251   3.947   4.858  0.3855  0.4441  0.1129
 6601SOL    HW231266   0.215   4.047   4.757  1.6596 -1.4366  0.0612
 6602SOL     OW31267   0.381   0.864   7.684 -0.5696 -0.7145 -0.2067
 6602SOL    HW131268   0.332   0.822   7.612 -1.1596 -0.0818 -0.1695
 6602SOL    HW231269   0.301   0.885   7.732  1.1333  1.3347  1.6665
 6603SOL     OW31270   0.045   3.951   7.920 -0.4935 -0.1497 -0.4501
 6603SOL    HW131271   0.033   4.035   7.964  0.4747  2.4465 -5.0607
 6603SOL    HW231272   4.679   3.943   7.898 -0.9871  2.0240  0.7666
 6604SOL     OW31273   2.562   2.089   4.607 -0.1634 -0.3182 -0.4342
 6604SOL    HW131274   2.571   2.103   4.513 -1.0040  0.2513 -0.4349
 6604SOL    HW231275   2.619   2.014   4.623 -0.9515 -0.6856  0.7016
 6605SOL     OW31276   0.827   4.172  10.200  0.0130  0.7100 -0.1716
 6605SOL    HW131277   0.749   4.184  10.146 -0.0942  2.8364  0.4736
 6605SOL    HW231278   0.873   4.256  10.201 -1.1860  1.3612  0.4123
 6606SOL     OW31279   2.735   2.703  15.082 -0.1004  0.1829  0.0262
 6606SOL    HW131280   2.827   2.684  15.063 -0.3685  1.5825 -2.6508
 6606SOL    HW231281   2.746   2.708  15.177 -0.3286 -0.7949  0.1045
 6607SOL     OW31282   1.052   1.326   1.051 -0.4929 -0.0342 -0.3070
 6607SOL    HW131283   0.975   1.359   1.097 -0.7489 -2.6580  1.1528
 6607SOL    HW231284   1.078   1.247   1.098 -1.7754  0.9975  2.1154
 6608SOL     OW31285   2.107   3.022   3.865 -0.3041 -0.1512 -0.5125
 6608SOL    HW131286   2.161   3.074   3.924  2.2433  0.4541 -3.3893
 6608SOL    HW231287   2.135   2.936   3.896 -1.2418 -0.2009  0.1742
 6609SOL     OW31288   3.705   0.832   5.952  0.4533 -0.4127 -0.2273
 6609SOL    HW131289   3.667   0.780   6.022 -0.2680  1.3076  0.6784
 6609SOL    HW231290   3.641   0.816   5.882  1.6237  0.1823 -1.4249
 6610SOL     OW31291   1.090   3.879  17.024 -0.0275  0.1538 -0.0317
 6610SOL    HW131292   1.080   3.932  16.945  0.9583 -0.5117 -0.6067
 6610SOL    HW231293   1.128   3.802  16.982 -1.7474 -2.3294  2.9145
 6611SOL     OW31294   0.353   0.181  15.220 -0.8125 -0.4498 -0.1250
 6611SOL    HW131295   0.422   0.145  15.164  0.3028  1.5998 -0.0567
 6611SOL    HW231296   0.333   0.261  15.170 -0.9683 -1.1100 -1.1108
 6612SOL     OW31297   3.124   3.308  14.316  0.2920  0.0545 -0.0507
 6612SOL    HW131298   3.208   3.298  14.270  0.1581  0.5011 -0.3942
 6612SOL    HW231299   3.160   3.338  14.399  1.6166 -3.2097  0.5538
 6613SOL     OW31300   1.738   2.897   6.653  0.1854  0.2819 -0.7561
 6613SOL    HW131301   1.645   2.878   6.666  0.0129  0.0799 -2.3092
 6613SOL    HW231302   1.729   2.991   6.668 -0.8100 -0.0804  0.9677
 6614SOL     OW31303   3.529   4.449   1.895 -0.2097  0.3504 -0.0113
 6614SOL    HW131304   3.520   4.359   1.862 -2.6277 -0.0002  1.5888
 6614SOL    HW231305   3.624   4.460   1.894 -0.2282  0.4767 -0.5294
 6615SOL     OW31306   3.317   1.124   3.589  0.3683  0.2791 -0.2322
 6615SOL    HW131307   3.307   1.120   3.494  1.3291 -2.6492 -0.2026
 6615SOL    HW231308   3.323   1.219   3.602 -1.1411  0.6335 -2.1267
 6616SOL     OW31309   3.343   2.667   3.804  0.1812  0.0725 -0.0891
 6616SOL    HW131310   3.418   2.722   3.782 -0.0895  0.6100  0.3529
 6616SOL    HW231311   3.274   2.731   3.822  0.7196  0.6425 -0.0574
 6617SOL     OW31312   3.760   4.040   2.751  0.3747 -0.3438  0.5814
 6617SOL    HW131313   3.706   4.074   2.680  0.9519  1.8384  1.1781
 6617SOL    HW231314   3.719   4.077   2.830 -1.5691 -1.8542  0.2664
 6618SOL     OW31315   4.244   4.172   5.129  0.1440 -0.2924  0.0982
 6618SOL    HW131316   4.223   4.107   5.196  0.8085  0.0973  0.6996
 6618SOL    HW231317   4.339   4.166   5.120 -0.0864 -1.9667 -1.1139
 6619SOL     OW31318   3.503   2.592  12.832  0.1749  0.1433  0.1702
 6619SOL    HW131319   3.535   2.502  12.830  0.4972  0.2772 -0.7152
 6619SOL    HW231320   3.518   2.608  12.738  0.1528 -2.6784 -0.3102
 6620SOL     OW31321   4.697   1.803   2.417 -0.0684  0.2521 -0.0772
 6620SOL    HW131322   4.655   1.871   2.364 -0.5633  0.5887  0.7455
 6620SOL    HW231323   4.652   1.790   2.501 -1.0662  0.7136 -0.5394
 6621SOL     OW31324   0.884   0.566   5.853 -0.0462 -0.1514 -0.2270
 6621SOL    HW131325   0.845   0.577   5.940  2.5873 -0.5648  1.0044
 6621SOL    HW231326   0.803   0.557   5.802  0.4361 -1.7117 -0.7167
 6622SOL     OW31327   0.966   3.725   7.568  0.0827 -0.0194  0.2647
 6622SOL    HW131328   0.896   3.733   7.503  0.7899  0.1789 -0.4757
 6622SOL    HW231329   0.967   3.629   7.564 -0.5241 -0.0266  0.2738
 6623SOL     OW31330   4.483   1.860   3.291  0.3036  0.0158 -0.0715
 6623SOL    HW131331   4.421   1.910   3.238  0.8960  1.7548  0.8908
 6623SOL    HW231332   4.566   1.908   3.290  0.1229  0.3277 -0.1149
 6624SOL     OW31333   4.569   3.797   7.353 -0.6117 -0.1768 -0.3738
 6624SOL    HW131334   4.484   3.793   7.397 -0.6062  1.6131 -0.2151
 6624SOL    HW231335   4.573   3.892   7.349 -0.2797 -0.1190  1.4947
 6625SOL     OW31336   3.452   2.089  11.321  0.2041  0.2336  0.3814
 6625SOL    HW131337   3.384   2.111  11.384 -0.1506  2.3309 -0.7133
 6625SOL    HW231338   3.533   2.132  11.350 -0.5643  1.6755  0.3625
 6626SOL     OW31339   3.979   3.058  10.368 -0.3194  0.8349  0.4539
 6626SOL    HW131340   4.006   2.971  10.341  3.5002  2.1899 -0.1919
 6626SOL    HW231341   4.062   3.079  10.411  1.2787 -1.5889 -1.5322
 6627SOL     OW31342   0.910   2.632  13.723  0.2246  0.1672  0.4545
 6627SOL    HW131343   0.834   2.662  13.773 -1.0618  0.5041 -1.6772
 6627SOL    HW231344   0.856   2.583  13.661 -0.1678 -2.5899  2.9680
 6628SOL     OW31345   1.050   1.136  17.694 -0.1085 -0.4027  0.7367
 6628SOL    HW131346   1.034   1.047   0.017  0.4145  0.5570  3.5828
 6628SOL    HW231347   1.108   1.177   0.048  2.3712  0.8012 -2.2925
 6629SOL     OW31348   4.109   4.231  10.480 -0.2636  0.3334 -0.3908
 6629SOL    HW131349   4.038   4.245  10.418 -1.1134 -1.1832  0.2286
 6629SOL    HW231350   4.126   4.140  10.456  5.2616  1.1620  0.3373
 6630SOL     OW31351   2.058   3.629   9.071 -0.0404 -0.3232 -0.1772
 6630SOL    HW131352   2.105   3.712   9.079  0.4541 -0.5504 -0.7159
 6630SOL    HW231353   2.123   3.562   9.092  0.4451 -0.5190 -2.2664
 6631SOL     OW31354   2.761   3.756   3.899 -0.6791 -0.0344 -0.7616
 6631SOL    HW131355   2.849   3.768   3.862  0.7251 -2.8202  1.6586
 6631SOL    HW231356   2.735   3.848   3.893 -2.5304 -0.5207  0.0227
 6632SOL     OW31357   2.490   2.153   0.148  0.2772 -0.2561 -0.2119
 6632SOL    HW131358   2.459   2.244   0.156  1.4795  0.4175 -2.9758
 6632SOL    HW231359   2.569   2.150   0.202 -0.4482  1.0421  0.9330
 6633SOL     OW31360   2.716   4.372  13.067 -0.4107  0.1506  0.3226
 6633SOL    HW131361   2.743   4.313  13.137  0.7724  1.0033  0.5870
 6633SOL    HW231362   2.669   4.314  13.007  0.8249  0.1449 -0.6353
 6634SOL     OW31363   0.678   1.496   6.384 -0.3825 -0.0531 -0.5228
 6634SOL    HW131364   0.660   1.432   6.316 -2.6527 -2.7026  2.5769
 6634SOL    HW231365   0.756   1.462   6.428  0.5712  1.6948 -0.8432
 6635SOL     OW31366   0.867   0.368   4.142 -0.8389 -0.1385 -0.1147
 6635SOL    HW131367   0.940   0.397   4.087 -1.4635 -2.4567 -2.1940
 6635SOL    HW231368   0.808   0.443   4.132 -1.0799 -0.3045  0.0666
 6636SOL     OW31369   2.791   0.647   6.475 -0.0458 -1.1576 -0.5672
 6636SOL    HW131370   2.720   0.710   6.467  2.0833  1.4074  0.6183
 6636SOL    HW231371   2.865   0.697   6.440  0.6815 -1.4781  0.5084
 6637SOL     OW31372   0.598   3.576  12.176  0.4137 -0.3691  0.1359
 6637SOL    HW131373   0.531   3.539  12.118  0.2677 -1.2084  0.8424
 6637SOL    HW231374   0.677   3.565  12.123  0.0166 -0.0264 -0.5379
 6638SOL     OW31375   0.481   0.008  14.005 -0.6243  0.3850 -0.0421
 6638SOL    HW131376   0.442   4.664  13.955  0.7875 -0.7050  0.4062
 6638SOL    HW231377   0.485   0.075  13.937  0.7039 -0.9728 -1.3041
 6639SOL     OW31378   0.954   0.097   6.964 -0.4345  0.3639  0.0075
 6639SOL    HW131379   1.049   0.111   6.956 -0.2593 -0.1104  1.1507
 6639SOL    HW231380   0.930   0.190   6.973 -1.0655  0.3012 -1.1017
 6640SOL     OW31381   3.042   1.624   9.023  0.0502 -0.2368  0.5624
 6640SOL    HW131382   3.045   1.571   9.102 -0.9469 -1.7792 -0.4255
 6640SOL    HW231383   3.039   1.548   8.965 -2.6662  0.3018 -0.0484
 6641SOL     OW31384   2.720   3.643  15.978 -0.1271  0.5352  0.0489
 6641SOL    HW131385   2.660   3.683  16.041  0.6621 -0.5047  1.4680
 6641SOL    HW231386   2.726   3.708  15.909 -4.2388  0.8302 -0.0438
 6642SOL     OW31387   1.625   3.620   1.531  0.0492 -0.0932 -0.3549
 6642SOL    HW131388   1.613   3.691   1.593 -1.2162 -0.7095  0.1061
 6642SOL    HW231389   1.676   3.563   1.589  1.3103 -0.4457 -1.8192
 6643SOL     OW31390   2.333   0.190   6.179  0.7728 -0.0315  0.7648
 6643SOL    HW131391   2.343   0.111   6.233  1.1636  0.0375  0.7945
 6643SOL    HW231392   2.386   0.165   6.103  1.8880  1.9440  0.8954
 6644SOL     OW31393   4.668   4.163   7.398 -0.1093 -0.0559 -0.3589
 6644SOL    HW131394   4.661   4.243   7.450  0.6575  1.6767 -2.9263
 6644SOL    HW231395   4.576   4.138   7.388  0.1920 -0.8653 -1.0998
 6645SOL     OW31396   0.509   4.593  10.504 -0.1977 -0.3479  0.4079
 6645SOL    HW131397   0.566   4.519  10.523  1.0380  0.2673 -0.9672
 6645SOL    HW231398   0.570   4.655  10.466 -1.3602 -0.0903 -1.0359
 6646SOL     OW31399   1.194   3.939   5.908 -0.1985  0.2942 -0.6014
 6646SOL    HW131400   1.184   3.846   5.886  1.3844  0.0381 -0.2578
 6646SOL    HW231401   1.160   3.932   5.998  2.2636 -0.2982  0.2856
 6647SOL     OW31402   2.231   3.841  10.752  0.0578  0.2762 -0.2395
 6647SOL    HW131403   2.164   3.849  10.820 -0.5795  1.9154 -1.0577
 6647SOL    HW231404   2.272   3.762  10.788  0.2458 -0.2049 -1.5024
 6648SOL     OW31405   1.916   0.804   5.039  0.3904 -0.4746  0.2499
 6648SOL    HW131406   1.862   0.792   4.961  0.7519  0.4926 -0.1519
 6648SOL    HW231407   1.849   0.786   5.105  0.3816  1.2037  0.7049
 6649SOL     OW31408   0.941   4.535   9.854  0.5346  1.2542  0.1274
 6649SOL    HW131409   0.915   4.627   9.856  1.3445  1.4232  2.3933
 6649SOL    HW231410   0.886   4.504   9.926 -1.2493  1.2664 -1.2302
 6650SOL     OW31411   0.692   0.116   3.498  0.5821  0.1894 -0.3675
 6650SOL    HW131412   0.631   0.182   3.465  0.2956 -1.0300 -2.3222
 6650SOL    HW231413   0.631   0.050   3.529  0.1967  0.2197 -1.0551
 6651SOL     OW31414   1.493   2.578   4.708  0.2204  0.4273  0.1110
 6651SOL    HW131415   1.503   2.492   4.666 -3.8128 -0.7670  1.5966
 6651SOL    HW231416   1.584   2.596   4.734  0.1599 -1.4897  1.7237
 6652SOL     OW31417   1.055   0.675   6.614 -0.3968 -0.0541  0.2723
 6652SOL    HW131418   1.080   0.736   6.544 -1.9423 -1.0154 -1.1191
 6652SOL    HW231419   0.991   0.630   6.558  0.1601 -2.4666  1.5643
 6653SOL     OW31420   0.249   0.162   7.733 -0.1522 -0.2165  0.0534
 6653SOL    HW131421   0.274   0.224   7.665 -0.1037 -0.8947 -0.5467
 6653SOL    HW231422   0.332   0.129   7.767  0.7607  2.8154  0.7816
 6654SOL     OW31423   1.541   0.136   2.263 -0.2711  0.6654 -0.2081
 6654SOL    HW131424   1.457   0.110   2.225 -0.2215 -1.1305  0.9001
 6654SOL    HW231425   1.585   0.051   2.258 -0.5428  0.3962  1.8242
 6655SOL     OW31426   3.210   1.776   7.327  0.0838 -0.1622  0.2864
 6655SOL    HW131427   3.280   1.836   7.355 -0.9746  1.3001 -0.2120
 6655SOL    HW231428   3.212   1.717   7.403  1.0382  2.8928  2.6427
 6656SOL     OW31429   3.439   1.461   2.432 -0.6082 -0.4741  0.1137
 6656SOL    HW131430   3.406   1.421   2.351 -0.2127 -2.3117  0.8762
 6656SOL    HW231431   3.471   1.380   2.472  0.9976  0.4940  0.7946
 6657SOL     OW31432   4.538   3.711  11.663  0.0891  0.2677  0.0771
 6657SOL    HW131433   4.509   3.798  11.689 -2.4682 -0.1395 -1.3699
 6657SOL    HW231434   4.496   3.709  11.577 -1.2491 -0.9886  0.7639
 6658SOL     OW31435   0.819   2.021   0.194 -0.1905  0.2156  0.2433
 6658SOL    HW131436   0.871   2.082   0.142  0.5005 -2.3518 -2.0982
 6658SOL    HW231437   0.752   2.080   0.228 -0.0448  1.1351 -1.0668
 6659SOL     OW31438   1.116   0.943   2.591 -0.4963 -0.0645 -0.6961
 6659SOL    HW131439   1.161   0.912   2.512 -0.3308 -0.4494 -0.4509
 6659SOL    HW231440   1.084   1.028   2.560  0.5256  0.1322 -1.2331
 6660SOL     OW31441   2.127   2.384   9.309  0.3102  0.0519 -0.1259
 6660SOL    HW131442   2.044   2.431   9.297  1.1461  0.9759 -2.3812
 6660SOL    HW231443   2.155   2.365   9.220  2.7885 -1.5252  0.9945
 6661SOL     OW31444   4.612   0.132   1.573 -0.7128 -0.2100 -0.5894
 6661SOL    HW131445   4.605   0.044   1.610  0.4985 -0.3971 -0.7762
 6661SOL    HW231446   4.705   0.148   1.593 -0.6751  0.3070 -1.1986
 6662SOL     OW31447   2.974   1.828   8.855 -0.0153 -0.2165  0.0830
 6662SOL    HW131448   2.964   1.792   8.767  0.6013  1.8626 -0.8431
 6662SOL    HW231449   2.968   1.750   8.910 -0.9266  0.4734  0.9583
 6663SOL     OW31450   3.967   1.137   0.762  0.2397  0.2758 -0.1948
 6663SOL    HW131451   4.025   1.180   0.824 -1.0962  0.4595  0.9293
 6663SOL    HW231452   4.017   1.060   0.735  0.2488 -0.6729  2.5923
 6664SOL     OW31453   0.418   2.861   8.520  0.4278 -0.0631 -0.2934
 6664SOL    HW131454   0.376   2.817   8.446  1.8581 -0.0444 -1.1007
 6664SOL    HW231455   0.376   2.820   8.596  1.3012  0.9964  0.7539
 6665SOL     OW31456   0.597   4.133   1.231 -0.2161  0.0943  1.4619
 6665SOL    HW131457   0.517   4.139   1.284 -0.8818 -1.1672  0.5739
 6665SOL    HW231458   0.592   4.216   1.183  1.2799  0.7964  2.5169
 6666SOL     OW31459   3.058   1.112   7.845 -0.2851  0.4281 -0.6736
 6666SOL    HW131460   3.091   1.067   7.923  0.2071  1.7700 -0.0984
 6666SOL    HW231461   3.139   1.108   7.794 -0.2190  0.4383 -0.5685
 6667SOL     OW31462   3.169   1.129   0.328 -0.1063 -0.1463 -0.0843
 6667SOL    HW131463   3.160   1.058   0.391 -2.4220 -0.1378 -0.3888
 6667SOL    HW231464   3.091   1.105   0.277 -1.0297 -0.5503  1.5012
 6668SOL     OW31465   2.611   3.771  15.008 -0.1619  0.7092  0.2091
 6668SOL    HW131466   2.662   3.849  14.987 -3.1309  2.6144 -0.0663
 6668SOL    HW231467   2.631   3.717  14.932  1.2621  1.1786  0.2527
 6669SOL     OW31468   0.586   2.653   2.298  0.0576 -0.0384  0.6939
 6669SOL    HW131469   0.569   2.575   2.351  1.0248 -0.9989 -0.3841
 6669SOL    HW231470   0.501   2.696   2.303  0.5962  1.3459 -2.2071
 6670SOL     OW31471   3.579   2.809   6.014 -0.2553  0.0202  0.2381
 6670SOL    HW131472   3.577   2.862   6.093 -1.5299 -0.5594  0.5963
 6670SOL    HW231473   3.667   2.771   6.014 -0.6586 -0.9665 -2.1059
 6671SOL     OW31474   1.139   3.123   6.298  0.3603  0.0173  0.0519
 6671SOL    HW131475   1.064   3.136   6.355  0.3047 -2.7464  0.6022
 6671SOL    HW231476   1.198   3.181   6.347  2.0323 -2.3014  0.8015
 6672SOL     OW31477   0.910   1.503   5.716 -0.5591  0.0372 -0.3143
 6672SOL    HW131478   0.948   1.452   5.644 -1.0922  0.0212 -0.5826
 6672SOL    HW231479   0.880   1.580   5.668 -0.5462  0.4632  0.3679
 6673SOL     OW31480   3.467   0.580   3.434 -0.1248 -0.4044 -0.1096
 6673SOL    HW131481   3.396   0.592   3.372  0.2216  1.1107 -0.2069
 6673SOL    HW231482   3.547   0.553   3.389 -0.8707 -2.4534 -0.2043
 6674SOL     OW31483   0.973   0.250   1.638  0.4306 -0.5085 -0.7373
 6674SOL    HW131484   0.979   0.343   1.619 -0.0827 -0.5962 -1.3129
 6674SOL    HW231485   0.948   0.224   1.549 -1.1516  0.1059 -0.4605
 6675SOL     OW31486   3.418   1.815   4.926 -0.1925 -0.2740  0.4285
 6675SOL    HW131487   3.491   1.859   4.969  0.7755 -0.6033 -0.9152
 6675SOL    HW231488   3.340   1.866   4.948  0.2804  0.3646  0.6145
 6676SOL     OW31489   0.194   2.131  17.655  0.2982  0.2280 -0.1272
 6676SOL    HW131490   0.220   2.092  17.571 -1.2831  0.2089 -0.6067
 6676SOL    HW231491   0.141   2.060  17.693  2.2330 -1.6824 -1.0134
 6677SOL     OW31492   1.245   0.819   3.355  0.5362 -0.1859  0.4336
 6677SOL    HW131493   1.315   0.831   3.420 -0.3006  0.3764  1.2236
 6677SOL    HW231494   1.194   0.897   3.376 -1.3606 -1.2629 -0.1978
 6678SOL     OW31495   4.221   1.770  15.031 -0.2407 -0.1688  0.3699
 6678SOL    HW131496   4.159   1.728  15.090 -3.2051 -0.5842 -3.0085
 6678SOL    HW231497   4.203   1.863  15.047 -1.1510 -0.1543 -0.6994
 6679SOL     OW31498   3.724   0.422   7.305 -0.6449  0.2695 -0.2074
 6679SOL    HW131499   3.807   0.383   7.277 -0.9497 -0.9959  0.6536
 6679SOL    HW231500   3.733   0.436   7.399 -0.4924 -1.2334 -0.0048
 6680SOL     OW31501   2.828   1.098  15.091  0.1422  0.8521  0.0539
 6680SOL    HW131502   2.892   1.027  15.086 -0.4434  0.1216  3.0182
 6680SOL    HW231503   2.867   1.157  15.155  0.4524  0.3237  0.3506
 6681SOL     OW31504   3.540   3.391   5.002  0.1246  0.0917 -0.5452
 6681SOL    HW131505   3.470   3.455   4.997 -0.0274 -0.0616 -0.3830
 6681SOL    HW231506   3.596   3.436   5.066  0.7634  1.0602 -1.7914
 6682SOL     OW31507   0.827   4.160  10.493 -0.0726 -0.1232  0.0473
 6682SOL    HW131508   0.800   4.170  10.402  2.8083 -0.6671 -0.8834
 6682SOL    HW231509   0.829   4.065  10.507  0.2378  0.1769  2.0770
 6683SOL     OW31510   1.078   1.097   4.710  0.3129 -0.8042  0.0663
 6683SOL    HW131511   0.989   1.078   4.738  0.8836 -4.2972 -0.4787
 6683SOL    HW231512   1.127   1.104   4.791 -1.3457  0.0752  0.9892
 6684SOL     OW31513   3.600   2.408  10.120  0.5690  0.1624  0.4564
 6684SOL    HW131514   3.639   2.487  10.082  1.7145 -0.1454  0.9912
 6684SOL    HW231515   3.517   2.455  10.132  2.1980  3.5659 -1.5111
 6685SOL     OW31516   3.730   1.598   9.103 -0.2522  0.0653 -0.0003
 6685SOL    HW131517   3.726   1.529   9.036 -2.5184  0.6050 -0.4390
 6685SOL    HW231518   3.793   1.659   9.065  0.8741 -0.9038  0.3197
 6686SOL     OW31519   4.312   0.529   6.873 -0.4002 -0.1836  0.0674
 6686SOL    HW131520   4.377   0.463   6.852 -1.8894 -0.8978 -2.2753
 6686SOL    HW231521   4.235   0.481   6.843 -0.4691  0.0461 -0.1178
 6687SOL     OW31522   0.682   2.339   9.060 -0.1081  0.4516 -0.2414
 6687SOL    HW131523   0.724   2.314   9.143  0.8350  0.2338 -0.7872
 6687SOL    HW231524   0.717   2.427   9.047  1.5569 -0.2980 -0.8530
 6688SOL     OW31525   4.202   3.799   6.082 -0.1041 -0.0623 -0.4679
 6688SOL    HW131526   4.260   3.726   6.059  0.5231  0.1392  0.4898
 6688SOL    HW231527   4.159   3.829   6.002 -0.3889 -0.0218 -0.3005
 6689SOL     OW31528   4.213   0.699   7.438  0.5988  0.0271 -0.4855
 6689SOL    HW131529   4.133   0.671   7.394  0.1382 -0.9476  0.9934
 6689SOL    HW231530   4.255   0.767   7.385  0.7967  0.3234  0.0611
 6690SOL     OW31531   2.144   3.691   3.978 -0.0918  0.4642  0.2897
 6690SOL    HW131532   2.107   3.690   3.890 -1.5701  1.2104  0.9104
 6690SOL    HW231533   2.231   3.719   3.950 -1.1721  2.5051 -0.9639
 6691SOL     OW31534   0.271   0.175   0.041 -0.0101 -0.0941 -0.1765
 6691SOL    HW131535   0.290   0.178   0.135 -2.0714  0.1399  0.2250
 6691SOL    HW231536   0.192   0.228   0.049 -0.5209 -0.7497 -0.8862
 6692SOL     OW31537   1.490   4.185   2.536 -0.4436  0.2284  0.2787
 6692SOL    HW131538   1.420   4.237   2.575 -0.7337  1.1840 -1.5011
 6692SOL    HW231539   1.427   4.122   2.500 -0.2892  0.1420  0.1556
 6693SOL     OW31540   0.047   1.902   5.149 -0.3431 -0.5117  0.2948
 6693SOL    HW131541   4.714   1.976   5.147 -0.1515 -0.3562  0.2607
 6693SOL    HW231542   0.126   1.954   5.133 -1.4150  1.4020  1.2487
 6694SOL     OW31543   2.416   0.617   5.890 -0.2362  0.3440  0.5226
 6694SOL    HW131544   2.326   0.589   5.878 -0.3861  0.2328  1.8973
 6694SOL    HW231545   2.447   0.545   5.945 -0.2862  0.2175  0.3832
 6695SOL     OW31546   1.437   1.635   8.589  0.5260  0.9429  1.0907
 6695SOL    HW131547   1.353   1.680   8.600 -0.9892 -1.8002  0.9854
 6695SOL    HW231548   1.502   1.655   8.656  1.2106 -2.0459  1.3058
 6696SOL     OW31549   0.895   3.458   5.687  0.2062  0.4369  0.3164
 6696SOL    HW131550   0.977   3.441   5.733 -1.2826 -0.4941  2.6075
 6696SOL    HW231551   0.851   3.480   5.769 -0.6587 -0.2569  0.0390
 6697SOL     OW31552   0.863   1.243   0.841  0.2532  0.5299  0.2591
 6697SOL    HW131553   0.925   1.196   0.786 -0.4225 -1.8682  1.5667
 6697SOL    HW231554   0.920   1.265   0.915  0.0818  0.1741  0.4994
 6698SOL     OW31555   1.448   4.642   6.960 -0.1369 -0.0368 -0.4919
 6698SOL    HW131556   1.500   4.691   6.896 -1.5836  1.0050 -0.8603
 6698SOL    HW231557   1.461   4.678   7.048 -1.1940  2.1475 -1.2361
 6699SOL     OW31558   3.349   0.240   4.630 -0.2830 -0.1962  0.2858
 6699SOL    HW131559   3.379   0.264   4.717  1.0071 -3.0759  0.6121
 6699SOL    HW231560   3.289   0.314   4.619 -2.2755 -2.0298 -1.2816
 6700SOL     OW31561   2.291   2.872  14.469 -0.0965 -0.4869 -0.3252
 6700SOL    HW131562   2.356   2.844  14.533 -1.1300  0.6870  1.2529
 6700SOL    HW231563   2.321   2.822  14.393  0.6705 -0.6154  0.0684
 6701SOL     OW31564   3.124   0.272   1.391 -0.2356 -0.5968 -0.2495
 6701SOL    HW131565   3.084   0.191   1.421  2.0089 -1.6481 -0.1264
 6701SOL    HW231566   3.071   0.294   1.315 -1.0449  0.0307  0.4811
 6702SOL     OW31567   4.117   1.962   2.735  0.1212  0.1498  0.1800
 6702SOL    HW131568   4.094   1.958   2.642 -1.9937  1.4402  0.6525
 6702SOL    HW231569   4.081   2.046   2.764 -2.0539 -0.9597  0.6555
 6703SOL     OW31570   3.507   3.749  12.415 -0.0683  0.4979 -0.2980
 6703SOL    HW131571   3.524   3.669  12.465 -0.4087 -0.0646 -1.0804
 6703SOL    HW231572   3.412   3.758  12.418  0.0432 -0.0788  4.9994
 6704SOL     OW31573   0.590   3.136   4.764 -0.5898  0.3800  0.1296
 6704SOL    HW131574   0.543   3.144   4.681 -1.0942 -2.8202  0.1103
 6704SOL    HW231575   0.581   3.043   4.785 -0.6130  0.4554  0.4502
 6705SOL     OW31576   3.881   0.008   7.664 -0.5667  0.5071 -0.1556
 6705SOL    HW131577   3.948   0.075   7.679  1.7556 -1.5098 -1.5032
 6705SOL    HW231578   3.867   0.020   7.570 -0.6548  0.8020 -0.1022
 6706SOL     OW31579   1.159   3.132   7.363  0.4078 -0.3438  0.2944
 6706SOL    HW131580   1.197   3.184   7.434 -0.2342  2.6402 -1.5092
 6706SOL    HW231581   1.082   3.101   7.411  0.3205 -0.7208 -0.0953
 6707SOL     OW31582   1.371   3.927   4.258 -0.2920 -0.1504  0.5822
 6707SOL    HW131583   1.359   3.996   4.194 -1.0152 -0.5757  0.2640
 6707SOL    HW231584   1.466   3.932   4.272 -0.2125 -0.6892  0.2380
 6708SOL     OW31585   2.272   3.075  12.324 -0.4394 -0.2479  0.3810
 6708SOL    HW131586   2.276   3.009  12.254  0.5066 -1.4179  1.5213
 6708SOL    HW231587   2.302   3.146  12.267 -0.5963  0.8877  1.7174
 6709SOL     OW31588   4.168   0.803   9.066  0.3627  0.3267  0.3658
 6709SOL    HW131589   4.193   0.766   9.151  0.5657 -0.8468 -0.2113
 6709SOL    HW231590   4.165   0.898   9.079 -3.5933  0.3533 -0.6666
 6710SOL     OW31591   3.411   3.029   9.462  0.5257 -0.2214 -0.5258
 6710SOL    HW131592   3.324   3.069   9.469  1.0382  0.8470 -0.3483
 6710SOL    HW231593   3.456   3.070   9.536 -0.5366  0.3444 -0.1907
 6711SOL     OW31594   1.176   4.528   2.162  0.2083  0.3805  0.2587
 6711SOL    HW131595   1.245   4.464   2.143 -0.6855 -0.1286 -1.2503
 6711SOL    HW231596   1.116   4.472   2.211 -0.5071  1.3660  0.5060
 6712SOL     OW31597   0.102   4.372   8.333  0.7278  0.1870 -0.1342
 6712SOL    HW131598   0.021   4.377   8.384  0.4319 -3.8249 -0.1898
 6712SOL    HW231599   0.168   4.387   8.400  0.5952 -2.1590  0.5159
 6713SOL     OW31600   4.273   0.857   6.652  0.3265 -0.7721  0.4769
 6713SOL    HW131601   4.332   0.863   6.576 -2.3347 -1.1621 -1.6206
 6713SOL    HW231602   4.212   0.921   6.615  1.3645 -0.0028  0.1176
 6714SOL     OW31603   3.823   3.723   8.015 -0.2083 -0.1110  0.1929
 6714SOL    HW131604   3.761   3.703   7.945  3.4689 -4.3002 -1.9080
 6714SOL    HW231605   3.857   3.637   8.039 -0.4148  0.0244  0.9775
 6715SOL     OW31606   2.854   0.449   5.320 -0.0485  0.0276  0.2981
 6715SOL    HW131607   2.816   0.487   5.399  0.2349  0.9901 -0.0257
 6715SOL    HW231608   2.776   0.422   5.271  0.2794 -0.7297  0.1915
 6716SOL     OW31609   1.446   2.043   9.059 -0.7041  0.0487  0.9847
 6716SOL    HW131610   1.416   2.102   8.990 -1.1083  0.8117  1.8147
 6716SOL    HW231611   1.427   1.960   9.016 -1.1584  1.2799 -1.2082
 6717SOL     OW31612   3.913   3.082   9.231  0.2292 -0.2305  0.0551
 6717SOL    HW131613   3.954   3.164   9.259 -0.7668 -0.9070  3.5439
 6717SOL    HW231614   3.842   3.072   9.295  0.9145  0.5291  0.9252
 6718SOL     OW31615   2.208   1.960   3.247  0.1024  0.7064 -0.0703
 6718SOL    HW131616   2.190   1.923   3.161 -1.7661  1.4503  0.0043
 6718SOL    HW231617   2.304   1.964   3.241  0.0980 -0.2140 -0.8666
 6719SOL     OW31618   1.963   1.448   8.749  0.5390 -0.6061  0.7534
 6719SOL    HW131619   1.880   1.480   8.713  1.0316 -0.4005 -0.1901
 6719SOL    HW231620   1.986   1.509   8.820 -1.1603 -0.8003  1.4875
 6720SOL     OW31621   3.770   1.316   6.904 -0.3355 -0.0113  0.4650
 6720SOL    HW131622   3.743   1.396   6.947 -0.2383  0.0315  0.4465
 6720SOL    HW231623   3.702   1.298   6.838 -0.1018  2.1419 -0.3681
 6721SOL     OW31624   2.536   3.615   3.639  0.3148 -0.1067  0.0102
 6721SOL    HW131625   2.610   3.617   3.579  0.7624 -1.9053  0.4900
 6721SOL    HW231626   2.520   3.708   3.653  1.4512 -0.1455  1.6702
 6722SOL     OW31627   4.720   3.208  12.734 -0.0854  0.1538 -0.6170
 6722SOL    HW131628   0.038   3.139  12.784  1.1599  0.4580 -1.3189
 6722SOL    HW231629   4.704   3.268  12.807 -0.5748 -0.1487 -0.4762
 6723SOL     OW31630   1.345   2.630   6.809  0.0855  0.3945 -0.1567
 6723SOL    HW131631   1.361   2.725   6.804 -0.4033  0.4596 -0.4845
 6723SOL    HW231632   1.275   2.623   6.874 -0.4131  0.2694 -0.7017
 6724SOL     OW31633   0.578   3.606   2.373 -0.2166  0.4287 -0.5586
 6724SOL    HW131634   0.540   3.647   2.295 -0.9870 -0.4208 -0.6304
 6724SOL    HW231635   0.511   3.540   2.394  1.6217 -1.2653 -0.0211
 6725SOL     OW31636   2.185   4.066   0.813 -0.1305  0.1309 -0.2808
 6725SOL    HW131637   2.115   4.132   0.810  0.8140  1.0150 -2.7712
 6725SOL    HW231638   2.197   4.048   0.720 -0.9300 -0.0445 -0.3580
 6726SOL     OW31639   3.320   1.016   4.728  0.0327 -0.4117  0.5178
 6726SOL    HW131640   3.279   1.011   4.814  1.5685  2.2361  1.3814
 6726SOL    HW231641   3.248   1.038   4.668  1.7757 -2.3379 -2.3060
 6727SOL     OW31642   2.601   4.315   3.476  0.0046  0.1828 -0.2024
 6727SOL    HW131643   2.584   4.326   3.570 -0.2550 -2.8713  0.1099
 6727SOL    HW231644   2.586   4.403   3.440 -0.4958 -0.8440 -2.5262
 6728SOL     OW31645   0.132   3.664   3.152  0.0523 -0.2224 -0.4596
 6728SOL    HW131646   0.220   3.627   3.152  0.3803  0.5664 -0.7366
 6728SOL    HW231647   0.083   3.584   3.130  1.1059 -0.7125 -1.0022
 6729SOL     OW31648   3.828   1.117   8.776 -0.0210  0.0324 -0.0256
 6729SOL    HW131649   3.847   1.201   8.735  1.8411 -1.1037 -1.4571
 6729SOL    HW231650   3.736   1.103   8.752 -0.2833 -0.5307  1.2581
 6730SOL     OW31651   2.557   2.338   1.975  0.3844  0.5512 -0.1063
 6730SOL    HW131652   2.504   2.259   1.965  1.2833 -0.3957  2.6029
 6730SOL    HW231653   2.496   2.397   1.930 -1.8223 -0.0543  2.0836
 6731SOL     OW31654   3.701   2.533   1.799 -0.1377  0.1715  0.5203
 6731SOL    HW131655   3.755   2.550   1.876  0.5398  0.0315  0.0751
 6731SOL    HW231656   3.754   2.576   1.731  1.5799 -2.0232  0.4677
 6732SOL     OW31657   0.635   2.107   6.691  0.5783 -0.0157 -0.6356
 6732SOL    HW131658   0.624   2.188   6.641 -1.3986 -1.0635 -1.9346
 6732SOL    HW231659   0.552   2.087   6.734  1.0628 -3.1106 -1.1099
 6733SOL     OW31660   4.081   1.067   6.607 -0.4385 -0.2101 -0.5979
 6733SOL    HW131661   4.039   1.080   6.692 -0.5376  0.5642 -0.7718
 6733SOL    HW231662   4.034   1.124   6.546  2.9744  1.3122 -1.7931
 6734SOL     OW31663   1.601   3.484   7.401  0.6544 -1.1219 -0.1716
 6734SOL    HW131664   1.513   3.490   7.364  0.6161 -1.9439 -0.2072
 6734SOL    HW231665   1.650   3.479   7.319 -0.1275 -1.8382 -0.5919
 6735SOL     OW31666   2.051   2.360   0.585  0.2806 -0.5730 -0.6486
 6735SOL    HW131667   1.958   2.380   0.577  0.2858 -0.3781 -0.1977
 6735SOL    HW231668   2.058   2.314   0.669 -1.0427  1.0982  0.3554
 6736SOL     OW31669   3.835   4.614   2.492 -0.0818  0.1978  0.4747
 6736SOL    HW131670   3.818   4.529   2.452 -1.2679 -0.4703  2.4150
 6736SOL    HW231671   3.781   4.677   2.444 -0.8079  0.2681  1.3804
 6737SOL     OW31672   2.723   4.213   8.647  0.7017 -0.0331  0.4931
 6737SOL    HW131673   2.747   4.284   8.587 -1.2537 -1.7802 -2.3810
 6737SOL    HW231674   2.786   4.231   8.716 -2.1093 -0.8719  3.2887
 6738SOL     OW31675   4.060   2.898   6.841  0.1458  0.6071  0.0940
 6738SOL    HW131676   4.046   2.860   6.754  3.2890  0.2150 -0.2461
 6738SOL    HW231677   4.155   2.887   6.842  0.1160  0.3993  0.6498
 6739SOL     OW31678   3.631   0.597  17.381 -0.4593  0.5509  0.1957
 6739SOL    HW131679   3.646   0.531  17.313 -0.6693 -1.2349  1.8752
 6739SOL    HW231680   3.599   0.547  17.456  3.0045 -0.8553  0.7313
 6740SOL     OW31681   4.076   3.896   8.008 -0.0857 -0.0329  0.1184
 6740SOL    HW131682   4.135   3.838   8.056 -0.9605 -2.5203 -1.7893
 6740SOL    HW231683   3.994   3.846   8.002  0.6777 -1.4777  1.9187
 6741SOL     OW31684   1.591   4.471   4.746  0.1027  0.2784  0.3139
 6741SOL    HW131685   1.669   4.429   4.709 -0.7723  1.3682 -2.7754
 6741SOL    HW231686   1.526   4.467   4.675  0.2041  1.1800  0.1730
 6742SOL     OW31687   3.525   2.847   1.842 -0.2464  0.0425  0.5141
 6742SOL    HW131688   3.431   2.860   1.853  0.1478  1.4435  2.2628
 6742SOL    HW231689   3.522   2.756   1.873  2.0246 -0.2362 -0.0847
 6743SOL     OW31690   4.213   2.150   5.492  0.1328  0.2287  0.2512
 6743SOL    HW131691   4.153   2.135   5.419 -0.0684  2.8627 -0.1187
 6743SOL    HW231692   4.223   2.245   5.487  2.3613  0.0273  0.4976
 6744SOL     OW31693   2.646   1.916   3.790 -0.1091  0.0851 -0.2361
 6744SOL    HW131694   2.627   1.967   3.711  1.7520  0.9173 -0.1531
 6744SOL    HW231695   2.649   1.989   3.852  1.3555 -1.2070  1.1983
 6745SOL     OW31696   0.472   3.583  12.455 -0.3673  0.2486 -0.4283
 6745SOL    HW131697   0.527   3.524  12.403 -0.3384  1.4300 -1.7436
 6745SOL    HW231698   0.411   3.613  12.387 -0.1257  2.3035  0.2640
 6746SOL     OW31699   2.350   0.203   0.021  0.1371 -0.3734 -0.1261
 6746SOL    HW131700   2.379   0.138   0.085 -2.6917 -2.0271 -0.5347
 6746SOL    HW231701   2.256   0.205   0.040 -0.0528  1.0715 -1.1896
 6747SOL     OW31702   2.495   3.404   8.201  0.4112  0.2861  0.2960
 6747SOL    HW131703   2.581   3.431   8.166 -0.0699  1.6119  0.1280
 6747SOL    HW231704   2.477   3.317   8.167 -0.4828  0.7314 -0.3900
 6748SOL     OW31705   1.320   3.422   7.775 -0.1386 -0.0104  0.0576
 6748SOL    HW131706   1.332   3.356   7.844 -0.9781 -1.3758 -1.1248
 6748SOL    HW231707   1.267   3.484   7.826  1.6542  0.4835  1.3636
 6749SOL     OW31708   3.851   0.194   2.159  0.2935  0.2562 -0.0578
 6749SOL    HW131709   3.887   0.129   2.098  1.4233  0.6611  0.1771
 6749SOL    HW231710   3.930   0.191   2.213  0.9501 -1.4872 -1.1127
 6750SOL     OW31711   4.053   0.036   2.564  0.1238  0.0117  0.0400
 6750SOL    HW131712   3.996   4.692   2.537 -0.7928  0.4350  0.8659
 6750SOL    HW231713   4.103   4.717   2.631  0.4383 -0.0072 -0.2070
 6751SOL     OW31714   3.663   4.309  16.331 -0.2300 -0.1246  0.1393
 6751SOL    HW131715   3.630   4.220  16.334  1.3399 -0.7243 -0.2678
 6751SOL    HW231716   3.691   4.317  16.240 -1.2402  0.1149 -0.1531
 6752SOL     OW31717   2.570   3.833   6.598 -0.3160  0.3930 -0.0731
 6752SOL    HW131718   2.550   3.839   6.505  0.0468  0.5528 -0.1402
 6752SOL    HW231719   2.664   3.815   6.595 -0.5458 -0.8251  0.1190
 6753SOL     OW31720   0.826   3.841   2.069  0.3552  0.5817 -0.1422
 6753SOL    HW131721   0.845   3.830   1.976  0.4582  1.3358 -0.2139
 6753SOL    HW231722   0.800   3.752   2.089  3.2663 -0.2716 -0.0616
 6754SOL     OW31723   3.074   2.346   4.513 -0.9110  0.2880  0.9537
 6754SOL    HW131724   3.168   2.329   4.522 -0.6872 -0.4269 -2.7394
 6754SOL    HW231725   3.051   2.350   4.606  1.8575 -0.8526  1.7062
 6755SOL     OW31726   1.694   2.261  12.519 -0.4704 -0.1502 -0.1307
 6755SOL    HW131727   1.659   2.176  12.491  1.4242  0.0969 -3.2273
 6755SOL    HW231728   1.662   2.320  12.452 -1.2145  0.5797  0.8691
 6756SOL     OW31729   2.012   0.519  15.994  0.0490 -0.1189 -0.5191
 6756SOL    HW131730   2.069   0.543  16.067 -1.8894 -0.0006  0.9559
 6756SOL    HW231731   1.983   0.428  16.006 -1.4974  0.4577  0.1044
 6757SOL     OW31732   3.704   0.981  16.644  0.4391  0.5057 -0.0255
 6757SOL    HW131733   3.790   0.963  16.681  0.1239 -0.1856  0.3617
 6757SOL    HW231734   3.736   0.995  16.554 -0.8277 -1.1569 -0.7315
 6758SOL     OW31735   2.862   2.642  15.315  0.2655  0.0898 -0.0931
 6758SOL    HW131736   2.930   2.708  15.299  0.8418 -0.5887 -0.4773
 6758SOL    HW231737   2.886   2.629  15.407  0.4788 -3.5359 -0.6638
 6759SOL     OW31738   1.269   0.620   3.556  0.0784 -0.0652  0.4115
 6759SOL    HW131739   1.229   0.634   3.470 -0.6724  1.7143  1.0540
 6759SOL    HW231740   1.349   0.671   3.544 -0.0913 -0.6886 -3.3543
 6760SOL     OW31741   1.952   1.430   1.255 -0.0280  0.6313 -0.1287
 6760SOL    HW131742   1.888   1.489   1.293 -0.7019  0.0392 -0.3511
 6760SOL    HW231743   1.901   1.394   1.183  2.0141 -0.8493 -0.8512
 6761SOL     OW31744   3.037   0.935   3.153  0.0177  0.2767  0.2404
 6761SOL    HW131745   3.106   0.907   3.092 -2.8656 -3.6935 -1.2515
 6761SOL    HW231746   3.036   0.867   3.221  1.8417  1.3886  1.3828
 6762SOL     OW31747   3.621   3.080  14.195 -0.0761 -0.1623  0.2908
 6762SOL    HW131748   3.684   3.009  14.203  1.8101  1.4623 -0.0542
 6762SOL    HW231749   3.593   3.077  14.286  0.6361 -1.2522  0.4728
 6763SOL     OW31750   0.971   3.896   5.040 -0.3685 -0.0668  0.0723
 6763SOL    HW131751   0.965   3.800   5.045 -3.7319  0.0371 -2.1302
 6763SOL    HW231752   1.052   3.913   4.992 -1.2269  0.8343 -1.0718
 6764SOL     OW31753   1.432   1.063   7.452  0.5841 -0.1742  0.4419
 6764SOL    HW131754   1.354   1.016   7.422  1.1150 -1.8751  1.7411
 6764SOL    HW231755   1.501   1.003   7.423  0.3050 -0.5369  0.5358
 6765SOL     OW31756   0.975   0.085   6.526  0.5842 -0.2661 -0.1659
 6765SOL    HW131757   1.004   0.017   6.586 -0.6766  0.3984  1.1905
 6765SOL    HW231758   0.904   0.045   6.476 -0.2491  1.1402 -0.1197
 6766SOL     OW31759   4.379   3.485   6.268 -0.0551 -0.7203  0.0094
 6766SOL    HW131760   4.310   3.435   6.224 -0.0554 -1.3195  0.6736
 6766SOL    HW231761   4.387   3.568   6.222  2.9316 -1.0311 -0.0184
 6767SOL     OW31762   2.149   0.599   5.239  0.0397 -0.1903  0.1294
 6767SOL    HW131763   2.141   0.618   5.145 -1.3657  2.9088  0.8586
 6767SOL    HW231764   2.088   0.664   5.274 -2.9890 -2.4988 -0.7780
 6768SOL     OW31765   1.161   3.207   2.974 -0.3263 -0.7082 -0.0175
 6768SOL    HW131766   1.164   3.239   2.884  0.4308  0.6149  0.4687
 6768SOL    HW231767   1.073   3.240   2.990  0.8783  0.6384  3.9246
 6769SOL     OW31768   2.317   2.923   7.415  0.1137 -0.0206  0.1309
 6769SOL    HW131769   2.368   2.994   7.375 -2.1923  0.0195 -2.6668
 6769SOL    HW231770   2.382   2.883   7.473  1.1659  1.5995  0.0783
 6770SOL     OW31771   2.965   4.437   7.914  0.1615  0.4246  0.0660
 6770SOL    HW131772   2.874   4.423   7.888 -0.7667 -0.4362  3.7521
 6770SOL    HW231773   3.012   4.389   7.846 -0.1594 -0.5591  0.5450
 6771SOL     OW31774   4.273   3.534  12.460  0.2661  0.1842 -0.6645
 6771SOL    HW131775   4.268   3.582  12.542 -0.8820 -0.8752 -0.1023
 6771SOL    HW231776   4.278   3.446  12.498  1.2287  0.4652 -0.1479
 6772SOL     OW31777   4.061   3.435   1.250 -0.0363 -0.1073 -0.0516
 6772SOL    HW131778   4.109   3.395   1.323 -1.0757  1.3144  1.4051
 6772SOL    HW231779   4.092   3.525   1.255 -2.4646  0.7936 -1.4593
 6773SOL     OW31780   1.425   1.164   2.665  0.1777  0.3792 -0.3337
 6773SOL    HW131781   1.414   1.102   2.594 -2.2380 -1.9412  2.0691
 6773SOL    HW231782   1.337   1.199   2.666  0.1409  0.2578  0.8283
 6774SOL     OW31783   4.443   1.744   4.855  0.5844  0.2363 -0.0178
 6774SOL    HW131784   4.365   1.713   4.900 -0.0672 -1.0220 -2.0274
 6774SOL    HW231785   4.433   1.839   4.855 -1.9735 -0.0389 -0.4852
 6775SOL     OW31786   2.442   3.576  16.345 -1.0987 -0.0393 -0.5373
 6775SOL    HW131787   2.459   3.614  16.259 -0.1328  0.9276  0.0729
 6775SOL    HW231788   2.428   3.650  16.405 -1.0729  0.0473 -0.6377
 6776SOL     OW31789   3.998   0.029  16.549 -0.4685  0.0021 -0.5617
 6776SOL    HW131790   4.072   0.061  16.497 -0.3632 -0.4508 -0.6964
 6776SOL    HW231791   3.937   4.716  16.488 -2.0619  1.1679  0.2694
 6777SOL     OW31792   3.340   2.216  13.256  0.2427 -0.4087  0.2680
 6777SOL    HW131793   3.359   2.223  13.162  2.5297 -2.2622  0.5879
 6777SOL    HW231794   3.401   2.284  13.285 -1.7043  1.7444 -0.6923
 6778SOL     OW31795   4.414   1.399   9.410  0.0704 -0.0112  0.0602
 6778SOL    HW131796   4.422   1.456   9.486 -0.2272  1.8563 -1.3168
 6778SOL    HW231797   4.496   1.413   9.361 -1.1263 -0.6950 -2.1449
 6779SOL     OW31798   0.252   4.545   5.337  0.6818  0.3601 -0.0490
 6779SOL    HW131799   0.346   4.540   5.319  1.4914  1.0340  4.1965
 6779SOL    HW231800   0.244   4.487   5.413  0.1577  0.6389  0.1086
 6780SOL     OW31801   0.959   2.374   8.005  0.3970  0.0260 -0.5917
 6780SOL    HW131802   0.866   2.350   7.997  0.4929 -0.3151 -0.7037
 6780SOL    HW231803   0.951   2.467   7.984 -2.4641 -0.0896 -0.0528
 6781SOL     OW31804   3.227   3.552   5.256 -0.0885  0.1431  0.3585
 6781SOL    HW131805   3.134   3.559   5.280 -0.0691  1.8167 -0.0497
 6781SOL    HW231806   3.273   3.597   5.326  0.8048 -1.8092  1.0146
 6782SOL     OW31807   3.379   3.611   5.046 -0.1500 -0.4403  0.4733
 6782SOL    HW131808   3.314   3.588   5.112 -0.3993 -2.3073 -0.4167
 6782SOL    HW231809   3.409   3.693   5.084 -0.6724  0.6818 -1.5386
 6783SOL     OW31810   4.209   2.503   7.714 -0.1740  0.4022  0.2941
 6783SOL    HW131811   4.186   2.596   7.722  0.8912  0.4890  2.4098
 6783SOL    HW231812   4.124   2.476   7.679  0.0974 -1.9626  1.4582
 6784SOL     OW31813   3.879   3.002   3.930 -0.2427 -0.0596 -0.0391
 6784SOL    HW131814   3.917   3.085   3.904 -2.5961  0.2533 -2.5109
 6784SOL    HW231815   3.787   3.023   3.912 -0.2819 -0.4431 -0.2805
 6785SOL     OW31816   1.360   2.501  12.533  0.6679  0.2736 -1.2169
 6785SOL    HW131817   1.450   2.505  12.499  1.4884 -2.0247  0.6443
 6785SOL    HW231818   1.334   2.425  12.481 -2.7343  0.4644  0.1832
 6786SOL     OW31819   2.212   4.396   4.647  0.3973 -0.4819  0.2294
 6786SOL    HW131820   2.286   4.420   4.703  0.7377 -1.6411  0.2926
 6786SOL    HW231821   2.193   4.309   4.682 -0.1777 -0.4032  0.1117
 6787SOL     OW31822   4.004   2.945   8.456 -0.6216  0.2519  0.0682
 6787SOL    HW131823   3.994   3.039   8.440 -0.2113  0.2986  0.0698
 6787SOL    HW231824   3.912   2.920   8.468 -0.5692 -0.1671 -0.4306
 6788SOL     OW31825   2.365   0.447  15.405 -0.0917 -0.3883  0.0449
 6788SOL    HW131826   2.392   0.447  15.313 -1.1797 -2.4390 -0.2722
 6788SOL    HW231827   2.342   0.355  15.414  2.7298 -1.1397 -0.3957
 6789SOL     OW31828   3.318   2.606   5.085 -0.1657  0.4843 -0.1520
 6789SOL    HW131829   3.311   2.598   5.180 -0.6056 -2.0851 -0.3966
 6789SOL    HW231830   3.342   2.699   5.078  1.6573  0.0876  1.1404
 6790SOL     OW31831   4.061   0.427   6.475  0.3765  0.9489  0.8066
 6790SOL    HW131832   4.147   0.449   6.439  0.0056 -0.4348 -0.9339
 6790SOL    HW231833   4.053   0.479   6.555  0.2970  0.0921  1.3482
 6791SOL     OW31834   0.207   0.843   9.070 -0.5991 -0.7695  0.2245
 6791SOL    HW131835   0.276   0.887   9.119  0.5802 -1.4815 -0.8046
 6791SOL    HW231836   0.168   0.921   9.030 -1.1286 -0.7864  0.7031
 6792SOL     OW31837   0.338   3.085   2.756  0.3993  0.8284 -0.0629
 6792SOL    HW131838   0.255   3.098   2.709 -1.7392 -3.1100  2.6089
 6792SOL    HW231839   0.342   2.990   2.754  1.4124  0.8800 -0.4189
 6793SOL     OW31840   4.634   0.170   2.374  0.0261 -0.1140  0.1850
 6793SOL    HW131841   4.672   0.242   2.423 -0.6093 -0.4297  1.1277
 6793SOL    HW231842   4.706   0.116   2.341  0.7866  0.0282  1.6228
 6794SOL     OW31843   0.200   2.750   1.666  0.7330 -0.1132  0.6961
 6794SOL    HW131844   0.269   2.706   1.618  0.3747  1.0869 -0.9480
 6794SOL    HW231845   0.127   2.692   1.644  0.9950 -0.6129  1.1559
 6795SOL     OW31846   1.762   2.986   3.526 -0.1512  0.5313 -0.0718
 6795SOL    HW131847   1.814   3.009   3.603 -0.7615 -1.2593  0.8727
 6795SOL    HW231848   1.824   2.995   3.454 -1.9786  3.0448 -1.3123
 6796SOL     OW31849   2.772   0.525   4.077 -0.0390 -0.3465 -0.0271
 6796SOL    HW131850   2.811   0.588   4.017  0.5637 -1.0720 -0.3972
 6796SOL    HW231851   2.764   0.571   4.161 -1.9004  1.0131 -0.9613
 6797SOL     OW31852   2.529   1.991   5.541  0.0077  0.5903  0.2711
 6797SOL    HW131853   2.534   1.906   5.497  0.7647  0.4107  0.6987
 6797SOL    HW231854   2.435   2.005   5.538  0.1670  1.5804 -0.0784
 6798SOL     OW31855   3.145   4.275   5.276 -0.3780  0.2152 -0.3184
 6798SOL    HW131856   3.218   4.320   5.320 -1.8878  0.8630  1.5271
 6798SOL    HW231857   3.176   4.184   5.273  0.2247  0.4795 -1.6791
 6799SOL     OW31858   4.319   3.987   1.563 -0.0897  0.0215  0.5844
 6799SOL    HW131859   4.232   4.001   1.525  0.4787 -0.7234 -1.0173
 6799SOL    HW231860   4.347   4.079   1.559  1.4295 -0.4295  0.8400
 6800SOL     OW31861   2.930   3.894   2.093 -0.4435  0.4260 -0.0618
 6800SOL    HW131862   2.856   3.880   2.152  0.1392  1.7703  1.0051
 6800SOL    HW231863   2.923   3.810   2.048  1.6568  0.3596 -0.2778
 6801SOL     OW31864   3.995   0.538  13.762  0.2227 -0.5200  0.3957
 6801SOL    HW131865   4.012   0.566  13.852  1.2457  0.5226 -0.1209
 6801SOL    HW231866   3.945   0.613  13.730 -0.3296  0.0868  2.6839
 6802SOL     OW31867   0.162   1.659   7.393 -0.2612  0.2360 -0.0415
 6802SOL    HW131868   0.167   1.632   7.485  2.3102 -0.0215 -0.2550
 6802SOL    HW231869   0.137   1.750   7.409  1.7712  0.8828 -0.4427
 6803SOL     OW31870   4.348   3.555   6.848 -0.2113 -0.5206 -0.0254
 6803SOL    HW131871   4.385   3.574   6.934 -0.6152 -0.1545  0.0669
 6803SOL    HW231872   4.421   3.587   6.795 -0.6507  0.5126 -0.0075
 6804SOL     OW31873   3.068   2.649  16.964 -0.6031 -0.3826  0.1084
 6804SOL    HW131874   3.059   2.728  17.018  0.1109 -0.2630  0.0619
 6804SOL    HW231875   3.161   2.658  16.943 -0.6929  0.3971  0.0421
 6805SOL     OW31876   0.412   1.247  15.698 -0.2608 -0.0528 -0.2735
 6805SOL    HW131877   0.417   1.295  15.615  0.7176 -1.3442 -0.9659
 6805SOL    HW231878   0.487   1.189  15.682  0.2933  0.4681  0.4203
 6806SOL     OW31879   2.091   3.973  11.267  0.0227  0.3294 -0.0788
 6806SOL    HW131880   2.130   3.950  11.351 -0.9209  1.5187  0.6918
 6806SOL    HW231881   1.998   3.981  11.288  0.2671  1.6283  0.4784
 6807SOL     OW31882   0.474   2.342   0.716 -0.2932 -0.6074 -0.2416
 6807SOL    HW131883   0.445   2.323   0.805 -1.2387 -0.3698 -0.4978
 6807SOL    HW231884   0.546   2.281   0.699  1.7512  1.5422  0.6159
 6808SOL     OW31885   1.582   0.338   5.627  0.3016 -0.4093  0.1309
 6808SOL    HW131886   1.575   0.348   5.722 -0.8420  0.9459 -0.1001
 6808SOL    HW231887   1.496   0.367   5.597  1.1436 -0.2333 -2.1132
 6809SOL     OW31888   1.992   2.368  11.139 -0.5790  0.4328  1.0041
 6809SOL    HW131889   1.978   2.276  11.159 -1.1582  0.1254 -0.8039
 6809SOL    HW231890   2.070   2.382  11.193 -0.6968  0.5365  1.1489
 6810SOL     OW31891   3.454   1.071   6.149 -0.8838 -0.2376  0.1540
 6810SOL    HW131892   3.414   1.149   6.187 -0.1625  0.3501 -0.3036
 6810SOL    HW231893   3.489   1.098   6.064  0.4458 -0.2658  0.7050
 6811SOL     OW31894   1.249   1.582   0.999  0.2490  0.0061 -0.5722
 6811SOL    HW131895   1.199   1.537   1.067 -0.6875  2.1590  0.1586
 6811SOL    HW231896   1.230   1.537   0.916  0.0679 -0.5992 -0.2016
 6812SOL     OW31897   3.811   2.466   1.149 -0.3935 -0.1852 -0.2944
 6812SOL    HW131898   3.806   2.522   1.072 -2.2000  0.9424  0.6317
 6812SOL    HW231899   3.904   2.441   1.146  0.3475  2.3999  1.3336
 6813SOL     OW31900   0.722   2.333  13.792 -0.8584 -0.4159  0.5481
 6813SOL    HW131901   0.814   2.319  13.813 -0.6162  0.1223 -0.1253
 6813SOL    HW231902   0.722   2.290  13.707 -0.3097  0.1425  0.2653
 6814SOL     OW31903   3.080   4.110  10.464 -0.3879  0.2148  0.0406
 6814SOL    HW131904   3.000   4.065  10.489 -0.2010  0.4484  1.0726
 6814SOL    HW231905   3.147   4.063  10.514 -0.9992 -0.7501 -0.0488
 6815SOL     OW31906   1.521   3.815   5.952  0.1734  0.0631  0.6972
 6815SOL    HW131907   1.473   3.864   6.019 -0.6815  2.1160 -1.4399
 6815SOL    HW231908   1.477   3.853   5.877 -2.3218 -1.3864  1.4052
 6816SOL     OW31909   3.385   4.583   8.851 -0.1228 -0.1825  0.3043
 6816SOL    HW131910   3.323   4.655   8.861 -1.5006 -0.8835 -2.9108
 6816SOL    HW231911   3.412   4.559   8.939  1.4788 -0.5936 -0.3076
 6817SOL     OW31912   3.800   1.820   8.541 -0.2848  0.1429 -0.0875
 6817SOL    HW131913   3.846   1.749   8.495  2.2788 -0.1733  3.0068
 6817SOL    HW231914   3.711   1.786   8.550 -0.3539 -0.0968 -1.5490
 6818SOL     OW31915   1.199   3.523   4.202 -0.1821  0.5626 -0.1155
 6818SOL    HW131916   1.290   3.524   4.233 -0.2435 -0.3785  0.0837
 6818SOL    HW231917   1.181   3.429   4.204  3.1180 -0.0250  2.8329
 6819SOL     OW31918   2.126   0.803  11.946  0.2814 -0.2234 -0.0940
 6819SOL    HW131919   2.114   0.800  11.851 -1.5670  0.7751  0.1027
 6819SOL    HW231920   2.144   0.896  11.959  0.8834 -0.3053 -0.3453
 6820SOL     OW31921   0.899   2.819   5.461  0.1285  0.2355 -0.4461
 6820SOL    HW131922   0.809   2.830   5.491 -0.2026  1.2884 -1.8172
 6820SOL    HW231923   0.913   2.899   5.410  0.6518  0.5882  0.2516
 6821SOL     OW31924   2.272   3.982   4.061  0.3624  0.2073  0.3569
 6821SOL    HW131925   2.275   3.976   3.966  0.2194  2.7111  0.1933
 6821SOL    HW231926   2.348   4.030   4.095 -1.7817  1.2422  3.6908
 6822SOL     OW31927   0.693   1.868  10.238  0.6237  0.4462 -0.6155
 6822SOL    HW131928   0.684   1.783  10.280  1.4890  0.7161  0.1073
 6822SOL    HW231929   0.707   1.928  10.311  1.4280  0.5895 -0.8879
 6823SOL     OW31930   2.905   0.367  16.721  0.1216 -0.5437  0.1977
 6823SOL    HW131931   2.845   0.351  16.793 -1.4009 -0.3468 -1.0356
 6823SOL    HW231932   2.842   0.415  16.667 -0.5141 -0.9326  0.6073
 6824SOL     OW31933   4.666   0.613  12.390 -1.1068 -0.5573 -0.7141
 6824SOL    HW131934   4.708   0.558  12.325  0.2949  1.0904 -1.2219
 6824SOL    HW231935   4.592   0.655  12.345 -1.4505 -0.7847 -0.3616
 6825SOL     OW31936   1.631   2.931  14.745  0.3032 -0.4412  0.4456
 6825SOL    HW131937   1.677   2.939  14.829 -3.0320  0.7467  2.1369
 6825SOL    HW231938   1.697   2.946  14.677  2.6558 -0.6446  2.6682
 6826SOL     OW31939   3.771   0.504   4.601  0.4941 -0.5406  0.3661
 6826SOL    HW131940   3.737   0.543   4.682 -1.3711 -0.5048 -0.4591
 6826SOL    HW231941   3.770   0.412   4.625  0.5773 -1.5217 -3.3772
 6827SOL     OW31942   2.381   4.630   7.534  0.7971  0.0982  0.2003
 6827SOL    HW131943   2.383   4.556   7.475 -0.1170 -0.5888  1.0350
 6827SOL    HW231944   2.463   4.666   7.499  0.9137 -0.8951 -0.5317
 6828SOL     OW31945   3.336   2.319  11.557 -0.3263 -0.1182  0.2977
 6828SOL    HW131946   3.421   2.318  11.513 -1.1706  0.4613 -1.3345
 6828SOL    HW231947   3.278   2.284  11.490  0.9949 -2.0497  0.1476
 6829SOL     OW31948   3.721   2.537   2.839  0.4663 -0.4086 -0.4369
 6829SOL    HW131949   3.725   2.474   2.910  0.9302 -0.1730 -0.2562
 6829SOL    HW231950   3.637   2.519   2.796 -0.9108  0.0190  2.0937
 6830SOL     OW31951   2.833   1.293  10.395 -0.3239 -0.1608  0.3015
 6830SOL    HW131952   2.799   1.367  10.444 -1.5949 -2.6396  3.1527
 6830SOL    HW231953   2.841   1.231  10.468 -1.9452 -0.9181 -0.1629
 6831SOL     OW31954   4.353   1.628  15.352  0.0009  0.6182 -0.3443
 6831SOL    HW131955   4.404   1.692  15.302  0.0254  0.2935 -0.7344
 6831SOL    HW231956   4.266   1.642  15.315  0.2919 -0.0614 -1.2900
 6832SOL     OW31957   4.709   4.161   4.577 -0.2149 -0.3793 -0.0384
 6832SOL    HW131958   0.071   4.126   4.571 -0.5569 -1.2858  0.2034
 6832SOL    HW231959   4.696   4.175   4.483 -0.9890 -0.6771  0.0246
 6833SOL     OW31960   3.917   0.009   8.513 -0.0171  0.0829  0.1605
 6833SOL    HW131961   3.958   4.654   8.484 -0.6518 -0.1015 -0.2254
 6833SOL    HW231962   3.912   4.714   8.606 -2.5497 -0.7992 -0.1674
 6834SOL     OW31963   1.623   2.468   7.824 -0.2998  0.0680  0.0368
 6834SOL    HW131964   1.569   2.398   7.859  0.6244 -1.2524 -1.1562
 6834SOL    HW231965   1.586   2.537   7.879 -0.7523  0.3070 -0.5654
 6835SOL     OW31966   0.086   1.856   6.861 -0.5576 -0.3505  0.1144
 6835SOL    HW131967   0.007   1.816   6.898 -1.1896  0.2206 -0.6168
 6835SOL    HW231968   0.139   1.782   6.832 -0.7389 -1.2432  2.0402
 6836SOL     OW31969   0.007   2.704   0.470  0.4835  0.6626 -0.0162
 6836SOL    HW131970   0.085   2.760   0.465  1.9403 -1.1441  2.2220
 6836SOL    HW231971   0.019   2.645   0.544 -0.2553 -0.5204 -0.8606
 6837SOL     OW31972   1.171   3.285  12.227  0.7683 -0.3673  0.0005
 6837SOL    HW131973   1.181   3.308  12.320  0.8826  0.6584 -0.2688
 6837SOL    HW231974   1.176   3.191  12.243 -0.1503 -0.2930  0.7510
 6838SOL     OW31975   0.591   3.989   3.684  0.4658  0.1906 -0.9539
 6838SOL    HW131976   0.559   4.076   3.661 -1.8801 -0.3160  0.4691
 6838SOL    HW231977   0.681   4.012   3.708 -1.1543  3.0566  2.2785
 6839SOL     OW31978   1.730   2.528   4.890 -0.9879  0.0886 -0.6779
 6839SOL    HW131979   1.767   2.455   4.941  0.3315 -0.0652 -1.8525
 6839SOL    HW231980   1.745   2.481   4.808 -2.1643 -1.4627 -0.0143
 6840SOL     OW31981   2.437   1.699   5.869  0.4432  0.3650 -0.1584
 6840SOL    HW131982   2.364   1.701   5.931 -1.2831  1.7550 -2.2512
 6840SOL    HW231983   2.500   1.749   5.920  0.4705 -0.3740  0.5427
 6841SOL     OW31984   0.722   3.821   4.335  0.1814  0.2652 -0.3171
 6841SOL    HW131985   0.649   3.815   4.274 -0.7424 -1.0063  0.9021
 6841SOL    HW231986   0.754   3.911   4.328 -0.3218  0.5018  0.4104
 6842SOL     OW31987   3.161   0.842   4.468  0.1270  0.1785  0.0191
 6842SOL    HW131988   3.233   0.902   4.449 -1.7650  2.2462 -0.6696
 6842SOL    HW231989   3.189   0.770   4.413  1.7424  0.4964  0.4439
 6843SOL     OW31990   3.854   3.523  17.133  0.0380 -0.0961 -0.1330
 6843SOL    HW131991   3.920   3.578  17.090  0.5140 -1.0855 -0.6630
 6843SOL    HW231992   3.910   3.498  17.206 -1.5576 -0.4835  0.9614
 6844SOL     OW31993   0.300   2.214   5.658  0.0154 -0.0081 -0.1301
 6844SOL    HW131994   0.309   2.242   5.567  2.2052 -0.2156  0.0179
 6844SOL    HW231995   0.377   2.163   5.683  1.5727  2.3588 -0.0573
 6845SOL     OW31996   2.215   4.542   7.021 -0.0101 -0.1159 -0.4586
 6845SOL    HW131997   2.123   4.569   7.024  0.2592  0.7673 -0.2846
 6845SOL    HW231998   2.233   4.591   6.941 -0.3508 -1.9580 -1.6708
 6846SOL     OW31999   2.703   4.286   5.332 -0.7997 -0.1864 -0.4352
 6846SOL    HW132000   2.779   4.321   5.286  0.2215 -1.7139  0.0920
 6846SOL    HW232001   2.634   4.297   5.266 -1.0527  1.6089  0.1219
 6847SOL     OW32002   3.414   2.014   0.249 -0.2979  0.1961  0.3370
 6847SOL    HW132003   3.328   1.997   0.210 -0.9618  1.0651  1.4185
 6847SOL    HW232004   3.468   2.039   0.174 -0.9026 -1.7715 -0.7564
 6848SOL     OW32005   2.176   3.460   0.545 -0.3089  0.0634 -0.2656
 6848SOL    HW132006   2.178   3.389   0.481  0.0310 -0.4988  0.3662
 6848SOL    HW232007   2.247   3.440   0.605  0.3765 -1.1048 -1.4815
 6849SOL     OW32008   3.098   1.131   5.531 -0.0869  0.3101 -1.0802
 6849SOL    HW132009   3.081   1.041   5.558 -0.5371  0.7283  0.0497
 6849SOL    HW232010   3.013   1.171   5.553 -0.4509 -1.1992  0.2441
 6850SOL     OW32011   1.434   1.641  12.415  0.4782  0.4999  0.5578
 6850SOL    HW132012   1.438   1.654  12.320  0.5688 -0.0113  0.4906
 6850SOL    HW232013   1.499   1.571  12.423  2.2994  2.2094  0.8446
 6851SOL     OW32014   1.726   1.664   7.998  0.1655 -0.4351  0.0244
 6851SOL    HW132015   1.821   1.679   8.001  0.0012  0.2570  1.8360
 6851SOL    HW232016   1.697   1.728   7.933 -0.5503  0.5540  1.3185
 6852SOL     OW32017   0.259   4.700   8.259  0.0728  0.2387  0.0611
 6852SOL    HW132018   0.322   4.642   8.302  1.9512  1.2580 -1.2973
 6852SOL    HW232019   0.194   4.693   8.328  0.4223 -1.3204  0.2289
 6853SOL     OW32020   4.327   3.128   2.088 -0.0280  0.4428 -0.4169
 6853SOL    HW132021   4.260   3.070   2.124  1.2924 -0.8752 -0.0904
 6853SOL    HW232022   4.406   3.094   2.128 -1.6747 -1.3783  1.3139
 6854SOL     OW32023   4.017   4.640  16.967 -0.1313  0.4947 -0.2849
 6854SOL    HW132024   4.050   4.707  16.907  0.7193  2.7104  2.6546
 6854SOL    HW232025   3.992   4.585  16.893 -1.4661 -1.5299  1.6458
 6855SOL     OW32026   4.440   0.050   3.857 -0.1635 -0.1292  0.4664
 6855SOL    HW132027   4.462   0.074   3.947  0.1561  0.7790  0.1511
 6855SOL    HW232028   4.357   0.093   3.839  1.1642  3.7578  3.7198
 6856SOL     OW32029   2.370   2.883  12.152  0.2015 -0.1209 -0.2141
 6856SOL    HW132030   2.397   2.837  12.231 -2.8669 -0.9569  0.3429
 6856SOL    HW232031   2.431   2.847  12.088  2.4608  3.0905  0.1041
 6857SOL     OW32032   3.660   1.694   4.412  0.3584  0.0863  0.1548
 6857SOL    HW132033   3.587   1.632   4.419  0.8604 -0.6046 -0.7586
 6857SOL    HW232034   3.653   1.746   4.493  2.5793 -0.7269  0.8519
 6858SOL     OW32035   2.274   0.520   4.507 -0.3310 -0.4133 -0.2385
 6858SOL    HW132036   2.299   0.603   4.548  2.1717 -1.7301  0.9634
 6858SOL    HW232037   2.355   0.488   4.468 -1.7194 -0.0016 -3.3980
 6859SOL     OW32038   1.779   2.885   5.955  0.1089  0.6352 -0.4108
 6859SOL    HW132039   1.765   2.871   5.862 -0.9007  0.7784 -0.2817
 6859SOL    HW232040   1.872   2.907   5.964  0.6580 -1.5970 -0.8242
 6860SOL     OW32041   0.521   2.374  11.159  0.3906 -0.2789  0.6882
 6860SOL    HW132042   0.590   2.415  11.210 -0.3979  2.7221 -0.6636
 6860SOL    HW232043   0.573   2.295  11.142  1.1978  0.1562  1.1405
 6861SOL     OW32044   3.248   4.317   1.989 -0.0214 -0.6810  0.1795
 6861SOL    HW132045   3.287   4.394   2.032 -0.4571 -0.4139  0.1083
 6861SOL    HW232046   3.192   4.358   1.923 -1.5668 -0.9734  1.2810
 6862SOL     OW32047   3.625   2.681  16.603  0.4043  0.4242 -0.4896
 6862SOL    HW132048   3.702   2.624  16.605 -0.1284 -0.2720  0.4105
 6862SOL    HW232049   3.653   2.745  16.537  1.3324 -0.4129 -0.9131
 6863SOL     OW32050   0.011   1.987   3.299  1.1529 -0.9575 -0.4542
 6863SOL    HW132051   0.050   2.034   3.226  0.9662 -1.7165 -1.0478
 6863SOL    HW232052   0.021   2.059   3.361 -0.7458 -0.4378 -0.7496
 6864SOL     OW32053   0.187   2.141  16.509  0.2184  0.4948  0.4767
 6864SOL    HW132054   0.248   2.201  16.552  0.0676  0.5473  0.6177
 6864SOL    HW232055   0.132   2.112  16.582  2.5742 -1.4982  1.4417
 6865SOL     OW32056   1.276   3.883   2.194 -0.6394 -0.7145  0.3820
 6865SOL    HW132057   1.350   3.906   2.250 -1.1287  0.7287  0.4440
 6865SOL    HW232058   1.272   3.789   2.211  2.3893 -0.9652 -0.3429
 6866SOL     OW32059   1.672   1.106   2.516  0.3089 -0.1523  0.2051
 6866SOL    HW132060   1.622   1.054   2.579 -1.4825 -0.3572 -1.3759
 6866SOL    HW232061   1.609   1.148   2.458 -0.6026  0.9617  2.0322
 6867SOL     OW32062   1.249   1.108   9.673 -0.1195 -0.3537  0.2240
 6867SOL    HW132063   1.214   1.054   9.743  0.6492  0.0240  0.8943
 6867SOL    HW232064   1.248   1.047   9.599 -1.7250  2.6579 -2.2852
 6868SOL     OW32065   4.202   0.206   7.335  0.1952 -0.4393 -0.2196
 6868SOL    HW132066   4.280   0.261   7.341 -0.4368  0.3574  0.6773
 6868SOL    HW232067   4.206   0.169   7.423 -0.1926 -1.1771 -0.5139
 6869SOL     OW32068   3.185   3.698   7.171 -0.0495  0.2861  0.6075
 6869SOL    HW132069   3.209   3.790   7.182  2.3259 -0.1782 -0.8282
 6869SOL    HW232070   3.093   3.708   7.145 -0.7149  0.4673  2.9697
 6870SOL     OW32071   2.291   4.092  16.568  0.0950  0.0650  0.4336
 6870SOL    HW132072   2.307   4.157  16.499 -0.1259 -2.3191 -1.8547
 6870SOL    HW232073   2.268   4.149  16.642  0.3260  1.5911 -0.6555
 6871SOL     OW32074   2.827   0.565   9.295 -0.0343 -0.1410  0.1691
 6871SOL    HW132075   2.881   0.581   9.371  1.0107  0.8985 -0.8052
 6871SOL    HW232076   2.862   0.618   9.224  1.4800  0.7326  1.5790
 6872SOL     OW32077   3.642   2.092   5.854 -0.0935  0.7783 -0.1241
 6872SOL    HW132078   3.570   2.147   5.823 -1.4433 -0.5312  0.7074
 6872SOL    HW232079   3.720   2.128   5.810  0.9266 -0.3615  0.7410
 6873SOL     OW32080   4.476   2.269   7.046  0.4601 -0.0642 -0.1168
 6873SOL    HW132081   4.413   2.335   7.016 -1.8827 -1.1456  2.4204
 6873SOL    HW232082   4.534   2.263   6.970  1.1640  2.3511  0.2342
 6874SOL     OW32083   2.983   3.853  14.795  0.1491  0.0109  0.0443
 6874SOL    HW132084   3.056   3.888  14.743  0.7605  1.7608  2.1451
 6874SOL    HW232085   3.015   3.762  14.799  1.9064  0.7358  2.1831
 6875SOL     OW32086   0.383   2.204  12.604  0.0817 -0.0849  0.1761
 6875SOL    HW132087   0.353   2.292  12.581  0.2700  0.4653  2.0947
 6875SOL    HW232088   0.477   2.203  12.619  0.0083  0.7353  0.6306
 6876SOL     OW32089   4.363   4.112   3.217 -0.0676  0.1267 -0.1213
 6876SOL    HW132090   4.327   4.153   3.296  1.9966  0.7326  0.4990
 6876SOL    HW232091   4.282   4.118   3.167  0.8381 -1.0802 -1.7252
 6877SOL     OW32092   2.484   1.101   6.081 -0.2979 -0.2594  0.1587
 6877SOL    HW132093   2.467   1.131   5.992  0.7535  2.6402  0.9524
 6877SOL    HW232094   2.477   1.006   6.068 -1.5206 -0.1658  0.1908
 6878SOL     OW32095   1.853   4.134   8.064  0.1940 -0.2647 -0.2798
 6878SOL    HW132096   1.768   4.173   8.081  0.3087  0.5523 -1.5885
 6878SOL    HW232097   1.883   4.131   8.155 -2.0854  1.1934  0.5186
 6879SOL     OW32098   2.731   3.604   8.125  0.2667 -0.7295  0.2231
 6879SOL    HW132099   2.751   3.665   8.054 -0.5736 -1.6444 -0.8127
 6879SOL    HW232100   2.818   3.590   8.162  0.4927  0.3578  0.0835
 6880SOL     OW32101   1.330   2.962   7.130 -0.0723  0.2142 -0.9610
 6880SOL    HW132102   1.406   2.912   7.158 -1.5084 -1.2527  0.3336
 6880SOL    HW232103   1.330   3.053   7.160 -0.5942  0.7138 -2.4385
 6881SOL     OW32104   0.320   2.431  13.369 -0.2387  0.0323 -0.5330
 6881SOL    HW132105   0.344   2.478  13.449  2.5306 -1.0536 -0.7422
 6881SOL    HW232106   0.229   2.421  13.397  0.5820  0.8408  2.4464
 6882SOL     OW32107   2.174   4.222   3.743  0.2896  0.2290  0.6234
 6882SOL    HW132108   2.228   4.298   3.762  2.3755 -1.0496 -0.2251
 6882SOL    HW232109   2.107   4.237   3.810  0.3184  2.6517  0.0929
 6883SOL     OW32110   0.272   0.563  15.279  0.1267 -0.5266  0.1224
 6883SOL    HW132111   0.325   0.595  15.353  0.2522 -1.4869  0.4432
 6883SOL    HW232112   0.334   0.514  15.225  1.0574  2.1105 -1.1960
 6884SOL     OW32113   3.688   0.334   8.781 -0.4506 -0.1652 -0.7845
 6884SOL    HW132114   3.641   0.400   8.731 -1.5336  0.5010  1.1170
 6884SOL    HW232115   3.748   0.315   8.708  3.0426 -0.2991  2.1018
 6885SOL     OW32116   1.659   2.859   5.674 -0.7446 -0.1288  0.1358
 6885SOL    HW132117   1.574   2.889   5.708 -0.5658 -1.1978  1.5502
 6885SOL    HW232118   1.629   2.797   5.608  1.1137 -1.7770  0.8295
 6886SOL     OW32119   2.284   1.382   2.655  0.2286  0.2391  0.4945
 6886SOL    HW132120   2.245   1.387   2.743  0.3135  3.8013  0.3325
 6886SOL    HW232121   2.266   1.291   2.633 -1.0608  0.5830  0.0677
 6887SOL     OW32122   3.886   3.389  10.069 -0.8084 -0.1773 -0.3346
 6887SOL    HW132123   3.957   3.447  10.098 -1.1852  1.0898 -1.9524
 6887SOL    HW232124   3.900   3.305  10.112  1.7629 -0.3818 -1.5570
 6888SOL     OW32125   1.082   1.801   1.282 -0.5417  0.0995 -0.2838
 6888SOL    HW132126   1.072   1.887   1.323  0.4789  0.7167 -1.3380
 6888SOL    HW232127   0.990   1.778   1.267 -0.0687 -0.8420 -1.7347
 6889SOL     OW32128   1.638   2.983   8.504  0.4949  0.0195 -0.6818
 6889SOL    HW132129   1.572   2.914   8.516 -1.0686  1.6660  0.3690
 6889SOL    HW232130   1.593   3.032   8.435  2.0348  0.2346 -1.5096
 6890SOL     OW32131   3.392   2.500  13.108  0.0714  0.4962 -0.3337
 6890SOL    HW132132   3.372   2.423  13.055  0.5112 -0.1808  0.4920
 6890SOL    HW232133   3.423   2.460  13.189 -1.2574  0.5430  0.1979
 6891SOL     OW32134   1.835   2.709   8.375 -0.6649  0.2653  0.2686
 6891SOL    HW132135   1.792   2.661   8.445 -1.8507  0.3903 -0.3763
 6891SOL    HW232136   1.857   2.631   8.324  1.3204  0.8333  0.2495
 6892SOL     OW32137   3.199   1.209   4.566  0.0053 -0.3892 -0.3611
 6892SOL    HW132138   3.243   1.187   4.483 -0.4356  0.4142 -0.8062
 6892SOL    HW232139   3.211   1.303   4.576  1.3531 -0.7519  1.4227
 6893SOL     OW32140   0.045   3.608   8.493  0.4273 -0.6175  0.6608
 6893SOL    HW132141   4.715   3.633   8.566  3.0925  0.0969  2.5176
 6893SOL    HW232142   0.102   3.686   8.488 -0.4575  0.0068  0.3819
 6894SOL     OW32143   1.921   1.641   2.228 -0.5716 -0.1744  0.1044
 6894SOL    HW132144   1.841   1.633   2.177 -0.3661  0.2548 -0.2800
 6894SOL    HW232145   1.895   1.608   2.314 -0.9248 -1.7248 -0.6219
 6895SOL     OW32146   0.107   1.034  15.319 -0.1740 -0.1912  0.1213
 6895SOL    HW132147   0.126   0.958  15.264  2.6740  1.5005 -1.2281
 6895SOL    HW232148   0.151   1.014  15.401  1.6273  3.4475  0.0420
 6896SOL     OW32149   0.924   0.883  11.219 -0.7608 -0.3721  0.5966
 6896SOL    HW132150   0.960   0.919  11.301 -1.6590  0.7953  0.4731
 6896SOL    HW232151   0.833   0.904  11.240 -1.4305 -2.0096 -0.7114
 6897SOL     OW32152   4.588   0.130   9.032 -0.5894 -0.2647  0.5849
 6897SOL    HW132153   4.579   0.038   9.056 -2.8368 -0.5468 -1.3484
 6897SOL    HW232154   4.665   0.152   9.085 -1.2444 -0.3495  1.5651
 6898SOL     OW32155   2.735   4.084   3.375 -0.2898  0.5185 -0.0803
 6898SOL    HW132156   2.715   4.170   3.413  0.8161  0.6469  0.1964
 6898SOL    HW232157   2.647   4.069   3.340  1.0388  1.9228 -3.9689
 6899SOL     OW32158   1.397   2.831  14.873  0.1789  0.3805  0.2827
 6899SOL    HW132159   1.475   2.878  14.840 -0.1126  0.1946 -0.6795
 6899SOL    HW232160   1.379   2.866  14.960  2.2578 -4.1622  2.5532
 6900SOL     OW32161   3.908   4.403  16.359  0.2528 -0.0690  0.9370
 6900SOL    HW132162   3.814   4.390  16.371  0.2109 -1.8098 -1.4658
 6900SOL    HW232163   3.917   4.444  16.273 -0.2863 -2.3846 -0.2183
 6901SOL     OW32164   4.631   1.703   5.496 -0.5156 -0.0160  0.3569
 6901SOL    HW132165   4.538   1.719   5.477 -0.1639  2.4094  0.7208
 6901SOL    HW232166   4.650   1.765   5.566  2.6259 -1.2100  0.5860
 6902SOL     OW32167   2.097   0.061   4.843  0.3066  0.2478  0.0854
 6902SOL    HW132168   2.080   0.058   4.938 -1.1866 -0.3297 -0.1972
 6902SOL    HW232169   2.008   0.067   4.809  0.7879  2.0006 -0.8446
 6903SOL     OW32170   1.561   3.478   8.783 -0.7584  0.1602 -0.2447
 6903SOL    HW132171   1.565   3.560   8.832  0.8283  0.2671 -0.5593
 6903SOL    HW232172   1.573   3.414   8.852  1.0619  0.3829 -0.3528
 6904SOL     OW32173   0.173   3.014   6.501 -0.3747  0.6176  0.6286
 6904SOL    HW132174   0.155   2.930   6.545 -0.9274 -0.6561 -2.0572
 6904SOL    HW232175   0.246   2.982   6.448  0.1317  0.0946  1.6197
 6905SOL     OW32176   0.492   3.839  10.191 -0.0608  1.1216 -0.1366
 6905SOL    HW132177   0.558   3.786  10.236 -0.5084  0.0719 -0.7257
 6905SOL    HW232178   0.546   3.869  10.118 -0.3851  1.7122 -0.1344
 6906SOL     OW32179   2.876   0.816  11.674  0.3162 -0.2901 -0.6033
 6906SOL    HW132180   2.949   0.871  11.646 -0.2242 -0.4613 -2.3151
 6906SOL    HW232181   2.913   0.774  11.752 -1.7375 -0.7000  0.1494
 6907SOL     OW32182   3.024   2.665  15.097  0.3922  0.2962  0.5134
 6907SOL    HW132183   3.079   2.665  15.019 -2.4432 -0.9987 -1.4722
 6907SOL    HW232184   3.086   2.697  15.163 -0.1990 -1.6001  1.9682
 6908SOL     OW32185   0.445   1.221   4.759 -0.2570 -0.3169 -0.0389
 6908SOL    HW132186   0.427   1.127   4.765  2.5879 -0.7468  1.5676
 6908SOL    HW232187   0.395   1.246   4.681  0.8699 -3.3238 -1.7489
 6909SOL     OW32188   1.812   3.420  16.529 -0.4213  0.2811 -0.2043
 6909SOL    HW132189   1.865   3.411  16.608 -1.4398  2.3496  0.7201
 6909SOL    HW232190   1.869   3.402  16.454  0.1675  1.4115 -0.0346
 6910SOL     OW32191   1.687   1.441   4.957 -0.1266 -0.2156 -0.2254
 6910SOL    HW132192   1.683   1.530   4.992 -1.4231 -0.2724 -0.2369
 6910SOL    HW232193   1.716   1.472   4.871  0.9780  1.6640  0.8247
 6911SOL     OW32194   2.650   4.684   7.104 -0.1625 -0.3245 -0.0585
 6911SOL    HW132195   2.660   4.656   7.013  0.6982  1.7010 -0.5948
 6911SOL    HW232196   2.733   4.657   7.143  0.1980  0.2009 -0.4591
 6912SOL     OW32197   2.229   4.329   6.817  0.2404 -0.0249  0.3048
 6912SOL    HW132198   2.300   4.265   6.826 -0.2165 -0.6754 -0.7369
 6912SOL    HW232199   2.230   4.363   6.907  1.8427  2.5523 -0.7043
 6913SOL     OW32200   0.700   2.260  11.396  0.7902  0.4646  0.4330
 6913SOL    HW132201   0.688   2.228  11.307  1.3041  1.8191 -0.1294
 6913SOL    HW232202   0.717   2.353  11.377  3.5484 -0.2875 -0.6992
 6914SOL     OW32203   2.149   1.662   6.498 -0.6216  0.0906  0.0778
 6914SOL    HW132204   2.237   1.684   6.470 -0.8078  1.5646  0.6475
 6914SOL    HW232205   2.168   1.571   6.521  0.9924  0.1390 -1.1164
 6915SOL     OW32206   3.405   2.354   5.348  0.2547 -0.0717 -0.0101
 6915SOL    HW132207   3.399   2.322   5.258 -0.7079 -0.4294  0.1744
 6915SOL    HW232208   3.358   2.436   5.333 -1.9081 -1.4167 -0.7178
 6916SOL     OW32209   1.063   0.469   7.482  0.6126 -0.0042  0.5519
 6916SOL    HW132210   1.125   0.521   7.533 -1.9777 -0.0233  3.6989
 6916SOL    HW232211   0.985   0.498   7.530  0.5422 -0.6316  0.8057
 6917SOL     OW32212   2.124   3.234   3.609  0.6618 -0.3770 -0.2531
 6917SOL    HW132213   2.118   3.246   3.704  1.0644  0.7475 -0.3748
 6917SOL    HW232214   2.092   3.144   3.610  0.3883 -0.2873 -0.9248
 6918SOL     OW32215   4.262   4.091   7.976 -0.5321 -0.6962 -0.0135
 6918SOL    HW132216   4.208   4.015   7.997 -0.2627 -0.2062  2.4627
 6918SOL    HW232217   4.336   4.051   7.932  0.4131 -0.3716  1.2708
 6919SOL     OW32218   1.756   0.545  16.252  0.2079 -0.6960 -0.2214
 6919SOL    HW132219   1.803   0.490  16.315 -1.5357  1.4354  2.9746
 6919SOL    HW232220   1.768   0.497  16.170  1.7033 -0.7504  0.0193
 6920SOL     OW32221   1.931   4.082   8.322 -0.9767  0.2617 -0.3639
 6920SOL    HW132222   1.857   4.078   8.382 -0.1492  0.2128  0.6571
 6920SOL    HW232223   1.975   3.998   8.337 -2.3568 -0.4086 -0.1403
 6921SOL     OW32224   1.854   3.535   9.239 -0.2661  0.3948  0.1392
 6921SOL    HW132225   1.922   3.564   9.179 -0.8506  3.1385  0.8191
 6921SOL    HW232226   1.880   3.573   9.323  0.8712 -0.8033  0.3310
 6922SOL     OW32227   1.104   3.440   3.812 -0.5064 -0.0416  0.0889
 6922SOL    HW132228   1.052   3.481   3.881 -2.5374 -0.0422 -1.4418
 6922SOL    HW232229   1.094   3.507   3.745  3.0446 -0.3450 -0.7257
 6923SOL     OW32230   1.386   1.869   3.109  0.5885 -0.6772  0.4381
 6923SOL    HW132231   1.333   1.862   3.188  1.7091  1.5588  1.3851
 6923SOL    HW232232   1.440   1.793   3.134  1.4393 -0.9740 -2.3317
 6924SOL     OW32233   2.334   2.950   7.044  0.1618  0.1488  0.0627
 6924SOL    HW132234   2.399   2.912   7.103  0.0132  1.3872  1.0086
 6924SOL    HW232235   2.367   3.039   7.050 -1.3801  0.6984  0.3192
 6925SOL     OW32236   0.230   2.103  12.802 -0.0365 -0.9625 -0.4295
 6925SOL    HW132237   0.275   2.113  12.718 -2.0929  2.0300 -1.2004
 6925SOL    HW232238   0.144   2.132  12.771  0.7789  3.0591  1.0432
 6926SOL     OW32239   2.175   0.870  10.906  0.3388  0.4163 -0.0768
 6926SOL    HW132240   2.183   0.871  11.002  0.2443 -0.6269 -0.0570
 6926SOL    HW232241   2.113   0.798  10.895  2.2224 -0.8253 -2.5380
 6927SOL     OW32242   0.732   0.274   4.362 -0.4106 -0.0398 -0.2041
 6927SOL    HW132243   0.649   0.317   4.342 -0.4251  0.0094 -0.0370
 6927SOL    HW232244   0.787   0.307   4.291 -1.3452  0.4392 -0.7084
 6928SOL     OW32245   0.265   3.652  12.675  0.5568 -0.6015 -0.1313
 6928SOL    HW132246   0.289   3.737  12.637 -1.4776  0.2538  0.5081
 6928SOL    HW232247   0.269   3.599  12.595  2.3672  0.7435 -0.9594
 6929SOL     OW32248   2.471   2.350   5.083  0.0039 -0.0980 -0.7012
 6929SOL    HW132249   2.471   2.320   4.992  1.7358 -1.1967 -0.3449
 6929SOL    HW232250   2.465   2.443   5.060  1.6045 -0.3320 -2.1524
 6930SOL     OW32251   4.234   3.576   3.033 -0.0269  0.1429  0.7420
 6930SOL    HW132252   4.229   3.671   3.045 -0.3230  0.1748  0.3587
 6930SOL    HW232253   4.140   3.563   3.019 -0.2757  0.5326  2.0825
 6931SOL     OW32254   0.676   4.275  10.841 -0.1665 -0.8746  0.2278
 6931SOL    HW132255   0.753   4.218  10.851  1.6461  1.5889  0.2326
 6931SOL    HW232256   0.713   4.363  10.831 -0.9769 -0.4182  1.2676
 6932SOL     OW32257   1.668   3.785  15.628  0.2925 -0.1192 -0.1050
 6932SOL    HW132258   1.695   3.764  15.538 -0.2846 -2.9052  0.3868
 6932SOL    HW232259   1.696   3.877  15.628 -1.1458  0.3162  0.4353
 6933SOL     OW32260   3.800   1.423   2.545  0.1970 -0.0002 -0.8905
 6933SOL    HW132261   3.850   1.431   2.464 -0.2259  0.5268 -1.1000
 6933SOL    HW232262   3.736   1.357   2.518 -0.1496 -0.3383  0.7811
 6934SOL     OW32263   2.388   4.093   2.098  0.1524 -0.1972  0.3111
 6934SOL    HW132264   2.364   4.138   2.017  0.7880  0.8037  0.6769
 6934SOL    HW232265   2.322   4.024   2.106  0.3944 -0.6363 -1.5160
 6935SOL     OW32266   3.468   1.260   3.314 -0.0893 -0.3793 -0.5161
 6935SOL    HW132267   3.550   1.249   3.267  1.0602  1.3342  1.0947
 6935SOL    HW232268   3.406   1.253   3.241 -1.4202 -0.6917  0.6401
 6936SOL     OW32269   2.942   0.391   7.547  0.1180 -0.6636 -0.0900
 6936SOL    HW132270   2.888   0.395   7.627 -0.9082 -2.8923 -0.6779
 6936SOL    HW232271   2.927   0.480   7.516  0.7616 -0.6152 -0.2667
 6937SOL     OW32272   3.963   1.780   3.392 -0.0869 -0.1002 -0.5578
 6937SOL    HW132273   3.913   1.862   3.397 -1.7641 -1.2344  1.6038
 6937SOL    HW232274   4.013   1.800   3.314 -0.1621  2.0657 -0.0583
 6938SOL     OW32275   3.045   3.590   3.015 -0.2177  0.4007  0.3088
 6938SOL    HW132276   3.049   3.584   2.920  1.2658 -0.7582  0.4496
 6938SOL    HW232277   3.026   3.683   3.030  0.7406  0.6117  0.1867
 6939SOL     OW32278   0.406   4.456   7.305 -0.0788  0.3672  0.9792
 6939SOL    HW132279   0.449   4.535   7.273  0.0610 -0.4945 -0.9248
 6939SOL    HW232280   0.413   4.470   7.400  0.6698  0.6857  0.8783
 6940SOL     OW32281   1.822   4.184  10.570 -0.9198  0.0760  0.3658
 6940SOL    HW132282   1.848   4.147  10.654 -0.9762  1.5807  1.0441
 6940SOL    HW232283   1.866   4.269  10.570  0.0536 -0.4263  2.1128
 6941SOL     OW32284   2.194   2.963   0.744 -0.0437  0.2137 -0.0806
 6941SOL    HW132285   2.148   2.893   0.791 -1.2006  1.8636  1.2439
 6941SOL    HW232286   2.208   2.923   0.658  1.3871 -1.3700  0.8871
 6942SOL     OW32287   2.005   3.011   8.688 -0.0157 -0.0290  0.4298
 6942SOL    HW132288   2.069   3.081   8.679 -1.0791  0.5805 -2.3080
 6942SOL    HW232289   1.970   3.012   8.599  0.5162 -2.7450  0.1973
 6943SOL     OW32290   3.718   3.889  12.310  0.7023 -0.1397 -0.6147
 6943SOL    HW132291   3.659   3.919  12.241  0.6000  1.8844  0.3501
 6943SOL    HW232292   3.663   3.827  12.358  1.1652  0.4420  0.6596
 6944SOL     OW32293   4.694   0.960   8.354 -0.0903  0.3030  0.1828
 6944SOL    HW132294   4.611   0.921   8.327  1.1600 -1.7625 -0.6678
 6944SOL    HW232295   4.698   0.962   8.450  1.4409  1.0639  0.1083
 6945SOL     OW32296   1.495   2.307   7.974  0.2434  0.2490 -0.5651
 6945SOL    HW132297   1.402   2.289   7.983  0.2767  0.0761 -0.5670
 6945SOL    HW232298   1.519   2.305   8.067 -1.2277  1.1009 -0.1791
 6946SOL     OW32299   2.107   1.047  10.031  0.1727 -0.7078  0.4312
 6946SOL    HW132300   2.135   1.058  10.122  0.6345  0.7900  0.1045
 6946SOL    HW232301   2.053   1.127  10.028  2.9504  1.1338 -0.2183
 6947SOL     OW32302   1.531   1.538   8.914  0.1269 -0.2682 -0.2879
 6947SOL    HW132303   1.622   1.567   8.927  0.8376 -1.5537 -2.3379
 6947SOL    HW232304   1.542   1.446   8.889  1.2298 -0.4898  0.9793
 6948SOL     OW32305   0.665   0.094   3.087 -0.2268  0.2453  0.5913
 6948SOL    HW132306   0.733   0.048   3.137  2.0562  2.0733 -0.8417
 6948SOL    HW232307   0.592   0.049   3.130 -0.6301 -2.3299 -2.8497
 6949SOL     OW32308   0.625   0.561   2.081 -0.2619  0.0804 -0.2973
 6949SOL    HW132309   0.552   0.574   2.020 -1.3433 -1.4677  0.6744
 6949SOL    HW232310   0.657   0.651   2.089 -1.1682  0.4075 -0.3166
 6950SOL     OW32311   3.217   1.876  15.924 -0.4743  0.0299 -0.1283
 6950SOL    HW132312   3.166   1.947  15.963 -0.1681 -0.7505  1.7009
 6950SOL    HW232313   3.274   1.919  15.861 -1.4435  0.9040 -0.4195
 6951SOL     OW32314   2.276   0.829   1.524  0.4866  0.3471 -0.1710
 6951SOL    HW132315   2.207   0.782   1.477  1.0626  0.4396 -1.1038
 6951SOL    HW232316   2.350   0.769   1.523 -0.5969 -1.0521  2.4994
 6952SOL     OW32317   2.287   0.623   6.707  0.0782  0.1839 -0.2122
 6952SOL    HW132318   2.284   0.529   6.725  0.5507  0.6985  2.5459
 6952SOL    HW232319   2.355   0.646   6.771 -0.3175  1.1508 -0.1406
 6953SOL     OW32320   3.661   2.894   8.210 -0.1343 -0.5946 -0.1912
 6953SOL    HW132321   3.702   2.928   8.130  0.4519  1.9290  1.1964
 6953SOL    HW232322   3.574   2.909   8.173  0.6781 -1.0822 -2.2846
 6954SOL     OW32323   0.988   0.410   8.911 -0.5255 -0.3770  0.1893
 6954SOL    HW132324   0.982   0.372   8.999 -0.0633 -1.5809 -0.3050
 6954SOL    HW232325   0.906   0.459   8.911  0.5616  1.4539  0.3954
 6955SOL     OW32326   2.974   3.567   5.350 -0.1635  0.5430 -0.0594
 6955SOL    HW132327   2.887   3.602   5.329 -1.6487 -1.8337  2.1051
 6955SOL    HW232328   2.944   3.497   5.407  1.0547  0.0772  0.0017
 6956SOL     OW32329   0.028   1.034   6.770  0.0317 -0.3132 -0.0220
 6956SOL    HW132330   4.699   1.089   6.715  1.7622 -0.2337 -1.7296
 6956SOL    HW232331   0.018   0.943   6.741  1.1380 -0.0209 -1.3588
 6957SOL     OW32332   3.442   0.150  14.791 -0.6382  0.5091 -0.0870
 6957SOL    HW132333   3.405   0.174  14.876 -0.1846 -1.0303  0.5385
 6957SOL    HW232334   3.438   0.233  14.744  0.0020  0.6066  0.0259
 6958SOL     OW32335   3.149   2.880  16.354  1.0449  0.8886 -0.1930
 6958SOL    HW132336   3.169   2.973  16.349 -1.8275  1.5083 -0.1452
 6958SOL    HW232337   3.228   2.855  16.403  0.9974  0.4782 -0.3222
 6959SOL     OW32338   2.408   0.281   8.091  0.2469 -0.2149  0.0198
 6959SOL    HW132339   2.372   0.194   8.074  0.1708 -0.6625  2.4320
 6959SOL    HW232340   2.416   0.309   8.000 -2.3530  0.7760  0.1077
 6960SOL     OW32341   3.297   2.638   7.321  0.1043 -0.2949  0.0681
 6960SOL    HW132342   3.280   2.576   7.392  1.5166 -0.1578  0.5244
 6960SOL    HW232343   3.227   2.702   7.318  1.1765  0.7901 -1.6939
 6961SOL     OW32344   3.263   0.072   6.082  0.6492 -0.2706 -0.4353
 6961SOL    HW132345   3.214   4.717   6.089  1.9384 -0.9742  0.1524
 6961SOL    HW232346   3.344   0.028   6.108  1.1439  0.8035 -0.1995
 6962SOL     OW32347   0.407   3.116   6.671 -0.0452  0.2598  0.4585
 6962SOL    HW132348   0.365   3.106   6.756 -1.2144 -0.9475 -0.2513
 6962SOL    HW232349   0.331   3.108   6.614 -0.4626 -0.9763  1.1783
 6963SOL     OW32350   2.129   2.473  12.139  0.3867  0.2612  0.2900
 6963SOL    HW132351   2.201   2.536  12.140  0.7485 -0.2262  2.9174
 6963SOL    HW232352   2.154   2.434  12.223 -0.1024  0.1120  0.3639
 6964SOL     OW32353   3.931   0.010   1.997 -0.2921 -0.4574  0.0990
 6964SOL    HW132354   3.979   4.699   2.071  0.3281 -0.7451 -0.4418
 6964SOL    HW232355   3.916   4.664   1.937 -1.9157  1.7214 -2.1437
 6965SOL     OW32356   2.658   0.709  12.772  0.0765 -0.4197 -0.0784
 6965SOL    HW132357   2.640   0.796  12.808  1.5363 -0.2633  0.2512
 6965SOL    HW232358   2.732   0.727  12.714  0.3831  0.3659  0.5550
 6966SOL     OW32359   0.541   4.440   2.228  0.3534  0.5094  0.7848
 6966SOL    HW132360   0.583   4.495   2.295 -1.0383  0.1880  1.9228
 6966SOL    HW232361   0.481   4.495   2.177  3.1705  0.2647 -2.7913
 6967SOL     OW32362   4.181   0.282   7.029 -0.0746 -0.4006  0.8000
 6967SOL    HW132363   4.222   0.196   7.029  1.1865  0.1936  1.7832
 6967SOL    HW232364   4.248   0.332   7.075 -0.5920  0.0194  1.0967
 6968SOL     OW32365   3.029   4.524   2.926  0.0811 -0.0484 -0.2982
 6968SOL    HW132366   3.084   4.601   2.912 -2.6356  1.6767 -1.3936
 6968SOL    HW232367   3.022   4.484   2.840 -0.5171 -1.8101  0.5831
 6969SOL     OW32368   3.122   2.002  10.543 -1.0598  0.2302 -0.5496
 6969SOL    HW132369   3.050   1.984  10.482 -0.4707 -0.5191 -1.0138
 6969SOL    HW232370   3.203   1.977  10.498 -0.1442  2.5479 -0.1980
 6970SOL     OW32371   1.939   0.071  13.408 -0.3772 -0.1601  0.2921
 6970SOL    HW132372   1.962   4.708  13.428 -2.6559 -0.1977  2.6926
 6970SOL    HW232373   1.909   0.103  13.493  2.7804  1.0229  0.9376
 6971SOL     OW32374   2.064   0.830  11.662  0.1848 -0.3654 -0.1533
 6971SOL    HW132375   1.979   0.874  11.657  0.2474 -0.5126 -2.2461
 6971SOL    HW232376   2.069   0.803  11.571  1.5967  0.5357 -0.3502
 6972SOL     OW32377   1.655   3.062   8.055  0.3478 -0.3731 -0.2766
 6972SOL    HW132378   1.662   3.006   7.978  0.1234 -0.5292 -0.1829
 6972SOL    HW232379   1.642   3.002   8.128 -0.8127  1.9823  1.4628
 6973SOL     OW32380   1.723   2.994  10.330 -0.4404  0.1064 -0.1131
 6973SOL    HW132381   1.707   2.980  10.423  1.5023  3.0183  0.6434
 6973SOL    HW232382   1.698   3.086  10.329  0.6372  0.3962 -0.3338
 6974SOL     OW32383   3.208   4.532  17.513 -0.8244 -0.1906  0.1153
 6974SOL    HW132384   3.152   4.480  17.571 -2.8827 -0.4583 -2.0841
 6974SOL    HW232385   3.150   4.529  17.437  1.2628  0.3363 -1.4751
 6975SOL     OW32386   3.263   1.680   5.241 -0.0788 -0.5349  0.4846
 6975SOL    HW132387   3.338   1.696   5.298  0.3116  2.1532 -0.7788
 6975SOL    HW232388   3.279   1.596   5.197  1.1558  1.6180 -3.2123
 6976SOL     OW32389   3.537   3.578   2.673 -0.1531  0.4506  0.4426
 6976SOL    HW132390   3.602   3.507   2.665 -2.3963 -1.8289  2.7648
 6976SOL    HW232391   3.498   3.566   2.759 -0.3623  0.0770  0.2944
 6977SOL     OW32392   2.766   1.931   5.668 -0.1415 -0.4226  0.6561
 6977SOL    HW132393   2.685   1.971   5.635 -0.8988 -3.1624 -0.7735
 6977SOL    HW232394   2.786   1.998   5.733  0.3652 -2.1439  2.2976
 6978SOL     OW32395   1.160   1.046   3.207 -0.1794  0.9606  0.1733
 6978SOL    HW132396   1.076   1.065   3.250 -1.1220  2.7867 -2.5167
 6978SOL    HW232397   1.155   1.080   3.118  0.8970  1.2707  0.2236
 6979SOL     OW32398   0.588   4.115   8.235  0.1655 -0.2145  0.7869
 6979SOL    HW132399   0.564   4.197   8.193 -1.0849 -0.3490  1.2442
 6979SOL    HW232400   0.663   4.086   8.183 -1.1564 -1.0638 -0.6321
 6980SOL     OW32401   4.334   1.135   7.002 -0.3869 -0.2207  0.4009
 6980SOL    HW132402   4.326   1.162   6.911  1.3677  0.4755  0.4614
 6980SOL    HW232403   4.387   1.203   7.043 -1.2039  0.0754  0.9663
 6981SOL     OW32404   3.656   2.087   7.018 -0.6072 -0.0956  0.3473
 6981SOL    HW132405   3.598   2.022   6.977 -0.6495 -0.5528  1.1390
 6981SOL    HW232406   3.685   2.143   6.946  2.6740 -0.4408  1.4167
 6982SOL     OW32407   3.442   3.407   5.795 -0.6237  0.0268 -0.2815
 6982SOL    HW132408   3.417   3.353   5.720 -0.0691  2.0666 -1.9173
 6982SOL    HW232409   3.523   3.446   5.762 -0.7626  0.4190 -0.1609
 6983SOL     OW32410   3.342   2.692  16.914 -0.1599  0.4508 -0.0424
 6983SOL    HW132411   3.352   2.626  16.846 -0.5371 -0.4660  0.7901
 6983SOL    HW232412   3.377   2.769  16.868 -1.2509  0.8691 -0.1601
 6984SOL     OW32413   0.079   0.375   4.109 -0.4183 -0.8587 -0.2193
 6984SOL    HW132414   4.715   0.400   4.092 -1.2821 -1.9880  2.8062
 6984SOL    HW232415   0.103   0.437   4.178 -2.3494  0.2684 -0.5322
 6985SOL     OW32416   3.806   4.714   9.534  0.4687 -0.8826 -0.1211
 6985SOL    HW132417   3.897   0.013   9.549  0.5037 -0.5130 -1.0048
 6985SOL    HW232418   3.759   0.052   9.586 -0.1970 -0.3474 -1.3888
 6986SOL     OW32419   3.927   1.815  10.774  0.2873 -0.3897 -0.2251
 6986SOL    HW132420   3.850   1.766  10.744  0.4414 -0.6526 -0.1945
 6986SOL    HW232421   3.961   1.835  10.688  0.4549 -1.6911 -0.4718
 6987SOL     OW32422   3.955   0.486   2.876 -0.2348  0.0632  0.5001
 6987SOL    HW132423   4.038   0.451   2.844 -0.8458 -2.5156  1.7232
 6987SOL    HW232424   3.967   0.579   2.856  0.5926  0.2319  1.7940
 6988SOL     OW32425   2.196   1.202   3.300 -0.1212  0.4158 -0.5475
 6988SOL    HW132426   2.145   1.140   3.248 -0.6234 -0.2192  0.7048
 6988SOL    HW232427   2.142   1.211   3.378  0.1393  0.6948 -0.3980
 6989SOL     OW32428   2.710   3.751  16.458  0.2061  0.3489  0.3768
 6989SOL    HW132429   2.747   3.826  16.413  2.3948 -0.9342  0.0718
 6989SOL    HW232430   2.683   3.795  16.539  2.0006 -1.6696  2.0711
 6990SOL     OW32431   2.487   0.695  14.556 -0.0295 -0.0621 -0.1374
 6990SOL    HW132432   2.539   0.687  14.636 -0.4032 -0.3552  0.0784
 6990SOL    HW232433   2.416   0.643  14.593  1.5744 -0.6682  2.1295
 6991SOL     OW32434   0.578   1.503   4.570 -0.0256 -0.1301  0.0062
 6991SOL    HW132435   0.614   1.422   4.534 -1.3518 -0.3499 -0.8443
 6991SOL    HW232436   0.494   1.496   4.525 -0.3703  0.2944  0.6047
 6992SOL     OW32437   0.442   0.725   0.259 -0.3403 -0.8396 -0.3047
 6992SOL    HW132438   0.411   0.806   0.300  1.8250 -1.3321  2.2980
 6992SOL    HW232439   0.405   0.669   0.327 -1.9257  1.5870  0.8244
 6993SOL     OW32440   1.323   1.219   5.951 -0.3100 -0.2170 -0.1976
 6993SOL    HW132441   1.359   1.250   5.868  0.1433  0.0584  0.0983
 6993SOL    HW232442   1.393   1.233   6.014 -0.4450 -0.4290 -0.0033
 6994SOL     OW32443   0.608   4.510   5.736 -0.0635 -0.1357 -0.2247
 6994SOL    HW132444   0.531   4.529   5.790  0.6914 -3.0305  1.8439
 6994SOL    HW232445   0.628   4.418   5.753  2.3728  0.3499 -0.5204
 6995SOL     OW32446   4.333   0.786   3.312 -0.3820  0.2123  0.1238
 6995SOL    HW132447   4.304   0.763   3.224  2.2589  0.7519 -0.8707
 6995SOL    HW232448   4.249   0.812   3.349 -0.2193 -1.9170  1.9647
 6996SOL     OW32449   0.822   3.197   8.119  0.4823 -0.3672  1.1714
 6996SOL    HW132450   0.737   3.231   8.148 -1.2194 -1.9221 -2.0849
 6996SOL    HW232451   0.798   3.105   8.115 -1.8273  0.3006 -0.5440
 6997SOL     OW32452   2.240   4.605  15.385 -0.2972 -0.5933 -0.5690
 6997SOL    HW132453   2.295   4.682  15.368  1.5160 -1.3299  1.9719
 6997SOL    HW232454   2.283   4.545  15.324  0.9855  1.2919 -1.5121
 6998SOL     OW32455   2.661   0.662   6.855  0.3959  0.0363 -0.3689
 6998SOL    HW132456   2.634   0.597   6.920  1.1134 -3.1907 -3.2765
 6998SOL    HW232457   2.729   0.611   6.811 -0.3953 -2.1700  0.9385
 6999SOL     OW32458   3.528   0.006   5.307  0.2751  1.0767  0.4816
 6999SOL    HW132459   3.508   4.664   5.370 -1.6816  1.8459  0.7037
 6999SOL    HW232460   3.585   4.682   5.250 -0.2438  1.1801 -0.1280
 7000SOL     OW32461   0.804   3.289   4.362 -0.4619  0.3036 -0.3130
 7000SOL    HW132462   0.853   3.275   4.281 -1.1213  0.0603 -0.6663
 7000SOL    HW232463   0.758   3.371   4.345  0.0901  0.5179 -0.7444
 7001SOL     OW32464   0.016   0.779   5.618  0.3076 -0.2699 -0.2477
 7001SOL    HW132465   0.060   0.818   5.694 -0.5382  2.2326 -1.0309
 7001SOL    HW232466   0.055   0.691   5.619  1.6716  0.3254 -1.7158
 7002SOL     OW32467   1.292   1.361  15.333 -0.2219  0.4743 -0.5102
 7002SOL    HW132468   1.281   1.417  15.410 -0.2554 -2.1041  1.3714
 7002SOL    HW232469   1.265   1.414  15.259 -0.9574  1.4512  0.4445
 7003SOL     OW32470   3.991   3.044  14.143 -0.2553  0.0727 -0.0576
 7003SOL    HW132471   4.006   3.087  14.227  1.9698 -0.4114 -0.1949
 7003SOL    HW232472   4.016   2.952  14.156  1.6899  0.6412  0.1909
 7004SOL     OW32473   0.002   4.235   8.861  0.4651  0.2116  0.4928
 7004SOL    HW132474   4.635   4.255   8.867  0.2038 -1.7934  3.0028
 7004SOL    HW232475   0.017   4.249   8.954  0.0658  1.8917  0.3094
 7005SOL     OW32476   1.521   0.901   8.394  0.3283  0.2966  0.2682
 7005SOL    HW132477   1.498   0.871   8.306 -0.1417  2.3125 -0.2822
 7005SOL    HW232478   1.482   0.988   8.396 -1.0818 -0.2963 -0.9620
 7006SOL     OW32479   2.015   4.302   6.137 -0.2399  0.2795  0.3941
 7006SOL    HW132480   1.927   4.332   6.115  0.6711  1.0364 -2.1801
 7006SOL    HW232481   2.045   4.287   6.047 -2.5210  3.2891 -0.8833
 7007SOL     OW32482   0.967   4.091   3.957 -0.2333 -0.0613  0.6105
 7007SOL    HW132483   1.009   4.005   3.955  0.2921  0.2797 -2.7052
 7007SOL    HW232484   1.041   4.141   3.991 -0.3884 -0.3982  1.4454
 7008SOL     OW32485   2.481   2.197   2.542 -0.3516 -0.1669 -0.0211
 7008SOL    HW132486   2.487   2.277   2.594 -1.5997  0.7122 -1.1985
 7008SOL    HW232487   2.386   2.191   2.532 -0.1695  0.2506 -2.0356
 7009SOL     OW32488   3.802   4.485   1.924 -0.5862 -0.0153 -0.6942
 7009SOL    HW132489   3.851   4.504   2.004 -0.6368 -0.1525 -0.6318
 7009SOL    HW232490   3.873   4.437   1.881 -1.3057  0.4348 -2.3955
 7010SOL     OW32491   2.850   2.706   9.887 -0.1498 -0.4874 -0.0766
 7010SOL    HW132492   2.926   2.708   9.829 -1.2278 -1.1300 -1.5193
 7010SOL    HW232493   2.776   2.684   9.830  0.6731 -2.2276 -0.4900
 7011SOL     OW32494   0.149   4.616   8.972  0.1541  0.4393  0.0068
 7011SOL    HW132495   0.074   4.572   9.012  0.2418  0.3610  0.0865
 7011SOL    HW232496   0.207   4.540   8.969 -1.5659 -0.8986  0.2995
 7012SOL     OW32497   1.333   2.973   2.282  0.4082 -0.2272 -0.0959
 7012SOL    HW132498   1.265   2.934   2.336 -1.3662  0.3797 -1.8649
 7012SOL    HW232499   1.296   3.061   2.279  2.0492  0.5467  2.9673
 7013SOL     OW32500   3.939   1.325   9.260 -0.4821  0.1605 -0.1562
 7013SOL    HW132501   3.924   1.344   9.353  3.2291 -2.0833  0.8881
 7013SOL    HW232502   4.020   1.274   9.262  0.1124  1.1132  0.0262
 7014SOL     OW32503   2.231   2.715   4.572  0.2067  0.1282  0.3475
 7014SOL    HW132504   2.209   2.794   4.523  0.8733  0.2544  0.2529
 7014SOL    HW232505   2.168   2.715   4.644 -1.5820 -0.6549 -1.2379
 7015SOL     OW32506   0.271   0.818   8.386  0.2615 -0.1369  0.7892
 7015SOL    HW132507   0.189   0.828   8.337 -0.8802 -1.2279  2.5110
 7015SOL    HW232508   0.291   0.910   8.405  0.0258  0.0826 -0.0107
 7016SOL     OW32509   3.686   0.592   5.141  0.1491  0.4972  0.3732
 7016SOL    HW132510   3.782   0.597   5.142  0.2627 -1.6556 -0.4708
 7016SOL    HW232511   3.688   0.553   5.229  1.6206 -1.4240 -0.5197
 7017SOL     OW32512   4.142   2.326   5.037 -0.5161 -0.2647  0.0230
 7017SOL    HW132513   4.085   2.345   5.112 -0.0158 -1.3276  0.6694
 7017SOL    HW232514   4.153   2.415   5.003  0.7903 -0.3160  0.3259
 7018SOL     OW32515   2.799   2.488  14.330 -0.1393  0.3572  0.3056
 7018SOL    HW132516   2.808   2.409  14.383  0.9623  1.0407  1.1499
 7018SOL    HW232517   2.710   2.515  14.354  0.1819  0.8870  0.9124
 7019SOL     OW32518   3.024   2.460   5.022  0.5848 -0.0472  0.3247
 7019SOL    HW132519   3.104   2.513   5.020 -1.1000  2.5102  0.8739
 7019SOL    HW232520   2.948   2.518   5.022 -0.2686 -1.1698 -0.1289
 7020SOL     OW32521   3.392   1.536  10.969 -0.1556  0.3197  0.1216
 7020SOL    HW132522   3.344   1.613  10.998  0.1043 -0.1285  1.7352
 7020SOL    HW232523   3.317   1.479  10.950  0.6662 -1.1236  1.1925
 7021SOL     OW32524   0.214   0.450   2.483 -0.2194 -0.0628 -0.5232
 7021SOL    HW132525   0.245   0.399   2.408 -2.0264 -0.8595 -0.7423
 7021SOL    HW232526   0.160   0.383   2.526 -0.1189 -0.8843 -1.6591
 7022SOL     OW32527   1.923   4.206   4.373 -0.2334  0.7566 -0.4275
 7022SOL    HW132528   1.888   4.144   4.437 -0.8913  1.0260 -0.5226
 7022SOL    HW232529   1.990   4.149   4.336 -1.8946 -0.4227 -1.6324
 7023SOL     OW32530   4.370   1.471   5.543  0.4108 -0.1247  0.1481
 7023SOL    HW132531   4.314   1.405   5.585  0.6739  0.0784  0.8231
 7023SOL    HW232532   4.400   1.419   5.469  0.5787  0.1161  0.0510
 7024SOL     OW32533   0.817   3.754   3.547  0.5250  0.0896  0.0505
 7024SOL    HW132534   0.851   3.752   3.458 -2.1284  0.6126 -0.9641
 7024SOL    HW232535   0.870   3.823   3.585 -0.1161 -0.1383  1.3617
 7025SOL     OW32536   4.091   2.805   5.839  0.2639  0.0114  0.7009
 7025SOL    HW132537   4.098   2.759   5.756  1.1937  1.3895  0.0141
 7025SOL    HW232538   4.069   2.895   5.813  1.6951  0.6061  1.5641
 7026SOL     OW32539   2.764   0.507   6.240  0.1199  0.4924 -0.4604
 7026SOL    HW132540   2.822   0.560   6.186  1.0217  0.1441  0.1769
 7026SOL    HW232541   2.762   0.549   6.326 -1.0000 -0.0535 -0.2124
 7027SOL     OW32542   2.287   0.275   4.112 -0.7524  0.2248 -0.1467
 7027SOL    HW132543   2.356   0.339   4.097 -1.4039  1.2095  1.1017
 7027SOL    HW232544   2.335   0.212   4.166 -0.2369 -1.1565 -2.2208
 7028SOL     OW32545   1.990   3.289  10.303  0.0360 -0.0989 -0.2557
 7028SOL    HW132546   2.006   3.205  10.346  0.9865  0.7801  1.0913
 7028SOL    HW232547   2.058   3.347  10.336  0.7572 -1.3853  0.5283
 7029SOL     OW32548   1.770   2.564   3.811 -0.3879 -0.2000 -0.2414
 7029SOL    HW132549   1.706   2.493   3.808 -1.1932  0.4271  1.8923
 7029SOL    HW232550   1.717   2.640   3.789 -1.6159 -0.9818  0.0218
 7030SOL     OW32551   3.049   1.206  12.509 -0.3953  0.0658 -0.3036
 7030SOL    HW132552   3.137   1.177  12.487 -0.2311 -0.1865  0.6689
 7030SOL    HW232553   3.040   1.199  12.604 -0.2669  1.2856 -0.1933
 7031SOL     OW32554   0.103   2.627   2.455 -0.4566  0.4914 -0.1558
 7031SOL    HW132555   0.030   2.566   2.450  0.2379 -0.3751  0.3345
 7031SOL    HW232556   0.155   2.580   2.520  1.7760 -0.8668 -2.9253
 7032SOL     OW32557   2.259   2.371   6.354  0.4399 -0.1369 -0.0534
 7032SOL    HW132558   2.284   2.459   6.380 -0.4658  0.9249 -2.7562
 7032SOL    HW232559   2.264   2.322   6.436 -0.4678 -1.4217 -0.7556
 7033SOL     OW32560   3.840   2.740  12.761  0.6031  1.0477 -0.4401
 7033SOL    HW132561   3.781   2.721  12.834 -0.3419 -1.9293 -1.9753
 7033SOL    HW232562   3.852   2.834  12.756  1.7971  0.9604  0.7528
 7034SOL     OW32563   0.866   0.844  10.939 -0.1520  0.4902 -0.2906
 7034SOL    HW132564   0.774   0.824  10.956  0.3104 -1.7042 -0.3033
 7034SOL    HW232565   0.913   0.862  11.020  0.6142  0.4187 -0.7207
 7035SOL     OW32566   1.320   2.856   9.160 -0.0284 -0.7645 -0.5393
 7035SOL    HW132567   1.379   2.783   9.142 -1.2592 -1.7788 -0.4512
 7035SOL    HW232568   1.235   2.815   9.143  0.4701 -1.1007 -2.2150
 7036SOL     OW32569   1.105   3.958   2.949 -0.0400  0.1201 -0.3796
 7036SOL    HW132570   1.090   4.045   2.914 -1.4907 -0.7268 -1.8917
 7036SOL    HW232571   1.034   3.912   2.904  1.1584 -0.5183 -1.6153
 7037SOL     OW32572   1.198   3.170   0.809  0.0628  0.1491 -0.6742
 7037SOL    HW132573   1.234   3.096   0.857 -0.9599 -0.6701 -1.1694
 7037SOL    HW232574   1.260   3.170   0.737  0.5225  1.1946 -0.2803
 7038SOL     OW32575   0.068   4.034   2.077  0.3546 -0.0865  0.5631
 7038SOL    HW132576   4.723   4.001   2.129  0.0711  0.3157  0.4275
 7038SOL    HW232577   0.122   3.955   2.081 -1.8647 -1.7686 -3.4409
 7039SOL     OW32578   4.255   0.751  10.095  0.3815  0.1908  0.0361
 7039SOL    HW132579   4.164   0.740  10.121  0.4104  1.9188  0.8780
 7039SOL    HW232580   4.275   0.674  10.043 -1.0767 -0.6784  0.7808
 7040SOL     OW32581   4.508   0.802   9.838  0.0308 -0.4599  0.2610
 7040SOL    HW132582   4.486   0.725   9.891  1.0035 -0.0726  1.2317
 7040SOL    HW232583   4.582   0.837   9.888 -0.4064  1.0579 -0.1570
 7041SOL     OW32584   0.614   0.630  10.007 -0.0510 -0.1753 -0.3736
 7041SOL    HW132585   0.587   0.631  10.098  1.5157 -0.4535  0.0829
 7041SOL    HW232586   0.593   0.716   9.970 -2.2830  0.0639  1.4971
 7042SOL     OW32587   3.754   2.909   4.675 -0.4161 -0.3379 -0.0239
 7042SOL    HW132588   3.691   2.909   4.603 -1.0738  1.1028  0.5435
 7042SOL    HW232589   3.798   2.990   4.650 -0.6309 -1.1412 -2.9340
 7043SOL     OW32590   2.271   2.732   8.905  0.4795  0.7669  0.3027
 7043SOL    HW132591   2.278   2.770   8.817 -1.3725 -2.9955 -1.4714
 7043SOL    HW232592   2.197   2.672   8.893  0.9550 -0.1702  2.1675
 7044SOL     OW32593   2.406   0.291   7.801 -0.0956  0.0023 -0.0125
 7044SOL    HW132594   2.313   0.278   7.779 -0.4188  0.2488  1.1836
 7044SOL    HW232595   2.413   0.386   7.790 -1.6521  0.0096 -0.9588
 7045SOL     OW32596   0.919   4.460   2.239  0.1216  0.0597 -0.1680
 7045SOL    HW132597   0.850   4.513   2.277 -0.9272 -0.6426 -1.1113
 7045SOL    HW232598   0.884   4.444   2.151  1.9124  0.6318 -1.0103
 7046SOL     OW32599   4.385   2.370  16.731 -0.5284 -0.6557  0.2848
 7046SOL    HW132600   4.332   2.366  16.810  0.6769  2.9538  1.2848
 7046SOL    HW232601   4.447   2.303  16.760 -0.1094 -0.4094 -0.0219
 7047SOL     OW32602   2.934   4.205   3.961 -0.1317 -0.2844  0.0140
 7047SOL    HW132603   2.935   4.288   3.913  1.2579 -0.2230  0.1539
 7047SOL    HW232604   3.027   4.181   3.952  0.1500  0.3368  1.3261
 7048SOL     OW32605   4.327   4.455   7.219 -0.3965 -0.2106 -0.4165
 7048SOL    HW132606   4.420   4.461   7.237 -0.4840 -0.5678  0.1597
 7048SOL    HW232607   4.304   4.408   7.299 -0.2909 -0.2610 -0.4158
 7049SOL     OW32608   4.539   3.154   9.164 -0.2906  0.2971  0.0704
 7049SOL    HW132609   4.484   3.169   9.240 -1.2038  1.5608 -0.8456
 7049SOL    HW232610   4.544   3.238   9.119  0.1255  1.8506  3.0292
 7050SOL     OW32611   4.474   0.727   6.768 -0.1091  0.0055 -0.1289
 7050SOL    HW132612   4.408   0.668   6.805 -0.3161  0.1504 -0.2675
 7050SOL    HW232613   4.425   0.792   6.717 -2.1152 -0.4396  1.2344
 7051SOL     OW32614   0.427   1.417   4.938  0.3529 -0.2015  0.9343
 7051SOL    HW132615   0.437   1.339   4.882  0.8165  1.5083 -1.3549
 7051SOL    HW232616   0.333   1.417   4.953 -0.0659 -0.2582 -1.7275
 7052SOL     OW32617   0.777   4.077   8.013 -0.1401  0.2949  0.1521
 7052SOL    HW132618   0.827   4.158   8.008 -2.4640  1.8263  1.6744
 7052SOL    HW232619   0.817   4.025   7.944 -1.1877  1.8067 -1.5740
 7053SOL     OW32620   3.556   2.635   3.277  0.7569  0.4985 -0.4503
 7053SOL    HW132621   3.467   2.641   3.312  0.2809 -0.7979 -1.4316
 7053SOL    HW232622   3.591   2.554   3.315  0.2323  0.8809  0.8194
 7054SOL     OW32623   3.562   1.387  14.773 -0.1463  0.9467  0.4862
 7054SOL    HW132624   3.579   1.473  14.809 -1.0607  0.3895  2.2666
 7054SOL    HW232625   3.597   1.396  14.685  0.8300  1.3819  0.9208
 7055SOL     OW32626   1.972   1.047   4.109  0.1257  0.6635  0.2930
 7055SOL    HW132627   1.991   1.114   4.175 -0.8457  1.5677 -0.3530
 7055SOL    HW232628   1.885   1.078   4.085  0.6867  1.2958 -0.9044
 7056SOL     OW32629   3.964   0.230   9.254  0.7752 -0.1360  0.2489
 7056SOL    HW132630   3.888   0.172   9.261 -0.2318  0.9516 -1.6987
 7056SOL    HW232631   3.922   0.295   9.198  1.9020  0.3499 -0.0421
 7057SOL     OW32632   3.624   0.468   5.883 -0.5815  0.4131 -0.3064
 7057SOL    HW132633   3.592   0.553   5.851 -0.1602 -0.1678 -2.2376
 7057SOL    HW232634   3.654   0.490   5.972  1.3578 -1.7874 -0.4171
 7058SOL     OW32635   2.643   3.659   2.891 -0.2856 -0.2734  0.0288
 7058SOL    HW132636   2.592   3.661   2.972  1.3942  1.4866  1.0250
 7058SOL    HW232637   2.660   3.565   2.878 -1.6522 -0.5553  0.2227
 7059SOL     OW32638   1.977   3.447   6.550  0.4175  0.2901 -0.1488
 7059SOL    HW132639   2.007   3.365   6.510  0.8096  0.1209  0.4947
 7059SOL    HW232640   1.910   3.476   6.488 -1.1858 -2.6661  0.2208
 7060SOL     OW32641   0.268   0.719   6.796 -0.1361  0.2538 -0.0993
 7060SOL    HW132642   0.286   0.716   6.702 -2.6015  1.1919 -0.6066
 7060SOL    HW232643   0.173   0.733   6.796 -0.1672  0.0232 -0.5504
 7061SOL     OW32644   2.511   2.670  14.908  0.4522 -0.1200  0.4093
 7061SOL    HW132645   2.568   2.698  14.979  0.6083 -0.9352  0.6008
 7061SOL    HW232646   2.464   2.596  14.946 -0.5118  0.3572  0.1569
 7062SOL     OW32647   1.785   2.331   5.063 -0.4917 -0.4389  0.0782
 7062SOL    HW132648   1.794   2.248   5.110  0.8133  0.0455  0.6741
 7062SOL    HW232649   1.825   2.390   5.127 -0.7200  0.5468 -0.6899
 7063SOL     OW32650   0.618   1.262   3.010  0.4120  0.8098 -0.2040
 7063SOL    HW132651   0.593   1.249   2.919 -1.9108 -2.6839  0.9273
 7063SOL    HW232652   0.704   1.220   3.023  0.7786  1.2066 -1.3826
 7064SOL     OW32653   3.486   0.212  15.685 -0.0932 -0.1951  0.0786
 7064SOL    HW132654   3.511   0.291  15.637 -0.7886 -0.3178 -0.4970
 7064SOL    HW232655   3.443   0.160  15.616 -0.6123  0.7153 -0.2826
 7065SOL     OW32656   1.565   2.108   2.252  0.1289  0.2262  0.0040
 7065SOL    HW132657   1.524   2.035   2.298 -1.6347 -0.1092 -2.0863
 7065SOL    HW232658   1.637   2.061   2.209  0.3616  1.7355 -1.2849
 7066SOL     OW32659   0.152   2.518   4.674 -0.3022 -0.2373  0.4978
 7066SOL    HW132660   0.104   2.441   4.643 -1.2907  0.9955 -1.0321
 7066SOL    HW232661   0.187   2.552   4.591  0.2402 -1.8345  0.0783
 7067SOL     OW32662   1.577   0.092   6.355 -0.9739  0.1352 -0.3085
 7067SOL    HW132663   1.585   0.176   6.400  3.2227 -0.5182  0.1094
 7067SOL    HW232664   1.515   0.044   6.409  0.9591 -2.7850 -0.7074
 7068SOL     OW32665   2.234   1.845   7.825 -0.0304 -0.3816  0.3231
 7068SOL    HW132666   2.144   1.821   7.845 -0.4939  1.4377  0.4096
 7068SOL    HW232667   2.260   1.891   7.905  1.3937 -0.7929  0.1048
 7069SOL     OW32668   0.515   1.661   8.275  0.6461  0.0324  0.7803
 7069SOL    HW132669   0.572   1.585   8.289  0.6114 -0.0226  0.6232
 7069SOL    HW232670   0.443   1.628   8.328  1.1960 -0.8623  0.9812
 7070SOL     OW32671   1.346   0.094   9.721 -0.4175  0.3864  0.3413
 7070SOL    HW132672   1.349   0.185   9.749 -0.9536  0.4078  0.3338
 7070SOL    HW232673   1.256   0.075   9.748 -1.7387  2.6974 -2.4118
 7071SOL     OW32674   3.123   3.942   5.408  0.3032 -0.0259 -0.1793
 7071SOL    HW132675   3.087   3.971   5.324 -1.0178  1.8871  1.0538
 7071SOL    HW232676   3.042   3.921   5.454  0.7072  1.4854  1.2248
 7072SOL     OW32677   3.345   3.561   8.798  0.3522  0.5770 -0.2456
 7072SOL    HW132678   3.384   3.476   8.821  1.4844  1.0799 -0.2729
 7072SOL    HW232679   3.420   3.616   8.775  1.0898 -0.5166 -0.4826
 7073SOL     OW32680   3.633   3.090   3.809 -0.5413 -0.1085 -0.3631
 7073SOL    HW132681   3.640   3.142   3.728  1.2615 -1.2636 -0.9529
 7073SOL    HW232682   3.543   3.117   3.828 -0.3977  0.4974 -0.5112
 7074SOL     OW32683   4.083   1.195   8.542 -0.1684 -0.2430  0.1808
 7074SOL    HW132684   4.031   1.204   8.462  0.3844 -0.5417 -0.2073
 7074SOL    HW232685   4.054   1.107   8.569  1.3009 -0.8276 -0.1761
 7075SOL     OW32686   4.002   1.950   2.446 -0.1369  0.1539 -0.5821
 7075SOL    HW132687   3.998   2.040   2.415  0.6519 -0.4074 -2.2931
 7075SOL    HW232688   3.971   1.904   2.368 -0.7735 -1.0837  0.3877
 7076SOL     OW32689   2.113   3.523  16.280 -0.3638 -0.0492 -0.2860
 7076SOL    HW132690   2.139   3.569  16.359  0.7121 -2.5201  0.7759
 7076SOL    HW232691   2.194   3.516  16.229 -0.8710  2.5465 -1.4730
 7077SOL     OW32692   1.288   1.975   6.670  0.5056  0.9423  0.3290
 7077SOL    HW132693   1.342   1.945   6.744 -0.6049 -0.5665  0.5268
 7077SOL    HW232694   1.303   2.069   6.685  0.1178  1.2805 -1.4751
 7078SOL     OW32695   2.693   4.703   3.539  0.0432  0.4971 -0.3232
 7078SOL    HW132696   2.637   4.652   3.481  0.5134 -2.3007  1.6669
 7078SOL    HW232697   2.635   0.025   3.596 -0.1775 -0.9176  0.6972
 7079SOL     OW32698   1.924   2.108  11.205  0.2423  0.3377 -0.2082
 7079SOL    HW132699   1.912   2.028  11.257  0.9197  0.8649  0.7669
 7079SOL    HW232700   1.833   2.136  11.191 -0.1963 -0.4237  1.0656
 7080SOL     OW32701   2.472   2.623   0.943 -0.6490  0.1561  0.6249
 7080SOL    HW132702   2.487   2.686   1.013 -1.4221 -0.5980  1.4555
 7080SOL    HW232703   2.502   2.539   0.978 -0.5434  0.5810  1.5515
 7081SOL     OW32704   2.524   1.565   2.922 -0.4088  0.2470  0.5460
 7081SOL    HW132705   2.499   1.626   2.991  0.3306  0.6594  0.4511
 7081SOL    HW232706   2.506   1.605   2.837 -2.0665  0.1002  0.8155
 7082SOL     OW32707   3.602   4.220   5.358  0.4737  0.1464  0.3191
 7082SOL    HW132708   3.544   4.296   5.354 -1.3177 -1.0842  3.0570
 7082SOL    HW232709   3.553   4.164   5.418 -0.9636  2.6881  1.5257
 7083SOL     OW32710   3.977   2.470   7.616  0.3944  0.1852  0.2540
 7083SOL    HW132711   3.998   2.425   7.535  0.8897 -0.1932  0.5932
 7083SOL    HW232712   3.985   2.558   7.580  1.2371  0.1980  0.4837
 7084SOL     OW32713   1.230   3.571  16.282  0.6870 -0.3107 -0.4949
 7084SOL    HW132714   1.156   3.524  16.320  0.0754  2.0961  1.2801
 7084SOL    HW232715   1.179   3.614  16.214  0.3741 -0.3369 -0.2762
 7085SOL     OW32716   1.599   4.248   7.679  0.0391  0.4739 -0.0354
 7085SOL    HW132717   1.588   4.291   7.764 -1.6169  0.5071 -0.2636
 7085SOL    HW232718   1.514   4.205   7.666 -0.9409  3.0296 -1.9342
 7086SOL     OW32719   3.223   1.557   9.573  0.4908  0.5127  0.3827
 7086SOL    HW132720   3.250   1.557   9.665  1.0149 -2.0125  0.2352
 7086SOL    HW232721   3.223   1.649   9.548 -1.4861  0.2310 -0.6491
 7087SOL     OW32722   1.880   1.889  11.330 -0.0120 -0.2818  0.1290
 7087SOL    HW132723   1.802   1.840  11.354  0.1027 -0.5534 -0.0516
 7087SOL    HW232724   1.929   1.813  11.298  1.4961  0.3264  0.9751
 7088SOL     OW32725   2.566   1.522   0.532  0.3517  0.5101  0.5390
 7088SOL    HW132726   2.623   1.471   0.475 -0.9822 -1.0073  0.5311
 7088SOL    HW232727   2.581   1.614   0.511 -0.3340  0.2856 -0.9479
 7089SOL     OW32728   3.478   3.734   8.030 -0.0598  0.1095 -0.5242
 7089SOL    HW132729   3.438   3.765   8.111  1.3676  0.6908 -0.0631
 7089SOL    HW232730   3.523   3.653   8.057  1.1731  1.0077  0.0925
 7090SOL     OW32731   2.003   0.620   6.673  0.2576  0.2121  0.3941
 7090SOL    HW132732   2.010   0.575   6.589 -0.2052 -0.4125  0.6893
 7090SOL    HW232733   2.093   0.653   6.677  0.0704  1.0568 -2.2903
 7091SOL     OW32734   3.104   0.036   9.291  0.4376 -0.1063  0.0606
 7091SOL    HW132735   3.078   0.065   9.378  1.3313  2.5561 -0.5596
 7091SOL    HW232736   3.027   4.714   9.264  1.7483 -2.0347 -0.2061
 7092SOL     OW32737   1.196   4.228   6.880  0.2252 -0.0046 -0.1185
 7092SOL    HW132738   1.134   4.217   6.953  0.1499  1.9818  0.1194
 7092SOL    HW232739   1.269   4.273   6.921 -0.1756  1.7156 -1.2919
 7093SOL     OW32740   4.348   3.023   4.988  0.3065  0.2245  0.4267
 7093SOL    HW132741   4.391   3.031   4.903 -1.7122 -0.2205 -0.6295
 7093SOL    HW232742   4.417   2.977   5.037 -0.1721  0.9600  1.7899
 7094SOL     OW32743   1.502   4.309  11.981 -0.2690  0.1587  0.0548
 7094SOL    HW132744   1.555   4.250  12.035  0.1596 -1.0181 -1.6299
 7094SOL    HW232745   1.564   4.382  11.973  0.1562 -0.2158 -0.1049
 7095SOL     OW32746   3.574   3.694   8.684  0.1214 -0.3591  0.0022
 7095SOL    HW132747   3.652   3.672   8.735  1.3115  1.2656 -1.1048
 7095SOL    HW232748   3.579   3.789   8.684 -0.4762 -0.3304  0.2556
 7096SOL     OW32749   2.248   2.874   1.668 -0.0524  0.2585 -0.3288
 7096SOL    HW132750   2.236   2.917   1.753  4.2633 -0.3338  0.5959
 7096SOL    HW232751   2.336   2.838   1.679 -0.2816 -0.1023  0.3466
 7097SOL     OW32752   1.824   4.547  17.577  0.3310  0.1382  0.3479
 7097SOL    HW132753   1.869   4.623  17.540 -0.0296  0.2045  0.0325
 7097SOL    HW232754   1.742   4.547  17.526 -0.0612 -1.9217  0.9786
 7098SOL     OW32755   3.092   3.253   7.476 -0.1427 -0.0019  0.5933
 7098SOL    HW132756   3.013   3.200   7.485  0.2254 -0.5095  0.8349
 7098SOL    HW232757   3.153   3.180   7.483  1.0474  1.2225  3.0580
 7099SOL     OW32758   4.374   0.712  12.285  0.1052  0.0189 -0.0052
 7099SOL    HW132759   4.389   0.795  12.330 -0.7958  0.4031 -0.4384
 7099SOL    HW232760   4.298   0.687  12.337 -0.3640  1.0963 -0.1812
 7100SOL     OW32761   2.197   3.654   0.753  0.0457  0.3475  0.3475
 7100SOL    HW132762   2.127   3.617   0.806 -2.2517  2.4363 -1.2534
 7100SOL    HW232763   2.164   3.628   0.667  0.6092 -1.2989  0.6392
 7101SOL     OW32764   0.199   0.256   1.934  0.8690 -0.4484 -0.4557
 7101SOL    HW132765   0.199   0.297   1.848 -1.8407  2.3858  0.9117
 7101SOL    HW232766   0.291   0.250   1.960  1.4445 -0.3592 -2.5176
 7102SOL     OW32767   2.275   1.708   1.607 -0.1178  0.2499 -0.0356
 7102SOL    HW132768   2.283   1.787   1.554  0.1006  0.7402  0.7386
 7102SOL    HW232769   2.202   1.720   1.667  0.5197  1.1840  0.5501
 7103SOL     OW32770   3.712   4.456   9.547 -0.9680  0.1485 -0.2976
 7103SOL    HW132771   3.740   4.547   9.537 -0.8140  0.0752 -0.5249
 7103SOL    HW232772   3.746   4.406   9.472  0.2587 -0.5511  0.7180
 7104SOL     OW32773   4.519   0.314   3.973  0.6217 -0.2253 -0.0165
 7104SOL    HW132774   4.500   0.337   3.882  0.5677  0.8949  0.2784
 7104SOL    HW232775   4.454   0.359   4.027 -0.6114 -3.3512  1.1039
 7105SOL     OW32776   3.270   3.412   9.490  0.1191 -0.6712  0.3358
 7105SOL    HW132777   3.249   3.452   9.574  0.9184 -1.6913  1.0226
 7105SOL    HW232778   3.260   3.487   9.432  1.1705 -0.4188  0.4849
 7106SOL     OW32779   1.443   2.691   4.066 -0.1175 -0.6441  0.3957
 7106SOL    HW132780   1.357   2.664   4.035  0.1352 -0.2991 -0.6128
 7106SOL    HW232781   1.431   2.785   4.052 -0.4961 -0.9344 -1.2336
 7107SOL     OW32782   0.677   4.498  12.729  0.6668 -0.4111  0.0658
 7107SOL    HW132783   0.767   4.466  12.734  0.4311 -1.2120 -0.8039
 7107SOL    HW232784   0.680   4.576  12.784 -0.1330 -0.2817 -0.0713
 7108SOL     OW32785   4.115   4.336   1.582 -0.1169  0.2123 -0.2039
 7108SOL    HW132786   4.041   4.396   1.591 -0.8596 -0.9911  1.6586
 7108SOL    HW232787   4.077   4.293   1.505  1.0021  1.2430 -1.3273
 7109SOL     OW32788   3.839   3.483   2.394  0.2598  0.5346 -0.2919
 7109SOL    HW132789   3.811   3.551   2.332 -3.2102  1.5551  2.3717
 7109SOL    HW232790   3.845   3.403   2.342  0.9140  0.6123 -0.3409
 7110SOL     OW32791   4.705   3.828   0.845 -0.1112  0.9150  0.3061
 7110SOL    HW132792   4.642   3.766   0.882 -0.1166  1.0010  0.4427
 7110SOL    HW232793   0.049   3.778   0.807 -1.9222 -1.7970  0.4913
 7111SOL     OW32794   0.387   4.280   1.022  0.4521 -0.1157  0.0073
 7111SOL    HW132795   0.350   4.348   0.965 -1.1210 -0.0723  1.0738
 7111SOL    HW232796   0.315   4.230   1.061 -2.5129  3.0043 -1.5080
 7112SOL     OW32797   0.813   2.659   6.237 -0.5218  0.1090 -0.1338
 7112SOL    HW132798   0.762   2.640   6.158 -1.4105  0.1412  0.4313
 7112SOL    HW232799   0.882   2.702   6.187 -0.2605 -1.3227 -0.9752
 7113SOL     OW32800   1.386   0.515   6.425 -0.0331  0.1120 -0.6207
 7113SOL    HW132801   1.323   0.477   6.364 -1.6360  0.4715  0.7961
 7113SOL    HW232802   1.359   0.471   6.505 -0.1513  0.1253 -0.6534
 7114SOL     OW32803   3.881   0.602   9.430 -0.5018  0.4490  0.2626
 7114SOL    HW132804   3.853   0.569   9.515  0.6122 -1.9552 -0.3126
 7114SOL    HW232805   3.825   0.557   9.366 -0.4799  2.7275 -1.3381
 7115SOL     OW32806   3.507   4.689   3.462  0.3132  0.3165 -0.3241
 7115SOL    HW132807   3.422   4.724   3.487  0.5747  0.0073  0.9643
 7115SOL    HW232808   3.505   4.675   3.367 -0.2941 -0.5369 -0.1895
 7116SOL     OW32809   2.317   3.968   6.754  0.6532 -0.3023 -0.5836
 7116SOL    HW132810   2.306   3.899   6.689  1.0827 -1.0689  0.1591
 7116SOL    HW232811   2.226   3.968   6.786  0.3057 -1.7935 -1.5709
 7117SOL     OW32812   1.760   1.400   6.408 -0.1699 -0.3018 -0.2487
 7117SOL    HW132813   1.781   1.371   6.497  0.4937  1.9279  0.3067
 7117SOL    HW232814   1.809   1.333   6.361 -1.1338 -0.6239 -0.8058
 7118SOL     OW32815   2.159   1.291   3.765  0.4259  0.1085 -0.0788
 7118SOL    HW132816   2.189   1.224   3.825  1.9121  0.6159 -0.2496
 7118SOL    HW232817   2.137   1.366   3.820 -1.6408  1.0027 -2.0920
 7119SOL     OW32818   1.278   0.543   7.903 -0.1313 -0.3578 -0.5259
 7119SOL    HW132819   1.337   0.616   7.884 -0.3355 -0.5855 -2.0257
 7119SOL    HW232820   1.193   0.575   7.872  0.0711  0.2011 -0.4921
 7120SOL     OW32821   0.450   2.340   8.307 -0.5646 -0.8073 -0.5432
 7120SOL    HW132822   0.451   2.411   8.372 -0.9936 -0.5245 -0.8439
 7120SOL    HW232823   0.384   2.358   8.241 -0.4838  1.3615 -0.0340
 7121SOL     OW32824   4.348   1.480   2.973 -0.0947  0.3342  0.4409
 7121SOL    HW132825   4.332   1.564   2.931 -0.9710  1.7575  3.5583
 7121SOL    HW232826   4.362   1.509   3.064  1.8354  1.4284 -0.1988
 7122SOL     OW32827   4.140   2.220   8.919  0.2175 -0.4218 -0.3952
 7122SOL    HW132828   4.217   2.276   8.909  1.4954 -2.3195 -1.0226
 7122SOL    HW232829   4.130   2.186   8.830  0.7804  3.4744 -1.9555
 7123SOL     OW32830   3.383   1.994   3.171 -0.3824 -0.0116 -0.2007
 7123SOL    HW132831   3.419   2.082   3.177 -0.4718  0.2234 -3.0127
 7123SOL    HW232832   3.459   1.937   3.158 -0.1978  0.5020 -1.3665
 7124SOL     OW32833   1.664   4.230  13.128 -0.1149  0.1505 -0.7487
 7124SOL    HW132834   1.611   4.293  13.078 -1.6215  0.6423  1.4274
 7124SOL    HW232835   1.588   4.198  13.177  2.4386 -3.4917  0.7736
 7125SOL     OW32836   2.095   2.176   0.144 -0.8174 -0.2144  0.0801
 7125SOL    HW132837   2.058   2.260   0.170  0.9360  0.1794  1.3224
 7125SOL    HW232838   2.154   2.158   0.217 -0.6741  0.5749  0.1595
 7126SOL     OW32839   0.812   3.484   6.197  0.3449  0.3241 -0.1436
 7126SOL    HW132840   0.791   3.431   6.274 -0.4264 -0.5134 -0.9216
 7126SOL    HW232841   0.761   3.563   6.215  0.4932  0.5331 -0.6481
 7127SOL     OW32842   3.670   1.598   6.671 -0.3428  0.5922  0.7958
 7127SOL    HW132843   3.664   1.512   6.714 -0.9766  0.6153  0.7615
 7127SOL    HW232844   3.631   1.576   6.586 -1.0155 -0.0135  1.2601
 7128SOL     OW32845   3.581   4.676   8.439  0.3226  0.7461 -0.3873
 7128SOL    HW132846   3.579   0.039   8.406 -1.5342  0.9203  0.1593
 7128SOL    HW232847   3.661   4.642   8.399 -0.2574 -1.4529  0.3531
 7129SOL     OW32848   0.234   0.780   5.071  0.5576 -0.4285  0.0314
 7129SOL    HW132849   0.235   0.704   5.130 -2.7846  0.2213  0.9102
 7129SOL    HW232850   0.252   0.725   4.995  1.8119 -0.9816  0.7181
 7130SOL     OW32851   1.191   4.209   9.638  0.4322 -0.1980 -0.0823
 7130SOL    HW132852   1.142   4.233   9.716 -1.7394 -1.2594 -1.1269
 7130SOL    HW232853   1.197   4.300   9.609  2.5035 -0.0418  0.8395
 7131SOL     OW32854   1.793   4.603   7.904 -0.8820  0.0484  0.1526
 7131SOL    HW132855   1.845   4.524   7.890 -0.9833  0.4921 -2.8522
 7131SOL    HW232856   1.709   4.572   7.871 -1.7916 -0.0411  2.6140
 7132SOL     OW32857   2.095   3.188  17.409 -0.1927 -0.0107  0.1228
 7132SOL    HW132858   2.111   3.094  17.422  2.3951  0.6460  1.6127
 7132SOL    HW232859   2.036   3.214  17.480  0.5492  0.7044  0.4678
 7133SOL     OW32860   1.476   3.573   6.680 -0.5611  0.2438 -0.1954
 7133SOL    HW132861   1.427   3.638   6.730 -1.6743 -0.1598 -0.7636
 7133SOL    HW232862   1.446   3.588   6.590 -0.4845 -0.0386 -0.2685
 7134SOL     OW32863   2.213   2.865   9.176  0.2506 -0.3180 -0.4346
 7134SOL    HW132864   2.126   2.903   9.184  0.5819  0.9784 -2.8554
 7134SOL    HW232865   2.203   2.814   9.096 -0.2336 -0.5638 -0.2112
 7135SOL     OW32866   2.175   1.167  13.230 -0.5403  0.4222 -0.3541
 7135SOL    HW132867   2.258   1.179  13.185 -0.9037  2.5918 -0.4668
 7135SOL    HW232868   2.135   1.105  13.169  2.4832 -4.1031  2.2613
 7136SOL     OW32869   0.061   2.044  12.557  0.6278 -0.0418 -0.1463
 7136SOL    HW132870   4.726   2.091  12.613 -0.1900  0.7295 -1.6781
 7136SOL    HW232871   0.012   2.043  12.474  1.9264  1.2215 -0.9296
 7137SOL     OW32872   3.067   0.012   1.909  0.1090 -0.1251 -0.0359
 7137SOL    HW132873   3.156   4.706   1.890  1.2431  2.4067  0.9355
 7137SOL    HW232874   3.089   0.105   1.915  3.2526 -0.8087 -0.6425
 7138SOL     OW32875   1.694   0.877   1.228  0.1228  0.0012 -0.2511
 7138SOL    HW132876   1.756   0.876   1.301 -0.5442 -0.8685  0.2895
 7138SOL    HW232877   1.646   0.798   1.250  1.7876 -1.4523 -1.7923
 7139SOL     OW32878   4.062   4.399   6.181  0.0633 -0.4000  0.5084
 7139SOL    HW132879   4.042   4.491   6.196 -0.2888 -0.7749  2.3709
 7139SOL    HW232880   4.038   4.366   6.268  0.6743 -1.8797  0.1157
 7140SOL     OW32881   1.573   4.186   4.857  0.6903 -0.4419 -0.0727
 7140SOL    HW132882   1.568   4.281   4.860  0.9839 -0.4217 -0.2164
 7140SOL    HW232883   1.502   4.177   4.794 -0.7858  3.4072  1.0770
 7141SOL     OW32884   1.078   4.250   2.919 -0.1789 -0.2014  0.7242
 7141SOL    HW132885   1.066   4.300   2.838  0.0894  0.4244  1.0734
 7141SOL    HW232886   1.016   4.290   2.979 -0.2804  1.0978 -0.2429
 7142SOL     OW32887   4.233   3.734   8.132 -0.0782  0.4125  0.1551
 7142SOL    HW132888   4.217   3.657   8.078  0.9383  1.2226 -1.2973
 7142SOL    HW232889   4.327   3.724   8.150  0.1023  3.5320  1.0866
 7143SOL     OW32890   2.522   0.188   6.754 -0.0355  0.0501  0.0898
 7143SOL    HW132891   2.471   0.185   6.836 -0.4009  0.3357 -0.1281
 7143SOL    HW232892   2.607   0.173   6.795  1.7758 -1.2720 -4.1632
 7144SOL     OW32893   0.046   4.509   6.682  0.0982 -0.1813  0.8747
 7144SOL    HW132894   0.138   4.483   6.690  0.0864 -0.3704  0.4278
 7144SOL    HW232895   0.034   4.551   6.767  0.2817 -1.2077  1.4068
 7145SOL     OW32896   4.370   3.303   4.110 -0.4008 -0.1029 -0.8070
 7145SOL    HW132897   4.380   3.218   4.068  0.3740 -0.9921  1.1973
 7145SOL    HW232898   4.394   3.281   4.200 -1.5223 -0.3039 -0.5625
 7146SOL     OW32899   1.078   2.108   3.146 -1.1878  0.5186  0.0278
 7146SOL    HW132900   1.039   2.077   3.064  0.1167  1.1916 -0.8311
 7146SOL    HW232901   1.157   2.148   3.111  0.7336  0.4463  4.3553
 7147SOL     OW32902   3.458   0.359  12.654  0.0548 -0.1033  0.3928
 7147SOL    HW132903   3.523   0.353  12.584  3.1272  1.3230  3.0953
 7147SOL    HW232904   3.421   0.447  12.648  2.0719  0.6091 -1.4510
 7148SOL     OW32905   4.637   1.086  12.147 -0.6539  0.4549 -0.2777
 7148SOL    HW132906   4.639   0.993  12.172 -0.6038  0.7403  0.7892
 7148SOL    HW232907   4.549   1.096  12.111 -1.4687 -0.8732  1.3167
 7149SOL     OW32908   0.414   3.402   6.633 -0.1354  0.1315 -0.2391
 7149SOL    HW132909   0.417   3.314   6.669 -1.3835  0.2579  0.1712
 7149SOL    HW232910   0.507   3.424   6.625 -0.1366  0.5792  0.8659
 7150SOL     OW32911   3.920   4.468   5.752 -0.2580  0.0204  0.8275
 7150SOL    HW132912   3.865   4.398   5.719  1.3589 -0.9611  0.1924
 7150SOL    HW232913   4.004   4.424   5.766  0.3678  0.2377 -2.1435
 7151SOL     OW32914   1.078   3.065  15.095  0.0710  0.5923  0.5321
 7151SOL    HW132915   1.166   3.029  15.085  0.0696  0.9554 -0.8269
 7151SOL    HW232916   1.055   3.050  15.187  1.9256  2.1645  1.2507
 7152SOL     OW32917   2.392   4.589   8.348  0.0423  0.1056  0.1606
 7152SOL    HW132918   2.382   4.496   8.328 -3.5789  0.7054 -0.8358
 7152SOL    HW232919   2.399   4.586   8.443  0.3352 -0.4696  0.1164
 7153SOL     OW32920   1.331   3.746   3.493 -0.0832 -0.2873 -0.0620
 7153SOL    HW132921   1.422   3.774   3.483  0.8531 -3.1225  0.3707
 7153SOL    HW232922   1.290   3.823   3.454 -1.2308  0.2456  2.2106
 7154SOL     OW32923   2.588   3.489   7.678  0.2964 -0.2177  0.8273
 7154SOL    HW132924   2.548   3.573   7.657  0.3237 -0.3477  0.2590
 7154SOL    HW232925   2.512   3.432   7.685 -0.5615  0.6228 -1.5459
 7155SOL     OW32926   0.963   2.621   6.491 -0.6296 -0.2363 -0.2484
 7155SOL    HW132927   0.903   2.625   6.417  1.2835 -1.8782 -1.8867
 7155SOL    HW232928   0.899   2.626   6.562  0.4675 -1.2435  0.8203
 7156SOL     OW32929   2.592   2.281   6.521  0.1737  0.0995  0.0870
 7156SOL    HW132930   2.618   2.322   6.439  1.1021 -1.0438 -0.2008
 7156SOL    HW232931   2.648   2.203   6.520 -0.3476 -0.2620 -1.0455
 7157SOL     OW32932   3.001   1.226  11.130  0.0689  0.1916  0.2457
 7157SOL    HW132933   3.042   1.236  11.216 -0.5774 -1.2059  0.7226
 7157SOL    HW232934   3.052   1.150  11.102 -0.5925  1.5511 -4.5812
 7158SOL     OW32935   0.475   3.987   6.782 -0.2195 -0.7872  0.4117
 7158SOL    HW132936   0.515   4.030   6.858  1.1869 -0.7051 -0.3864
 7158SOL    HW232937   0.495   3.896   6.804 -2.4367 -1.5004 -0.5168
 7159SOL     OW32938   2.164   2.696   2.728  0.6284  0.4251 -0.1509
 7159SOL    HW132939   2.118   2.627   2.681  1.9674  0.2962 -1.2780
 7159SOL    HW232940   2.114   2.772   2.700  0.6711 -0.5644 -3.0019
 7160SOL     OW32941   4.599   3.446   5.939  0.4705 -0.0889 -0.0883
 7160SOL    HW132942   4.635   3.405   5.860 -1.1198 -2.1399  0.2504
 7160SOL    HW232943   4.597   3.368   5.994 -1.2960  0.5157  0.6823
 7161SOL     OW32944   1.764   4.553   8.657 -0.0583 -0.2891  0.0424
 7161SOL    HW132945   1.839   4.536   8.601 -0.5430 -0.1104 -0.6615
 7161SOL    HW232946   1.773   4.646   8.677 -0.5347 -0.0261 -0.9801
 7162SOL     OW32947   1.593   2.550   2.714  0.1070 -0.2365 -0.1699
 7162SOL    HW132948   1.635   2.527   2.797 -3.0768 -1.6121  1.0671
 7162SOL    HW232949   1.508   2.512   2.736 -0.7142  1.4350 -0.4541
 7163SOL     OW32950   2.416   1.958  17.037  0.1862  0.2705 -0.0956
 7163SOL    HW132951   2.432   1.947  17.131  1.1665  2.7800  0.0187
 7163SOL    HW232952   2.501   1.983  17.000  0.2618 -1.4814 -1.1269
 7164SOL     OW32953   4.079   3.561   8.316 -0.0563 -0.0705 -0.1438
 7164SOL    HW132954   4.105   3.652   8.308  0.0613  0.1198  2.3048
 7164SOL    HW232955   4.143   3.520   8.257  0.5587  0.6559  0.0209
 7165SOL     OW32956   1.607   2.658  16.660 -0.3779 -0.1164  0.6585
 7165SOL    HW132957   1.664   2.601  16.713  1.2299  0.8962  0.0392
 7165SOL    HW232958   1.671   2.699  16.601 -1.6274  0.2275 -0.4408
 7166SOL     OW32959   1.938   2.101  17.261 -0.6985  0.2679 -0.2328
 7166SOL    HW132960   1.903   2.088  17.173 -1.3131  0.8215 -0.0676
 7166SOL    HW232961   2.000   2.172  17.241 -1.6370  0.6009 -1.9824
 7167SOL     OW32962   1.883   2.139  15.442 -0.0557 -0.1744 -0.1139
 7167SOL    HW132963   1.971   2.115  15.470  1.2742  3.5555 -1.0949
 7167SOL    HW232964   1.884   2.233  15.422  0.7126 -0.2631 -0.4840
 7168SOL     OW32965   3.955   1.772   9.053  0.1546 -0.0341 -0.0276
 7168SOL    HW132966   4.036   1.736   9.016 -0.1440  0.8605 -1.5536
 7168SOL    HW232967   3.984   1.858   9.083 -0.4485  0.4337 -0.8143
 7169SOL     OW32968   0.895   0.941   3.194  0.1621  0.6028  0.2296
 7169SOL    HW132969   0.867   0.993   3.118 -1.3265 -0.6603 -0.0863
 7169SOL    HW232970   0.937   0.868   3.149 -0.0868 -0.0729  1.1165
 7170SOL     OW32971   0.324   1.304  11.456 -0.3194  0.5679  0.2774
 7170SOL    HW132972   0.309   1.396  11.478 -0.8407  0.6134 -0.2558
 7170SOL    HW232973   0.235   1.281  11.428  0.4698 -0.0022 -1.7719
 7171SOL     OW32974   0.502   0.292  17.687 -0.6985 -0.3439  0.1018
 7171SOL    HW132975   0.520   0.331   0.063  2.7493  0.8898 -1.1923
 7171SOL    HW232976   0.421   0.247   0.002  0.5507 -2.2501  0.7418
 7172SOL     OW32977   0.311   0.222   8.181 -0.2381  0.3188 -0.0980
 7172SOL    HW132978   0.290   0.129   8.191 -2.0665  0.8571  1.1367
 7172SOL    HW232979   0.337   0.243   8.271 -1.1851 -0.4514  0.3574
 7173SOL     OW32980   3.301   1.349  14.774  0.1123  0.1737 -0.0053
 7173SOL    HW132981   3.280   1.438  14.749  2.2348  1.4531  2.7024
 7173SOL    HW232982   3.396   1.354  14.771  0.1754 -1.5101 -0.8974
 7174SOL     OW32983   1.732   3.253   9.398 -0.3658  0.1772 -0.1701
 7174SOL    HW132984   1.766   3.192   9.464 -0.4301  0.0535 -0.2513
 7174SOL    HW232985   1.727   3.341   9.434  3.0888  0.6127 -0.8151
 7175SOL     OW32986   2.899   3.147   6.857  0.2103  0.0586  0.7089
 7175SOL    HW132987   2.911   3.229   6.810  0.7316 -0.3045  0.2121
 7175SOL    HW232988   2.804   3.139   6.861 -0.2392  4.8982 -0.6663
 7176SOL     OW32989   2.581   0.129   3.048 -0.0234  0.1647 -0.3205
 7176SOL    HW132990   2.639   0.100   2.979 -0.1736  0.4439 -0.5645
 7176SOL    HW232991   2.646   0.181   3.096  0.8097  0.3911 -1.7152
 7177SOL     OW32992   4.134   0.580   3.170  0.2540 -0.5561 -0.2339
 7177SOL    HW132993   4.087   0.661   3.192 -0.9069 -1.2603 -0.0868
 7177SOL    HW232994   4.063   0.538   3.120  1.3386 -0.6091 -1.7193
 7178SOL     OW32995   0.498   4.700   3.628 -0.2754  0.1611 -0.7247
 7178SOL    HW132996   0.464   4.620   3.669  3.4530 -0.1069  1.8509
 7178SOL    HW232997   0.444   0.047   3.657  0.0669  0.2766 -0.3862
 7179SOL     OW32998   3.552   4.094  10.952  0.3907 -0.0610  0.5276
 7179SOL    HW132999   3.507   4.102  10.868 -0.5990  0.5666  1.1194
 7179SOL    HW233000   3.636   4.138  10.941  0.0421  0.3705 -0.3974
 7180SOL     OW33001   3.189   2.232   5.536 -0.2556  0.2321 -0.1320
 7180SOL    HW133002   3.240   2.170   5.588 -0.0525  1.5078  1.1845
 7180SOL    HW233003   3.241   2.233   5.456 -1.3338 -0.7288 -0.8560
 7181SOL     OW33004   4.596   2.939   8.426  0.3116  0.3631 -0.7300
 7181SOL    HW133005   4.583   2.869   8.362 -1.9398  0.2195 -0.1151
 7181SOL    HW233006   4.654   2.902   8.492  0.4410 -0.1299 -1.1254
 7182SOL     OW33007   0.034   0.090   8.793  0.4164 -0.2357 -0.1078
 7182SOL    HW133008   4.678   0.096   8.840  0.1567 -0.6468 -0.5064
 7182SOL    HW233009   0.079   0.012   8.827 -1.6219 -1.9671 -1.3765
 7183SOL     OW33010   1.474   2.271   2.063 -0.4156 -0.1310  1.6281
 7183SOL    HW133011   1.506   2.213   2.131  1.6035 -2.1556 -1.0464
 7183SOL    HW233012   1.383   2.276   2.094 -0.5444 -1.1865  1.3986
 7184SOL     OW33013   1.424   1.380   4.957 -0.6421  0.2274  0.6352
 7184SOL    HW133014   1.516   1.406   4.948 -0.4405  0.3370  2.8434
 7184SOL    HW233015   1.399   1.375   4.865  2.9454 -0.5788 -0.2914
 7185SOL     OW33016   1.618   1.965   6.498 -0.3572 -0.2964 -0.4354
 7185SOL    HW133017   1.712   1.964   6.512 -0.4177  2.3396  0.1721
 7185SOL    HW233018   1.597   2.057   6.511 -2.9155 -0.4914 -3.2225
 7186SOL     OW33019   4.455   0.849   5.652  0.2265  0.0946 -0.2327
 7186SOL    HW133020   4.528   0.803   5.693  0.5294  0.7126 -0.0824
 7186SOL    HW233021   4.482   0.870   5.563  0.9389  1.1168  0.2268
 7187SOL     OW33022   1.543   4.521  16.155  0.5285 -0.0663 -0.1734
 7187SOL    HW133023   1.624   4.540  16.203  1.1586 -3.0508 -0.0621
 7187SOL    HW233024   1.525   4.434  16.190 -2.4276  0.0345 -1.4333
 7188SOL     OW33025   4.523   1.116   7.357  0.0247 -0.1504 -0.1455
 7188SOL    HW133026   4.498   1.119   7.449  1.0374 -0.0195  0.1150
 7188SOL    HW233027   4.463   1.053   7.316 -0.8940  1.1740 -0.8526
 7189SOL     OW33028   3.244   4.605   5.133 -0.3287 -0.4111 -0.0909
 7189SOL    HW133029   3.235   4.675   5.068 -0.1651 -1.1946 -0.9555
 7189SOL    HW233030   3.169   4.618   5.191 -1.6497 -0.2683 -1.8619
 7190SOL     OW33031   2.399   3.835   8.707 -0.1466  1.0030 -0.3038
 7190SOL    HW133032   2.405   3.840   8.802 -1.0034 -1.7273 -0.0940
 7190SOL    HW233033   2.476   3.889   8.688 -0.6193  1.6542 -0.3384
 7191SOL     OW33034   4.462   2.975   7.896 -0.4254 -0.4451  0.0170
 7191SOL    HW133035   4.510   2.926   7.829  0.6813 -3.0568  2.7252
 7191SOL    HW233036   4.496   2.948   7.981 -2.1312 -2.5238  0.0545
 7192SOL     OW33037   0.915   1.088   6.326 -0.1959 -0.5688 -0.4669
 7192SOL    HW133038   0.991   1.088   6.384  0.2045 -2.3087 -1.0035
 7192SOL    HW233039   0.907   1.178   6.293 -0.0157 -0.0420  0.9395
 7193SOL     OW33040   4.186   0.153   6.672  0.0400 -0.6560 -0.8314
 7193SOL    HW133041   4.265   0.191   6.634  1.7378 -1.7717  1.6368
 7193SOL    HW233042   4.198   0.059   6.660  1.6957 -0.5603  0.1750
 7194SOL     OW33043   2.849   0.503   1.854  0.2803 -0.5685  0.1408
 7194SOL    HW133044   2.840   0.572   1.920  0.0402 -0.8222  0.3750
 7194SOL    HW233045   2.905   0.444   1.905 -1.9061 -3.6055 -0.9749
 7195SOL     OW33046   0.681   3.761  13.896  0.2310  0.4522  0.2077
 7195SOL    HW133047   0.658   3.790  13.808 -1.7929 -0.2945  0.4959
 7195SOL    HW233048   0.622   3.687  13.907  1.5685 -0.6039  0.2545
 7196SOL     OW33049   3.741   0.944   7.567 -0.3900  0.1455 -0.9144
 7196SOL    HW133050   3.828   0.968   7.599  0.1547 -1.0773 -1.4464
 7196SOL    HW233051   3.749   0.979   7.479 -0.7944  0.4277 -0.8335
 7197SOL     OW33052   2.280   3.844   3.065 -0.1406 -0.0695 -0.5071
 7197SOL    HW133053   2.264   3.837   2.971 -3.9788  0.0029  0.1453
 7197SOL    HW233054   2.251   3.757   3.094  0.0607  0.3469  0.9255
 7198SOL     OW33055   3.578   0.137  12.422 -0.0403 -0.1495 -0.1117
 7198SOL    HW133056   3.517   0.138  12.496  0.5972  2.0679  0.4034
 7198SOL    HW233057   3.578   0.223  12.380  4.1911  0.2344  0.7211
 7199SOL     OW33058   4.078   4.081  10.932 -0.3307  0.0351  0.2365
 7199SOL    HW133059   4.126   4.154  10.894 -0.1730  0.6424  1.6186
 7199SOL    HW233060   4.137   4.006  10.944  0.3948  0.2682 -2.0117
 7200SOL     OW33061   2.842   1.162  10.662 -0.0540  0.4575  0.5482
 7200SOL    HW133062   2.773   1.096  10.674  0.5169 -0.6758 -2.3815
 7200SOL    HW233063   2.845   1.186  10.755 -1.8093 -0.1349  0.7490
 7201SOL     OW33064   1.360   1.170   5.310 -0.1461  0.3128  0.0593
 7201SOL    HW133065   1.397   1.228   5.376 -1.5294  0.4394  0.7199
 7201SOL    HW233066   1.327   1.099   5.366 -0.6859  0.1632 -0.4473
 7202SOL     OW33067   1.518   2.761   1.770  0.4084 -0.4857  0.8224
 7202SOL    HW133068   1.427   2.781   1.750  0.8153 -2.0551 -2.5680
 7202SOL    HW233069   1.565   2.837   1.737  0.7951 -0.9063  0.3985
 7203SOL     OW33070   0.173   1.444  10.316  0.3448  0.6225 -0.1702
 7203SOL    HW133071   0.238   1.459  10.247 -1.1754  2.9928 -1.0892
 7203SOL    HW233072   0.164   1.350  10.325  1.3110  0.2168 -3.2229
 7204SOL     OW33073   4.680   2.038   8.173 -0.2122  0.0354  0.5360
 7204SOL    HW133074   4.650   2.028   8.263  0.4267 -0.3234  0.7091
 7204SOL    HW233075   0.012   1.963   8.163 -0.4254  0.2676 -2.6070
 7205SOL     OW33076   2.267   3.576   9.716  0.4165  0.2833 -0.6339
 7205SOL    HW133077   2.318   3.654   9.735  1.6280 -1.2239  2.3912
 7205SOL    HW233078   2.329   3.503   9.727 -0.8782 -0.8384 -0.7395
 7206SOL     OW33079   2.706   1.750   8.720  0.1341  0.3604 -0.0071
 7206SOL    HW133080   2.763   1.811   8.674  0.3408  0.3075  0.1850
 7206SOL    HW233081   2.666   1.804   8.789  0.5108 -1.0663  1.3304
 7207SOL     OW33082   4.452   0.917   0.228 -0.0245  0.1992  0.0472
 7207SOL    HW133083   4.372   0.906   0.177  0.5006  4.3150 -1.6296
 7207SOL    HW233084   4.423   0.936   0.318  1.9870  2.6023  0.2099
 7208SOL     OW33085   0.078   4.189   5.403  0.7384  0.2984 -0.0942
 7208SOL    HW133086   0.128   4.271   5.409  0.2596  0.5999 -0.2508
 7208SOL    HW233087   0.151   4.127   5.402  0.1797 -0.4189  2.9950
 7209SOL     OW33088   3.555   0.454   4.118 -0.3888 -0.1584 -0.2496
 7209SOL    HW133089   3.477   0.500   4.086  0.8304  1.2218 -1.2320
 7209SOL    HW233090   3.541   0.458   4.212  3.5285 -0.6419  0.3377
 7210SOL     OW33091   2.585   2.597   5.747 -0.0854  0.3828  0.6007
 7210SOL    HW133092   2.590   2.581   5.652 -1.8540 -0.8692  0.7271
 7210SOL    HW233093   2.606   2.509   5.780  0.8691  0.9561  1.5110
 7211SOL     OW33094   1.161   3.303   7.127  0.0041 -0.9581 -0.4987
 7211SOL    HW133095   1.072   3.299   7.092 -0.4489 -1.3057  0.7245
 7211SOL    HW233096   1.153   3.256   7.210  0.4520 -0.1500  0.0058
 7212SOL     OW33097   3.963   1.034   4.401  0.2386 -0.0721 -0.1468
 7212SOL    HW133098   3.954   0.991   4.316 -1.7160 -2.8139  1.3973
 7212SOL    HW233099   4.056   1.046   4.419  0.7261 -1.7301 -1.5687
 7213SOL     OW33100   4.251   2.407   5.348  0.1722 -0.5609 -0.4837
 7213SOL    HW133101   4.161   2.406   5.316  0.0147 -2.1313  0.0020
 7213SOL    HW233102   4.281   2.493   5.319 -0.9053  0.2980  0.9455
 7214SOL     OW33103   2.347   0.952   9.883 -0.2219  0.0653 -0.2260
 7214SOL    HW133104   2.267   0.973   9.932  0.0032  2.4489 -0.9164
 7214SOL    HW233105   2.400   0.929   9.960  0.9090  4.2676  0.2406
 7215SOL     OW33106   1.231   3.640   7.551 -0.3197  0.8651  0.2447
 7215SOL    HW133107   1.253   3.571   7.613 -0.6600  1.4641  1.0282
 7215SOL    HW233108   1.155   3.687   7.585 -2.8492 -2.4545 -0.7319
 7216SOL     OW33109   1.726   0.782   5.232 -0.0828  0.0233 -0.0405
 7216SOL    HW133110   1.678   0.709   5.191 -1.2213  0.8692 -0.2090
 7216SOL    HW233111   1.654   0.844   5.235 -0.7440 -0.7480  0.1771
 7217SOL     OW33112   0.426   3.320   2.667  0.0058 -0.8220 -0.4756
 7217SOL    HW133113   0.437   3.283   2.580  1.3010 -0.4666 -0.4618
 7217SOL    HW233114   0.399   3.238   2.709 -1.5784 -0.8307 -1.5148
 7218SOL     OW33115   2.460   3.705   3.940  0.0922  0.8622 -0.0031
 7218SOL    HW133116   2.453   3.794   3.905 -0.8382 -0.0818 -2.2457
 7218SOL    HW233117   2.432   3.650   3.867 -0.5048  1.7905 -0.4801
 7219SOL     OW33118   0.470   2.025  15.733  0.1420 -0.4204  0.2579
 7219SOL    HW133119   0.497   1.960  15.798 -2.7672 -2.2455 -0.3439
 7219SOL    HW233120   0.376   2.009  15.743  0.4291 -2.1450  0.2836
 7220SOL     OW33121   1.503   3.189   7.221 -0.0914  0.0020 -0.0723
 7220SOL    HW133122   1.547   3.269   7.190  1.7689  0.6795  4.4441
 7220SOL    HW233123   1.504   3.200   7.316  0.6896 -0.8176  0.0131
 7221SOL     OW33124   4.719   4.521   5.286  0.0935  0.0840  0.1772
 7221SOL    HW133125   0.077   4.553   5.317 -0.1869 -0.2219  1.2563
 7221SOL    HW233126   0.007   4.447   5.227  0.7961  0.6300 -0.3206
 7222SOL     OW33127   1.263   3.785   7.064 -0.4111 -0.5492  0.0865
 7222SOL    HW133128   1.288   3.873   7.091  1.8500 -1.1312 -0.0946
 7222SOL    HW233129   1.235   3.745   7.146 -2.0997  1.1709  0.3643
 7223SOL     OW33130   3.634   2.142   0.629 -0.3248  1.2912 -0.0196
 7223SOL    HW133131   3.575   2.071   0.604 -1.0782  1.5811  0.9399
 7223SOL    HW233132   3.699   2.137   0.560 -0.4347  0.5159 -0.0725
 7224SOL     OW33133   3.520   0.942  12.221 -0.4499 -0.1471  0.0273
 7224SOL    HW133134   3.505   0.926  12.314  2.8046 -1.6477  0.2984
 7224SOL    HW233135   3.455   0.891  12.174 -0.9323 -2.0356  2.7684
 7225SOL     OW33136   3.595   0.173   2.152  0.4517  0.2023  0.1546
 7225SOL    HW133137   3.599   0.234   2.225 -0.5070 -0.7558  1.0060
 7225SOL    HW233138   3.690   0.180   2.142  0.4924  0.2078  0.5410
 7226SOL     OW33139   1.565   4.150  16.516 -0.4150  0.1831  0.3834
 7226SOL    HW133140   1.550   4.244  16.526 -0.5542  0.3894 -1.7954
 7226SOL    HW233141   1.517   4.114  16.591  2.0543 -4.6671 -0.3826
 7227SOL     OW33142   0.640   3.824   5.873  0.0298  0.3966  0.0389
 7227SOL    HW133143   0.708   3.883   5.842  2.0690 -1.4054  1.0020
 7227SOL    HW233144   0.570   3.866   5.823  0.0269  2.7640  2.0435
 7228SOL     OW33145   3.131   1.222   6.525  0.5200 -0.1618  0.0479
 7228SOL    HW133146   3.186   1.183   6.593  2.9432 -2.6498 -3.3136
 7228SOL    HW233147   3.054   1.165   6.521 -1.3301  2.4653 -1.9392
 7229SOL     OW33148   4.512   3.782   6.642 -0.5107 -0.9133 -0.3481
 7229SOL    HW133149   4.560   3.714   6.594  2.9851  1.3664 -0.0849
 7229SOL    HW233150   4.574   3.827   6.699 -0.7590 -0.5027 -0.3985
 7230SOL     OW33151   4.216   0.495   1.266  0.3631 -0.3981  0.7760
 7230SOL    HW133152   4.158   0.571   1.274  0.8506  0.1963 -1.2879
 7230SOL    HW233153   4.155   0.428   1.237 -0.6218 -0.1797  2.2982
 7231SOL     OW33154   0.435   1.143   7.724 -0.3814 -0.3174 -0.3155
 7231SOL    HW133155   0.531   1.149   7.718 -0.3049 -0.9424  0.2696
 7231SOL    HW233156   0.418   1.050   7.715 -0.2441 -0.7403  3.8919
 7232SOL     OW33157   1.231   0.906   7.341  0.3796 -0.1079  0.0875
 7232SOL    HW133158   1.186   0.824   7.321 -0.0708  0.0005  0.6459
 7232SOL    HW233159   1.241   0.933   7.250 -0.1496  1.2866  0.4383
 7233SOL     OW33160   0.505   2.374   9.714  0.4653 -0.1221  0.3395
 7233SOL    HW133161   0.531   2.465   9.699  1.1389 -0.3100  0.3622
 7233SOL    HW233162   0.589   2.328   9.709  1.0339  0.7153  2.1338
 7234SOL     OW33163   4.585   2.242   6.221 -0.4228  0.1232 -0.4086
 7234SOL    HW133164   4.635   2.192   6.156  1.4065 -2.5022  3.0215
 7234SOL    HW233165   4.502   2.260   6.176  0.6461  1.4779 -1.8409
 7235SOL     OW33166   0.899   2.029   0.569  0.1728 -0.5530 -0.0335
 7235SOL    HW133167   0.844   2.066   0.500 -0.5089 -1.5041  0.0106
 7235SOL    HW233168   0.846   1.954   0.595  0.2014 -1.1760 -1.7290
 7236SOL     OW33169   0.619   0.089  15.426 -0.1582  0.0563 -0.0126
 7236SOL    HW133170   0.707   0.127  15.427 -0.3875  0.5869  0.2918
 7236SOL    HW233171   0.583   0.110  15.339 -1.7072  0.2336  0.6629
 7237SOL     OW33172   3.192   4.454   2.500  0.3785 -0.2494  0.4586
 7237SOL    HW133173   3.171   4.509   2.424 -1.5069  0.3574  1.4253
 7237SOL    HW233174   3.203   4.375   2.447  1.2812 -0.5897  1.1635
 7238SOL     OW33175   0.528   2.113   2.832 -0.1422 -0.2269  0.5966
 7238SOL    HW133176   0.459   2.047   2.829  0.5513 -0.9851  1.1342
 7238SOL    HW233177   0.607   2.059   2.819  0.1872  0.5723 -0.7107
 7239SOL     OW33178   1.451   1.560   9.195  0.2341  0.3218  0.6644
 7239SOL    HW133179   1.488   1.543   9.108 -0.4487 -0.1198  0.4616
 7239SOL    HW233180   1.520   1.516   9.245  1.9563  0.6122 -1.4579
 7240SOL     OW33181   1.987   1.202   3.530  0.1263 -0.1943 -0.6261
 7240SOL    HW133182   1.996   1.108   3.542 -0.8266 -0.1197  0.6402
 7240SOL    HW233183   2.032   1.227   3.611  0.0914 -2.2098  0.0167
 7241SOL     OW33184   1.866   1.790   3.711  0.0500  0.6021 -0.3943
 7241SOL    HW133185   1.879   1.863   3.651 -1.9367  1.5016  0.2774
 7241SOL    HW233186   1.925   1.728   3.667 -1.8168  0.6310 -2.9881
 7242SOL     OW33187   1.273   1.756   3.331 -0.0508  0.0584  0.2388
 7242SOL    HW133188   1.307   1.673   3.365 -0.7239 -0.9055 -1.4346
 7242SOL    HW233189   1.186   1.732   3.298 -0.2453 -0.3185  1.0192
 7243SOL     OW33190   0.710   0.117  17.687  0.5391 -0.4472 -0.2274
 7243SOL    HW133191   0.763   0.147  17.613  0.5788  0.8931  0.3431
 7243SOL    HW233192   0.638   0.179  17.684  0.0888 -1.0787 -2.2256
 7244SOL     OW33193   2.729   3.623   8.581 -0.7944  0.0356  0.0287
 7244SOL    HW133194   2.649   3.575   8.558  0.5197 -1.5763 -1.2017
 7244SOL    HW233195   2.701   3.713   8.600 -1.7369  0.2080 -2.0894
 7245SOL     OW33196   2.454   2.709   4.381 -0.3004 -0.0416  0.2385
 7245SOL    HW133197   2.461   2.779   4.445 -2.3575  0.0966  0.2950
 7245SOL    HW233198   2.369   2.737   4.349  0.4040  0.7492 -0.9267
 7246SOL     OW33199   1.906   1.914   0.275  0.0543 -0.0157  0.8182
 7246SOL    HW133200   1.942   2.001   0.294 -2.1433  0.9107  0.8163
 7246SOL    HW233201   1.944   1.870   0.350 -1.4479 -1.8193  0.5241
 7247SOL     OW33202   0.894   3.724   4.492 -0.1287 -0.3663 -0.3413
 7247SOL    HW133203   0.827   3.747   4.427  0.0612 -0.0655 -0.4277
 7247SOL    HW233204   0.972   3.748   4.443 -1.0123 -0.4809 -1.8258
 7248SOL     OW33205   2.682   3.929   5.171 -0.1609 -0.5826  0.0100
 7248SOL    HW133206   2.634   3.965   5.246  0.3159 -1.3016  0.6562
 7248SOL    HW233207   2.705   3.842   5.204 -0.9488 -0.9443 -0.4200
 7249SOL     OW33208   2.331   2.541   7.201 -0.1383 -0.4165 -0.3402
 7249SOL    HW133209   2.350   2.581   7.286 -1.9867 -0.7558  0.2275
 7249SOL    HW233210   2.416   2.549   7.157 -1.1702 -0.9864 -2.4100
 7250SOL     OW33211   2.186   3.471  11.869  0.0109  0.2911  0.1417
 7250SOL    HW133212   2.210   3.422  11.791  0.5507 -0.3785  0.7196
 7250SOL    HW233213   2.249   3.431  11.929  1.0946 -0.5950 -1.5920
 7251SOL     OW33214   0.053   0.396   7.772  0.0522 -0.5741 -0.2565
 7251SOL    HW133215   4.719   0.403   7.846  0.7020 -0.5656  0.2752
 7251SOL    HW233216   0.110   0.325   7.801  0.0280 -0.3300  0.3917
 7252SOL     OW33217   2.977   3.866   3.087  0.6188  0.0902 -0.4917
 7252SOL    HW133218   2.908   3.889   3.026  1.6082  0.2319 -1.5497
 7252SOL    HW233219   3.030   3.945   3.096  1.6653 -0.4344 -2.1246
 7253SOL     OW33220   2.215   2.779   5.565  0.3083  0.1011 -0.3550
 7253SOL    HW133221   2.181   2.865   5.589  0.5819 -0.3688  1.7194
 7253SOL    HW233222   2.304   2.784   5.600  0.4318  1.9374 -0.9787
 7254SOL     OW33223   0.082   4.546  15.294  0.0096  0.3883  0.5273
 7254SOL    HW133224   0.026   4.523  15.220 -2.0724  1.2436  1.8175
 7254SOL    HW233225   0.050   4.487  15.363 -0.1343 -0.2105 -0.0576
 7255SOL     OW33226   1.767   2.416   8.259  0.5808 -0.0779  0.0678
 7255SOL    HW133227   1.677   2.448   8.266  1.7744  2.9479  1.5512
 7255SOL    HW233228   1.755   2.334   8.309  0.5279 -0.7020 -0.9682
 7256SOL     OW33229   1.958   3.111   2.122  0.1557  0.4002 -0.2420
 7256SOL    HW133230   1.984   3.156   2.202  0.7504 -0.5761  0.1162
 7256SOL    HW233231   1.865   3.110   2.143  0.4213 -0.5770  0.8757
 7257SOL     OW33232   0.296   0.546  13.146  0.3007 -0.7649 -0.2835
 7257SOL    HW133233   0.349   0.616  13.183 -0.9818  0.5751 -0.9804
 7257SOL    HW233234   0.230   0.537  13.215  2.8674 -0.0618  2.2788
 7258SOL     OW33235   3.180   2.440   7.790  0.0498  0.0821 -0.1658
 7258SOL    HW133236   3.269   2.413   7.812  0.1547 -0.4444 -1.2455
 7258SOL    HW233237   3.161   2.512   7.850 -1.0247  0.5576 -1.0811
 7259SOL     OW33238   1.572   0.559  17.387  0.2880  0.0864  0.2266
 7259SOL    HW133239   1.650   0.613  17.394 -1.0005  1.9601  0.0742
 7259SOL    HW233240   1.582   0.527  17.297 -1.4116  0.8416 -0.2319
 7260SOL     OW33241   4.080   1.917   7.236  0.6901 -0.2827  0.6524
 7260SOL    HW133242   4.012   1.975   7.270  0.1922 -1.2450  1.2796
 7260SOL    HW233243   4.144   1.989   7.230  0.9246 -0.7259 -1.9931
 7261SOL     OW33244   4.664   3.884   6.861 -0.1687  0.2840  0.0888
 7261SOL    HW133245   4.635   3.964   6.904  2.0275  0.1412  1.8361
 7261SOL    HW233246   4.658   3.818   6.931  1.0046 -2.0192 -1.9864
 7262SOL     OW33247   2.889   0.703   4.273  0.2409  0.6813  0.1052
 7262SOL    HW133248   2.943   0.637   4.317 -0.1930 -0.2374 -0.7394
 7262SOL    HW233249   2.959   0.751   4.228 -0.2033  2.5958  1.4927
 7263SOL     OW33250   0.571   3.660   7.696  0.2440  0.2697 -0.0070
 7263SOL    HW133251   0.537   3.672   7.785 -1.6191  2.0409 -0.9415
 7263SOL    HW233252   0.575   3.751   7.667 -1.1408  0.8702  1.7331
 7264SOL     OW33253   1.123   2.390  12.895  0.2801  0.5780 -0.3227
 7264SOL    HW133254   1.094   2.456  12.958 -1.5098  0.6686 -1.2526
 7264SOL    HW233255   1.050   2.392  12.833 -0.4094 -0.5458  0.4533
 7265SOL     OW33256   1.936   2.033   9.079 -0.2967 -0.0796  0.1515
 7265SOL    HW133257   1.905   1.966   9.139  0.4038 -3.0301 -2.8018
 7265SOL    HW233258   1.854   2.049   9.032 -0.3672 -1.3306 -0.1511
 7266SOL     OW33259   4.198   0.410  16.154 -0.0175  0.1071  0.3630
 7266SOL    HW133260   4.194   0.501  16.183  0.0865  0.5377 -0.9660
 7266SOL    HW233261   4.293   0.403  16.157 -0.0400 -0.2880  0.1127
 7267SOL     OW33262   1.225   4.130   4.089 -0.2718 -0.0777  0.1575
 7267SOL    HW133263   1.264   4.142   4.003 -2.0569  1.5484 -0.4100
 7267SOL    HW233264   1.227   4.223   4.113  2.3982  0.0847 -0.6439
 7268SOL     OW33265   1.803   1.699  16.826  0.0662 -0.5031  0.2015
 7268SOL    HW133266   1.819   1.627  16.765 -1.6254 -1.2898  0.6826
 7268SOL    HW233267   1.867   1.768  16.807 -0.1116 -0.0186  1.3634
 7269SOL     OW33268   1.929   3.040  11.627 -0.0822 -0.6224  0.4643
 7269SOL    HW133269   1.922   3.012  11.719  0.6098  1.2693  1.0943
 7269SOL    HW233270   1.908   2.962  11.576 -0.1969 -1.5351  1.8972
 7270SOL     OW33271   3.704   1.166   3.175 -0.0406 -0.2326 -0.2547
 7270SOL    HW133272   3.761   1.234   3.136 -1.0167  1.1361  0.6988
 7270SOL    HW233273   3.743   1.143   3.259  0.9142 -2.2735 -1.2559
 7271SOL     OW33274   0.718   1.520   6.771 -0.6614 -0.3142  0.2657
 7271SOL    HW133275   0.687   1.600   6.813 -0.3026 -1.6640  3.0469
 7271SOL    HW233276   0.638   1.468   6.762  1.2593 -2.8280 -2.3034
 7272SOL     OW33277   1.830   2.272   5.999 -0.3794  0.8328 -0.1408
 7272SOL    HW133278   1.908   2.270   6.056 -1.5709 -0.4055  1.4270
 7272SOL    HW233279   1.822   2.367   5.991  0.8214  1.0650  1.2841
 7273SOL     OW33280   3.769   4.668  16.419 -0.4958  0.0797  0.0985
 7273SOL    HW133281   3.732   4.605  16.482 -0.2226 -2.6771 -2.4898
 7273SOL    HW233282   3.702   4.664  16.351 -2.1188  2.1273  1.5733
 7274SOL     OW33283   0.663   0.615  16.641  0.1070 -0.3038  0.0971
 7274SOL    HW133284   0.712   0.636  16.720 -2.2753  2.6609  0.7757
 7274SOL    HW233285   0.631   0.527  16.663 -1.0568  0.3085  0.8413
 7275SOL     OW33286   4.340   4.211   6.720 -0.4789  0.1314 -0.1570
 7275SOL    HW133287   4.247   4.229   6.730  0.3151  4.7327 -1.0110
 7275SOL    HW233288   4.339   4.117   6.742  0.3592 -0.0107 -0.7215
 7276SOL     OW33289   2.301   0.136   3.869 -0.7605 -0.2605 -0.3209
 7276SOL    HW133290   2.295   0.210   3.929  0.1390 -0.3149 -0.1588
 7276SOL    HW233291   2.262   0.065   3.920 -0.2650 -1.9441 -2.2960
 7277SOL     OW33292   3.101   1.501   3.160  0.2203  0.3058 -0.0770
 7277SOL    HW133293   3.066   1.585   3.190  2.2188  0.1206  2.7491
 7277SOL    HW233294   3.172   1.489   3.223 -1.0644 -1.5309  1.0429
 7278SOL     OW33295   2.846   3.716   2.430  0.1552  0.6094  0.1282
 7278SOL    HW133296   2.821   3.753   2.346 -0.7656 -2.5837 -1.0093
 7278SOL    HW233297   2.771   3.744   2.482 -0.7398  0.1124 -0.9037
 7279SOL     OW33298   1.054   0.849   6.831 -0.0799  0.3832 -0.0402
 7279SOL    HW133299   1.009   0.792   6.895  1.4732 -1.1611 -0.3235
 7279SOL    HW233300   1.060   0.786   6.760 -0.2146  0.9220 -0.5248
 7280SOL     OW33301   1.067   4.275   9.872 -0.5640 -0.5826  0.0077
 7280SOL    HW133302   1.086   4.230   9.954  0.9350 -0.6459 -0.3749
 7280SOL    HW233303   1.040   4.366   9.888  0.0669 -0.4319  0.2532
 7281SOL     OW33304   0.179   1.125   3.506 -0.5526 -0.1715 -0.3162
 7281SOL    HW133305   0.097   1.152   3.465 -1.4780  2.6518  3.3956
 7281SOL    HW233306   0.153   1.033   3.505 -1.8391  0.2124 -1.0032
 7282SOL     OW33307   0.314   0.515   9.727  0.0304  0.3368 -0.0087
 7282SOL    HW133308   0.334   0.604   9.756  1.6133 -0.5395  1.5205
 7282SOL    HW233309   0.272   0.488   9.808 -0.3101  0.7124 -0.0595
 7283SOL     OW33310   2.317   2.765   2.007 -0.0382 -0.0747 -0.0328
 7283SOL    HW133311   2.223   2.785   2.012 -0.0873 -0.4836  0.5841
 7283SOL    HW233312   2.343   2.784   2.097 -2.4888  0.8938  0.4858
 7284SOL     OW33313   2.151   1.299   6.288  0.6579  0.1007  0.5606
 7284SOL    HW133314   2.062   1.263   6.284  1.1425 -1.0399  0.0839
 7284SOL    HW233315   2.148   1.317   6.382 -2.3799  2.3805  0.0496
 7285SOL     OW33316   2.846   1.784   3.121 -0.3836  0.3063  0.3263
 7285SOL    HW133317   2.796   1.703   3.115 -1.9869  1.2780  0.8371
 7285SOL    HW233318   2.873   1.782   3.029 -2.1203  0.1113 -0.1651
 7286SOL     OW33319   0.419   3.439  17.233  0.1749  0.2116  0.2758
 7286SOL    HW133320   0.494   3.463  17.286  0.3504 -1.1378  0.6481
 7286SOL    HW233321   0.382   3.523  17.207 -0.8706 -0.1513  0.5427
 7287SOL     OW33322   1.081   2.005   8.867 -0.2408 -0.4234  0.1616
 7287SOL    HW133323   1.131   2.019   8.787 -3.4438  0.8420 -1.6476
 7287SOL    HW233324   1.141   1.954   8.922 -0.4867 -0.9717 -0.0827
 7288SOL     OW33325   0.073   2.531   3.453  0.3423  0.4199 -0.3197
 7288SOL    HW133326   0.098   2.615   3.413 -0.5419  0.7750 -0.1366
 7288SOL    HW233327   0.027   2.548   3.535 -0.4680  1.3651 -0.9659
 7289SOL     OW33328   2.957   0.392  15.512 -0.6766 -0.6769  0.2641
 7289SOL    HW133329   3.044   0.363  15.539 -1.1819 -2.1268  0.3018
 7289SOL    HW233330   2.913   0.308  15.500  2.2223 -2.3341  1.2359
 7290SOL     OW33331   3.899   1.707   1.875  0.0499 -0.4038  0.2801
 7290SOL    HW133332   3.854   1.790   1.888  0.5678  0.1050 -1.1750
 7290SOL    HW233333   3.988   1.739   1.860 -0.2118  0.4383  0.5370
 7291SOL     OW33334   4.058   1.572   2.678  0.3010 -0.8227  0.2320
 7291SOL    HW133335   3.978   1.524   2.697 -1.5944  2.8059  1.3941
 7291SOL    HW233336   4.103   1.514   2.616 -0.4241 -1.5249  0.3736
 7292SOL     OW33337   1.163   4.547   8.734  0.1977  0.1718  0.0340
 7292SOL    HW133338   1.162   4.608   8.661 -1.2272 -1.4689 -1.2913
 7292SOL    HW233339   1.258   4.560   8.743  0.3675 -0.9524 -0.0997
 7293SOL     OW33340   2.325   3.787  14.939  0.0141  0.5572  0.2111
 7293SOL    HW133341   2.420   3.779  14.949 -0.4068 -0.2606  3.6249
 7293SOL    HW233342   2.311   3.859  14.878 -1.3484  0.8193  0.8343
 7294SOL     OW33343   2.712   1.458   1.736 -0.1559 -0.2846 -0.1020
 7294SOL    HW133344   2.800   1.427   1.717  0.0858 -0.7115  1.6746
 7294SOL    HW233345   2.699   1.519   1.664 -1.5454 -1.2019 -0.6276
 7295SOL     OW33346   0.328   2.452  10.693  0.7518  0.1732 -0.5828
 7295SOL    HW133347   0.365   2.364  10.700 -1.5925 -0.9825 -3.2233
 7295SOL    HW233348   0.239   2.452  10.729  1.2531 -0.7365  0.6478
 7296SOL     OW33349   1.034   4.232   2.387 -0.1209 -0.5744 -0.5679
 7296SOL    HW133350   0.998   4.182   2.313 -0.3374 -0.2208 -0.7069
 7296SOL    HW233351   0.998   4.316   2.358  1.5004  0.8110  1.4494
 7297SOL     OW33352   2.580   0.801   5.073 -0.4232 -0.1998 -0.2864
 7297SOL    HW133353   2.559   0.731   5.135  0.8591 -0.5378 -0.2208
 7297SOL    HW233354   2.528   0.776   4.996  0.5789 -0.2698 -0.9444
 7298SOL     OW33355   3.161   2.281   7.352  0.5120  0.0799 -0.2767
 7298SOL    HW133356   3.107   2.322   7.285 -0.9636 -0.8626  0.3176
 7298SOL    HW233357   3.197   2.357   7.398 -1.0422  0.1403  0.8492
 7299SOL     OW33358   1.640   0.123  10.427  0.6348  0.1353  0.7784
 7299SOL    HW133359   1.661   0.215  10.443 -1.3888  0.5833  0.9410
 7299SOL    HW233360   1.546   0.122  10.447  0.5292  1.0475  0.3538
 7300SOL     OW33361   3.537   4.126   9.014  0.2469  0.5496 -0.3294
 7300SOL    HW133362   3.572   4.137   9.103  1.9423  1.1020 -1.0527
 7300SOL    HW233363   3.526   4.031   9.009 -0.1277  0.5612  0.3413
 7301SOL     OW33364   0.547   1.813   2.983 -0.2293 -0.1663 -0.6395
 7301SOL    HW133365   0.461   1.794   2.946 -0.5864 -1.3134  0.7853
 7301SOL    HW233366   0.512   1.850   3.065 -0.3238 -0.3537 -0.5972
 7302SOL     OW33367   3.571   2.519   3.799  0.1848 -0.6952  0.3276
 7302SOL    HW133368   3.613   2.605   3.794 -1.1647  0.0332  1.6706
 7302SOL    HW233369   3.478   2.541   3.800  0.6048  1.1049  0.0160
 7303SOL     OW33370   3.411   2.901   3.483  0.3426 -0.3343  1.2133
 7303SOL    HW133371   3.387   2.810   3.466  1.5271 -0.1236 -1.5765
 7303SOL    HW233372   3.333   2.949   3.458  0.5987 -0.2834  0.5139
 7304SOL     OW33373   3.523   3.771   9.786 -0.1761  0.0538  0.8469
 7304SOL    HW133374   3.449   3.769   9.726 -1.5919 -2.5516  2.7154
 7304SOL    HW233375   3.580   3.842   9.756 -2.8759  3.4116  3.5773
 7305SOL     OW33376   0.866   2.280  16.899  0.4123 -0.5097 -0.4015
 7305SOL    HW133377   0.932   2.348  16.888  1.7658 -1.6208  0.9180
 7305SOL    HW233378   0.839   2.260  16.809  1.7752 -1.2941 -0.6224
 7306SOL     OW33379   1.597   2.430   3.474  0.2619  0.0167  0.4110
 7306SOL    HW133380   1.641   2.374   3.538  1.4016  0.5610  0.0930
 7306SOL    HW233381   1.641   2.515   3.478 -0.2352  0.3024 -0.1538
 7307SOL     OW33382   3.815   3.883   5.587  0.0274  0.2457  0.2425
 7307SOL    HW133383   3.893   3.923   5.550  0.6177 -0.9295  0.2370
 7307SOL    HW233384   3.816   3.798   5.543  0.8787  0.7853 -0.7551
 7308SOL     OW33385   1.869   1.354  11.167 -0.3676  0.8830  0.0458
 7308SOL    HW133386   1.887   1.266  11.200 -0.8396  0.7827  0.0258
 7308SOL    HW233387   1.939   1.369  11.104  0.0105 -1.1078  0.0100
 7309SOL     OW33388   1.130   2.673   9.518  0.4709 -0.0363 -0.5118
 7309SOL    HW133389   1.176   2.670   9.601  2.7806  0.1311 -1.7836
 7309SOL    HW233390   1.126   2.768   9.519  1.4982  0.0009  0.7576
 7310SOL     OW33391   1.299   4.463  12.177 -0.1804 -0.3745  0.3214
 7310SOL    HW133392   1.214   4.419  12.183  0.7352 -2.4647 -1.8772
 7310SOL    HW233393   1.339   4.414  12.104  2.5012  0.3231  1.3133
 7311SOL     OW33394   3.477   3.460  16.172  0.5310 -0.1266 -0.3092
 7311SOL    HW133395   3.482   3.364  16.170 -1.7298 -0.2164 -1.1525
 7311SOL    HW233396   3.494   3.491  16.083 -0.5417  0.8470 -0.1650
 7312SOL     OW33397   0.550   0.058   4.595 -0.1766 -0.2377  0.2929
 7312SOL    HW133398   0.463   0.100   4.594 -0.7775 -1.4952  0.4567
 7312SOL    HW233399   0.557   0.035   4.503 -0.1000 -0.8988  0.4698
 7313SOL     OW33400   4.019   0.412   4.569  0.2902 -0.1540  0.0752
 7313SOL    HW133401   3.935   0.456   4.581 -0.0929 -0.4065 -1.6287
 7313SOL    HW233402   4.019   0.414   4.473 -0.1778  1.3175  0.0981
 7314SOL     OW33403   2.698   4.669   9.159  0.4456 -0.1245  0.1079
 7314SOL    HW133404   2.605   4.646   9.159  0.1594  1.0242 -0.3252
 7314SOL    HW233405   2.706   4.699   9.068 -0.1183 -0.3910 -0.0287
 7315SOL     OW33406   2.751   1.402   7.454 -0.2849 -0.2282 -0.6319
 7315SOL    HW133407   2.684   1.339   7.481 -0.3969 -1.0232 -2.7240
 7315SOL    HW233408   2.831   1.349   7.448  0.2020  0.5509 -1.0338
 7316SOL     OW33409   1.290   3.133   9.247  0.4308  0.0029 -0.1970
 7316SOL    HW133410   1.380   3.161   9.234  0.7385 -2.3159 -3.2630
 7316SOL    HW233411   1.289   3.048   9.202  0.2075 -0.1381  0.0687
 7317SOL     OW33412   1.888   4.657   3.156 -0.2015  0.4319  0.6581
 7317SOL    HW133413   1.840   4.581   3.188  1.7501 -0.9113  0.3851
 7317SOL    HW233414   1.920   4.699   3.236 -0.9317 -2.2507  2.3393
 7318SOL     OW33415   4.091   3.193  13.308 -0.5685 -1.0652 -0.0039
 7318SOL    HW133416   4.096   3.195  13.404  1.2382 -1.9351 -0.0712
 7318SOL    HW233417   4.021   3.254  13.285 -1.0570 -2.7216 -2.9418
 7319SOL     OW33418   3.491   4.601   6.989 -0.0573 -0.0009 -0.4416
 7319SOL    HW133419   3.508   4.561   6.904 -1.5251  0.2750 -0.8626
 7319SOL    HW233420   3.505   4.694   6.967 -1.7127  0.4119  0.2456
 7320SOL     OW33421   0.502   3.700   7.963  0.1466 -0.1447  0.4855
 7320SOL    HW133422   0.483   3.650   8.043 -0.0921 -0.3034  0.3307
 7320SOL    HW233423   0.415   3.734   7.946  0.5020  0.1368 -0.8048
 7321SOL     OW33424   1.341   0.271   6.540 -0.1312 -0.6590  0.1767
 7321SOL    HW133425   1.429   0.236   6.552  0.1178  0.3097  1.2083
 7321SOL    HW233426   1.304   0.208   6.478  0.9940  1.2327 -2.3777
 7322SOL     OW33427   4.161   2.590   8.547  0.1313 -0.0787 -0.1892
 7322SOL    HW133428   4.091   2.626   8.602  1.4869 -2.2756  2.9201
 7322SOL    HW233429   4.240   2.581   8.600 -0.1310 -2.0060 -0.1378
 7323SOL     OW33430   3.783   1.268  17.237 -0.2560 -0.4197  0.4718
 7323SOL    HW133431   3.760   1.189  17.188  2.0234 -1.1810  0.6439
 7323SOL    HW233432   3.744   1.244  17.321 -1.1478  0.5898  0.3463
 7324SOL     OW33433   2.947   2.893   9.089 -0.1417 -0.0178  0.4487
 7324SOL    HW133434   2.995   2.810   9.092  1.8727  1.1265  0.0956
 7324SOL    HW233435   2.917   2.895   9.180 -0.5600  1.0533  0.2933
 7325SOL     OW33436   1.284   3.600   2.284 -0.0356 -0.1949 -0.3433
 7325SOL    HW133437   1.209   3.550   2.252  0.5827 -1.2159 -0.1694
 7325SOL    HW233438   1.275   3.578   2.377 -3.1420  0.8344 -0.3949
 7326SOL     OW33439   4.719   1.215  15.998 -0.1996 -0.2598  0.2700
 7326SOL    HW133440   0.084   1.209  15.972 -0.3926  0.0697 -0.4838
 7326SOL    HW233441   4.700   1.124  16.018 -2.1656 -0.3764 -2.1763
 7327SOL     OW33442   4.579   0.640   4.881  0.2422  0.3982  0.5488
 7327SOL    HW133443   4.658   0.586   4.882  1.3201  1.9501  0.0953
 7327SOL    HW233444   4.513   0.571   4.881  1.1126 -0.4085 -3.5734
 7328SOL     OW33445   1.169   0.299   0.552  0.8937  0.3003 -0.0291
 7328SOL    HW133446   1.138   0.358   0.484  1.6875 -0.9115 -1.4498
 7328SOL    HW233447   1.162   0.353   0.631 -3.4326  1.3125 -1.1387
 7329SOL     OW33448   0.652   2.298   4.917  0.1782  0.1903  0.4266
 7329SOL    HW133449   0.631   2.358   4.987  0.4001  0.8855 -0.1027
 7329SOL    HW233450   0.578   2.313   4.857 -1.3097 -2.3812  1.6143
 7330SOL     OW33451   4.412   0.899   3.812  0.6496 -0.7809 -0.1745
 7330SOL    HW133452   4.435   0.918   3.721  2.0653 -1.0266  0.1268
 7330SOL    HW233453   4.491   0.858   3.847  1.7522  0.9367 -0.6561
 7331SOL     OW33454   1.567   3.109   2.655  0.0342  1.0179 -0.1802
 7331SOL    HW133455   1.556   3.102   2.750  0.1579  2.5900 -0.0571
 7331SOL    HW233456   1.488   3.059   2.633  0.9611 -0.4478 -0.1783
 7332SOL     OW33457   3.745   0.853   3.531  0.2417 -0.1172  0.5078
 7332SOL    HW133458   3.658   0.882   3.557  1.1092  1.8860  1.2252
 7332SOL    HW233459   3.757   0.790   3.603 -0.5322  3.1575  3.5008
 7333SOL     OW33460   0.153   3.683  13.017 -0.1783 -0.3986 -0.2333
 7333SOL    HW133461   0.093   3.632  13.071  1.8881  1.1844  3.6132
 7333SOL    HW233462   0.095   3.695  12.942 -1.0890  0.1227  0.5579
 7334SOL     OW33463   2.074   4.685  13.799 -0.0714  0.3734  0.4214
 7334SOL    HW133464   2.148   4.684  13.860  0.9702  0.8270 -0.8261
 7334SOL    HW233465   2.102   4.636  13.721 -0.3373  0.9419 -0.0335
 7335SOL     OW33466   3.812   3.344   6.792 -0.8739  0.4696 -0.1037
 7335SOL    HW133467   3.825   3.438   6.808  1.3693  0.0392  0.7185
 7335SOL    HW233468   3.721   3.331   6.819 -0.4713 -2.0421  0.0003
 7336SOL     OW33469   0.308   4.522   3.355  0.4383  0.3861 -0.1419
 7336SOL    HW133470   0.302   4.427   3.367 -3.0425  0.7561  1.1040
 7336SOL    HW233471   0.237   4.543   3.295  0.4214  0.0698 -0.2369
 7337SOL     OW33472   2.793   1.125   7.059 -0.3172  0.0098  0.0617
 7337SOL    HW133473   2.807   1.127   7.153  0.8422 -1.6638 -0.0753
 7337SOL    HW233474   2.848   1.050   7.036 -1.3742 -1.1841  1.5004
 7338SOL     OW33475   0.605   0.948   5.161 -0.0521  0.3242  0.4203
 7338SOL    HW133476   0.660   1.025   5.144  2.1651 -1.2492  0.4314
 7338SOL    HW233477   0.518   0.986   5.153  0.9756  1.9775 -3.1402
 7339SOL     OW33478   0.844   3.900  10.712 -0.3146 -0.2665  0.2619
 7339SOL    HW133479   0.860   3.901  10.617 -0.7163 -0.6685  0.1892
 7339SOL    HW233480   0.758   3.858  10.708 -1.2539  1.6187  0.3298
 7340SOL     OW33481   3.315   4.027   8.252  0.4681 -0.2179 -0.0107
 7340SOL    HW133482   3.251   3.967   8.215  0.8489 -1.0304  0.6672
 7340SOL    HW233483   3.279   4.114   8.267  2.1566  0.5810 -0.5362
 7341SOL     OW33484   3.133   0.080   4.511 -0.6141 -0.1216 -0.6795
 7341SOL    HW133485   3.189   0.120   4.578 -1.2102 -2.4247  1.1900
 7341SOL    HW233486   3.088   0.008   4.555  0.3858  0.4607  1.2613
 7342SOL     OW33487   1.576   3.258   7.560  0.4291  0.0197 -0.1065
 7342SOL    HW133488   1.621   3.283   7.640  1.0959  0.4829 -0.6315
 7342SOL    HW233489   1.611   3.315   7.492  1.9812 -0.8189 -0.0136
 7343SOL     OW33490   2.459   2.518  17.282 -0.2268  0.2817  0.9792
 7343SOL    HW133491   2.478   2.439  17.231 -0.8909 -0.0510  1.2519
 7343SOL    HW233492   2.395   2.481  17.343 -1.4431 -0.7411 -0.8764
 7344SOL     OW33493   1.459   3.865   7.554  0.4103  0.0459 -0.0507
 7344SOL    HW133494   1.386   3.807   7.530  0.3461  1.2339 -2.6603
 7344SOL    HW233495   1.506   3.806   7.613 -1.1451 -0.7063  0.4591
 7345SOL     OW33496   0.258   0.133   8.967  0.2427 -0.2737 -0.1501
 7345SOL    HW133497   0.196   0.184   8.916  0.2545 -1.7129 -1.5813
 7345SOL    HW233498   0.220   0.045   8.972 -0.0905 -0.2116 -1.7864
 7346SOL     OW33499   1.386   3.824  13.971  0.0956  0.3862  0.3324
 7346SOL    HW133500   1.381   3.827  14.066 -1.4599 -0.3915  0.2771
 7346SOL    HW233501   1.298   3.840  13.937 -0.2147  1.1528  1.5222
 7347SOL     OW33502   2.882   1.157   2.579 -0.3200  0.1214  0.2362
 7347SOL    HW133503   2.813   1.092   2.593 -0.8514  0.8046  0.7990
 7347SOL    HW233504   2.955   1.102   2.552 -0.4835 -0.4730  1.0036
 7348SOL     OW33505   2.568   3.700   3.189  0.5920  0.1859 -0.4602
 7348SOL    HW133506   2.527   3.783   3.166 -0.4999 -0.3392 -0.4121
 7348SOL    HW233507   2.629   3.722   3.260  1.7184 -0.1951 -1.2992
 7349SOL     OW33508   2.939   1.892   0.961  0.1942  0.5833 -0.5021
 7349SOL    HW133509   2.941   1.849   1.047  0.8557  0.7642 -0.4287
 7349SOL    HW233510   2.845   1.909   0.956  0.0170 -0.5426 -0.9876
 7350SOL     OW33511   1.290   3.275  12.596  0.1128 -0.0468  0.0537
 7350SOL    HW133512   1.298   3.348  12.534  1.2248 -0.3753 -0.1910
 7350SOL    HW233513   1.320   3.315  12.678  0.8626  1.4844 -0.9652
 7351SOL     OW33514   1.445   2.399   5.745  0.0890  0.1335  0.2508
 7351SOL    HW133515   1.484   2.479   5.778 -0.4318 -0.6072  2.6684
 7351SOL    HW233516   1.479   2.337   5.810 -0.9392 -0.1414  0.5374
 7352SOL     OW33517   3.064   0.902   4.175  0.4404 -0.1496 -0.1690
 7352SOL    HW133518   3.154   0.927   4.196  0.0899  0.5730  0.4825
 7352SOL    HW233519   3.072   0.875   4.083 -1.4262 -1.8257  0.1757
 7353SOL     OW33520   1.128   2.875  17.348 -0.6144  0.3931 -0.4280
 7353SOL    HW133521   1.045   2.833  17.329 -0.5148 -0.4277  0.9739
 7353SOL    HW233522   1.131   2.922  17.265  1.0237 -0.0864 -0.6582
 7354SOL     OW33523   3.532   0.727   6.592 -0.3287  0.6024 -0.3817
 7354SOL    HW133524   3.514   0.707   6.684  1.2449 -2.6732 -0.7880
 7354SOL    HW233525   3.552   0.820   6.582  3.5731 -0.1655  0.1881
 7355SOL     OW33526   3.153   1.554   5.469 -0.6626 -0.1586 -0.8054
 7355SOL    HW133527   3.227   1.601   5.430 -0.3699 -0.9064 -1.1456
 7355SOL    HW233528   3.124   1.485   5.409 -1.2411 -1.2504  0.7187
 7356SOL     OW33529   0.166   2.415   3.127  0.1699 -0.2568  0.5288
 7356SOL    HW133530   0.237   2.351   3.124  0.4176 -0.0437  1.7442
 7356SOL    HW233531   0.214   2.493   3.101 -1.3074  0.8896  1.2885
 7357SOL     OW33532   3.735   4.427   5.974 -0.7923 -0.3509 -0.1311
 7357SOL    HW133533   3.792   4.498   5.943 -1.5755  0.1504 -0.4515
 7357SOL    HW233534   3.792   4.351   5.975 -0.5125 -0.1668 -1.3290
 7358SOL     OW33535   1.266   1.301  11.432 -0.2799  0.4576  0.8918
 7358SOL    HW133536   1.300   1.373  11.485 -2.1974  1.2369  1.0687
 7358SOL    HW233537   1.344   1.247  11.423 -0.7872  0.2976 -2.7293
 7359SOL     OW33538   4.574   4.079   3.496  0.2608  0.1774 -0.4492
 7359SOL    HW133539   4.480   4.075   3.474  0.3207  0.6953 -0.8088
 7359SOL    HW233540   4.575   4.036   3.582 -1.3474  0.8793 -0.0722
 7360SOL     OW33541   0.323   2.270   5.038  0.4657  0.0817  0.2962
 7360SOL    HW133542   0.398   2.304   5.086  0.3759  0.4310  0.1892
 7360SOL    HW233543   0.338   2.303   4.950 -1.4201  1.4028  0.4699
 7361SOL     OW33544   1.309   4.677  16.098  0.6006  0.1493 -0.5005
 7361SOL    HW133545   1.382   4.634  16.143  0.2619  0.7306  0.6165
 7361SOL    HW233546   1.237   4.628  16.139 -0.8398  0.6836 -2.4121
 7362SOL     OW33547   1.804   0.586  11.503  0.1591 -0.0280 -0.4086
 7362SOL    HW133548   1.845   0.501  11.485 -0.7169 -0.8054  1.2785
 7362SOL    HW233549   1.864   0.638  11.449  0.3415 -1.8520 -1.9736
 7363SOL     OW33550   4.164   3.536   7.968  0.7668  0.2106 -0.0204
 7363SOL    HW133551   4.147   3.503   7.880  0.2426  3.7484 -1.2505
 7363SOL    HW233552   4.226   3.470   7.997  0.4219 -0.6230 -1.1686
 7364SOL     OW33553   2.514   4.200  15.263  0.4208  0.1886  0.3528
 7364SOL    HW133554   2.601   4.220  15.229  0.3155  1.0602  0.5822
 7364SOL    HW233555   2.523   4.150  15.344  1.1953  1.5470  1.0963
 7365SOL     OW33556   0.466   0.858  11.847  0.1203 -0.6518 -0.3950
 7365SOL    HW133557   0.495   0.871  11.757 -1.5222  0.2846 -0.7875
 7365SOL    HW233558   0.382   0.902  11.843 -1.3939 -3.5139 -0.1653
 7366SOL     OW33559   4.471   0.218  10.437 -0.2504  0.1989 -0.0460
 7366SOL    HW133560   4.406   0.149  10.426 -0.0945  0.3309 -1.8107
 7366SOL    HW233561   4.548   0.170  10.469 -1.2005 -1.3751 -0.1485
 7367SOL     OW33562   3.546   3.791   5.445 -0.0209 -0.1810 -0.2682
 7367SOL    HW133563   3.607   3.750   5.384 -0.2020 -2.7265  1.2601
 7367SOL    HW233564   3.609   3.840   5.499  1.4397 -2.0876 -0.2400
 7368SOL     OW33565   4.163   0.825   4.118  0.5886  0.2852 -0.0036
 7368SOL    HW133566   4.179   0.813   4.024 -2.4787  0.6451 -0.5707
 7368SOL    HW233567   4.215   0.905   4.125  1.4975 -0.3500  0.4938
 7369SOL     OW33568   3.200   0.007   2.820  0.4606  0.0086 -0.1257
 7369SOL    HW133569   3.157   0.060   2.753  1.5169 -0.8047 -1.4583
 7369SOL    HW233570   3.228   4.655   2.773 -3.0297 -0.8504 -0.7410
 7370SOL     OW33571   0.430   2.538  14.319  0.1155  0.4286 -0.3533
 7370SOL    HW133572   0.471   2.623  14.302 -1.5293  1.1694 -0.5859
 7370SOL    HW233573   0.373   2.561  14.393 -1.4444  0.6978 -1.6549
 7371SOL     OW33574   1.871   1.994   4.278  0.4561 -0.4954  0.0927
 7371SOL    HW133575   1.818   1.951   4.210 -0.3459  0.6078  0.0307
 7371SOL    HW233576   1.957   1.965   4.248  0.5869  0.9535 -0.9041
 7372SOL     OW33577   3.431   3.905   4.672  0.1245  0.2001 -0.5363
 7372SOL    HW133578   3.405   3.814   4.689 -0.2176 -0.0121 -2.1746
 7372SOL    HW233579   3.521   3.908   4.704  0.0309  1.2398 -0.3851
 7373SOL     OW33580   1.446   2.130  10.205  0.5546 -0.2709  0.0142
 7373SOL    HW133581   1.359   2.101  10.234  0.7383  0.8229  1.6411
 7373SOL    HW233582   1.437   2.225  10.214  3.6087 -0.0599  0.7374
 7374SOL     OW33583   3.159   0.843   2.848 -0.0300 -0.9637  0.0026
 7374SOL    HW133584   3.235   0.869   2.797  0.0898 -1.2507  0.0377
 7374SOL    HW233585   3.093   0.906   2.818  0.7073 -0.5854 -0.8216
 7375SOL     OW33586   0.223   3.310   9.861  0.0259 -0.2533 -0.3965
 7375SOL    HW133587   0.315   3.309   9.888  0.8277 -2.2902 -3.2749
 7375SOL    HW233588   0.237   3.377   9.794 -0.0278 -1.8805 -1.9974
 7376SOL     OW33589   0.225   1.681   1.073  0.3057  0.3191 -0.2462
 7376SOL    HW133590   0.221   1.615   1.143 -0.1276  1.9274  1.2530
 7376SOL    HW233591   0.165   1.642   1.009  0.2552 -0.9537  0.5614
 7377SOL     OW33592   2.643   3.361  15.280 -0.0186  0.2202 -0.3999
 7377SOL    HW133593   2.629   3.347  15.373  1.0212 -0.7102 -0.3885
 7377SOL    HW233594   2.603   3.448  15.274 -3.0974 -1.2067 -0.6089
 7378SOL     OW33595   2.061   1.959   8.489  0.3907 -0.6346  0.0659
 7378SOL    HW133596   2.066   1.929   8.579  0.8186 -0.3135  0.1486
 7378SOL    HW233597   2.010   1.885   8.456  0.4374 -0.7199  0.1869
 7379SOL     OW33598   4.726   4.129   6.456  0.1234  0.2335  0.1829
 7379SOL    HW133599   4.684   4.204   6.498 -0.3719 -0.2620  0.5733
 7379SOL    HW233600   0.090   4.135   6.485 -0.2207  1.7456  0.9334
 7380SOL     OW33601   2.265   2.028   4.256  0.5414  0.0648  0.1597
 7380SOL    HW133602   2.309   2.102   4.297 -1.7699  0.6775  1.5455
 7380SOL    HW233603   2.188   2.068   4.217  0.2700 -0.1299  0.4942
 7381SOL     OW33604   4.061   3.883   9.584 -0.5943  0.0071 -0.1038
 7381SOL    HW133605   4.098   3.928   9.508 -1.6537 -0.6865 -1.0298
 7381SOL    HW233606   4.027   3.959   9.632  0.4567  0.1023  0.4787
 7382SOL     OW33607   3.374   2.726   1.366 -0.6748  0.1724 -0.0480
 7382SOL    HW133608   3.319   2.653   1.338  0.9623  0.3405 -3.6932
 7382SOL    HW233609   3.421   2.740   1.283  0.1669  0.7018  0.5219
 7383SOL     OW33610   1.273   2.311   6.068  0.3769  0.0979 -0.2035
 7383SOL    HW133611   1.240   2.227   6.099  0.8892  0.9973  2.7208
 7383SOL    HW233612   1.192   2.360   6.055  1.2741  1.2607 -1.4519
 7384SOL     OW33613   4.663   1.253  16.368 -0.2862 -0.9600  0.2321
 7384SOL    HW133614   4.627   1.302  16.442  1.9186  2.5915 -1.0849
 7384SOL    HW233615   0.012   1.205  16.401 -0.1553 -1.3932 -0.7024
 7385SOL     OW33616   2.034   2.991   6.451  0.0244  0.2308  0.2971
 7385SOL    HW133617   2.121   2.997   6.490  0.2332  1.1436 -0.3310
 7385SOL    HW233618   2.062   2.938   6.377 -0.9176  0.9308 -0.5535
 7386SOL     OW33619   0.342   0.997   2.730 -0.2647 -0.1429  0.2533
 7386SOL    HW133620   0.336   1.017   2.636 -3.5120  1.5384  0.8229
 7386SOL    HW233621   0.277   1.050   2.775 -0.8134  0.4204 -1.1959
 7387SOL     OW33622   0.163   0.559   5.583  0.0828  0.3372 -0.6972
 7387SOL    HW133623   0.164   0.505   5.504 -3.1525 -0.4465 -0.1977
 7387SOL    HW233624   0.153   0.495   5.654  2.0165  0.5811 -0.2157
 7388SOL     OW33625   1.570   4.356   5.538 -0.0669 -0.1146 -0.1779
 7388SOL    HW133626   1.560   4.308   5.620 -3.7970 -0.9246 -1.1106
 7388SOL    HW233627   1.647   4.412   5.549  1.0118 -2.0213  1.6604
 7389SOL     OW33628   3.961   4.135   7.887 -0.1409  0.4784  0.2251
 7389SOL    HW133629   3.915   4.102   7.964 -1.5551 -1.7485 -1.5733
 7389SOL    HW233630   4.050   4.104   7.906 -0.8162 -0.8848  1.1132
 7390SOL     OW33631   4.252   3.758  15.803  0.6104 -0.4841  0.4381
 7390SOL    HW133632   4.287   3.701  15.735  0.6311 -0.1301  0.1565
 7390SOL    HW233633   4.230   3.697  15.873 -0.1997 -1.3729 -0.5894
 7391SOL     OW33634   3.621   2.139  10.025 -0.0649 -0.1673 -0.1063
 7391SOL    HW133635   3.605   2.223  10.067 -1.1529 -0.2210 -0.4147
 7391SOL    HW233636   3.563   2.144   9.948  0.2621  0.5335 -0.3052
 7392SOL     OW33637   1.549   0.407   4.388  0.1573  0.6477  0.1483
 7392SOL    HW133638   1.484   0.425   4.321  1.0189 -1.3961 -1.2342
 7392SOL    HW233639   1.637   0.411   4.350  0.2488  0.8945  0.3870
 7393SOL     OW33640   2.056   2.759   8.127 -0.0623 -0.4285  0.1159
 7393SOL    HW133641   2.137   2.782   8.173  0.7140 -0.0286 -1.4580
 7393SOL    HW233642   2.070   2.666   8.109  0.1477 -1.0974  3.6817
 7394SOL     OW33643   4.476   2.397  11.402 -0.4564 -0.5176 -0.8279
 7394SOL    HW133644   4.406   2.450  11.363 -1.4391 -0.0297  1.5800
 7394SOL    HW233645   4.515   2.367  11.320 -0.6067  0.0943 -1.1174
 7395SOL     OW33646   2.035   1.486   5.902  0.0060  0.0903  0.1364
 7395SOL    HW133647   2.090   1.431   5.958 -0.3062 -0.6028 -0.2385
 7395SOL    HW233648   1.977   1.418   5.868  1.4747 -2.8447  3.5147
 7396SOL     OW33649   1.231   4.420   7.883  1.0045 -0.0842  0.2249
 7396SOL    HW133650   1.299   4.355   7.903  0.1519 -0.7469  0.9721
 7396SOL    HW233651   1.183   4.373   7.815  2.2903 -1.2134  0.0754
 7397SOL     OW33652   0.445   1.110   3.458  0.0472 -0.5183  0.3179
 7397SOL    HW133653   0.350   1.116   3.469  0.0724 -0.0893  0.2867
 7397SOL    HW233654   0.460   1.164   3.381 -2.0123  0.5500  0.6682
 7398SOL     OW33655   1.914   3.659   5.006 -0.0534 -0.0337 -0.4584
 7398SOL    HW133656   1.841   3.668   4.944 -1.6673 -0.2375  1.4181
 7398SOL    HW233657   1.928   3.754   5.015  2.4613 -0.6927  2.4453
 7399SOL     OW33658   2.990   2.068  14.016  0.7237  0.2216 -0.3007
 7399SOL    HW133659   2.967   1.977  14.034 -1.2727  0.5113 -1.3569
 7399SOL    HW233660   3.085   2.067  14.004  0.4043 -0.4316 -2.6747
 7400SOL     OW33661   0.933   1.652  10.067  0.2377 -0.0559 -0.4201
 7400SOL    HW133662   1.000   1.647  10.135 -0.0123 -0.8292 -0.2291
 7400SOL    HW233663   0.959   1.587  10.002  2.1183  0.8929 -0.6299
 7401SOL     OW33664   3.471   0.033  12.683  0.5456 -0.1426 -0.4800
 7401SOL    HW133665   3.547   0.025  12.740 -1.1605 -2.2801  1.4769
 7401SOL    HW233666   3.431   4.673  12.687  1.8921 -0.7516 -0.4838
 7402SOL     OW33667   1.499   0.429   2.117 -0.2960  0.5032  0.3210
 7402SOL    HW133668   1.509   0.376   2.196  2.8055 -0.2959 -0.6106
 7402SOL    HW233669   1.571   0.394   2.066 -0.8325 -1.0366  0.6151
 7403SOL     OW33670   0.238   3.517   7.776 -0.2167 -0.2664 -0.2643
 7403SOL    HW133671   0.254   3.572   7.699 -0.1570 -2.2063 -1.6252
 7403SOL    HW233672   0.216   3.430   7.743 -0.2053  0.1283 -1.2978
 7404SOL     OW33673   4.176   3.852   3.121  1.0587  0.3073 -0.2171
 7404SOL    HW133674   4.139   3.878   3.036 -0.7122  1.1867  0.7971
 7404SOL    HW233675   4.093   3.834   3.165  1.1347 -0.6517 -0.4777
 7405SOL     OW33676   0.413   4.723   5.080  0.5561  0.2446 -0.7346
 7405SOL    HW133677   0.393   4.643   5.033 -2.4468 -0.0838  1.1205
 7405SOL    HW233678   0.446   4.695   5.165  1.3242 -3.6477 -2.3323
 7406SOL     OW33679   3.948   0.327   1.224  0.3000  0.4395 -0.5414
 7406SOL    HW133680   3.991   0.247   1.193 -1.9990 -0.2462 -1.9627
 7406SOL    HW233681   3.877   0.341   1.162  0.5293  1.3311 -0.6085
 7407SOL     OW33682   1.973   0.772   5.352 -0.2188  0.2631  0.1698
 7407SOL    HW133683   1.880   0.772   5.329  0.2036 -1.5132 -1.5561
 7407SOL    HW233684   1.971   0.721   5.433  1.0454  0.4477  0.3213
 7408SOL     OW33685   3.012   1.864   4.495 -0.3658 -0.3941  0.1811
 7408SOL    HW133686   2.932   1.811   4.493 -1.0132  0.5339  2.1033
 7408SOL    HW233687   2.997   1.914   4.575 -0.2482 -0.3539  0.1787
 7409SOL     OW33688   0.354   1.961   7.976 -0.0850  0.5919 -0.8073
 7409SOL    HW133689   0.302   2.041   7.968  0.0313  0.7641  0.0910
 7409SOL    HW233690   0.416   1.969   7.904 -1.4799  1.8308 -1.8654
 7410SOL     OW33691   3.710   4.493   4.091 -0.0902 -0.2165 -0.1143
 7410SOL    HW133692   3.685   4.476   4.181  0.3154  2.3065  0.4921
 7410SOL    HW233693   3.732   4.586   4.099 -1.3373 -0.0469  1.2236
 7411SOL     OW33694   0.534   1.004   1.860 -0.6486 -0.1387 -0.1190
 7411SOL    HW133695   0.567   1.062   1.929 -0.7235  0.7340 -0.8140
 7411SOL    HW233696   0.515   1.065   1.788 -0.5116  1.4459  1.1887
 7412SOL     OW33697   2.303   1.640   5.627  0.1083 -0.8624  0.6062
 7412SOL    HW133698   2.228   1.689   5.659  1.4187  1.6050 -0.1383
 7412SOL    HW233699   2.354   1.625   5.707 -3.1503 -0.2739  2.7968
 7413SOL     OW33700   1.277   1.293   0.434  0.2075 -0.5027 -0.5019
 7413SOL    HW133701   1.242   1.207   0.457 -2.4779  0.2750 -1.6588
 7413SOL    HW233702   1.354   1.272   0.381  2.8599  2.6143  2.1279
 7414SOL     OW33703   4.263   1.505   7.676 -0.3889  0.0129 -0.1033
 7414SOL    HW133704   4.261   1.505   7.771  0.5695 -0.3006 -0.0918
 7414SOL    HW233705   4.170   1.500   7.653 -0.3838  0.4084 -0.2099
 7415SOL     OW33706   3.301   1.273   0.539 -0.0189  0.2467 -0.0352
 7415SOL    HW133707   3.303   1.366   0.514 -2.1385  0.0838 -0.7286
 7415SOL    HW233708   3.272   1.245   0.453 -0.6994  1.8717 -0.3485
 7416SOL     OW33709   1.160   1.993   9.266 -0.4233 -0.2863  0.1126
 7416SOL    HW133710   1.229   2.052   9.236  1.1789 -0.8841  2.6806
 7416SOL    HW233711   1.189   1.941   9.340 -0.9115 -0.7735 -0.0331
 7417SOL     OW33712   2.772   0.804   2.051  0.1294  0.4773  0.2620
 7417SOL    HW133713   2.747   0.785   2.142  1.1477  2.8372  1.0435
 7417SOL    HW233714   2.688   0.847   2.031 -0.9984 -1.7575  0.0882
 7418SOL     OW33715   2.706   2.429  15.004  0.5031 -0.0051  0.1331
 7418SOL    HW133716   2.719   2.524  15.006  0.1489  0.0473 -0.4334
 7418SOL    HW233717   2.647   2.420  14.930 -2.5924  2.1025  2.3743
 7419SOL     OW33718   3.766   1.338   4.890  0.4041 -0.4098  0.4681
 7419SOL    HW133719   3.746   1.274   4.822  1.0094  1.3407 -1.3646
 7419SOL    HW233720   3.708   1.312   4.961 -0.0532 -2.5357 -0.6903
 7420SOL     OW33721   4.375   0.029   5.557  0.0415  0.1621  0.1085
 7420SOL    HW133722   4.402   4.682   5.612  2.8592  0.6313 -0.6364
 7420SOL    HW233723   4.298   4.720   5.512  0.7063  0.2920 -1.1364
 7421SOL     OW33724   3.870   3.650  16.728  0.2218  0.3256  0.2305
 7421SOL    HW133725   3.885   3.713  16.658 -0.4054  0.2215  0.0059
 7421SOL    HW233726   3.783   3.676  16.759 -0.2584 -0.1615 -0.6969
 7422SOL     OW33727   2.246   1.235  15.442 -0.2026 -0.1321  0.4883
 7422SOL    HW133728   2.332   1.217  15.481 -1.5313 -2.3659  2.4054
 7422SOL    HW233729   2.197   1.182  15.505  1.1952 -0.2664  1.4551
 7423SOL     OW33730   2.992   3.594  10.732 -0.2958  0.5399  0.0388
 7423SOL    HW133731   3.024   3.622  10.647 -1.1549  0.4323 -0.3239
 7423SOL    HW233732   2.937   3.662  10.771  0.6404  0.8371  0.8491
 7424SOL     OW33733   4.641   2.135   0.737 -0.0899  0.7205 -0.0441
 7424SOL    HW133734   4.608   2.061   0.788  1.2465 -0.9888 -1.6702
 7424SOL    HW233735   0.007   2.115   0.738  0.1396  1.7541 -0.0410
 7425SOL     OW33736   2.771   2.554   4.977  0.2550  0.7375 -0.6014
 7425SOL    HW133737   2.780   2.636   4.929 -1.5723  2.9187  2.7536
 7425SOL    HW233738   2.716   2.499   4.920 -0.4828  3.4239 -2.4826
 7426SOL     OW33739   0.422   1.821   8.722  0.0338  0.0386 -0.6895
 7426SOL    HW133740   0.475   1.789   8.795 -0.2783 -2.7608 -1.6781
 7426SOL    HW233741   0.471   1.893   8.684  0.5308 -0.6724 -1.3987
 7427SOL     OW33742   3.924   4.336   4.425  0.0410 -0.0253 -0.3191
 7427SOL    HW133743   4.014   4.305   4.435 -0.0324 -0.1147  0.0528
 7427SOL    HW233744   3.947   4.423   4.392  0.3851 -0.2338 -0.6360
 7428SOL     OW33745   0.269   2.020   6.071 -0.2509  0.2122  0.2023
 7428SOL    HW133746   0.258   1.978   5.986  2.3208  2.2394 -1.1243
 7428SOL    HW233747   0.280   2.109   6.037 -2.4912  0.7975  0.9823
 7429SOL     OW33748   0.171   0.421   1.722  0.3681  0.3047 -0.1014
 7429SOL    HW133749   0.165   0.480   1.648 -1.1645  0.9340  0.5226
 7429SOL    HW233750   0.137   0.477   1.791  2.2007  1.7576 -0.3838
 7430SOL     OW33751   4.594   0.671  10.243 -0.3609  0.4587  0.2046
 7430SOL    HW133752   4.646   0.664  10.323  0.2953 -1.4030 -0.3730
 7430SOL    HW233753   4.578   0.579  10.222 -2.2080  0.7697  0.2264
 7431SOL     OW33754   0.741   0.579   3.349  0.3836  0.4636 -0.2653
 7431SOL    HW133755   0.710   0.498   3.309 -0.1233  0.3477  0.3551
 7431SOL    HW233756   0.692   0.581   3.432  0.4615 -0.8852 -0.1842
 7432SOL     OW33757   3.916   0.986   2.105 -0.0157 -0.3834 -0.3572
 7432SOL    HW133758   3.861   0.985   2.183 -1.6282 -0.7602 -1.4966
 7432SOL    HW233759   3.872   0.928   2.043  1.5315 -1.4745 -0.4340
 7433SOL     OW33760   1.987   0.057   5.719  0.3269  0.0602  0.8166
 7433SOL    HW133761   2.028   0.069   5.633 -0.1674  2.9295  0.9799
 7433SOL    HW233762   1.999   4.689   5.718 -1.0907 -0.0965 -2.7738
 7434SOL     OW33763   3.633   2.733   1.234  0.1805 -0.3037 -0.4279
 7434SOL    HW133764   3.668   2.817   1.263  1.2025 -0.9055  0.0891
 7434SOL    HW233765   3.635   2.753   1.140 -0.4360 -1.3728 -0.6588
 7435SOL     OW33766   0.497   1.044   6.946 -0.1895 -0.1778  0.0651
 7435SOL    HW133767   0.471   1.045   6.854 -1.1375 -0.5949  0.3317
 7435SOL    HW233768   0.546   1.126   6.952 -1.7702  0.7170  0.6750
 7436SOL     OW33769   1.476   3.091   4.224  0.4504 -0.4740 -0.3879
 7436SOL    HW133770   1.406   3.152   4.201 -0.7619 -0.9033  2.2015
 7436SOL    HW233771   1.470   3.107   4.318 -0.3831 -1.1621 -0.3218
 7437SOL     OW33772   2.463   1.263   3.951  0.2332 -0.0379  0.9202
 7437SOL    HW133773   2.450   1.292   3.860  0.8681  1.3997  1.2970
 7437SOL    HW233774   2.501   1.343   3.986 -0.0497  0.1935  0.7051
 7438SOL     OW33775   1.155   2.022   4.088  0.3210  0.6874 -0.4602
 7438SOL    HW133776   1.200   2.033   4.005 -0.1808  0.6438 -0.7353
 7438SOL    HW233777   1.163   1.927   4.101  2.0989  0.7477 -1.0814
 7439SOL     OW33778   1.925   1.590   9.815 -0.4091 -0.2199 -0.5991
 7439SOL    HW133779   2.009   1.576   9.772 -0.1605  1.1677 -0.5417
 7439SOL    HW233780   1.875   1.643   9.753 -0.8572  0.3726  0.2819
 7440SOL     OW33781   0.861   1.020   4.835  0.0477 -0.0658  0.2575
 7440SOL    HW133782   0.879   1.046   4.926 -0.0020 -0.6440  0.4287
 7440SOL    HW233783   0.834   0.929   4.845  2.0588 -0.9792 -2.7379
 7441SOL     OW33784   0.217   1.149  14.394 -0.2980  0.2069  0.2499
 7441SOL    HW133785   0.135   1.181  14.432  0.2482  2.5309 -0.5053
 7441SOL    HW233786   0.180   1.100  14.321  0.6653  1.4637 -1.0760
 7442SOL     OW33787   4.133   0.527   8.924 -0.1684 -0.2730 -0.2049
 7442SOL    HW133788   4.176   0.518   9.009 -0.7673  0.3438  0.1638
 7442SOL    HW233789   4.082   0.447   8.914  1.5667 -1.6874  2.3092
 7443SOL     OW33790   2.900   2.377   9.220  0.0586 -0.7913 -0.2134
 7443SOL    HW133791   2.870   2.345   9.305  0.3640  0.8998  0.5370
 7443SOL    HW233792   2.826   2.373   9.160 -1.3377 -2.0720  1.6060
 7444SOL     OW33793   0.121   4.267   6.072  0.3582  0.2064  0.2095
 7444SOL    HW133794   0.143   4.359   6.061 -1.1580  0.4665 -0.6663
 7444SOL    HW233795   0.029   4.270   6.045  0.1907  1.0998  0.8844
 7445SOL     OW33796   2.142   3.409  10.972 -0.3450 -1.0728 -0.1678
 7445SOL    HW133797   2.161   3.361  11.052  0.2723  0.3291  0.5111
 7445SOL    HW233798   2.046   3.411  10.979 -0.4136 -1.2933 -1.0299
 7446SOL     OW33799   3.379   3.486   4.552  0.2402 -0.5249  0.9250
 7446SOL    HW133800   3.344   3.433   4.481 -2.6043  3.1344 -0.4621
 7446SOL    HW233801   3.305   3.539   4.583  0.6365  0.3377  0.3889
 7447SOL     OW33802   3.706   1.978   1.090  0.4739 -0.2618  0.3295
 7447SOL    HW133803   3.738   1.978   1.180 -0.2936  0.9802  0.6062
 7447SOL    HW233804   3.676   2.068   1.076  3.9905  1.1733  1.9752
 7448SOL     OW33805   2.226   1.150   4.567  0.0651 -0.4404 -0.5954
 7448SOL    HW133806   2.309   1.193   4.586 -0.1799  1.0057 -2.8454
 7448SOL    HW233807   2.209   1.170   4.475  0.0116  1.6630 -0.1153
 7449SOL     OW33808   1.365   4.188   5.846  0.3827 -0.6444 -0.1010
 7449SOL    HW133809   1.357   4.253   5.916 -1.7901  0.2352 -1.1661
 7449SOL    HW233810   1.315   4.116   5.884  0.3630 -1.1219 -1.0405
 7450SOL     OW33811   2.278   2.030   8.036  0.0031  0.2481  0.1529
 7450SOL    HW133812   2.231   2.025   8.119 -1.3280  0.0868 -0.6185
 7450SOL    HW233813   2.360   2.077   8.052 -0.4256  0.5108  1.5824
 7451SOL     OW33814   0.427   3.909   8.319  0.3757  0.2730  0.6394
 7451SOL    HW133815   0.478   3.862   8.384 -0.1267  0.8595  1.4654
 7451SOL    HW233816   0.493   3.977   8.302  0.8719  0.0158  1.5478
 7452SOL     OW33817   3.083   0.350   9.212 -0.3670  0.6656  0.3535
 7452SOL    HW133818   2.991   0.349   9.239  0.1036 -0.6936  1.9538
 7452SOL    HW233819   3.119   0.266   9.241 -0.8796  1.1465  2.3884
 7453SOL     OW33820   4.115   1.064   9.099  0.1988  0.3672 -0.0761
 7453SOL    HW133821   4.163   1.062   9.182 -1.9435  1.6363  1.1826
 7453SOL    HW233822   4.022   1.068   9.120  0.1289  0.4258 -0.3992
 7454SOL     OW33823   3.140   1.094   8.121  0.4790  0.8922 -0.0175
 7454SOL    HW133824   3.160   1.148   8.197 -1.0849  1.7839 -0.2420
 7454SOL    HW233825   3.221   1.043   8.116 -0.0666  0.0806 -0.7119
 7455SOL     OW33826   4.383   1.839   7.092 -0.4510 -0.1353 -0.6765
 7455SOL    HW133827   4.391   1.932   7.069 -2.2719 -0.0038 -0.8138
 7455SOL    HW233828   4.315   1.815   7.029  1.2326 -4.2923 -0.9096
 7456SOL     OW33829   3.522   4.277  11.176  0.2550  0.5109  0.2467
 7456SOL    HW133830   3.531   4.207  11.112 -4.8633  1.2788 -1.3314
 7456SOL    HW233831   3.490   4.353  11.128  1.0379 -0.3225 -1.5689
 7457SOL     OW33832   1.664   3.351   4.041  0.1111  0.1702 -0.3228
 7457SOL    HW133833   1.672   3.339   4.135  0.7762  0.4993 -0.3420
 7457SOL    HW233834   1.570   3.336   4.031  0.0631 -0.8049  1.6061
 7458SOL     OW33835   2.987   1.792   2.871 -0.1775  0.5043 -0.2700
 7458SOL    HW133836   3.041   1.727   2.825 -0.8390  0.0189 -0.3763
 7458SOL    HW233837   3.049   1.839   2.926 -0.9564 -0.2070  1.2305
 7459SOL     OW33838   3.601   0.238   1.744 -0.2792  0.2161 -0.2233
 7459SOL    HW133839   3.554   0.215   1.664  0.0063 -0.7471 -0.1127
 7459SOL    HW233840   3.530   0.258   1.806  0.9016 -0.8021  1.4912
 7460SOL     OW33841   1.028   2.933   3.904  0.1517 -0.0065 -0.0295
 7460SOL    HW133842   0.937   2.927   3.875 -0.2868 -0.4043  1.4503
 7460SOL    HW233843   1.025   2.886   3.987  0.1755  1.0625  0.5655
 7461SOL     OW33844   4.626   3.744  11.957 -0.1690  0.3598  0.4457
 7461SOL    HW133845   4.585   3.800  12.023  0.3537 -0.8814  1.8129
 7461SOL    HW233846   4.581   3.765  11.876 -1.3672  1.6898  1.4545
 7462SOL     OW33847   1.694   4.659  11.863 -0.2961  0.3100  0.0614
 7462SOL    HW133848   1.682   4.691  11.774 -0.1112 -0.7012 -0.3306
 7462SOL    HW233849   1.774   4.607  11.856 -0.3955 -0.0832  1.9017
 7463SOL     OW33850   3.350   3.121  13.642 -0.2456  0.2093  0.4718
 7463SOL    HW133851   3.286   3.112  13.713  1.5598 -1.5635  1.8735
 7463SOL    HW233852   3.428   3.088  13.687 -0.6921 -0.6415  0.6341
 7464SOL     OW33853   3.228   1.772   7.037  0.0433 -0.0250  0.1771
 7464SOL    HW133854   3.155   1.829   7.013 -0.0213  0.4864  1.6103
 7464SOL    HW233855   3.220   1.778   7.132 -1.3289 -0.6906  0.1016
 7465SOL     OW33856   0.645   0.795   9.688  0.7397 -0.3122  0.0176
 7465SOL    HW133857   0.724   0.799   9.742  1.3737 -1.0522 -0.8619
 7465SOL    HW233858   0.653   0.700   9.673 -0.5404 -0.3930 -0.1488
 7466SOL     OW33859   2.494   1.296   4.894  0.2591 -0.0066 -0.3479
 7466SOL    HW133860   2.445   1.324   4.971  0.9842  1.7302 -0.5032
 7466SOL    HW233861   2.583   1.285   4.929 -0.0707 -0.2107  0.4374
 7467SOL     OW33862   1.623   3.409   6.442 -0.2423  0.5173  0.3938
 7467SOL    HW133863   1.577   3.460   6.375  0.7332 -0.5733 -1.0933
 7467SOL    HW233864   1.712   3.416   6.408 -0.1275 -0.2297  0.5391
 7468SOL     OW33865   1.948   1.859   5.479  0.2944 -0.0680  0.3485
 7468SOL    HW133866   1.968   1.799   5.552  2.5695 -3.6558 -3.1861
 7468SOL    HW233867   1.978   1.943   5.514 -0.3805 -0.3325  1.5599
 7469SOL     OW33868   3.391   4.277   6.311 -0.1778  0.4257  0.0721
 7469SOL    HW133869   3.461   4.303   6.252 -1.6041 -0.4613 -2.0055
 7469SOL    HW233870   3.415   4.334   6.384  0.7488 -0.5321  0.5071
 7470SOL     OW33871   3.283   4.526   4.130 -0.1791 -0.1016 -0.2259
 7470SOL    HW133872   3.313   4.436   4.113 -0.6653 -0.6173  1.7084
 7470SOL    HW233873   3.295   4.557   4.040  0.7040  0.6718  0.1569
 7471SOL     OW33874   1.956   0.600   5.579 -0.3996 -0.5254  0.4942
 7471SOL    HW133875   1.899   0.524   5.565  1.8135 -1.8344 -1.1846
 7471SOL    HW233876   1.959   0.597   5.675 -1.9654 -1.3688  0.5337
 7472SOL     OW33877   1.823   3.749   8.618  0.7919 -0.1417  0.0405
 7472SOL    HW133878   1.782   3.737   8.532 -1.0124  1.8595  0.6323
 7472SOL    HW233879   1.839   3.657   8.640 -0.4624  0.4910  3.5139
 7473SOL     OW33880   3.902   1.856  16.911 -0.1414 -0.3390 -0.3741
 7473SOL    HW133881   3.894   1.820  16.822  0.9704  0.4012 -0.7761
 7473SOL    HW233882   3.824   1.909  16.926 -0.3428 -0.5019 -0.8353
 7474SOL     OW33883   1.368   0.429   9.108  0.0154 -0.0549  0.4561
 7474SOL    HW133884   1.401   0.345   9.141  3.2830 -0.4976 -3.9848
 7474SOL    HW233885   1.287   0.447   9.157 -0.1314  0.5224  0.0122
 7475SOL     OW33886   4.568   2.967  11.060 -0.7206  0.1405 -0.1713
 7475SOL    HW133887   4.531   2.882  11.034 -0.8229  0.3832 -0.8346
 7475SOL    HW233888   4.655   2.963  11.021  0.0391  0.6689  1.4946
 7476SOL     OW33889   0.219   1.382   2.507  0.2102 -0.2974 -0.2622
 7476SOL    HW133890   0.172   1.441   2.449  0.3533 -0.9717 -1.0611
 7476SOL    HW233891   0.291   1.356   2.449 -0.9397 -0.0022 -1.8057
 7477SOL     OW33892   2.008   0.784   1.007 -0.3852  0.3055 -0.0718
 7477SOL    HW133893   2.048   0.724   0.944  0.1084 -1.2957  1.7685
 7477SOL    HW233894   2.086   0.825   1.046  0.7735 -0.4175 -1.5825
 7478SOL     OW33895   2.160   2.455  14.524 -0.3506 -0.2542  0.0955
 7478SOL    HW133896   2.133   2.499  14.604 -1.1893  0.5756 -0.6490
 7478SOL    HW233897   2.136   2.519  14.457  2.2284  2.1960  1.5482
 7479SOL     OW33898   3.849   4.137  16.507 -0.0116 -0.5485 -0.0915
 7479SOL    HW133899   3.782   4.206  16.511  1.8501  1.2860 -0.5275
 7479SOL    HW233900   3.829   4.103  16.420  0.5790  1.2018 -0.9038
 7480SOL     OW33901   3.111   3.201   3.536  0.1354 -0.2433 -0.4310
 7480SOL    HW133902   3.068   3.279   3.571  0.9286  0.0763 -0.1722
 7480SOL    HW233903   3.122   3.223   3.444  0.0851  0.3136 -0.3043
 7481SOL     OW33904   2.695   3.126  11.987  0.0184 -0.3034  0.1137
 7481SOL    HW133905   2.776   3.151  11.944 -0.4678  2.0590  0.5667
 7481SOL    HW233906   2.727   3.068  12.057  0.8243 -0.8672 -0.7266
 7482SOL     OW33907   3.212   1.072  11.676  0.2894  0.3483  0.0687
 7482SOL    HW133908   3.159   1.021  11.738  0.6735  1.6366  1.4728
 7482SOL    HW233909   3.197   1.161  11.708 -0.8228  0.8138 -1.7661
 7483SOL     OW33910   1.466   3.762   8.106 -0.3378  0.0522  0.2172
 7483SOL    HW133911   1.546   3.709   8.105  0.6746  1.5850  0.1679
 7483SOL    HW233912   1.431   3.758   8.017  0.1777 -0.9691  0.0587
 7484SOL     OW33913   0.561   1.159  11.463 -0.5977  0.2718 -0.6103
 7484SOL    HW133914   0.551   1.254  11.454 -0.0920  0.3822 -0.0214
 7484SOL    HW233915   0.504   1.137  11.537  0.7086 -2.1929 -0.3480
 7485SOL     OW33916   0.443   2.140  11.834 -0.3043  0.5236 -0.6159
 7485SOL    HW133917   0.503   2.197  11.785 -0.3493  0.7612 -0.3921
 7485SOL    HW233918   0.504   2.093  11.891 -0.8632 -2.1413 -2.1727
 7486SOL     OW33919   1.412   1.896   5.739 -0.4144 -0.0681  0.5400
 7486SOL    HW133920   1.360   1.876   5.817 -1.5988 -0.8267 -0.4478
 7486SOL    HW233921   1.499   1.909   5.778  0.0100  0.5336 -0.6117
 7487SOL     OW33922   1.964   4.038   3.402 -0.2271 -0.0951 -0.1202
 7487SOL    HW133923   1.952   3.948   3.434 -0.1161 -0.0461  0.0605
 7487SOL    HW233924   1.870   4.046   3.388 -0.4365 -1.1848  0.6368
 7488SOL     OW33925   4.607   0.432   9.575  0.0658 -0.0949 -0.0705
 7488SOL    HW133926   4.651   0.516   9.556 -0.1249  0.4118  1.6773
 7488SOL    HW233927   4.522   0.459   9.609 -0.3176 -0.1885 -0.9673
 7489SOL     OW33928   2.152   1.240   4.315  0.0261 -1.1045 -0.1279
 7489SOL    HW133929   2.186   1.327   4.296 -0.5815 -0.6767  0.7829
 7489SOL    HW233930   2.225   1.191   4.276  0.9032 -2.2970  2.9913
 7490SOL     OW33931   4.722   4.599   2.552  0.0667  0.1632 -0.1149
 7490SOL    HW133932   0.062   4.609   2.484  0.7947 -1.3703  0.3796
 7490SOL    HW233933   4.715   4.688   2.587  0.3873  0.1682 -0.0593
 7491SOL     OW33934   4.664   1.750   9.110  0.2708  0.1314  0.1650
 7491SOL    HW133935   4.713   1.724   9.032  0.5243 -2.5281  1.2150
 7491SOL    HW233936   4.669   1.671   9.164 -0.2283 -0.1091 -0.1426
 7492SOL     OW33937   3.874   0.249  12.406  0.5419 -0.1817  0.2572
 7492SOL    HW133938   3.881   0.256  12.311  0.0211  1.6967  0.3627
 7492SOL    HW233939   3.803   0.185  12.413  0.0753  0.6034  2.8102
 7493SOL     OW33940   3.672   0.077  15.015  0.4414 -0.3808 -0.4318
 7493SOL    HW133941   3.582   0.063  14.987  1.0389  0.0143 -2.6145
 7493SOL    HW233942   3.721   0.065  14.933 -2.7580  1.9709 -2.6977
 7494SOL     OW33943   2.087   2.584   6.902 -0.0444  0.3783  0.2803
 7494SOL    HW133944   2.026   2.525   6.946 -0.8691  0.5251 -0.6576
 7494SOL    HW233945   2.114   2.652   6.964  0.5665  0.2325  0.1693
 7495SOL     OW33946   4.402   3.017   3.734  0.5062 -0.4743  0.0912
 7495SOL    HW133947   4.362   3.070   3.664  2.6638  0.6292 -0.3014
 7495SOL    HW233948   4.403   2.926   3.705  1.5745 -0.7765  1.1067
 7496SOL     OW33949   0.688   0.297   8.840 -0.7012 -0.5948  0.4709
 7496SOL    HW133950   0.597   0.285   8.811 -0.8042  0.6544  0.2703
 7496SOL    HW233951   0.681   0.337   8.927 -2.7584 -2.2269  1.0706
 7497SOL     OW33952   4.300   2.926   2.697 -0.3754  0.0652 -0.5987
 7497SOL    HW133953   4.268   2.844   2.658  0.0011 -0.1017 -0.5572
 7497SOL    HW233954   4.302   2.897   2.788 -0.8660  0.9526 -0.3123
 7498SOL     OW33955   1.075   3.289   9.204 -0.4369 -0.4378 -0.0794
 7498SOL    HW133956   1.139   3.356   9.180 -1.4091  0.4930 -0.0575
 7498SOL    HW233957   1.127   3.216   9.237  0.8396  1.0626  1.2089
 7499SOL     OW33958   2.487   0.833   6.067  0.3784 -0.8206 -0.4617
 7499SOL    HW133959   2.474   0.791   6.152  0.0535 -0.3210 -0.2650
 7499SOL    HW233960   2.471   0.768   5.998  1.4229 -0.3133 -1.1749
 7500SOL     OW33961   1.409   1.296  13.892  0.3247 -0.1535  0.5958
 7500SOL    HW133962   1.470   1.225  13.873  0.3143 -1.1083  4.0850
 7500SOL    HW233963   1.326   1.255  13.916  0.4703 -0.2332  0.9657
 7501SOL     OW33964   3.276   3.532   7.827 -0.2049 -0.1989  0.1459
 7501SOL    HW133965   3.333   3.516   7.752 -0.8165 -0.3141 -0.2875
 7501SOL    HW233966   3.259   3.626   7.820 -0.8943 -0.4209 -1.1422
 7502SOL     OW33967   2.601   0.522   3.519  0.0072 -0.1383 -0.2154
 7502SOL    HW133968   2.564   0.468   3.589  0.6194  0.9898  0.9935
 7502SOL    HW233969   2.675   0.559   3.567  0.3415 -0.7369 -0.2648
 7503SOL     OW33970   3.199   0.445   2.477 -0.1392  0.0993  0.1037
 7503SOL    HW133971   3.162   0.408   2.557 -0.1240  1.4514  0.7470
 7503SOL    HW233972   3.187   0.374   2.414 -0.9740  0.6637 -0.3703
 7504SOL     OW33973   2.060   2.897   3.104 -0.0038 -0.2854 -0.2137
 7504SOL    HW133974   2.116   2.840   3.051 -0.6629 -1.6778  0.6028
 7504SOL    HW233975   2.107   2.881   3.186 -2.7060  1.8325  1.7452
 7505SOL     OW33976   1.968   4.303   6.705 -0.7566 -0.1007  0.3532
 7505SOL    HW133977   1.899   4.271   6.762 -0.4462  0.4959  1.0692
 7505SOL    HW233978   2.041   4.318   6.765 -0.2777 -0.2995 -0.1789
 7506SOL     OW33979   2.750   2.147  13.609  0.3328 -1.1580  0.5183
 7506SOL    HW133980   2.817   2.140  13.541 -0.5622  1.5593 -0.6406
 7506SOL    HW233981   2.782   2.214  13.669 -0.3427  0.6102 -1.0948
 7507SOL     OW33982   4.565   3.042   8.161 -0.1941  0.0656 -0.5267
 7507SOL    HW133983   4.627   3.055   8.233 -0.2567  1.1159 -0.6584
 7507SOL    HW233984   4.552   2.950   8.184 -0.2233 -0.1220 -1.2798
 7508SOL     OW33985   3.734   1.571   5.739 -0.3782  0.3835  0.6620
 7508SOL    HW133986   3.676   1.647   5.741 -0.1057  0.6171 -0.7215
 7508SOL    HW233987   3.807   1.587   5.799  0.3144 -0.7595  0.1151
 7509SOL     OW33988   4.204   2.509   5.644 -0.0234  0.0096  0.1907
 7509SOL    HW133989   4.289   2.554   5.646 -1.5188  2.8797 -1.8095
 7509SOL    HW233990   4.152   2.571   5.593  0.0200  1.0772  1.4407
 7510SOL     OW33991   1.473   0.402  11.781  0.4038  0.2897  0.5752
 7510SOL    HW133992   1.386   0.377  11.750 -0.0274  1.7540  0.6123
 7510SOL    HW233993   1.469   0.347  11.859 -0.5499 -2.0896 -1.1298
 7511SOL     OW33994   0.450   4.200   7.210  0.0906 -0.0477 -0.1778
 7511SOL    HW133995   0.419   4.277   7.258  2.7319  0.9539 -0.0768
 7511SOL    HW233996   0.539   4.210   7.243 -0.0626  1.3342 -0.1707
 7512SOL     OW33997   0.842   0.863   5.288  0.0837 -0.0105  0.1230
 7512SOL    HW133998   0.805   0.917   5.218  1.1437  0.3788 -0.1336
 7512SOL    HW233999   0.906   0.929   5.314  0.6709 -0.1706 -0.9323
 7513SOL     OW34000   3.366   0.311   9.939  0.0597  0.0007 -0.2451
 7513SOL    HW134001   3.454   0.297   9.974 -0.4791  1.1255  1.5233
 7513SOL    HW234002   3.390   0.380   9.878 -0.5438  0.0309 -0.4542
 7514SOL     OW34003   2.229   4.259   1.040  0.0068  0.1246  0.2583
 7514SOL    HW134004   2.211   4.174   1.001 -1.6823  0.6249 -0.0401
 7514SOL    HW234005   2.325   4.264   1.039  0.0710 -0.7043  1.6427
 7515SOL     OW34006   2.812   3.837   3.331  0.0888 -0.8695 -0.5568
 7515SOL    HW134007   2.883   3.839   3.268  1.5008  1.1884  1.1029
 7515SOL    HW234008   2.788   3.930   3.334  0.8484 -0.7150  1.2376
 7516SOL     OW34009   3.833   3.300  16.913 -0.1591 -0.4538 -0.2957
 7516SOL    HW134010   3.825   3.389  16.948 -0.0014 -0.3080 -0.6273
 7516SOL    HW234011   3.905   3.265  16.966  2.1361  2.4434 -1.5085
 7517SOL     OW34012   2.595   1.927   6.889  0.1510  0.4785 -0.0529
 7517SOL    HW134013   2.593   2.017   6.858 -1.0892  0.9495  1.3832
 7517SOL    HW234014   2.626   1.950   6.976 -0.6260  1.0565  0.0774
 7518SOL     OW34015   4.673   4.206   4.293 -0.0315 -0.1057  0.0017
 7518SOL    HW134016   4.647   4.197   4.201 -0.2732  0.3392  0.0258
 7518SOL    HW234017   0.002   4.129   4.285 -1.0058 -0.9042  0.8284
 7519SOL     OW34018   0.046   0.376   0.816 -0.2885 -0.0871 -0.2258
 7519SOL    HW134019   0.093   0.380   0.900 -0.4949  0.1236 -0.1211
 7519SOL    HW234020   0.003   0.290   0.815  1.3137 -0.9181  1.0552
 7520SOL     OW34021   2.828   3.171   3.092 -0.1389  0.5351  0.1850
 7520SOL    HW134022   2.766   3.110   3.051 -0.8448 -0.4406  2.7501
 7520SOL    HW234023   2.852   3.116   3.166 -1.8493 -0.0287  0.3223
 7521SOL     OW34024   2.276   2.335   3.438 -0.5581 -0.4601  0.0336
 7521SOL    HW134025   2.262   2.258   3.383 -0.0474  1.0078 -2.1545
 7521SOL    HW234026   2.287   2.285   3.519 -2.3497  1.1890  1.2950
 7522SOL     OW34027   0.955   2.043   7.932  0.0387  0.0601  0.2404
 7522SOL    HW134028   1.023   2.049   7.999  0.4231  0.1161 -0.1522
 7522SOL    HW234029   1.004   2.023   7.852  0.1495 -0.1075  0.3502
 7523SOL     OW34030   4.501   1.170   4.569 -0.0488 -0.3283  0.4628
 7523SOL    HW134031   4.551   1.232   4.516  1.1776 -1.1400  0.6812
 7523SOL    HW234032   4.446   1.236   4.611  1.6514  0.3328  1.6433
 7524SOL     OW34033   0.845   4.632   6.354  0.1229 -0.6066  0.1024
 7524SOL    HW134034   0.867   4.650   6.262  1.0391  1.4205  0.7284
 7524SOL    HW234035   0.823   4.539   6.344 -1.4409 -0.3521  1.1512
 7525SOL     OW34036   2.946   1.918   4.772  0.2585  0.6486 -0.2253
 7525SOL    HW134037   3.013   1.985   4.758  1.4058 -0.2634  0.8754
 7525SOL    HW234038   2.912   1.924   4.861  0.1735 -0.9341 -0.1599
 7526SOL     OW34039   0.244   2.569   3.854  0.0033  0.1620 -0.1093
 7526SOL    HW134040   0.232   2.481   3.889  1.4916  0.7454  1.9182
 7526SOL    HW234041   0.268   2.609   3.938 -0.0342  1.1311 -0.5627
 7527SOL     OW34042   0.027   3.926   6.055  0.3725 -0.3626  0.5108
 7527SOL    HW134043   0.023   3.831   6.070  2.1637 -0.0164  2.9970
 7527SOL    HW234044   0.033   3.919   5.959 -0.8574  0.3574  0.3791
 7528SOL     OW34045   0.174   0.211  13.376  0.7306  0.2190 -0.1064
 7528SOL    HW134046   0.168   0.307  13.381 -1.3317  0.0061  1.3580
 7528SOL    HW234047   0.157   0.193  13.283  1.2814  0.6576 -0.2923
 7529SOL     OW34048   0.799   0.418   8.613  0.1458 -0.4100  0.4273
 7529SOL    HW134049   0.765   0.396   8.699 -0.2682  2.2867  0.9443
 7529SOL    HW234050   0.893   0.428   8.631  0.4980 -0.6896 -1.1917
 7530SOL     OW34051   2.898   1.257   3.753 -0.5123 -0.3750 -0.0549
 7530SOL    HW134052   2.964   1.242   3.685 -0.7735  1.0425 -0.6027
 7530SOL    HW234053   2.833   1.189   3.735 -0.3445 -0.4051 -0.5363
 7531SOL     OW34054   3.449   1.933  15.331 -0.2929 -0.6439 -0.2791
 7531SOL    HW134055   3.444   1.882  15.411  3.4952  2.4419  1.8940
 7531SOL    HW234056   3.363   1.916  15.291 -1.1860  2.8256  0.1154
 7532SOL     OW34057   4.036   3.782   2.324 -0.3227  0.1724  0.0345
 7532SOL    HW134058   4.031   3.716   2.254  0.7579  1.4742 -1.2862
 7532SOL    HW234059   4.121   3.822   2.304  0.6318 -1.7047  0.3069
 7533SOL     OW34060   0.049   3.479  16.062  0.0807 -0.5309  0.1946
 7533SOL    HW134061   0.026   3.497  15.971  1.5175  1.6181  0.2549
 7533SOL    HW234062   0.144   3.474  16.068  0.1589  0.8272  0.2930
 7534SOL     OW34063   1.228   3.589   7.969 -0.3492 -0.4480  0.0457
 7534SOL    HW134064   1.248   3.536   8.046  0.1242  0.2169  0.3786
 7534SOL    HW234065   1.180   3.666   8.000 -0.3877 -0.1511 -0.7607
 7535SOL     OW34066   0.067   2.076   7.701 -0.6785 -0.0197 -0.0563
 7535SOL    HW134067   4.699   2.073   7.707 -0.5953 -2.5940  0.1089
 7535SOL    HW234068   0.089   2.053   7.791  1.1949 -2.2166 -1.0753
 7536SOL     OW34069   0.329   1.057   2.471  0.2026 -0.5694 -0.5699
 7536SOL    HW134070   0.343   0.991   2.403 -0.6011 -0.6783 -0.6233
 7536SOL    HW234071   0.368   1.136   2.433 -2.0066 -0.0768 -1.7918
 7537SOL     OW34072   0.484   4.556   4.055  0.2579  0.0255  0.2919
 7537SOL    HW134073   0.509   4.645   4.030  0.5295 -0.0708  0.2206
 7537SOL    HW234074   0.442   4.575   4.139  3.4128  0.9466  1.6496
 7538SOL     OW34075   3.465   2.524   2.716 -0.4997 -0.2885 -0.1918
 7538SOL    HW134076   3.429   2.612   2.726  0.1329  0.0042 -0.4572
 7538SOL    HW234077   3.439   2.508   2.626 -1.3366 -0.7267  0.1292
 7539SOL     OW34078   0.600   1.983   2.525  0.2461 -0.7112 -0.4953
 7539SOL    HW134079   0.579   1.905   2.576 -1.2595 -0.6997 -1.1052
 7539SOL    HW234080   0.558   1.958   2.442 -1.5550 -1.4831  0.6551
 7540SOL     OW34081   3.475   1.416   5.580  0.2670 -0.0195  0.5509
 7540SOL    HW134082   3.519   1.489   5.537  0.0681  0.3873  1.0376
 7540SOL    HW234083   3.501   1.345   5.521  0.7174 -0.0974  0.8417
 7541SOL     OW34084   0.423   3.726   6.659 -0.8694  0.4276 -0.0828
 7541SOL    HW134085   0.353   3.788   6.679 -0.4452  0.4045  1.4499
 7541SOL    HW234086   0.369   3.647   6.654 -0.2398 -0.0125  0.0424
 7542SOL     OW34087   3.049   1.527  16.634  0.2263 -0.1412  0.1565
 7542SOL    HW134088   3.055   1.437  16.604 -2.0191 -0.3855  0.4054
 7542SOL    HW234089   2.959   1.533  16.668 -0.2586 -1.8980 -0.8349
 7543SOL     OW34090   1.682   3.402   1.015  0.0195 -0.5094  0.4218
 7543SOL    HW134091   1.724   3.487   1.029 -0.5458  0.2566 -2.5722
 7543SOL    HW234092   1.728   3.366   0.939  1.1203  1.4785  0.1605
 7544SOL     OW34093   1.959   0.331   8.834 -0.2969 -0.4384  0.5655
 7544SOL    HW134094   1.947   0.417   8.794  0.7868 -0.7993 -0.5126
 7544SOL    HW234095   2.054   0.327   8.842 -0.2305  0.5107  0.2624
 7545SOL     OW34096   4.057   3.429   7.303  0.4009  0.4595 -0.2490
 7545SOL    HW134097   4.056   3.408   7.210 -0.8302  0.7815 -0.3109
 7545SOL    HW234098   4.010   3.352   7.336  1.7578  0.0148  0.6363
 7546SOL     OW34099   3.865   2.631   4.550 -0.2608 -0.2378  0.4796
 7546SOL    HW134100   3.786   2.584   4.578 -1.9926  2.0107 -0.6087
 7546SOL    HW234101   3.820   2.704   4.507  0.6956  0.3844  0.5236
 7547SOL     OW34102   4.296   2.781   7.497  0.7823 -0.8286 -0.5033
 7547SOL    HW134103   4.291   2.817   7.409  0.2982 -2.0227 -0.9733
 7547SOL    HW234104   4.370   2.720   7.493  0.9913 -0.6197  0.1769
 7548SOL     OW34105   1.561   4.079  11.774 -0.0272  0.4641  0.2285
 7548SOL    HW134106   1.645   4.064  11.730 -0.6959 -3.7554  0.4225
 7548SOL    HW234107   1.544   3.999  11.824 -0.5948  0.5448  0.1694
 7549SOL     OW34108   1.379   0.832   7.909 -0.0206  0.1734  0.3375
 7549SOL    HW134109   1.419   0.791   7.832  0.9392  1.6861  0.0325
 7549SOL    HW234110   1.426   0.915   7.913  1.2597 -0.5973  1.2167
 7550SOL     OW34111   3.011   1.889   3.661 -0.8098 -0.5750 -0.0702
 7550SOL    HW134112   2.976   1.898   3.572 -0.1180 -3.9126 -0.6918
 7550SOL    HW234113   3.013   1.794   3.678 -0.4877 -0.8777 -1.7926
 7551SOL     OW34114   1.985   2.681   4.697 -0.7812  0.3273  0.0948
 7551SOL    HW134115   2.015   2.662   4.785  1.6633  1.0724 -0.5780
 7551SOL    HW234116   1.968   2.591   4.670  0.3787 -0.1102  0.8401
 7552SOL     OW34117   2.405   2.443  15.038  0.2367  0.1398 -0.0542
 7552SOL    HW134118   2.479   2.384  15.024  0.1779  0.2687 -0.9347
 7552SOL    HW234119   2.328   2.389  15.023  1.4364 -1.6593  0.2618
 7553SOL     OW34120   1.902   4.683  14.982 -0.2974 -0.3683 -1.0021
 7553SOL    HW134121   1.973   4.627  15.013  0.9198 -0.8672 -4.7007
 7553SOL    HW234122   1.835   4.619  15.004 -1.0825  0.6857 -0.3193
 7554SOL     OW34123   4.440   1.778   4.146  0.6107  0.1494 -0.3617
 7554SOL    HW134124   4.527   1.775   4.107  0.5226  0.4754 -0.5860
 7554SOL    HW234125   4.439   1.847   4.213  0.3489  0.3291 -0.5518
 7555SOL     OW34126   4.644   0.517   5.988 -0.1571  0.0567 -0.5693
 7555SOL    HW134127   4.585   0.519   5.913  0.9648 -1.6616 -1.4915
 7555SOL    HW234128   4.592   0.530   6.068  3.6114 -0.7822  2.0379
 7556SOL     OW34129   0.169   0.525   4.315  0.0118 -0.0015  0.4903
 7556SOL    HW134130   0.191   0.613   4.286 -0.2311 -0.9355 -2.5171
 7556SOL    HW234131   0.199   0.524   4.406 -1.6381  0.4204  1.0446
 7557SOL     OW34132   3.981   0.272  17.562 -0.1395  0.3225  0.2966
 7557SOL    HW134133   3.976   0.195  17.505 -2.8068 -0.7436  2.0097
 7557SOL    HW234134   4.059   0.238  17.606 -0.3314 -1.1486 -0.5301
 7558SOL     OW34135   0.702   0.861   7.074  0.1339  0.1399  0.0710
 7558SOL    HW134136   0.662   0.909   7.001  0.3733 -0.6870 -0.5884
 7558SOL    HW234137   0.718   0.925   7.144  0.3862 -0.7870  0.8561
 7559SOL     OW34138   3.307   1.319  17.649  0.7575  0.1866 -0.0153
 7559SOL    HW134139   3.358   1.259  17.704 -1.2471 -0.5065  1.0909
 7559SOL    HW234140   3.359   1.399  17.654  0.7257  0.2303 -0.4296
 7560SOL     OW34141   2.898   1.731   8.429  0.4685  0.1887  1.1638
 7560SOL    HW134142   2.843   1.787   8.484  0.3578  1.6868 -0.4794
 7560SOL    HW234143   2.922   1.789   8.357 -1.1404 -1.9765 -1.1323
 7561SOL     OW34144   3.291   1.210   5.270  0.2962 -0.2246 -0.0533
 7561SOL    HW134145   3.200   1.237   5.283  1.0792  1.9566  0.9095
 7561SOL    HW234146   3.332   1.214   5.357  0.0919  4.0910 -0.1311
 7562SOL     OW34147   1.709   3.232   4.316  0.2927 -0.0777  0.1397
 7562SOL    HW134148   1.626   3.189   4.301  0.9620 -1.8920  1.7061
 7562SOL    HW234149   1.770   3.169   4.278  0.5476  0.1173  0.2202
 7563SOL     OW34150   2.350   3.072   7.879  0.6093 -0.0366 -0.1133
 7563SOL    HW134151   2.278   3.021   7.841 -1.5281  2.2257  0.9526
 7563SOL    HW234152   2.301   3.153   7.869  1.2554  0.2086 -1.2738
 7564SOL     OW34153   4.534   4.293   8.410  0.1424 -0.2245 -0.2715
 7564SOL    HW134154   4.551   4.224   8.474  0.4284  0.1251  0.0232
 7564SOL    HW234155   4.491   4.244   8.340 -0.6006  0.4910 -0.3097
 7565SOL     OW34156   1.400   4.688   8.687  0.5281  0.4721  0.1436
 7565SOL    HW134157   1.378   4.720   8.774  0.6810  2.1486 -0.4409
 7565SOL    HW234158   1.389   0.043   8.640  1.2073  1.4422  1.6710
 7566SOL     OW34159   4.216   2.952   8.257 -0.1033  0.5043 -0.0634
 7566SOL    HW134160   4.167   2.912   8.185  2.3433 -1.1126 -0.8492
 7566SOL    HW234161   4.149   2.957   8.325 -0.4313 -1.3483 -0.2544
 7567SOL     OW34162   0.923   2.315   4.804 -0.4513 -0.8836 -0.3417
 7567SOL    HW134163   0.829   2.324   4.821 -0.8451 -3.0630 -1.2759
 7567SOL    HW234164   0.917   2.244   4.740 -1.0020 -1.2714  0.1298
 7568SOL     OW34165   3.637   0.921   5.509  0.2313  0.5385  0.1263
 7568SOL    HW134166   3.554   0.876   5.521  1.0173 -0.5983  1.2552
 7568SOL    HW234167   3.702   0.856   5.485 -0.0437  1.0772 -2.0917
 7569SOL     OW34168   0.309   1.704   5.398  0.4924  1.2754  0.1084
 7569SOL    HW134169   0.383   1.750   5.358 -0.4607  1.6565 -1.2043
 7569SOL    HW234170   0.256   1.693   5.320 -0.2459 -1.3434  0.9703
 7570SOL     OW34171   0.768   0.120   7.545  0.0066 -0.2197 -0.1700
 7570SOL    HW134172   0.673   0.127   7.555  0.2452 -0.0188  1.8585
 7570SOL    HW234173   0.778   0.180   7.471  0.8195  0.6326  0.6298
 7571SOL     OW34174   0.574   0.272  13.292 -0.5471 -0.2255 -0.2452
 7571SOL    HW134175   0.588   0.278  13.198 -0.2779  0.4226 -0.1649
 7571SOL    HW234176   0.547   0.361  13.316  0.5427  0.1038 -0.2395
 7572SOL     OW34177   2.079   4.240   5.852  0.0779 -0.1597 -0.4679
 7572SOL    HW134178   2.159   4.189   5.841  0.9758  1.3532 -0.9177
 7572SOL    HW234179   2.017   4.189   5.799 -0.6997  0.7881 -0.4785
 7573SOL     OW34180   3.953   4.501   2.156 -0.2482 -0.4344  0.1821
 7573SOL    HW134181   3.888   4.493   2.226 -0.0407 -0.3386  0.3887
 7573SOL    HW234182   4.027   4.468   2.209  0.8706  0.0430 -1.0900
 7574SOL     OW34183   3.211   1.602  14.665  0.1739 -0.1823 -0.5468
 7574SOL    HW134184   3.240   1.659  14.594  0.7911  1.0869  0.7258
 7574SOL    HW234185   3.118   1.622  14.654 -0.5318 -2.1987  1.5799
 7575SOL     OW34186   2.313   1.942   5.795 -0.5057 -0.2058 -0.1169
 7575SOL    HW134187   2.336   1.971   5.883 -1.1102  1.2094 -0.4356
 7575SOL    HW234188   2.366   1.863   5.779  2.7523  1.5464  1.9826
 7576SOL     OW34189   2.553   2.660   4.026 -0.1595  0.2168  0.3150
 7576SOL    HW134190   2.524   2.617   3.946  1.0976 -1.0805  0.5591
 7576SOL    HW234191   2.613   2.588   4.046  0.5734  1.0006  0.9181
 7577SOL     OW34192   1.484   0.820   1.961 -0.2227  0.1262  0.3220
 7577SOL    HW134193   1.523   0.739   1.927 -1.5625 -0.3533 -0.0783
 7577SOL    HW234194   1.552   0.887   1.954 -2.1251  1.8172 -1.7872
 7578SOL     OW34195   2.803   2.268   4.425 -0.1575 -0.4278 -0.3810
 7578SOL    HW134196   2.730   2.315   4.467 -0.4010 -0.6750 -0.5304
 7578SOL    HW234197   2.875   2.307   4.474  0.1289  0.8052 -1.8017
 7579SOL     OW34198   3.149   2.529   5.610 -0.0811 -0.4675 -0.2468
 7579SOL    HW134199   3.120   2.443   5.580 -0.8821 -0.4013  0.3452
 7579SOL    HW234200   3.244   2.515   5.614  0.1184  0.9265  0.0630
 7580SOL     OW34201   3.807   3.938   3.949 -0.1746  0.5219 -0.0298
 7580SOL    HW134202   3.721   3.936   3.992  0.2612  0.2729  0.8292
 7580SOL    HW234203   3.808   3.874   3.878  2.0449 -0.1756  0.6253
 7581SOL     OW34204   4.429   0.930  12.420  0.1046  0.1040  0.6846
 7581SOL    HW134205   4.508   0.963  12.461 -0.4077  1.6471  0.4413
 7581SOL    HW234206   4.365   0.928  12.491 -0.6250  0.2815  0.0359
 7582SOL     OW34207   0.524   4.284   5.175  0.4029 -0.6046  0.0071
 7582SOL    HW134208   0.554   4.298   5.085  1.1985  1.4284  0.6013
 7582SOL    HW234209   0.587   4.215   5.198  1.5461 -0.3069 -2.2148
 7583SOL     OW34210   4.401   3.739   8.430 -0.0073  0.0399 -0.3286
 7583SOL    HW134211   4.456   3.756   8.353  0.4801  0.2077  0.0613
 7583SOL    HW234212   4.401   3.643   8.426  0.1471  0.0535 -0.6475
 7584SOL     OW34213   1.972   0.272   8.031  0.0688  0.0226  0.3569
 7584SOL    HW134214   1.896   0.256   7.976  0.8966  0.7204 -0.9982
 7584SOL    HW234215   1.967   0.366   8.048  0.0274  0.4222 -1.7791
 7585SOL     OW34216   1.017   3.421   2.239  0.4664  0.5269 -0.3443
 7585SOL    HW134217   1.006   3.454   2.150  1.9219  0.2659 -0.6198
 7585SOL    HW234218   0.962   3.486   2.282  1.9111  2.7583 -1.9048
 7586SOL     OW34219   2.835   3.311   2.529  0.1984  0.1501  0.1178
 7586SOL    HW134220   2.912   3.291   2.476 -0.4926  0.4993 -1.0179
 7586SOL    HW234221   2.872   3.384   2.578  0.1007  1.2505 -1.4521
 7587SOL     OW34222   4.459   4.090   6.947 -0.5485  0.5568  0.1052
 7587SOL    HW134223   4.533   4.075   7.006 -0.8368  2.7028  1.0117
 7587SOL    HW234224   4.482   4.158   6.885 -3.6638  1.3405 -0.1868
 7588SOL     OW34225   2.659   0.801   8.518  0.0378  0.4118 -0.0414
 7588SOL    HW134226   2.634   0.828   8.429  1.8755 -2.5401 -1.4743
 7588SOL    HW234227   2.676   0.709   8.497 -0.7192 -0.2961  2.5508
 7589SOL     OW34228   0.458   1.776   0.973 -0.6054  0.1178  0.1049
 7589SOL    HW134229   0.394   1.709   0.998  1.1306 -1.4295  0.4023
 7589SOL    HW234230   0.541   1.729   0.972 -1.4516 -1.3759 -1.3600
 7590SOL     OW34231   3.021   0.630  11.868 -0.1724 -0.4955 -0.2695
 7590SOL    HW134232   3.074   0.555  11.841  0.8552  0.1165  0.0390
 7590SOL    HW234233   2.964   0.591  11.934 -1.1373  1.3317 -0.0403
 7591SOL     OW34234   2.566   3.864   4.842 -0.4277  0.2153 -0.0420
 7591SOL    HW134235   2.559   3.800   4.912  3.1564 -0.1597 -0.0184
 7591SOL    HW234236   2.632   3.819   4.789  3.4476  1.6215  3.5859
 7592SOL     OW34237   3.570   4.708   2.341 -0.1770  0.0840  0.8607
 7592SOL    HW134238   3.542   4.621   2.315  0.6959 -0.6203  2.3000
 7592SOL    HW234239   3.569   0.034   2.262  1.1690 -0.1164  0.7161
 7593SOL     OW34240   0.890   4.462   9.129  0.1738  0.2762  0.0729
 7593SOL    HW134241   0.901   4.516   9.051 -0.3437 -0.6780 -0.6509
 7593SOL    HW234242   0.982   4.451   9.152 -0.2585 -0.2846  1.5150
 7594SOL     OW34243   3.832   0.452   8.011  0.0883 -0.0512  0.0966
 7594SOL    HW134244   3.891   0.386   8.045 -1.6392 -0.6300  1.9708
 7594SOL    HW234245   3.869   0.464   7.924 -4.8238 -1.1676 -2.1499
 7595SOL     OW34246   0.725   0.909   5.995 -0.1324  0.1069 -0.2680
 7595SOL    HW134247   0.679   0.987   5.965  1.1938  0.4629 -1.3642
 7595SOL    HW234248   0.752   0.879   5.908  0.0826 -1.7904  0.4387
 7596SOL     OW34249   4.289   3.314   5.509  0.1303  0.1942 -0.0163
 7596SOL    HW134250   4.221   3.257   5.473 -1.8207  2.6710 -0.2264
 7596SOL    HW234251   4.274   3.390   5.454 -0.0094  1.4365  1.7330
 7597SOL     OW34252   4.090   3.669  13.048  0.0723  0.1650  0.3330
 7597SOL    HW134253   4.069   3.654  12.956  0.0076  0.3747  0.3136
 7597SOL    HW234254   4.159   3.605  13.064  0.3996  0.4537  0.0708
 7598SOL     OW34255   1.914   1.888   6.883 -0.1785  0.2048 -0.1866
 7598SOL    HW134256   1.896   1.880   6.790  0.1274  1.8164 -0.3925
 7598SOL    HW234257   1.948   1.978   6.885  3.4789 -1.1600 -2.1385
 7599SOL     OW34258   3.404   4.092   4.002 -0.1343  0.4721  0.0742
 7599SOL    HW134259   3.343   4.148   3.954 -2.7351 -0.4303  2.3134
 7599SOL    HW234260   3.478   4.152   4.009 -1.5264  1.9716  2.1730
 7600SOL     OW34261   1.922   3.268  11.526  0.1224 -0.0085  0.6184
 7600SOL    HW134262   1.919   3.176  11.552 -0.0510 -0.6232 -1.5567
 7600SOL    HW234263   1.839   3.266  11.479 -0.0321 -1.8382  0.9500
 7601SOL     OW34264   3.884   1.890  15.075 -0.1827  0.7141 -0.2919
 7601SOL    HW134265   3.873   1.898  15.170 -0.9945 -0.5888 -0.2785
 7601SOL    HW234266   3.800   1.917  15.039 -0.3158 -0.0088 -0.5220
 7602SOL     OW34267   1.580   2.477  12.367 -0.4552 -0.6450  0.2450
 7602SOL    HW134268   1.592   2.454  12.275  1.6696  2.4446 -0.2460
 7602SOL    HW234269   1.645   2.545  12.380 -2.9043  1.2685  2.4872
 7603SOL     OW34270   3.276   4.666   8.476 -0.0541  0.2758  0.1072
 7603SOL    HW134271   3.289   4.647   8.569 -1.6970 -0.7217  0.1203
 7603SOL    HW234272   3.200   4.609   8.471 -0.2811  0.6834 -1.0781
 7604SOL     OW34273   4.607   3.636   3.655 -0.1562 -0.4240 -0.0759
 7604SOL    HW134274   4.612   3.699   3.727  0.4970 -0.9842  0.3638
 7604SOL    HW234275   4.674   3.580   3.694  2.0461  1.6644 -0.8420
 7605SOL     OW34276   0.507   0.295   3.391 -0.1069  0.3828  0.9955
 7605SOL    HW134277   0.532   0.382   3.420 -0.5020  0.6645  0.5022
 7605SOL    HW234278   0.416   0.319   3.371  1.1015  2.1676 -2.4140
 7606SOL     OW34279   4.226   4.682   7.062  0.1426  0.4276 -0.2225
 7606SOL    HW134280   4.316   4.698   7.032 -0.8504  1.7215 -2.5071
 7606SOL    HW234281   4.251   4.641   7.145  1.3075  0.1782 -0.6923
 7607SOL     OW34282   4.299   2.573  16.555 -0.2500  0.0803 -0.1166
 7607SOL    HW134283   4.331   2.505  16.615 -2.3903 -0.3909  0.5204
 7607SOL    HW234284   4.294   2.529  16.470 -1.6195  2.3184 -1.1870
 7608SOL     OW34285   0.138   0.022   2.328  0.0071 -0.3189 -0.5655
 7608SOL    HW134286   0.068   4.699   2.287  0.8771 -0.6786 -1.6112
 7608SOL    HW234287   0.167   0.090   2.267 -2.6003  1.1628 -0.1518
 7609SOL     OW34288   0.225   1.912   6.564 -0.6555 -0.0428 -0.4585
 7609SOL    HW134289   0.258   1.855   6.495 -1.5934 -0.0599 -0.8890
 7609SOL    HW234290   0.137   1.878   6.580 -0.2008 -0.5822  0.9122
 7610SOL     OW34291   1.591   3.292  14.803 -0.1223 -0.3929 -0.0701
 7610SOL    HW134292   1.663   3.233  14.825  0.1944  0.8396  2.1978
 7610SOL    HW234293   1.518   3.247  14.845  1.6263 -2.4291  0.7624
 7611SOL     OW34294   3.467   1.886   9.245  0.1256 -0.1045 -0.4846
 7611SOL    HW134295   3.484   1.943   9.321  0.9914 -2.0855  0.7939
 7611SOL    HW234296   3.442   1.956   9.184 -0.7999 -0.0541 -0.0591
 7612SOL     OW34297   1.231   1.848   1.057  0.1198  0.0919  0.3118
 7612SOL    HW134298   1.208   1.854   1.149  1.5752 -1.1203  0.7588
 7612SOL    HW234299   1.258   1.758   1.036 -0.0448  0.8878 -3.3914
 7613SOL     OW34300   3.242   3.261   7.718 -0.4804 -0.3172  0.3793
 7613SOL    HW134301   3.152   3.290   7.701 -0.3173  0.3205  0.5978
 7613SOL    HW234302   3.283   3.251   7.633 -1.4615 -2.5076  0.1709
 7614SOL     OW34303   2.231   4.349   8.921 -0.2361  0.6046 -0.2079
 7614SOL    HW134304   2.140   4.358   8.950 -0.7945  0.2615 -1.8259
 7614SOL    HW234305   2.233   4.428   8.866 -0.6467  0.3324 -0.6188
 7615SOL     OW34306   4.681   4.513   7.729  0.1540  0.0532  0.4176
 7615SOL    HW134307   4.648   4.450   7.792  1.4297 -1.0116  0.0073
 7615SOL    HW234308   0.030   4.521   7.786  1.3074  0.5486 -1.1955
 7616SOL     OW34309   3.739   0.400  17.589 -0.3524  0.0723 -0.0721
 7616SOL    HW134310   3.829   0.378  17.565 -0.6715 -1.1901 -0.1461
 7616SOL    HW234311   3.685   0.334  17.546  0.0970 -0.2496 -0.1412
 7617SOL     OW34312   2.204   0.919   9.024  0.4647  0.3194  0.2680
 7617SOL    HW134313   2.237   0.996   8.979 -1.8947  1.0402 -0.2543
 7617SOL    HW234314   2.210   0.850   8.958 -2.7393  0.2966 -0.0288
 7618SOL     OW34315   0.321   0.681   6.547 -0.3367  0.4324  0.2075
 7618SOL    HW134316   0.293   0.607   6.493 -0.1680 -1.0159  2.1033
 7618SOL    HW234317   0.414   0.663   6.538 -0.4569  0.1918 -0.5589
 7619SOL     OW34318   1.522   2.271  12.771 -0.1381 -0.9470 -0.0343
 7619SOL    HW134319   1.485   2.356  12.749 -0.1237 -0.8173  0.4443
 7619SOL    HW234320   1.595   2.271  12.709  0.1984  0.4330  0.3614
 7620SOL     OW34321   0.518   3.619   4.890  0.5777 -0.6368 -0.4493
 7620SOL    HW134322   0.519   3.631   4.795 -0.5743  1.9838 -0.1536
 7620SOL    HW234323   0.539   3.527   4.904 -0.8086 -0.8797  0.0106
 7621SOL     OW34324   0.282   4.608   7.583 -0.0513 -0.1054 -0.1177
 7621SOL    HW134325   0.314   4.518   7.595 -0.4259 -0.5157 -2.1407
 7621SOL    HW234326   0.264   4.629   7.675  3.7798  0.6492  0.4500
 7622SOL     OW34327   3.494   1.134   0.684  0.3011  0.7359 -0.5008
 7622SOL    HW134328   3.463   1.195   0.617  1.2709  0.4674 -1.2072
 7622SOL    HW234329   3.426   1.066   0.682  0.8559  0.2588 -3.5259
 7623SOL     OW34330   2.139   1.244   5.030  0.6584  0.6051  0.0741
 7623SOL    HW134331   2.108   1.243   4.940 -2.0362 -0.7292  0.9993
 7623SOL    HW234332   2.067   1.213   5.085  2.0608 -2.3792  0.2116
 7624SOL     OW34333   1.983   2.923   6.117 -0.6599 -0.1451 -0.0086
 7624SOL    HW134334   2.005   2.846   6.170 -0.6111 -0.9973 -1.2534
 7624SOL    HW234335   1.888   2.924   6.124 -0.6608  0.4456 -0.1476
 7625SOL     OW34336   4.039   2.070  13.368 -0.1974  0.2636 -0.0058
 7625SOL    HW134337   4.040   2.046  13.275  1.2876 -1.7132  0.5321
 7625SOL    HW234338   4.106   2.139  13.365 -0.1717  0.4119  4.2269
 7626SOL     OW34339   3.772   2.401   4.162 -0.6620 -0.2876 -0.1377
 7626SOL    HW134340   3.686   2.365   4.185  0.0186 -1.6728  0.2545
 7626SOL    HW234341   3.823   2.354   4.228 -2.7795 -1.6663  0.5537
 7627SOL     OW34342   0.230   2.389  17.399  0.0934 -0.7580  0.0675
 7627SOL    HW134343   0.292   2.361  17.466  0.1724 -3.6673 -1.2143
 7627SOL    HW234344   0.165   2.437  17.449  0.6915  0.1037  0.0136
 7628SOL     OW34345   1.449   4.616  12.630 -0.2773  0.0871  0.2893
 7628SOL    HW134346   1.475   4.696  12.677  2.4386 -0.6704  0.0368
 7628SOL    HW234347   1.523   4.558  12.647 -2.6048 -3.3532 -1.2928
 7629SOL     OW34348   0.972   2.350  16.187  0.3332  0.4220 -0.2536
 7629SOL    HW134349   1.042   2.377  16.246  0.3182  0.8741 -0.4412
 7629SOL    HW234350   0.941   2.434  16.154  0.7008  0.9017  0.6353
 7630SOL     OW34351   1.488   3.698   4.154 -0.5893 -0.7569  0.1444
 7630SOL    HW134352   1.503   3.642   4.231 -0.2897  0.1298  0.7329
 7630SOL    HW234353   1.444   3.773   4.194  0.8737  0.7880 -1.1814
 7631SOL     OW34354   4.202   4.599   5.917 -0.2844  0.2042  0.0981
 7631SOL    HW134355   4.113   4.599   5.953 -0.5625  0.4942 -0.5808
 7631SOL    HW234356   4.188   4.668   5.852  1.1828  0.6499  0.2681
 7632SOL     OW34357   0.431   3.373   8.842  0.3362  0.5059  0.9721
 7632SOL    HW134358   0.349   3.346   8.800  0.3820  2.2068 -0.2713
 7632SOL    HW234359   0.502   3.319   8.809  1.5091  0.9396  2.8501
 7633SOL     OW34360   4.243   1.654   6.131 -0.6970  0.3956  0.3730
 7633SOL    HW134361   4.282   1.590   6.071  0.0395  0.6240  0.6172
 7633SOL    HW234362   4.211   1.718   6.067 -0.4207  1.9673  1.8198
 7634SOL     OW34363   2.509   4.594  15.918 -0.3595 -0.2419  0.0079
 7634SOL    HW134364   2.540   4.631  16.001 -0.6949 -0.1305  0.0856
 7634SOL    HW234365   2.523   4.502  15.940 -2.3231 -0.4228  0.5550
 7635SOL     OW34366   2.529   1.272  11.096 -0.9136  0.3873 -0.0124
 7635SOL    HW134367   2.437   1.297  11.095 -1.0628 -0.2207 -1.1563
 7635SOL    HW234368   2.572   1.358  11.101  0.4172 -0.2144 -0.9922
 7636SOL     OW34369   2.474   3.726   9.912  0.0250  0.3735  0.5703
 7636SOL    HW134370   2.428   3.680   9.982 -1.2517 -1.4117 -1.4479
 7636SOL    HW234371   2.564   3.722   9.944  0.0644 -1.0304  0.2727
 7637SOL     OW34372   2.705   3.198   5.674 -0.2521 -1.0699 -0.6813
 7637SOL    HW134373   2.775   3.149   5.717 -0.8221 -1.1100  0.1899
 7637SOL    HW234374   2.744   3.276   5.636  0.6074 -0.5096  1.3442
 7638SOL     OW34375   3.634   0.910   9.345 -0.8311 -0.5048  0.3806
 7638SOL    HW134376   3.687   0.885   9.422 -2.4802  0.7308  1.9140
 7638SOL    HW234377   3.654   1.003   9.339 -0.3077 -0.5360  1.5017
 7639SOL     OW34378   0.504   0.672  10.257  0.3609  0.1357  0.0029
 7639SOL    HW134379   0.494   0.757  10.213 -0.3444  1.1888  2.2493
 7639SOL    HW234380   0.468   0.697  10.342  4.5534  2.7146  1.0486
 7640SOL     OW34381   4.386   0.118   4.793  0.0481 -0.2213 -0.5984
 7640SOL    HW134382   4.404   0.100   4.700 -2.1212  0.8707 -1.2319
 7640SOL    HW234383   4.469   0.152   4.825 -0.1751 -2.0745  1.8811
 7641SOL     OW34384   1.546   3.685   7.042 -0.1773  0.0687 -0.5316
 7641SOL    HW134385   1.547   3.712   6.950  2.1783  0.5545 -0.3566
 7641SOL    HW234386   1.451   3.686   7.055 -0.2149  0.0801 -0.8142
 7642SOL     OW34387   3.646   3.936   5.847 -0.0246  0.2567 -0.3506
 7642SOL    HW134388   3.740   3.929   5.862  0.2521  0.9376 -1.7816
 7642SOL    HW234389   3.623   3.843   5.851 -1.0153  0.5087 -0.3192
 7643SOL     OW34390   0.738   0.217   4.656  0.3065 -0.0541 -0.0787
 7643SOL    HW134391   0.664   0.156   4.644  0.3677  0.2948 -2.2032
 7643SOL    HW234392   0.761   0.238   4.566  1.5302  1.2533  0.5411
 7644SOL     OW34393   1.730   3.538   0.682  0.7275  0.1958  0.0930
 7644SOL    HW134394   1.770   3.461   0.722 -0.5780 -1.2106 -1.3402
 7644SOL    HW234395   1.794   3.606   0.705  1.2108 -0.2964  0.2022
 7645SOL     OW34396   3.212   4.667   6.367 -0.4319 -0.0123  0.0578
 7645SOL    HW134397   3.226   4.640   6.277 -0.4002 -2.3014  0.7299
 7645SOL    HW234398   3.117   4.654   6.377 -0.3154 -0.0671  1.1767
 7646SOL     OW34399   3.492   0.358   3.261  0.3348  0.5572  0.3076
 7646SOL    HW134400   3.502   0.293   3.331  2.4348  2.0871  1.4514
 7646SOL    HW234401   3.580   0.397   3.266  0.1361  0.6978  2.6283
 7647SOL     OW34402   0.554   4.557   6.624 -0.6466 -0.0813 -0.2930
 7647SOL    HW134403   0.525   4.626   6.564 -0.2395  0.0824 -0.2983
 7647SOL    HW234404   0.589   4.488   6.567  1.9072  1.8220 -1.0299
 7648SOL     OW34405   2.154   3.241  16.937 -0.9731  0.1813  0.2133
 7648SOL    HW134406   2.244   3.215  16.918 -0.7004  1.1505  0.1814
 7648SOL    HW234407   2.107   3.158  16.947 -0.7691 -0.0136 -0.4669
 7649SOL     OW34408   4.618   2.252   0.270 -0.4524  0.1755 -0.0834
 7649SOL    HW134409   4.709   2.268   0.296 -0.8227  1.1643  0.6040
 7649SOL    HW234410   4.622   2.237   0.176  0.5078 -1.8867  0.2695
 7650SOL     OW34411   3.858   2.138   3.999  0.0348 -0.3355 -0.2061
 7650SOL    HW134412   3.838   2.183   3.918 -2.5108  0.4966  0.9034
 7650SOL    HW234413   3.952   2.121   3.993 -0.7772 -3.9122 -2.7555
 7651SOL     OW34414   1.155   2.021   4.838  0.1090  0.4297 -0.3296
 7651SOL    HW134415   1.241   2.018   4.880  0.6433 -1.9231 -1.5827
 7651SOL    HW234416   1.089   2.016   4.907 -0.6059  0.0611 -1.0430
 7652SOL     OW34417   4.358   0.656  12.771 -0.2847  0.4554  0.1516
 7652SOL    HW134418   4.430   0.636  12.711 -1.5586  0.0795 -1.2574
 7652SOL    HW234419   4.403   0.630  12.851  0.8289  1.1803 -0.2420
 7653SOL     OW34420   4.110   2.756  13.471  0.6142  0.3332 -0.5414
 7653SOL    HW134421   4.135   2.695  13.402 -1.4715  0.0302 -1.0289
 7653SOL    HW234422   4.026   2.785  13.435 -1.7204 -1.1664  3.6042
 7654SOL     OW34423   0.145   2.088   6.295  0.0840 -0.7017  0.3542
 7654SOL    HW134424   0.193   2.071   6.214  1.8074 -3.5545  1.9586
 7654SOL    HW234425   0.193   2.032   6.357  0.2323 -0.7541  0.1927
 7655SOL     OW34426   2.925   0.144   9.782  0.2521  0.4966  0.1771
 7655SOL    HW134427   2.947   0.053   9.803 -1.1872  0.2160  0.5241
 7655SOL    HW234428   2.991   0.186   9.836 -1.5429 -0.8233  3.4160
 7656SOL     OW34429   3.831   0.063   3.721  0.3640 -0.2081  0.5954
 7656SOL    HW134430   3.815   0.025   3.807 -0.3146 -0.2606  0.4476
 7656SOL    HW234431   3.820   4.722   3.655  1.9519  2.3308 -2.3251
 7657SOL     OW34432   0.639   0.361   4.879  0.4936 -0.5095  0.2748
 7657SOL    HW134433   0.693   0.307   4.822 -0.5955 -0.3771 -0.8939
 7657SOL    HW234434   0.699   0.435   4.890 -0.5516  0.1226  1.6620
 7658SOL     OW34435   0.130   0.425   5.328  0.5829 -0.2904 -0.0814
 7658SOL    HW134436   0.191   0.464   5.266 -1.2754 -1.9776 -2.9529
 7658SOL    HW234437   0.181   0.346   5.348 -2.0537 -2.0860 -0.3204
 7659SOL     OW34438   2.307   2.636   0.725 -0.6267 -0.5970  0.8574
 7659SOL    HW134439   2.303   2.543   0.745 -0.0563 -1.0617 -1.2111
 7659SOL    HW234440   2.362   2.666   0.798  0.0790 -1.5106  0.7023
 7660SOL     OW34441   2.093   1.579  14.736  0.1882 -0.2623  0.0678
 7660SOL    HW134442   2.119   1.487  14.743  0.4274 -0.2253 -0.4159
 7660SOL    HW234443   2.144   1.610  14.661  1.6385  1.5867  1.8007
 7661SOL     OW34444   1.781   1.218   9.035  0.4993  0.6799  0.1731
 7661SOL    HW134445   1.760   1.266   9.115 -1.8218  0.9449 -0.5776
 7661SOL    HW234446   1.860   1.179   9.071  0.2415  0.2788  0.2991
 7662SOL     OW34447   3.960   1.459   1.671  0.4357 -0.1173 -0.5869
 7662SOL    HW134448   4.053   1.469   1.690  0.2657  2.8003 -1.3458
 7662SOL    HW234449   3.956   1.518   1.596 -0.1957  1.4632  0.7048
 7663SOL     OW34450   0.709   3.203   6.049 -0.0901 -0.2025 -0.7571
 7663SOL    HW134451   0.646   3.144   6.007  0.0599 -1.0755  0.2389
 7663SOL    HW234452   0.650   3.273   6.076 -0.6664 -0.8183 -0.4156
 7664SOL     OW34453   0.061   2.660   5.901 -0.3037  0.1725  0.0726
 7664SOL    HW134454   0.002   2.716   5.850 -0.0575 -2.0009 -2.5671
 7664SOL    HW234455   0.017   2.664   5.986 -0.3908  0.8569 -0.0065
 7665SOL     OW34456   2.836   3.337  15.685 -0.1905  0.0692 -0.3509
 7665SOL    HW134457   2.748   3.353  15.651 -0.3939 -0.0637  0.1092
 7665SOL    HW234458   2.879   3.415  15.651  1.1061 -0.1433  0.8143
 7666SOL     OW34459   4.063   2.719   9.795 -0.6323 -0.4240  0.3851
 7666SOL    HW134460   4.003   2.654   9.830 -1.4346  0.6124  0.9043
 7666SOL    HW234461   4.069   2.774   9.873  1.6441 -1.6297  1.0829
 7667SOL     OW34462   4.520   0.411  10.208  0.2385 -0.5914 -0.4491
 7667SOL    HW134463   4.465   0.344  10.167  0.1049  0.5132 -2.0976
 7667SOL    HW234464   4.525   0.376  10.297 -0.8269  2.2194  0.7319
 7668SOL     OW34465   1.244   0.355  14.540  0.0176  0.0967 -0.7361
 7668SOL    HW134466   1.150   0.373  14.536  0.1302  0.9510  0.4233
 7668SOL    HW234467   1.242   0.302  14.620  0.3647 -0.0044 -0.7944
 7669SOL     OW34468   4.613   2.937   5.020  0.5792  0.1473  0.0697
 7669SOL    HW134469   4.632   2.952   5.113 -0.0731  3.8268 -0.3990
 7669SOL    HW234470   4.701   2.940   4.984  0.5679  0.8674  0.1013
 7670SOL     OW34471   3.974   0.335   7.216 -0.6252  0.3754 -0.1459
 7670SOL    HW134472   4.018   0.363   7.136 -1.4565 -0.5666 -0.9245
 7670SOL    HW234473   4.046   0.296   7.266  0.0378  1.8363  0.0411
 7671SOL     OW34474   1.386   3.826   8.484  0.2656 -0.0098  0.1085
 7671SOL    HW134475   1.346   3.850   8.567 -3.5866 -0.9989 -1.4505
 7671SOL    HW234476   1.387   3.730   8.476 -0.8458  0.1454 -2.0662
 7672SOL     OW34477   3.569   1.441  13.186 -0.1637  0.3878  0.3550
 7672SOL    HW134478   3.507   1.454  13.258  0.5395  0.5886  0.9306
 7672SOL    HW234479   3.559   1.530  13.152  1.1779  1.2876  2.3417
 7673SOL     OW34480   1.228   1.762   4.126 -0.1332  0.1864 -0.4103
 7673SOL    HW134481   1.183   1.718   4.055  0.5673  1.3134 -1.5535
 7673SOL    HW234482   1.192   1.709   4.198  0.1791 -0.3236 -0.6300
 7674SOL     OW34483   2.761   3.219   0.875 -0.8168  0.0423 -0.3262
 7674SOL    HW134484   2.672   3.254   0.874 -0.4198  1.1689  2.7956
 7674SOL    HW234485   2.809   3.300   0.893 -3.1665  1.0274  1.4752
 7675SOL     OW34486   4.016   3.592  12.472 -0.4121  0.1375  0.4757
 7675SOL    HW134487   4.027   3.682  12.505 -0.0538 -0.5114  2.1197
 7675SOL    HW234488   4.108   3.574  12.455 -0.8832  1.2144 -3.1814
 7676SOL     OW34489   3.645   0.218  10.885 -0.2552  0.0716 -0.9643
 7676SOL    HW134490   3.733   0.185  10.901 -0.2682 -0.0467 -1.1367
 7676SOL    HW234491   3.585   0.149  10.856 -0.3468 -0.3750  0.2852
 7677SOL     OW34492   3.197   1.799  15.497  0.1702 -0.1042  0.0455
 7677SOL    HW134493   3.148   1.783  15.578 -1.2187  1.7316 -0.4204
 7677SOL    HW234494   3.287   1.795  15.530  0.7555 -1.1439 -1.6823
 7678SOL     OW34495   4.300   3.255   2.976 -0.0284  0.7333 -0.3266
 7678SOL    HW134496   4.367   3.262   2.908  0.8757  1.0039  0.5784
 7678SOL    HW234497   4.218   3.233   2.932  0.7207 -1.4251 -0.6520
 7679SOL     OW34498   0.177   1.844   3.701  0.8424 -0.1051  0.2933
 7679SOL    HW134499   0.164   1.825   3.609  0.1446 -0.6571  0.5035
 7679SOL    HW234500   0.196   1.757   3.735  2.1535  0.3123  0.6341
 7680SOL     OW34501   3.643   1.778  10.036 -0.2032  0.2928  0.0944
 7680SOL    HW134502   3.678   1.855   9.994  1.6553 -0.1388  0.8470
 7680SOL    HW234503   3.672   1.711   9.974  0.5388  0.5201  0.2047
 7681SOL     OW34504   0.230   4.256   6.916 -0.6407 -0.0764  0.5567
 7681SOL    HW134505   0.304   4.304   6.878 -0.0141 -2.2976 -1.0775
 7681SOL    HW234506   0.189   4.327   6.964 -2.1762 -0.5693 -0.0134
 7682SOL     OW34507   4.463   0.963  11.774 -0.4077  0.0234  0.1906
 7682SOL    HW134508   4.516   1.033  11.736  0.6787 -2.2145 -2.3891
 7682SOL    HW234509   4.426   0.933  11.691  1.1100 -0.0495 -0.4530
 7683SOL     OW34510   2.740   0.960   0.481 -0.8063  0.0126 -0.3429
 7683SOL    HW134511   2.761   1.052   0.462  0.7540 -0.1636  0.4543
 7683SOL    HW234512   2.760   0.969   0.575 -1.6822  0.3090 -0.1816
 7684SOL     OW34513   1.231   1.111   3.530  0.3962  0.0371 -0.4925
 7684SOL    HW134514   1.139   1.101   3.505  1.1494  0.1028 -3.1888
 7684SOL    HW234515   1.234   1.206   3.540 -1.0102 -0.2555  2.7577
 7685SOL     OW34516   3.783   1.796   7.842 -0.1897 -0.0992 -0.1222
 7685SOL    HW134517   3.781   1.877   7.894  0.5772 -0.5972  0.6720
 7685SOL    HW234518   3.692   1.792   7.810 -0.3842 -3.0536  0.8229
 7686SOL     OW34519   3.494   3.621   9.349 -0.1288  0.0095 -0.3074
 7686SOL    HW134520   3.572   3.565   9.353 -0.6563 -0.5725  1.9842
 7686SOL    HW234521   3.469   3.613   9.257  1.0274  0.8800 -0.6893
 7687SOL     OW34522   1.475   2.776   2.665  0.0597 -0.5262 -0.1352
 7687SOL    HW134523   1.492   2.819   2.749  1.5180 -2.2475  0.4409
 7687SOL    HW234524   1.520   2.692   2.674  1.4211 -0.0083 -2.2102
 7688SOL     OW34525   2.347   0.220   2.923  0.0932 -0.0736 -0.0930
 7688SOL    HW134526   2.294   0.253   2.995  1.1559  1.6915 -0.1012
 7688SOL    HW234527   2.435   0.207   2.957  0.4784 -1.2565 -1.5529
 7689SOL     OW34528   4.545   2.866   4.189 -0.3785 -0.0480 -0.2551
 7689SOL    HW134529   4.626   2.835   4.230 -0.5135 -0.3703 -0.2248
 7689SOL    HW234530   4.576   2.937   4.134 -1.2918 -0.4740 -1.3208
 7690SOL     OW34531   1.201   1.361   6.673  0.1318 -0.0595  0.0968
 7690SOL    HW134532   1.141   1.287   6.678  0.3744 -0.3751 -1.3769
 7690SOL    HW234533   1.160   1.427   6.617  0.8005 -1.4686 -2.0645
 7691SOL     OW34534   2.792   1.493   8.322 -0.4294 -0.0117 -0.0014
 7691SOL    HW134535   2.813   1.574   8.368 -1.5350  0.3531 -0.1460
 7691SOL    HW234536   2.866   1.492   8.261 -0.7811 -0.7262 -0.4174
 7692SOL     OW34537   3.937   3.815  16.296 -0.5414 -0.4416 -0.5141
 7692SOL    HW134538   4.033   3.821  16.297 -0.5165 -1.1086  0.4093
 7692SOL    HW234539   3.920   3.820  16.202  0.1937  2.5135 -0.4865
 7693SOL     OW34540   2.781   0.072   9.390 -0.7794 -0.2029 -0.2461
 7693SOL    HW134541   2.778   0.012   9.315  0.2767  1.4988 -1.6513
 7693SOL    HW234542   2.758   0.146   9.334 -0.0581 -0.3643 -0.7591
 7694SOL     OW34543   2.824   1.478   0.405  0.3976  0.1134  0.2397
 7694SOL    HW134544   2.861   1.516   0.485  0.7073  1.9992 -0.8104
 7694SOL    HW234545   2.868   1.534   0.341 -2.2957  2.9782  0.8687
 7695SOL     OW34546   1.356   3.301   4.022  0.9416 -0.2008  0.4284
 7695SOL    HW134547   1.307   3.289   3.941  1.6252  0.9900 -0.1671
 7695SOL    HW234548   1.279   3.296   4.079  0.3731 -0.9528 -0.4063
 7696SOL     OW34549   4.275   3.449   5.276 -0.1768  0.3613  0.8499
 7696SOL    HW134550   4.235   3.374   5.232  1.6906 -0.0831 -0.0978
 7696SOL    HW234551   4.350   3.464   5.218 -0.8282  0.8937  0.1536
 7697SOL     OW34552   0.856   0.381   5.532  0.2313 -0.0704 -0.3411
 7697SOL    HW134553   0.838   0.446   5.600 -0.3806  0.1828 -0.7461
 7697SOL    HW234554   0.858   0.436   5.454 -0.6443  0.1836 -0.1894
 7698SOL     OW34555   2.216   3.749   5.104  0.0238  0.5847 -0.4689
 7698SOL    HW134556   2.130   3.780   5.132 -0.1156 -1.4311  1.3136
 7698SOL    HW234557   2.274   3.810   5.150  1.4077 -1.0724 -0.0211
 7699SOL     OW34558   4.570   4.540   7.280  0.5265 -0.3047  0.6426
 7699SOL    HW134559   4.566   4.629   7.244  0.9108 -1.7074 -2.8807
 7699SOL    HW234560   4.643   4.551   7.341 -1.0977  0.4296  2.4492
 7700SOL     OW34561   0.120   0.273  13.653  0.2082  0.5002  0.0102
 7700SOL    HW134562   0.148   0.363  13.643  1.2485  0.1625 -0.0512
 7700SOL    HW234563   0.171   0.234  13.582 -1.4441 -1.4146 -0.1548
 7701SOL     OW34564   3.069   3.120   9.230 -0.5398 -0.5303  0.0073
 7701SOL    HW134565   3.055   3.057   9.159 -0.5237 -2.1769  1.4773
 7701SOL    HW234566   2.983   3.128   9.273  0.5750  0.7102  2.0175
 7702SOL     OW34567   1.671   3.041   2.151  0.1771 -0.3911 -0.6022
 7702SOL    HW134568   1.590   3.090   2.138 -0.1879 -0.6963  0.4966
 7702SOL    HW234569   1.641   2.974   2.089  0.9283 -1.6911  0.4432
 7703SOL     OW34570   1.485   2.470   6.161  0.1097  0.3016  0.2227
 7703SOL    HW134571   1.410   2.413   6.144 -0.7625  0.7172  2.7012
 7703SOL    HW234572   1.492   2.522   6.081  1.5495  0.2019  0.2844
 7704SOL     OW34573   1.282   0.005  11.334 -0.3876  0.1064 -0.2005
 7704SOL    HW134574   1.259   0.040  11.248 -4.9783 -4.4804 -0.8262
 7704SOL    HW234575   1.375   0.028  11.337 -0.5875  0.7059  1.4797
 7705SOL     OW34576   2.911   4.585   7.159 -0.3576 -0.1364  0.3053
 7705SOL    HW134577   2.990   4.531   7.152  1.6711  2.7650  0.7545
 7705SOL    HW234578   2.954   4.663   7.125  1.0288 -0.2907  1.6732
 7706SOL     OW34579   4.500   0.166   3.551  0.3280 -0.1086  0.0404
 7706SOL    HW134580   4.514   0.088   3.604 -0.8907 -1.6950 -1.9554
 7706SOL    HW234581   4.482   0.121   3.468  2.8988 -0.6108 -0.2303
 7707SOL     OW34582   1.601   2.048   7.607  0.0680  0.0154  0.4288
 7707SOL    HW134583   1.508   2.027   7.601 -0.1503  1.2787 -0.5181
 7707SOL    HW234584   1.633   1.961   7.583 -0.4039  0.5079 -1.9120
 7708SOL     OW34585   3.490   4.681   1.212 -0.0603  1.3981  0.1599
 7708SOL    HW134586   3.522   4.661   1.300  1.2454  1.4279 -0.3090
 7708SOL    HW234587   3.412   0.007   1.230 -0.7946 -0.3444  2.0715
 7709SOL     OW34588   0.826   1.898   8.304  0.1478 -0.0277  0.3797
 7709SOL    HW134589   0.743   1.893   8.257 -0.9978  0.2541  2.3541
 7709SOL    HW234590   0.797   1.924   8.392  0.0692 -2.9922  1.2307
 7710SOL     OW34591   3.473   1.489   4.426  0.6870 -0.4400  0.4830
 7710SOL    HW134592   3.547   1.428   4.434  1.1832  0.3556  1.9205
 7710SOL    HW234593   3.424   1.447   4.355 -0.1277  1.1108  0.1502
 7711SOL     OW34594   3.497   2.204   2.555  0.3346  0.5126 -0.5769
 7711SOL    HW134595   3.414   2.179   2.596  1.5527 -1.3107  0.7933
 7711SOL    HW234596   3.491   2.299   2.555  0.3994  0.5210 -3.3755
 7712SOL     OW34597   0.580   0.679   4.739 -0.2633 -0.1733  0.5414
 7712SOL    HW134598   0.585   0.635   4.655 -0.3769  0.1870  0.3462
 7712SOL    HW234599   0.639   0.633   4.799  1.1722  0.2743 -0.5104
 7713SOL     OW34600   3.802   0.278   8.550  0.1232 -0.3254 -0.1469
 7713SOL    HW134601   3.761   0.292   8.465  1.3048 -0.2335 -0.7020
 7713SOL    HW234602   3.853   0.202   8.523 -0.3158  0.2616 -2.6217
 7714SOL     OW34603   3.274   3.568   3.310  0.1516 -0.2980  0.0646
 7714SOL    HW134604   3.312   3.570   3.222 -0.1016 -0.6204 -0.0546
 7714SOL    HW234605   3.196   3.514   3.296  1.1607 -1.4777 -1.0828
 7715SOL     OW34606   4.186   0.649  17.540 -0.2293 -0.1532 -0.2465
 7715SOL    HW134607   4.118   0.673  17.478  1.0047 -0.2232 -1.6389
 7715SOL    HW234608   4.196   0.553  17.539 -0.7550 -0.2283  2.0202
 7716SOL     OW34609   3.495   0.825   4.739 -0.3054  0.3553  0.0642
 7716SOL    HW134610   3.436   0.755   4.767 -0.6876  0.2658 -0.9845
 7716SOL    HW234611   3.436   0.900   4.751  2.0987  1.9875  1.7460
 7717SOL     OW34612   2.557   3.359  13.720 -0.2028 -0.2089 -0.1427
 7717SOL    HW134613   2.643   3.389  13.746 -0.8934  1.8545 -0.2812
 7717SOL    HW234614   2.509   3.354  13.802 -0.0662  2.9609  0.1076
 7718SOL     OW34615   0.293   4.538   0.891 -0.0773  0.6179 -0.3859
 7718SOL    HW134616   0.373   4.591   0.890 -0.2077  0.8631  1.6069
 7718SOL    HW234617   0.242   4.609   0.851 -2.5526 -1.3993 -0.7630
 7719SOL     OW34618   2.009   0.601   4.545  0.0628 -0.5318  0.0675
 7719SOL    HW134619   2.024   0.688   4.506  1.7708 -0.5850  0.6056
 7719SOL    HW234620   2.102   0.578   4.542 -0.2594 -1.9450  1.0486
 7720SOL     OW34621   3.274   2.601   0.859  0.1542 -0.0720  0.1787
 7720SOL    HW134622   3.227   2.676   0.821 -1.6497 -0.2570  2.0377
 7720SOL    HW234623   3.309   2.551   0.786  1.8973 -1.4198  1.9503
 7721SOL     OW34624   1.418   1.112  10.681  0.6460  0.6122 -0.2840
 7721SOL    HW134625   1.496   1.129  10.627  0.2729 -0.9372 -1.3043
 7721SOL    HW234626   1.454   1.106  10.769 -1.0283 -2.0134  0.2079
 7722SOL     OW34627   1.217   3.690   0.644 -0.1930  0.4689 -0.0536
 7722SOL    HW134628   1.131   3.647   0.644 -0.7923  1.6650  2.0908
 7722SOL    HW234629   1.268   3.645   0.711  0.0310 -0.3803 -0.7858
 7723SOL     OW34630   3.410   2.085   9.057  0.2414 -0.5735  0.0315
 7723SOL    HW134631   3.470   2.090   8.983 -0.9984 -1.3301 -1.0341
 7723SOL    HW234632   3.325   2.080   9.014  0.2555 -0.9240  0.0486
 7724SOL     OW34633   2.332   4.674  14.310 -0.4488 -0.7747  0.2541
 7724SOL    HW134634   2.337   4.723  14.393 -0.0584 -0.8226  0.2599
 7724SOL    HW234635   2.421   4.637  14.307  0.5201  1.3049  3.2198
 7725SOL     OW34636   3.338   0.913   0.550 -0.1319  0.2557  0.1180
 7725SOL    HW134637   3.372   0.825   0.562 -0.0883  0.1600 -0.6730
 7725SOL    HW234638   3.244   0.893   0.545 -0.2257  0.5871  0.6074
 7726SOL     OW34639   4.394   2.585   7.149  0.1754  0.1920  0.0516
 7726SOL    HW134640   4.324   2.562   7.087  1.3470 -1.0616 -0.8118
 7726SOL    HW234641   4.467   2.582   7.088 -0.4647  1.2073 -0.7691
 7727SOL     OW34642   1.850   3.774  11.623 -1.0673  0.0375  0.5944
 7727SOL    HW134643   1.886   3.768  11.534 -0.0615  1.0732  0.9219
 7727SOL    HW234644   1.856   3.687  11.663  1.0077 -1.2366 -2.4685
 7728SOL     OW34645   3.650   3.061  11.559  0.6366 -0.2047  0.3350
 7728SOL    HW134646   3.735   3.040  11.598 -0.2366 -2.3397  1.0907
 7728SOL    HW234647   3.591   3.043  11.633  2.8141  0.4640  2.2478
 7729SOL     OW34648   4.454   0.161   2.882 -0.3772 -0.0876  0.2147
 7729SOL    HW134649   4.382   0.224   2.874 -0.4505 -0.5152 -2.6418
 7729SOL    HW234650   4.455   0.127   2.793  1.3685 -0.7370  0.4704
 7730SOL     OW34651   0.478   3.310  11.354  0.4130  0.4646 -0.0948
 7730SOL    HW134652   0.529   3.321  11.274  1.0302  1.7491  0.4610
 7730SOL    HW234653   0.515   3.227  11.384 -1.4292 -0.3458 -0.0692
 7731SOL     OW34654   3.945   1.180  12.073  0.0832  0.2165  0.1010
 7731SOL    HW134655   3.892   1.254  12.103  0.4362  0.8575 -0.8644
 7731SOL    HW234656   3.872   1.119  12.063  0.1700  0.1230  0.0332
 7732SOL     OW34657   4.434   0.886   2.021 -0.4771  0.1099 -0.0651
 7732SOL    HW134658   4.464   0.828   2.091 -1.0985 -0.1881 -0.0489
 7732SOL    HW234659   4.339   0.874   2.015 -0.2387 -1.5604 -0.4162
 7733SOL     OW34660   2.986   3.026   3.697  0.3165  0.0034 -0.3383
 7733SOL    HW134661   3.028   3.071   3.624 -1.1425  0.7505 -0.7415
 7733SOL    HW234662   2.959   2.944   3.655 -1.3333  0.9322 -1.1162
 7734SOL     OW34663   0.367   1.056   5.069 -0.6973 -0.3276 -0.6088
 7734SOL    HW134664   0.296   1.112   5.038 -1.3096 -0.8431 -0.1171
 7734SOL    HW234665   0.368   0.985   5.006 -0.6791  0.9534 -2.0530
 7735SOL     OW34666   0.240   3.741  10.665 -0.9074  0.1227  0.0909
 7735SOL    HW134667   0.259   3.663  10.612 -0.2366  0.5839 -0.3432
 7735SOL    HW234668   0.180   3.711  10.733  0.9406 -1.2585  1.1008
 7736SOL     OW34669   2.674   1.140   4.195  0.4180  0.1052  0.1343
 7736SOL    HW134670   2.640   1.229   4.207 -1.0907 -0.5078  0.5182
 7736SOL    HW234671   2.768   1.154   4.188  0.6041 -0.2397  1.7716
 7737SOL     OW34672   0.262   3.263   8.221  0.1956 -0.2896 -0.0966
 7737SOL    HW134673   0.204   3.316   8.166  0.5963  2.2959  1.9775
 7737SOL    HW234674   0.211   3.267   8.302  0.4958 -0.1516  0.0861
 7738SOL     OW34675   2.396   2.574  15.784 -0.3772 -0.4670 -0.2989
 7738SOL    HW134676   2.387   2.489  15.827  1.5130 -1.1563 -1.2863
 7738SOL    HW234677   2.335   2.562  15.711 -0.2559 -0.2206 -0.4408
 7739SOL     OW34678   0.830   0.251   5.133 -0.5121 -0.4108 -0.7384
 7739SOL    HW134679   0.766   0.317   5.160  0.1403  0.3455 -1.0494
 7739SOL    HW234680   0.889   0.315   5.091 -0.1808  0.2130  0.6638
 7740SOL     OW34681   3.523   1.712   7.760  0.2282  0.2949 -0.1549
 7740SOL    HW134682   3.439   1.689   7.799 -0.8450  2.5343 -1.1982
 7740SOL    HW234683   3.554   1.625   7.732 -1.2794 -0.9037  1.8697
 7741SOL     OW34684   0.342   3.494   3.051  0.0563 -0.2485  0.3678
 7741SOL    HW134685   0.341   3.401   3.030 -1.1115 -0.0687 -0.3350
 7741SOL    HW234686   0.411   3.501   3.117  1.1899 -1.4520 -0.6848
 7742SOL     OW34687   2.855   3.504   2.707 -0.1544 -0.3034 -0.1373
 7742SOL    HW134688   2.882   3.453   2.784  2.9749 -0.2821 -1.2188
 7742SOL    HW234689   2.927   3.565   2.694  0.7040 -1.1041  0.8859
 7743SOL     OW34690   0.827   2.984   2.251  0.7586  0.5247  0.2453
 7743SOL    HW134691   0.791   3.059   2.298 -1.4781 -0.4064  0.0046
 7743SOL    HW234692   0.854   3.028   2.170 -1.2921  1.9678  0.3501
 7744SOL     OW34693   0.038   3.854  14.151  0.0851 -0.1213  0.5249
 7744SOL    HW134694   0.046   3.773  14.201 -1.5156 -0.9134 -0.4657
 7744SOL    HW234695   4.690   3.906  14.180 -0.9831 -1.2076 -0.2709
 7745SOL     OW34696   3.193   1.531  15.390  0.7378  0.2468 -0.4471
 7745SOL    HW134697   3.274   1.567  15.356  0.9709 -0.4465 -0.6222
 7745SOL    HW234698   3.131   1.600  15.365 -1.5760 -1.5495  0.2485
 7746SOL     OW34699   0.410   4.033   2.626  0.4070  0.4989  0.0700
 7746SOL    HW134700   0.423   3.938   2.626  1.5110  0.6512 -0.6969
 7746SOL    HW234701   0.316   4.041   2.606  0.3136  1.3328  0.8188
 7747SOL     OW34702   1.502   0.113  12.748  0.4806 -0.2281  0.9377
 7747SOL    HW134703   1.446   0.189  12.731 -0.5639 -1.2904 -0.2662
 7747SOL    HW234704   1.587   0.147  12.718 -0.8986  1.7420 -0.7513
 7748SOL     OW34705   0.753   1.175  17.665 -0.2232 -0.1440 -0.4971
 7748SOL    HW134706   0.717   1.099   0.002 -0.6378  0.6243  0.4259
 7748SOL    HW234707   0.845   1.152  17.666 -0.2503 -0.2396 -0.2351
 7749SOL     OW34708   0.896   1.779   6.988  0.0568  0.3496  0.2434
 7749SOL    HW134709   0.892   1.689   7.022 -0.7777  0.5563  0.6914
 7749SOL    HW234710   0.939   1.758   6.905  0.1587 -1.6013  0.7837
 7750SOL     OW34711   1.864   2.451   9.311  0.0267  0.7831  0.6079
 7750SOL    HW134712   1.844   2.368   9.353  0.4278  0.3282 -0.0932
 7750SOL    HW234713   1.838   2.429   9.221 -0.2309  1.5581  0.4974
 7751SOL     OW34714   0.230   4.471   7.085  0.1822 -0.0797 -0.3873
 7751SOL    HW134715   0.281   4.466   7.166  1.5202 -0.5745 -1.2554
 7751SOL    HW234716   0.282   4.543   7.051  0.2187 -0.4157 -1.0443
 7752SOL     OW34717   0.104   4.356   0.911  0.0711  0.1794  0.1628
 7752SOL    HW134718   0.100   4.316   0.998  0.6690  0.5524  0.3617
 7752SOL    HW234719   0.171   4.425   0.917 -0.4020  0.5883  0.7364
 7753SOL     OW34720   2.713   0.791  11.943 -0.3877  0.1598 -0.1018
 7753SOL    HW134721   2.623   0.785  11.911 -1.3778  0.2883  2.6703
 7753SOL    HW234722   2.714   0.706  11.986 -0.7297 -0.7745 -1.9485
 7754SOL     OW34723   2.335   1.653   2.287 -0.0523  0.2039  0.3863
 7754SOL    HW134724   2.397   1.588   2.319  0.0889  0.0865 -0.1205
 7754SOL    HW234725   2.355   1.663   2.194 -0.5092  1.6783  0.4457
 7755SOL     OW34726   1.114   1.382   3.928  0.4699  0.2324 -0.1108
 7755SOL    HW134727   1.062   1.365   4.007  0.5861  1.1460  0.1585
 7755SOL    HW234728   1.204   1.385   3.962  0.2717 -0.2087  0.4525
 7756SOL     OW34729   1.710   1.460   1.677 -0.2403  0.0992  0.3348
 7756SOL    HW134730   1.633   1.436   1.625  0.0662 -0.2259  0.0313
 7756SOL    HW234731   1.766   1.515   1.623 -1.2387  0.2911 -0.5049
 7757SOL     OW34732   2.515   4.595  15.643 -0.1435  0.1845 -0.1221
 7757SOL    HW134733   2.529   4.689  15.643 -1.6957  0.3888 -2.6474
 7757SOL    HW234734   2.473   4.590  15.729 -0.0293 -0.4432 -0.0965
 7758SOL     OW34735   3.579   0.562  16.060 -0.6338  0.0160 -0.1662
 7758SOL    HW134736   3.628   0.512  15.995 -1.0230  1.6035 -1.7001
 7758SOL    HW234737   3.643   0.630  16.081 -1.0401  0.4396 -0.2929
 7759SOL     OW34738   3.115   0.076  15.259 -0.0798 -0.3515 -0.1096
 7759SOL    HW134739   3.078   4.725  15.301  1.2196 -1.9043 -1.8750
 7759SOL    HW234740   3.096   0.050  15.169 -0.6225 -0.2225 -0.0326
 7760SOL     OW34741   4.475   3.189  13.800  0.2353 -0.4629  0.1643
 7760SOL    HW134742   4.471   3.116  13.862 -0.9478 -0.3379  0.2289
 7760SOL    HW234743   4.563   3.223  13.813  0.4864 -0.8520 -0.5155
 7761SOL     OW34744   2.345   3.091   6.119 -0.0779 -0.3215 -0.0011
 7761SOL    HW134745   2.424   3.098   6.064  0.7986  0.2027  1.3366
 7761SOL    HW234746   2.278   3.113   6.054 -0.6869  0.5470  0.9167
 7762SOL     OW34747   4.449   0.654   5.341 -0.0498 -0.2998  0.2916
 7762SOL    HW134748   4.483   0.572   5.305 -1.1964  0.7945 -3.2608
 7762SOL    HW234749   4.525   0.689   5.387 -0.2523 -1.0957  1.2109
 7763SOL     OW34750   4.074   3.734   4.436 -0.6421 -0.3742  0.4133
 7763SOL    HW134751   3.986   3.720   4.401  0.1317  0.2462 -1.8201
 7763SOL    HW234752   4.065   3.821   4.474 -1.1099  0.0303 -0.6306
 7764SOL     OW34753   1.508   3.891   2.358  0.3115 -0.4366  0.4134
 7764SOL    HW134754   1.546   3.919   2.275 -0.1269 -0.0883  0.3313
 7764SOL    HW234755   1.537   3.799   2.358 -1.3964 -0.9767 -1.8892
 7765SOL     OW34756   4.513   2.364   5.488 -0.4235 -0.1592 -0.0634
 7765SOL    HW134757   4.475   2.450   5.471  2.4809  1.1677  0.2973
 7765SOL    HW234758   4.502   2.335   5.397  1.2570  0.6907 -0.5215
 7766SOL     OW34759   0.569   1.547   7.117  0.3075  0.4188  0.4457
 7766SOL    HW134760   0.591   1.603   7.043  0.3325 -2.6416 -1.8689
 7766SOL    HW234761   0.475   1.559   7.134  0.1648 -0.2293  0.1430
 7767SOL     OW34762   4.581   1.643   6.576  0.2036 -0.6453 -0.4995
 7767SOL    HW134763   4.644   1.573   6.594  1.8003  0.4742 -1.6751
 7767SOL    HW234764   4.612   1.680   6.493 -1.2581  1.2872 -0.1728
 7768SOL     OW34765   4.135   2.605   0.798 -0.0729  0.5053  0.4658
 7768SOL    HW134766   4.106   2.683   0.845  2.2114  2.7211 -1.7852
 7768SOL    HW234767   4.139   2.551   0.878 -0.9938  0.8014  0.7091
 7769SOL     OW34768   2.765   1.147  13.311  0.0193  0.4300 -0.4765
 7769SOL    HW134769   2.747   1.140  13.218  0.1996 -0.7430 -0.4242
 7769SOL    HW234770   2.859   1.137  13.297  0.3648  0.6373  1.5715
 7770SOL     OW34771   4.253   0.732   6.192 -0.0474  0.5545  0.1019
 7770SOL    HW134772   4.182   0.740   6.129 -0.8941  0.2845  1.0164
 7770SOL    HW234773   4.228   0.810   6.242 -0.2788  1.5016 -1.5209
 7771SOL     OW34774   4.582   0.365   4.616  0.0436  1.2488 -0.5984
 7771SOL    HW134775   4.504   0.397   4.661 -0.9199 -1.3890 -0.4231
 7771SOL    HW234776   4.655   0.397   4.669 -0.3085  0.7450  0.1818
 7772SOL     OW34777   4.200   3.348  15.242 -1.1136  0.1076 -0.5872
 7772SOL    HW134778   4.258   3.322  15.314  0.2167  0.7185 -1.4286
 7772SOL    HW234779   4.153   3.267  15.222  0.4660 -1.0449  0.3742
 7773SOL     OW34780   0.720   1.037   1.296 -0.0873 -0.4356 -0.1712
 7773SOL    HW134781   0.798   1.007   1.343 -0.3775 -0.6492  0.1753
 7773SOL    HW234782   0.692   0.953   1.259 -1.4698 -0.5156  1.0750
 7774SOL     OW34783   4.672   3.992  11.459 -0.5390  0.3722 -0.1107
 7774SOL    HW134784   4.665   4.064  11.522  2.8714  1.7840 -1.3338
 7774SOL    HW234785   4.724   4.030  11.387 -0.9224 -1.3623 -1.3045
 7775SOL     OW34786   3.237   1.218   8.760 -0.2333 -0.2002  0.3274
 7775SOL    HW134787   3.184   1.292   8.789 -0.6174 -1.2059  2.1111
 7775SOL    HW234788   3.182   1.149   8.797 -0.2939 -1.1108 -1.4537
 7776SOL     OW34789   0.549   4.346   8.840  0.1189 -0.3546  0.2716
 7776SOL    HW134790   0.614   4.280   8.863  0.7821  0.8169  1.7854
 7776SOL    HW234791   0.581   4.419   8.894 -0.9061  0.1685  0.1773
 7777SOL     OW34792   0.153   4.328   2.164 -0.5032  0.0974  0.1250
 7777SOL    HW134793   0.094   4.308   2.091 -0.7100 -0.5125  0.4643
 7777SOL    HW234794   0.219   4.259   2.160 -0.2027  0.3514  0.6803
 7778SOL     OW34795   2.383   4.098   2.443  0.1891  0.0427  0.6719
 7778SOL    HW134796   2.374   4.131   2.353 -0.1929 -1.6081  0.1016
 7778SOL    HW234797   2.309   4.131   2.492 -0.4132 -0.0449 -0.1732
 7779SOL     OW34798   2.006   3.965  10.516 -0.5011  0.4340  0.4737
 7779SOL    HW134799   1.957   3.904  10.461 -0.0286  1.5394 -1.1842
 7779SOL    HW234800   1.955   4.046  10.520  1.9208  2.0214 -0.9481
 7780SOL     OW34801   3.709   4.573   7.984  0.3501  0.0912 -0.1642
 7780SOL    HW134802   3.794   4.544   7.949  0.8220 -2.4409  3.0675
 7780SOL    HW234803   3.731   4.558   8.075 -1.2172 -0.8473  0.0543
 7781SOL     OW34804   0.243   2.292   7.683  0.1179 -0.5437 -0.1575
 7781SOL    HW134805   0.205   2.206   7.698 -0.1812 -0.6118 -1.3365
 7781SOL    HW234806   0.160   2.339   7.686  1.0855  1.3166 -2.2983
 7782SOL     OW34807   0.556   1.218   3.775 -0.1389 -0.1542  0.0683
 7782SOL    HW134808   0.645   1.212   3.741 -0.2228  0.3980 -0.2414
 7782SOL    HW234809   0.557   1.289   3.839 -2.0568  0.6283 -0.7604
 7783SOL     OW34810   4.226   4.600  11.533  0.0461  0.6327 -0.4714
 7783SOL    HW134811   4.321   4.595  11.520  0.0353 -1.5441  0.1995
 7783SOL    HW234812   4.207   4.507  11.526  0.7347  0.2544  2.6468
 7784SOL     OW34813   0.735   0.132   8.303  0.0636  0.1863 -0.8401
 7784SOL    HW134814   0.776   0.079   8.371  1.1518 -0.0050 -1.6477
 7784SOL    HW234815   0.799   0.126   8.232  0.0983  0.4846 -0.8319
 7785SOL     OW34816   4.704   1.612   8.477  0.2581  0.0605 -0.0419
 7785SOL    HW134817   4.650   1.595   8.554  1.4225 -2.6548  0.2017
 7785SOL    HW234818   0.040   1.668   8.522  0.2537  0.7788 -0.9361
 7786SOL     OW34819   3.941   1.543  15.406 -0.1648 -0.3158 -0.1031
 7786SOL    HW134820   3.890   1.476  15.452 -1.9089  0.6045 -0.7104
 7786SOL    HW234821   3.873   1.608  15.391  2.0742  1.3212 -3.0805
 7787SOL     OW34822   3.796   4.230   5.666  0.1214 -0.1343  0.1269
 7787SOL    HW134823   3.768   4.139   5.677  0.5019 -0.1531  0.9326
 7787SOL    HW234824   3.709   4.258   5.637  0.3055  1.2206  0.9176
 7788SOL     OW34825   1.453   2.394   9.020 -0.1203 -0.3117  0.0470
 7788SOL    HW134826   1.412   2.347   8.948 -0.1376  0.4759 -0.4610
 7788SOL    HW234827   1.389   2.464   9.025  0.1001 -0.3299  2.8481
 7789SOL     OW34828   3.654   4.543  16.642 -0.2230  0.0378 -0.4844
 7789SOL    HW134829   3.653   4.459  16.688 -0.8392  0.7393  0.7750
 7789SOL    HW234830   3.566   4.556  16.607  0.5454  0.1222 -2.3705
 7790SOL     OW34831   2.991   3.769   3.741  0.3971 -0.3224  0.5086
 7790SOL    HW134832   3.024   3.725   3.662  2.9049 -0.7601  1.7969
 7790SOL    HW234833   2.973   3.854   3.700 -0.7665 -1.8459 -2.1578
 7791SOL     OW34834   2.676   2.415  15.358 -0.5098 -0.5598 -0.4539
 7791SOL    HW134835   2.748   2.357  15.382 -0.4424  0.0193  0.7882
 7791SOL    HW234836   2.732   2.486  15.328  1.2155 -1.3236  0.9489
 7792SOL     OW34837   0.550   2.824  11.869  0.6125  0.1519 -0.5225
 7792SOL    HW134838   0.492   2.896  11.846 -1.0332 -0.1810  2.6025
 7792SOL    HW234839   0.622   2.859  11.817  0.9674  1.9201  1.1587
 7793SOL     OW34840   2.027   4.023   6.540 -0.3909  0.1870  0.0048
 7793SOL    HW134841   1.981   3.968   6.476 -1.5492  0.7687  0.3424
 7793SOL    HW234842   2.092   3.959   6.568  1.3342  1.5331 -0.9284
 7794SOL     OW34843   4.109   1.092  12.780 -0.1364  0.0283 -0.4846
 7794SOL    HW134844   4.020   1.089  12.816  0.7329 -1.0904  1.5629
 7794SOL    HW234845   4.088   1.072  12.689 -0.7623  1.9072 -0.7488
 7795SOL     OW34846   1.321   0.398   9.805  0.0000 -0.5291 -1.1440
 7795SOL    HW134847   1.294   0.394   9.897  0.4096  0.2875 -0.9854
 7795SOL    HW234848   1.400   0.447   9.827 -1.3283  0.8721  0.4799
 7796SOL     OW34849   3.623   3.662   5.926 -0.2496  0.2881 -0.0643
 7796SOL    HW134850   3.700   3.659   5.984 -0.3358  1.1215  0.0895
 7796SOL    HW234851   3.651   3.618   5.845 -3.7101 -1.1987 -0.4522
 7797SOL     OW34852   3.941   0.399   1.971 -0.3662 -0.5339 -0.1492
 7797SOL    HW134853   3.904   0.324   2.019  0.4071 -1.0863 -0.4304
 7797SOL    HW234854   3.931   0.367   1.881 -0.5447 -0.8204 -0.0291
 7798SOL     OW34855   2.391   3.482   2.746 -0.0594 -0.1390  0.1511
 7798SOL    HW134856   2.345   3.447   2.823  0.3749  2.3859  1.5459
 7798SOL    HW234857   2.478   3.443   2.739  0.0470  0.5595 -2.3198
 7799SOL     OW34858   1.181   2.602   8.622  0.4662  0.0150 -0.6269
 7799SOL    HW134859   1.086   2.595   8.630  0.4111 -0.6386 -1.8543
 7799SOL    HW234860   1.184   2.694   8.647 -2.4909 -0.4364  1.4374
 7800SOL     OW34861   3.724   1.216   0.472 -0.8023  0.3433 -0.7838
 7800SOL    HW134862   3.652   1.196   0.412 -0.3333 -0.3498 -1.1168
 7800SOL    HW234863   3.774   1.282   0.424 -0.8282  0.8408 -0.1219
 7801SOL     OW34864   0.891   0.403   3.619  0.3394  0.5628 -0.5741
 7801SOL    HW134865   0.847   0.462   3.680  2.8267  0.7993  0.9644
 7801SOL    HW234866   0.829   0.331   3.625 -0.6565  1.5785  1.2605
 7802SOL     OW34867   1.767   0.526  10.788 -0.2876 -0.1142  0.4117
 7802SOL    HW134868   1.682   0.487  10.811 -0.6105 -0.7386 -1.8180
 7802SOL    HW234869   1.810   0.459  10.734  0.5058 -0.8048  1.8909
 7803SOL     OW34870   4.691   0.234  13.869  0.2178 -0.5095  0.2348
 7803SOL    HW134871   4.617   0.283  13.833 -0.0929 -1.0611  0.1295
 7803SOL    HW234872   0.027   0.216  13.799 -1.9037  1.8530 -2.2931
 7804SOL     OW34873   3.074   1.744   3.272  0.2031  0.1444  0.2860
 7804SOL    HW134874   3.120   1.818   3.311 -0.5367  0.8211 -0.1086
 7804SOL    HW234875   3.008   1.781   3.213 -0.7306  0.9344  1.8551
 7805SOL     OW34876   1.865   2.457   5.301 -0.1994  0.3287  0.0717
 7805SOL    HW134877   1.773   2.429   5.300  0.5546 -2.0754 -1.9782
 7805SOL    HW234878   1.881   2.499   5.385  3.2680 -0.2830 -0.2575
 7806SOL     OW34879   2.363   1.462   9.248  0.1199 -0.2165 -0.1163
 7806SOL    HW134880   2.274   1.426   9.247 -0.5894  1.4618  2.0047
 7806SOL    HW234881   2.418   1.385   9.234  1.2660  0.6458 -0.3775
 7807SOL     OW34882   2.513   3.086   5.039  0.1273  0.0200 -0.2007
 7807SOL    HW134883   2.578   3.156   5.048  0.1880  0.0298 -0.7015
 7807SOL    HW234884   2.474   3.082   5.126 -1.5913  0.7437 -0.9423
 7808SOL     OW34885   3.191   2.387   3.353  0.3781  0.0306 -0.0961
 7808SOL    HW134886   3.124   2.343   3.406 -0.9654 -0.8080 -2.5395
 7808SOL    HW234887   3.131   2.453   3.319 -0.9881 -1.3655 -0.4306
 7809SOL     OW34888   1.519   2.296  10.657 -0.0329 -0.0627  0.3153
 7809SOL    HW134889   1.548   2.374  10.610 -0.0923  1.1439  2.2845
 7809SOL    HW234890   1.496   2.241  10.582  1.1152 -1.0434  0.6906
 7810SOL     OW34891   3.333   3.523  11.344 -0.8047  0.0451 -0.1438
 7810SOL    HW134892   3.372   3.606  11.316 -0.0567 -0.4975 -0.7089
 7810SOL    HW234893   3.370   3.465  11.278 -0.9293  0.3210 -0.4546
 7811SOL     OW34894   1.771   0.562   7.742 -0.0027  0.2805  0.3888
 7811SOL    HW134895   1.704   0.528   7.801  0.5045  0.2800  0.9667
 7811SOL    HW234896   1.817   0.479   7.736 -0.9838 -0.2874  0.8108
 7812SOL     OW34897   0.973   0.468   2.681  0.5957  0.2153 -0.4830
 7812SOL    HW134898   0.971   0.389   2.626  3.2863 -2.2943  3.0664
 7812SOL    HW234899   1.011   0.529   2.617  1.0077 -1.1011 -1.5049
 7813SOL     OW34900   0.418   0.523  12.890 -0.0610  0.2251 -0.2123
 7813SOL    HW134901   0.352   0.526  12.960 -1.1386 -0.5346 -1.1901
 7813SOL    HW234902   0.476   0.594  12.917  0.8841 -0.6490  0.0528
 7814SOL     OW34903   1.968   4.332   7.545  0.0729 -0.1607 -0.0495
 7814SOL    HW134904   2.035   4.335   7.614  0.5235  2.6058 -0.5911
 7814SOL    HW234905   2.022   4.294   7.476 -2.7721  0.9203 -2.8461
 7815SOL     OW34906   2.753   0.020   8.902 -0.5465  0.1896  0.1518
 7815SOL    HW134907   2.823   0.082   8.925 -0.8991 -0.1306  2.1061
 7815SOL    HW234908   2.677   0.072   8.876 -0.6402 -0.7729 -1.4316
 7816SOL     OW34909   0.590   0.144  15.103 -0.1174  0.0353 -0.0494
 7816SOL    HW134910   0.595   0.223  15.050  0.1106 -0.2671 -0.4796
 7816SOL    HW234911   0.625   0.074  15.048 -2.5607 -2.3417  1.3723
 7817SOL     OW34912   1.416   0.373   4.135  0.1040 -0.2451 -0.0349
 7817SOL    HW134913   1.365   0.380   4.054 -1.3459 -0.3282  0.8638
 7817SOL    HW234914   1.501   0.377   4.093  0.8638 -3.3731  1.1729
 7818SOL     OW34915   3.130   1.615   0.057  0.1821 -0.0175  0.4067
 7818SOL    HW134916   3.169   1.628  17.680  0.0862  1.3514  0.5753
 7818SOL    HW234917   3.099   1.525   0.045  1.0832  0.0360 -2.1887
 7819SOL     OW34918   1.247   1.828   2.894 -0.3466 -0.3859  0.1742
 7819SOL    HW134919   1.296   1.852   2.973 -1.1068 -0.6587  0.7284
 7819SOL    HW234920   1.175   1.890   2.907  0.2209 -0.3632  3.2153
 7820SOL     OW34921   2.795   3.699   6.648 -0.5644  0.2682 -0.2635
 7820SOL    HW134922   2.749   3.617   6.663  2.2176 -1.7187 -2.7935
 7820SOL    HW234923   2.866   3.659   6.599 -1.5713 -1.0968 -0.5849
 7821SOL     OW34924   3.236   4.471   8.662 -1.0906 -0.0332  0.6974
 7821SOL    HW134925   3.299   4.487   8.733 -0.7994  0.1528  0.3966
 7821SOL    HW234926   3.174   4.419   8.714  0.8056 -1.6365  1.3682
 7822SOL     OW34927   3.824   2.033   5.423 -0.2703  0.0533  0.5141
 7822SOL    HW134928   3.865   1.970   5.483 -0.8484  0.9240  1.8301
 7822SOL    HW234929   3.864   2.012   5.339 -1.4550  3.1790 -0.8366
 7823SOL     OW34930   4.424   3.890   8.665 -0.3007  0.2477 -0.0092
 7823SOL    HW134931   4.420   3.855   8.576  0.0298  1.0662 -0.3495
 7823SOL    HW234932   4.338   3.933   8.670  0.0748  0.9632  0.2808
 7824SOL     OW34933   2.274   0.092  10.525 -0.0403  0.1957 -0.1576
 7824SOL    HW134934   2.300   0.089  10.617  1.8268  0.5840 -0.6597
 7824SOL    HW234935   2.235   0.179  10.521 -0.7505 -0.1076  0.3237
 7825SOL     OW34936   3.626   4.300   8.837 -0.2648 -0.5845 -0.4041
 7825SOL    HW134937   3.581   4.229   8.884 -1.0299 -0.0877 -0.3975
 7825SOL    HW234938   3.562   4.371   8.841  0.5779  0.2540 -2.1025
 7826SOL     OW34939   3.439   3.277   3.930  0.1726 -0.1231  0.1091
 7826SOL    HW134940   3.351   3.264   3.895 -1.0303  0.9680  2.6829
 7826SOL    HW234941   3.471   3.324   3.854 -1.1432  1.6257  0.6536
 7827SOL     OW34942   2.310   2.785   3.850 -0.2553 -0.4197 -0.6255
 7827SOL    HW134943   2.323   2.759   3.759 -3.1784 -2.4195 -0.4561
 7827SOL    HW234944   2.378   2.851   3.868 -0.6551  0.1012 -1.0455
 7828SOL     OW34945   0.102   3.990   4.243  0.0667  0.1274  0.4675
 7828SOL    HW134946   0.160   4.028   4.176 -0.3607 -0.0740 -0.0185
 7828SOL    HW234947   0.153   3.912   4.266 -0.0914 -0.0979  0.0588
 7829SOL     OW34948   3.715   3.561   7.782  0.8214 -0.1932 -0.1430
 7829SOL    HW134949   3.785   3.576   7.719  0.6621 -0.1133 -0.3014
 7829SOL    HW234950   3.718   3.467   7.763  2.2783  0.2920 -2.3003
 7830SOL     OW34951   2.095   2.057   9.489  0.1717  0.2963  0.3323
 7830SOL    HW134952   2.153   2.036   9.416 -1.8550 -1.8025 -0.6796
 7830SOL    HW234953   2.015   2.020   9.451  0.0872  1.3393 -0.5241
 7831SOL     OW34954   3.013   1.165  17.386 -0.0119 -0.3095  0.2232
 7831SOL    HW134955   3.033   1.141  17.476 -2.3201 -1.0663  0.5349
 7831SOL    HW234956   3.030   1.259  17.390  0.9235 -0.3923 -1.7024
 7832SOL     OW34957   0.188   3.618   5.176 -0.0657 -0.6648 -0.0612
 7832SOL    HW134958   0.247   3.638   5.248  0.1044 -1.5917  0.0624
 7832SOL    HW234959   0.199   3.523   5.171 -2.5876 -0.9471 -0.2912
 7833SOL     OW34960   4.050   3.493  16.883 -0.3391 -0.0304 -0.1073
 7833SOL    HW134961   3.985   3.552  16.847 -2.5647 -1.4411  1.5814
 7833SOL    HW234962   4.037   3.422  16.821  0.5669 -0.3794  0.0955
 7834SOL     OW34963   0.592   4.629  10.165  0.0985 -0.5359 -0.1768
 7834SOL    HW134964   0.545   4.687  10.225  1.4224 -0.7409  1.0518
 7834SOL    HW234965   0.677   4.644  10.206  1.1874  0.3431 -2.7165
 7835SOL     OW34966   1.123   0.224   5.504  0.4808  0.6162 -0.2772
 7835SOL    HW134967   1.092   0.153   5.448  1.4225 -0.1962  0.2370
 7835SOL    HW234968   1.041   0.260   5.539 -0.7945 -2.3618 -0.2427
 7836SOL     OW34969   0.839   4.025   9.430 -0.2755 -0.0749 -0.4089
 7836SOL    HW134970   0.881   3.976   9.500  1.1405  0.9636 -0.5200
 7836SOL    HW234971   0.787   3.955   9.391  1.3272 -0.9819 -0.9381
 7837SOL     OW34972   4.397   3.648   2.043 -0.2277  0.1612  0.2663
 7837SOL    HW134973   4.307   3.680   2.041 -0.0203  0.5063 -2.7241
 7837SOL    HW234974   4.437   3.716   2.097 -0.9686  0.8020  0.0008
 7838SOL     OW34975   0.933   0.351   2.263 -0.2528 -0.2354  0.2166
 7838SOL    HW134976   0.996   0.417   2.235  0.0931 -0.3551  0.7142
 7838SOL    HW234977   0.939   0.286   2.192  0.4049  0.5481 -0.4444
 7839SOL     OW34978   2.035   2.156   7.811 -0.5322 -0.2895 -1.0088
 7839SOL    HW134979   1.985   2.192   7.884  0.3436  1.1407 -1.1035
 7839SOL    HW234980   2.001   2.067   7.808 -1.0544 -0.1039 -0.5083
 7840SOL     OW34981   3.344   1.273   6.289  0.3802  0.3597 -0.8631
 7840SOL    HW134982   3.308   1.357   6.259 -1.7940 -0.7139 -1.3019
 7840SOL    HW234983   3.322   1.266   6.382 -0.1046  0.1222 -0.9931
 7841SOL     OW34984   2.117   4.017  11.545 -0.1997  0.3027  0.4189
 7841SOL    HW134985   2.022   4.025  11.536 -0.3868  0.3794  2.4826
 7841SOL    HW234986   2.131   3.963  11.623 -0.5588 -1.7028 -0.9102
 7842SOL     OW34987   0.540   3.329   5.765 -0.3522 -0.4377 -0.2928
 7842SOL    HW134988   0.469   3.385   5.796  0.1784  0.0548  0.0294
 7842SOL    HW234989   0.607   3.361   5.825 -0.3397  2.2076 -1.7281
 7843SOL     OW34990   2.299   4.472   5.139 -0.2141  0.0921  0.0341
 7843SOL    HW134991   2.219   4.423   5.158 -1.1168  0.5440 -2.7003
 7843SOL    HW234992   2.282   4.566   5.139 -0.0036  0.1518  3.3801
 7844SOL     OW34993   3.182   3.188   6.745 -0.1861  0.3839 -0.2595
 7844SOL    HW134994   3.238   3.197   6.822  1.9608  1.6362 -1.9701
 7844SOL    HW234995   3.145   3.274   6.726  0.6435  0.8619  0.2752
 7845SOL     OW34996   2.713   4.234  14.436  0.4277  0.5339  0.2511
 7845SOL    HW134997   2.640   4.263  14.491 -0.1117  0.5025 -0.4418
 7845SOL    HW234998   2.777   4.241  14.506 -0.2769  0.7070  0.8789
 7846SOL     OW34999   1.621   4.244   1.975  0.3196  0.2657  0.1798
 7846SOL    HW135000   1.561   4.171   1.960  0.4293  0.6944 -2.3116
 7846SOL    HW235001   1.679   4.237   1.899  0.8866  1.1488  0.5334
 7847SOL     OW35002   4.017   1.480   7.554  0.3962 -0.3042 -0.2844
 7847SOL    HW135003   4.020   1.408   7.492 -0.2539  0.5812 -1.3435
 7847SOL    HW235004   3.942   1.534   7.528  0.5595 -2.2905 -4.7205
 7848SOL     OW35005   4.645   0.196   3.046 -0.0398 -0.0474 -0.6876
 7848SOL    HW135006   4.576   0.188   2.980 -1.4145  1.3228  0.6041
 7848SOL    HW235007   4.656   0.286   3.078  0.7879 -0.0782 -0.8707
 7849SOL     OW35008   2.929   2.147   7.608  0.3512 -0.4449  0.4876
 7849SOL    HW135009   2.846   2.195   7.604 -0.0705 -1.3691 -2.1088
 7849SOL    HW235010   2.991   2.210   7.572 -0.4780 -0.8837 -1.7328
 7850SOL     OW35011   4.465   0.859   8.974  0.1230 -0.0879 -0.5218
 7850SOL    HW135012   4.551   0.822   8.957  1.1602  0.9994  2.3446
 7850SOL    HW235013   4.449   0.843   9.067 -1.5659 -2.3578 -1.2025
 7851SOL     OW35014   3.644   4.565   7.394  0.4457 -0.3074  0.2054
 7851SOL    HW135015   3.616   4.563   7.302  2.5857  1.1098 -0.4575
 7851SOL    HW235016   3.601   4.642   7.430 -0.0351 -0.5254  0.0972
 7852SOL     OW35017   1.955   3.583   5.536 -0.0838  0.8011 -0.0280
 7852SOL    HW135018   1.970   3.566   5.443  0.9685  0.2829  0.2296
 7852SOL    HW235019   1.889   3.516   5.555  1.0973 -0.1680  0.6728
 7853SOL     OW35020   0.813   0.252   6.748  0.2168 -0.4705  0.6054
 7853SOL    HW135021   0.759   0.173   6.745  2.2365 -1.7297 -2.5546
 7853SOL    HW235022   0.865   0.226   6.672 -1.0255 -0.5103 -0.2233
 7854SOL     OW35023   0.438   0.951   7.262 -0.0889 -0.4577  0.2124
 7854SOL    HW135024   0.440   0.913   7.174  0.0474  1.6175 -0.6746
 7854SOL    HW235025   0.379   1.025   7.248 -1.5199 -1.5577  0.4612
 7855SOL     OW35026   1.015   0.199  12.531  0.0470 -0.4315  0.2431
 7855SOL    HW135027   0.974   0.155  12.457 -1.4081 -0.3934  1.0301
 7855SOL    HW235028   0.938   0.203  12.588  0.6681 -0.8073  1.1149
 7856SOL     OW35029   3.487   1.237   1.991 -0.2838 -0.2988  0.2368
 7856SOL    HW135030   3.524   1.154   1.963  2.8501  0.9662  0.5155
 7856SOL    HW235031   3.407   1.243   1.939 -1.9129 -1.3593  2.6255
 7857SOL     OW35032   1.108   0.516   2.152 -0.2352 -0.4304  0.0502
 7857SOL    HW135033   1.196   0.540   2.181  0.9560  0.5784 -4.4753
 7857SOL    HW235034   1.074   0.605   2.141  1.7836  0.1289 -1.6446
 7858SOL     OW35035   2.712   2.519  16.425  0.2783 -0.7390 -0.9407
 7858SOL    HW135036   2.785   2.575  16.400 -0.8539  1.9692  1.8990
 7858SOL    HW235037   2.699   2.462  16.349  0.0252 -1.0487 -0.6665
 7859SOL     OW35038   1.169   4.537   3.857  0.0393 -0.3732 -0.6153
 7859SOL    HW135039   1.207   4.567   3.940 -2.0378  1.3814 -0.3033
 7859SOL    HW235040   1.237   4.554   3.792  1.9291  1.9642  1.9945
 7860SOL     OW35041   4.654   2.146   5.163 -0.3873 -0.1996 -0.0362
 7860SOL    HW135042   4.582   2.179   5.217  0.3857 -1.1785  1.5908
 7860SOL    HW235043   4.681   2.230   5.127  1.4138 -0.8895 -0.2811
 7861SOL     OW35044   4.704   0.122   7.680 -0.3075  0.3634  0.2579
 7861SOL    HW135045   0.058   0.143   7.726 -0.4093  0.8884  0.2009
 7861SOL    HW235046   4.641   0.102   7.749 -1.6543 -2.7742 -1.8343
 7862SOL     OW35047   0.894   3.350   2.955 -0.7993 -0.1952 -0.1545
 7862SOL    HW135048   0.860   3.371   3.042 -2.4520  0.6561 -1.0002
 7862SOL    HW235049   0.862   3.426   2.906  1.0081  0.3328 -0.4986
 7863SOL     OW35050   1.891   1.119  11.288 -0.5390  0.0065  0.5522
 7863SOL    HW135051   1.973   1.096  11.331  0.0811 -1.4711 -1.4011
 7863SOL    HW235052   1.837   1.131  11.366  0.6069  3.3039  0.8105
 7864SOL     OW35053   0.929   4.567  15.843  0.3773 -0.0946 -0.3090
 7864SOL    HW135054   0.990   4.510  15.795  1.1856 -1.1507  1.9830
 7864SOL    HW235055   0.867   4.597  15.777  1.1430 -1.5735 -1.7035
 7865SOL     OW35056   4.263   3.676  11.838 -0.1048 -0.8857  0.1491
 7865SOL    HW135057   4.291   3.703  11.751 -0.3880 -0.5550  0.1567
 7865SOL    HW235058   4.302   3.741  11.897  0.4986 -0.6515 -0.5191
 7866SOL     OW35059   2.217   1.978  15.162 -1.1018 -0.0405 -0.3487
 7866SOL    HW135060   2.223   1.968  15.067 -0.6224  0.0110 -0.3204
 7866SOL    HW235061   2.220   2.073  15.173 -2.1488 -0.1590  0.9223
 7867SOL     OW35062   2.020   2.423   4.586 -0.1719  0.1486 -0.2310
 7867SOL    HW135063   2.073   2.354   4.625 -0.6986  1.0552  2.0967
 7867SOL    HW235064   2.080   2.451   4.517 -0.7956  0.6471 -0.5727
 7868SOL     OW35065   1.368   1.703   7.560  0.3843  0.3089 -0.3681
 7868SOL    HW135066   1.287   1.654   7.572  0.9543 -0.8245 -1.0631
 7868SOL    HW235067   1.432   1.631   7.560  0.2473  0.1771  1.1793
 7869SOL     OW35068   2.050   1.683   1.163 -0.5122  0.2329  0.8235
 7869SOL    HW135069   2.056   1.602   1.213 -0.2804 -0.9837 -1.1503
 7869SOL    HW235070   1.957   1.702   1.149 -0.3067  1.5073  1.1686
 7870SOL     OW35071   2.915   1.660  15.320  0.3624  0.1837 -0.4278
 7870SOL    HW135072   2.856   1.640  15.248  2.4747  1.2525 -2.4652
 7870SOL    HW235073   2.969   1.729  15.281  1.1015  0.6971  1.5165
 7871SOL     OW35074   4.321   3.466   8.187  0.0143 -0.1845 -0.2862
 7871SOL    HW135075   4.407   3.498   8.213 -0.5800  1.2189 -0.0439
 7871SOL    HW235076   4.334   3.372   8.200 -1.8710 -0.1277  1.8985
 7872SOL     OW35077   3.894   2.672   3.222 -0.4060 -0.8116 -0.1107
 7872SOL    HW135078   3.877   2.698   3.313 -0.6444 -1.4193  0.0164
 7872SOL    HW235079   3.812   2.708   3.189  1.3090  1.8623 -1.4456
 7873SOL     OW35080   1.628   0.990   3.464  0.0543 -0.3786  0.2772
 7873SOL    HW135081   1.558   1.008   3.402  1.4183 -0.2384 -1.2078
 7873SOL    HW235082   1.664   0.912   3.421  0.1765  0.3430 -0.9228
 7874SOL     OW35083   2.312   3.508   4.991 -0.2539  0.5476  0.0923
 7874SOL    HW135084   2.275   3.592   5.020  1.9000  1.2691  0.7052
 7874SOL    HW235085   2.248   3.474   4.928 -0.0597  0.3296  0.0122
 7875SOL     OW35086   1.995   0.462   1.076 -0.4221 -0.4970 -0.1837
 7875SOL    HW135087   2.049   0.444   0.999  2.0121  0.7819  1.2189
 7875SOL    HW235088   2.005   0.557   1.071  0.4034 -0.4660  2.2339
 7876SOL     OW35089   2.009   0.205   8.467 -0.5176 -0.1751 -0.1368
 7876SOL    HW135090   2.067   0.196   8.391  0.8349 -0.0155  0.8742
 7876SOL    HW235091   1.991   0.299   8.467  0.0455 -0.0655 -0.5810
 7877SOL     OW35092   3.521   1.553   2.059 -0.3786 -0.3045 -0.3752
 7877SOL    HW135093   3.584   1.607   2.107  0.0350  0.1127 -1.3965
 7877SOL    HW235094   3.569   1.489   2.007 -0.5744 -1.3294  0.7042
 7878SOL     OW35095   2.074   2.974   7.334 -0.0762  0.1015 -0.0739
 7878SOL    HW135096   2.053   2.886   7.304  1.1817  0.6068 -2.4339
 7878SOL    HW235097   2.168   2.970   7.350  0.0041  0.6343 -0.4309
 7879SOL     OW35098   2.599   3.594  14.442  0.5581 -0.1608  0.6969
 7879SOL    HW135099   2.521   3.553  14.404 -0.7024  1.1251  1.9469
 7879SOL    HW235100   2.640   3.520  14.487 -1.1973 -1.1698  0.6089
 7880SOL     OW35101   3.683   4.346   8.543  0.1183 -0.4508  0.2188
 7880SOL    HW135102   3.771   4.310   8.553 -0.1942 -1.1256  0.5795
 7880SOL    HW235103   3.658   4.377   8.630 -1.2468  0.9332 -0.6676
 7881SOL     OW35104   3.103   1.308   7.621 -0.0174  0.1990 -0.2968
 7881SOL    HW135105   3.094   1.246   7.548  0.3440  1.1745 -1.1758
 7881SOL    HW235106   3.019   1.289   7.663  0.6644 -1.1550  0.4515
 7882SOL     OW35107   4.340   4.513   1.553  0.2184  0.2316 -0.4318
 7882SOL    HW135108   4.300   4.586   1.600  2.5546  0.1928  1.6450
 7882SOL    HW235109   4.286   4.439   1.580 -1.9587  0.9687 -2.7754
 7883SOL     OW35110   4.256   2.694   2.354  0.5094  0.5405 -0.5262
 7883SOL    HW135111   4.335   2.744   2.377 -0.0347  1.0028  0.3250
 7883SOL    HW235112   4.217   2.661   2.435 -1.6033 -2.8156 -2.9193
 7884SOL     OW35113   1.324   0.314   4.906 -0.1373  0.3284  0.2022
 7884SOL    HW135114   1.295   0.223   4.919 -0.0714  0.4488  1.1632
 7884SOL    HW235115   1.388   0.313   4.976  2.2904 -2.6629 -2.0426
 7885SOL     OW35116   4.173   2.264  16.584 -0.0068  0.3065  0.0773
 7885SOL    HW135117   4.161   2.208  16.661  0.7545 -3.4893 -2.5800
 7885SOL    HW235118   4.259   2.300  16.606 -0.0552 -1.7583  3.7461
 7886SOL     OW35119   2.788   1.721   3.877  0.3373 -0.3798  0.0205
 7886SOL    HW135120   2.751   1.648   3.828  2.1174 -1.9868  1.1130
 7886SOL    HW235121   2.740   1.793   3.836 -0.6389 -1.1227 -0.1547
 7887SOL     OW35122   3.963   0.238   3.019  0.0845 -0.3483  0.5116
 7887SOL    HW135123   3.941   0.319   2.973  2.9444  0.4931  0.5996
 7887SOL    HW235124   4.028   0.264   3.084 -0.7362 -0.4301  1.3759
 7888SOL     OW35125   0.154   1.036   9.526  0.2743  0.2500  0.1684
 7888SOL    HW135126   0.143   1.069   9.437  1.6313 -2.5070 -1.0335
 7888SOL    HW235127   0.199   1.107   9.570 -1.5809  0.5224  1.6115
 7889SOL     OW35128   0.453   3.733  11.840  0.2868  0.1938  0.8056
 7889SOL    HW135129   0.377   3.761  11.892  1.1728  2.0113  1.1154
 7889SOL    HW235130   0.423   3.651  11.800 -2.3590  1.4489  0.1919
 7890SOL     OW35131   1.387   1.588   6.165 -0.0622  0.1590 -0.4321
 7890SOL    HW135132   1.423   1.569   6.252 -1.5318 -0.5656  0.0122
 7890SOL    HW235133   1.309   1.635   6.192 -0.1783  0.5013 -1.3599
 7891SOL     OW35134   4.131   3.222   4.754 -0.6202 -0.7882 -0.4150
 7891SOL    HW135135   4.169   3.145   4.713  0.8207 -0.8921  1.1220
 7891SOL    HW235136   4.127   3.277   4.675  0.4500 -0.0282  0.0642
 7892SOL     OW35137   2.166   1.720  16.209 -1.1927 -0.6198  0.2956
 7892SOL    HW135138   2.224   1.656  16.249 -0.3433 -0.1990 -0.2416
 7892SOL    HW235139   2.184   1.788  16.274 -0.4054 -0.0174 -0.5572
 7893SOL     OW35140   0.038   0.460   6.413 -0.4162 -0.5611  0.4140
 7893SOL    HW135141   0.073   0.399   6.349 -0.7287  1.3106 -1.5431
 7893SOL    HW235142   0.090   0.439   6.491  0.3095  1.5750  0.5068
 7894SOL     OW35143   1.188   4.212   0.039  0.1934 -0.1292  0.1915
 7894SOL    HW135144   1.220   4.298   0.066  2.7956 -0.4943 -1.7363
 7894SOL    HW235145   1.263   4.163   0.007  0.9882  1.1757  0.0439
 7895SOL     OW35146   1.275   0.944   5.426 -0.1125  0.3099  0.0457
 7895SOL    HW135147   1.270   0.949   5.522 -0.5305  0.2155  0.0282
 7895SOL    HW235148   1.307   0.854   5.424  2.4692  1.1699  1.9364
 7896SOL     OW35149   1.694   2.514   6.772 -0.6983 -0.3654  0.0066
 7896SOL    HW135150   1.695   2.548   6.862 -0.9958 -0.2317 -0.0412
 7896SOL    HW235151   1.678   2.421   6.788 -1.5497 -0.5078 -1.7281
 7897SOL     OW35152   2.374   1.531   4.459 -0.4108 -0.3283  0.3710
 7897SOL    HW135153   2.305   1.513   4.395 -1.0690 -0.7284  1.1932
 7897SOL    HW235154   2.445   1.565   4.405  0.3965 -1.8834  0.4657
 7898SOL     OW35155   1.071   2.766  14.575  0.3529  0.0747 -0.2854
 7898SOL    HW135156   1.121   2.807  14.505  3.7322 -0.4630  1.8235
 7898SOL    HW235157   1.001   2.830  14.588 -0.2349 -0.4666 -0.7636
 7899SOL     OW35158   2.627   2.757   6.037 -0.2242 -0.1594 -0.4674
 7899SOL    HW135159   2.710   2.710   6.040  0.2320  0.8459  2.7778
 7899SOL    HW235160   2.564   2.685   6.046 -0.9344  0.4482 -0.5123
 7900SOL     OW35161   0.252   3.401  13.801  0.1540 -0.7866  0.0662
 7900SOL    HW135162   0.182   3.463  13.780  1.2453  0.5913  0.5203
 7900SOL    HW235163   0.279   3.377  13.712 -0.2938 -1.7978  0.2029
 7901SOL     OW35164   2.854   1.603   2.232 -0.6744  0.4074  0.1906
 7901SOL    HW135165   2.782   1.574   2.177  0.1873 -2.3673  0.5202
 7901SOL    HW235166   2.847   1.546   2.309 -0.1332  3.5857  2.6159
 7902SOL     OW35167   1.927   0.942   4.612  0.2085  0.0294  0.6167
 7902SOL    HW135168   2.014   0.930   4.650  1.0484 -1.3171 -1.7357
 7902SOL    HW235169   1.944   0.933   4.518  3.0490 -0.4357  1.1908
 7903SOL     OW35170   4.330   0.934   7.187 -0.1790 -0.1081  0.1090
 7903SOL    HW135171   4.286   0.858   7.148  0.8754 -0.0221 -1.2327
 7903SOL    HW235172   4.324   0.998   7.117  1.7041 -0.5619 -0.4670
 7904SOL     OW35173   4.565   2.487  12.023 -0.4973 -0.1268  0.5438
 7904SOL    HW135174   4.561   2.533  11.939 -1.0385 -0.2683  0.4934
 7904SOL    HW235175   4.652   2.449  12.004  0.5339  1.6491  1.7727
 7905SOL     OW35176   1.579   0.534   3.825 -0.4559  0.1620 -0.0345
 7905SOL    HW135177   1.485   0.517   3.830 -0.3843 -0.0010  0.9050
 7905SOL    HW235178   1.594   0.481   3.747  1.8368 -0.0862  0.5759
 7906SOL     OW35179   0.776   3.702  16.268 -0.4239 -0.1624 -0.5919
 7906SOL    HW135180   0.697   3.658  16.236 -1.0114 -1.1383  2.1583
 7906SOL    HW235181   0.842   3.633  16.261 -1.6878 -1.2385 -1.8594
 7907SOL     OW35182   2.618   1.856   7.925 -0.0282 -0.4121 -0.3039
 7907SOL    HW135183   2.628   1.791   7.995 -0.6073  1.1421  1.2167
 7907SOL    HW235184   2.580   1.930   7.973  1.0358  0.6786 -1.1210
 7908SOL     OW35185   4.596   2.520   6.356  0.0504  0.3059 -0.1551
 7908SOL    HW135186   4.666   2.585   6.349  0.8839 -0.5387  0.3026
 7908SOL    HW235187   4.636   2.447   6.309 -1.9860 -0.7073 -0.2972
 7909SOL     OW35188   3.542   0.136  15.314  0.0913  0.6222  0.1749
 7909SOL    HW135189   3.492   0.071  15.264  1.5585  0.7814 -1.5025
 7909SOL    HW235190   3.481   0.141  15.388 -1.3454  1.8970 -1.0797
 7910SOL     OW35191   2.692   0.174   4.100  0.3048  0.1992  0.1500
 7910SOL    HW135192   2.677   0.268   4.090 -0.4111  0.2697  1.8273
 7910SOL    HW235193   2.776   0.164   4.055  0.5760 -2.5055  1.2056
 7911SOL     OW35194   2.653   0.746   2.734  0.4851 -0.0153 -0.1964
 7911SOL    HW135195   2.616   0.659   2.747 -1.0438  0.6364 -0.1034
 7911SOL    HW235196   2.583   0.807   2.758  1.0723  2.3507 -4.4846
 7912SOL     OW35197   1.473   3.433  11.753 -0.0618 -0.0992 -0.0311
 7912SOL    HW135198   1.553   3.475  11.722 -0.7994  2.0512  0.9570
 7912SOL    HW235199   1.442   3.376  11.683  1.3381 -0.5500 -0.2702
 7913SOL     OW35200   1.084   4.041   4.322 -0.2100  0.0349  0.8190
 7913SOL    HW135201   1.102   3.947   4.310 -1.1870 -0.0192 -0.1538
 7913SOL    HW235202   1.123   4.074   4.241 -0.2294 -0.0944  0.7558
 7914SOL     OW35203   3.490   0.328   4.859 -0.3915  0.0828  0.6988
 7914SOL    HW135204   3.493   0.275   4.938  1.0406 -1.0475 -0.1325
 7914SOL    HW235205   3.563   0.384   4.888 -2.1971  2.2326  1.1134
 7915SOL     OW35206   2.532   2.269  14.207  0.0550 -0.3478  0.4637
 7915SOL    HW135207   2.587   2.224  14.143  2.4817  2.4852  0.5591
 7915SOL    HW235208   2.575   2.238  14.286  1.4727 -1.1793 -0.6295
 7916SOL     OW35209   3.707   3.780  16.432  0.3932  0.5750 -0.6828
 7916SOL    HW135210   3.766   3.827  16.491  0.0795  0.6652 -0.4377
 7916SOL    HW235211   3.771   3.767  16.363  1.3084  0.8147  0.1168
 7917SOL     OW35212   4.655   2.090   5.990  0.6084  0.3143 -0.6134
 7917SOL    HW135213   4.632   2.020   5.929 -0.5678  0.0061  0.1885
 7917SOL    HW235214   4.722   2.131   5.935  1.2641 -0.1823 -0.1729
 7918SOL     OW35215   2.071   4.446   3.284 -0.1091 -0.4875 -0.4955
 7918SOL    HW135216   2.089   4.531   3.325  2.9775 -0.7046 -1.3536
 7918SOL    HW235217   1.981   4.449   3.254 -0.3994  1.2723  0.5335
 7919SOL     OW35218   0.929   3.724   3.306  0.0988  0.2112 -0.1661
 7919SOL    HW135219   0.988   3.682   3.244  2.1838  2.4615  0.2889
 7919SOL    HW235220   0.854   3.747   3.251 -0.1911 -1.7063 -0.5792
 7920SOL     OW35221   2.579   3.069   5.449  0.3539  0.0601 -0.0015
 7920SOL    HW135222   2.635   3.014   5.504 -1.6169 -0.8926  1.0218
 7920SOL    HW235223   2.542   3.123   5.519  1.3437  0.6176  0.1063
 7921SOL     OW35224   4.116   3.143  14.376 -0.0168 -0.3795 -0.8211
 7921SOL    HW135225   4.198   3.106  14.409 -2.0483 -2.7310  1.5982
 7921SOL    HW235226   4.099   3.209  14.443  0.0752 -2.3082  1.1081
 7922SOL     OW35227   4.725   4.658   3.791  0.1776 -0.0378 -0.1567
 7922SOL    HW135228   0.031   4.661   3.701  1.7354  0.8961  0.4605
 7922SOL    HW235229   0.028   0.015   3.826  2.0403  0.1482 -2.2038
 7923SOL     OW35230   0.409   0.994   9.213  0.4294 -0.2603 -0.2250
 7923SOL    HW135231   0.402   1.014   9.306 -0.0707  0.8116 -0.4904
 7923SOL    HW235232   0.472   1.065   9.200 -1.9278  2.0407  0.9235
 7924SOL     OW35233   4.392   1.587  14.917  0.4195  0.1125  0.2414
 7924SOL    HW135234   4.324   1.650  14.943 -1.2481 -2.1452  1.3880
 7924SOL    HW235235   4.408   1.529  14.992  2.8248 -1.6841 -1.6984
 7925SOL     OW35236   1.000   4.650   1.994  0.6627 -0.5072  0.4239
 7925SOL    HW135237   0.932   4.583   2.005  1.3269 -1.1802  0.4667
 7925SOL    HW235238   1.064   4.609   2.052 -0.3456 -2.8693 -0.0928
 7926SOL     OW35239   3.302   4.726  14.018 -0.5709  0.5682 -0.0089
 7926SOL    HW135240   3.309   4.634  13.993 -1.2074  0.5907 -0.2749
 7926SOL    HW235241   3.336   4.714  14.107 -0.8211 -1.6207 -0.2271
 7927SOL     OW35242   2.026   4.257   3.987 -0.3380 -0.7425 -0.3132
 7927SOL    HW135243   2.026   4.350   4.008  1.2395 -0.9865  0.7784
 7927SOL    HW235244   2.083   4.223   4.057  2.1149 -2.9056 -3.3890
 7928SOL     OW35245   0.053   3.242   3.597  0.1017  0.1100  0.3316
 7928SOL    HW135246   0.019   3.181   3.531 -1.6969 -0.0201  1.3757
 7928SOL    HW235247   0.061   3.324   3.548 -1.7600 -0.6694 -1.2895
 7929SOL     OW35248   0.038   0.731   3.326  0.4099 -0.0431 -0.8916
 7929SOL    HW135249   4.692   0.712   3.268  0.2447 -0.4704 -0.5489
 7929SOL    HW235250   0.105   0.765   3.266  0.0859 -0.8325 -1.6921
 7930SOL     OW35251   4.327   3.364  10.021 -0.3636 -0.0614 -0.2790
 7930SOL    HW135252   4.409   3.320  10.043 -1.0211 -1.3130 -0.3453
 7930SOL    HW235253   4.346   3.413   9.942 -1.6159  1.6989  0.4995
 7931SOL     OW35254   1.192   3.840   0.039 -0.3940  0.6117 -0.8952
 7931SOL    HW135255   1.262   3.854   0.102 -0.5226  0.1775 -0.6494
 7931SOL    HW235256   1.216   3.897  17.676 -1.4248  1.9919 -0.1665
 7932SOL     OW35257   4.158   2.426  13.463  0.0071  0.3533 -0.2270
 7932SOL    HW135258   4.189   2.349  13.414  2.6743  0.3629  1.4341
 7932SOL    HW235259   4.162   2.485  13.388 -0.3559 -0.2401 -0.7149
 7933SOL     OW35260   1.172   1.799   9.092 -0.6044 -0.1351  0.0446
 7933SOL    HW135261   1.180   1.860   9.165  2.2423  0.5330 -0.8267
 7933SOL    HW235262   1.090   1.752   9.105 -0.4050 -0.3182  0.6394
 7934SOL     OW35263   1.295   2.937   6.154 -0.3336 -0.0506  0.1412
 7934SOL    HW135264   1.259   3.013   6.200  0.1196  0.5219 -0.4426
 7934SOL    HW235265   1.254   2.939   6.068  0.0198 -0.2996 -0.0335
 7935SOL     OW35266   3.336   0.631   3.175  0.4105 -0.6465 -0.5416
 7935SOL    HW135267   3.268   0.651   3.111  1.3661 -0.2879 -1.4454
 7935SOL    HW235268   3.403   0.596   3.117  0.5488 -0.5315 -0.4511
 7936SOL     OW35269   1.094   4.337   3.717 -0.1197  0.1315 -0.5816
 7936SOL    HW135270   1.079   4.415   3.771  0.0430 -0.0391 -0.2907
 7936SOL    HW235271   1.184   4.313   3.741 -0.9890 -0.8670  1.7132
 7937SOL     OW35272   3.513   1.385  11.675 -0.4067 -0.1343 -0.0050
 7937SOL    HW135273   3.568   1.338  11.738  0.0885  1.8843  1.0866
 7937SOL    HW235274   3.566   1.461  11.652  0.1303 -0.5516 -0.1315
 7938SOL     OW35275   3.576   0.181   8.269 -0.2778 -0.2688 -0.0125
 7938SOL    HW135276   3.633   0.257   8.279  0.4389 -0.5436 -2.0451
 7938SOL    HW235277   3.625   0.146   8.194  0.3825  3.0117 -1.0899
 7939SOL     OW35278   2.808   4.135   2.669 -0.4410  0.3171 -0.0504
 7939SOL    HW135279   2.776   4.078   2.599 -1.4710  0.7444  0.0717
 7939SOL    HW235280   2.827   4.209   2.612  0.8195 -1.3144 -1.7582
 7940SOL     OW35281   0.600   0.393   6.505  0.3456 -0.4245 -0.3523
 7940SOL    HW135282   0.615   0.481   6.540  1.2898  0.0075 -1.8596
 7940SOL    HW235283   0.536   0.358   6.567 -2.3999  0.6664 -2.5580
 7941SOL     OW35284   3.888   2.503  14.774 -0.3207 -0.2399 -0.3406
 7941SOL    HW135285   3.961   2.490  14.714  0.9442 -0.4362  1.2457
 7941SOL    HW235286   3.861   2.414  14.799 -1.0196  0.5457  1.6806
 7942SOL     OW35287   2.674   3.994   2.918  0.3333  0.3357 -0.5661
 7942SOL    HW135288   2.622   3.968   2.994  1.7658 -0.1184  0.2616
 7942SOL    HW235289   2.604   4.010   2.855 -0.8767  0.1842  0.7390
 7943SOL     OW35290   1.680   3.569  16.144  0.1887  0.2785  0.4711
 7943SOL    HW135291   1.752   3.572  16.081  1.7848  2.0834  2.3594
 7943SOL    HW235292   1.714   3.593  16.230  2.6003 -1.5443  0.0432
 7944SOL     OW35293   0.386   2.622  14.040 -0.2045 -0.0466  0.0598
 7944SOL    HW135294   0.444   2.685  14.082 -1.0291 -0.2546  1.4920
 7944SOL    HW235295   0.302   2.656  14.071  0.3945  0.6992  0.8854
 7945SOL     OW35296   2.214   1.862   9.934 -0.1470 -0.1819 -0.0644
 7945SOL    HW135297   2.172   1.790   9.982 -0.6953 -1.1310 -1.9655
 7945SOL    HW235298   2.139   1.883   9.879  1.2133  3.4228 -0.5142
 7946SOL     OW35299   2.224   3.057   5.632  0.1948  0.3091 -0.2438
 7946SOL    HW135300   2.318   3.070   5.641  0.1381 -0.6253  1.6948
 7946SOL    HW235301   2.195   3.144   5.607 -0.8357  0.6608  2.1356
 7947SOL     OW35302   0.435   4.009   4.153 -0.1928  0.0461  1.0471
 7947SOL    HW135303   0.469   4.089   4.194  0.7164  0.6497 -0.8912
 7947SOL    HW235304   0.380   4.052   4.088  0.1893 -1.4230 -0.2316
 7948SOL     OW35305   4.244   4.133   9.852  0.3914 -0.5078 -0.0441
 7948SOL    HW135306   4.313   4.143   9.786  0.0048 -2.3550 -0.7287
 7948SOL    HW235307   4.171   4.179   9.810 -1.0991 -1.1693  1.8428
 7949SOL     OW35308   2.395   0.695   6.969 -0.7254 -0.3474 -0.0951
 7949SOL    HW135309   2.430   0.783   6.953  2.8051 -2.0636 -1.8926
 7949SOL    HW235310   2.422   0.676   7.059 -1.9306 -0.1228  0.3080
 7950SOL     OW35311   2.402   1.322   3.010 -0.1508 -0.8338  0.6102
 7950SOL    HW135312   2.437   1.271   2.937 -1.9731 -1.1758 -0.0157
 7950SOL    HW235313   2.429   1.408   2.977  1.3853 -1.2652  0.7367
 7951SOL     OW35314   3.909   2.176  14.769 -0.7782 -0.2312 -0.2438
 7951SOL    HW135315   3.928   2.093  14.813  0.7880 -0.0421 -0.5723
 7951SOL    HW235316   3.984   2.234  14.783 -0.6622 -0.3712 -0.2884
 7952SOL     OW35317   0.914   0.878  10.653  0.5395  0.3814 -0.2970
 7952SOL    HW135318   0.898   0.857  10.745  0.1913  3.3672  0.3142
 7952SOL    HW235319   0.971   0.954  10.664 -0.3962  1.1368 -0.6661
 7953SOL     OW35320   0.924   2.461   4.570  0.2155  0.4113 -1.0954
 7953SOL    HW135321   0.870   2.382   4.570 -0.5481  0.9192  2.3422
 7953SOL    HW235322   0.973   2.441   4.650 -0.9126 -1.3833 -0.8693
 7954SOL     OW35323   2.023   2.609  14.341 -0.0477 -0.2094 -0.3277
 7954SOL    HW135324   1.935   2.638  14.363 -0.1371  0.0674 -1.0366
 7954SOL    HW235325   2.020   2.622  14.246  3.1699  4.0813  0.1263
 7955SOL     OW35326   4.158   4.335   5.480  0.3541 -1.0049  0.4281
 7955SOL    HW135327   4.070   4.371   5.472  2.1527  3.2268 -0.1401
 7955SOL    HW235328   4.158   4.314   5.573  0.1130 -1.0477  0.4180
 7956SOL     OW35329   2.471   2.953  16.904 -0.0372  0.1726  0.0690
 7956SOL    HW135330   2.497   2.892  16.835  2.2049  1.5707 -0.2939
 7956SOL    HW235331   2.451   3.031  16.852  0.0752 -0.4346 -0.8763
 7957SOL     OW35332   1.664   2.458  12.989  0.1903 -0.1616  0.1736
 7957SOL    HW135333   1.611   2.419  12.920  2.4166 -1.9216 -0.5739
 7957SOL    HW235334   1.679   2.385  13.049  0.4074 -0.8300 -0.6891
 7958SOL     OW35335   4.285   1.174  11.637 -0.2816  0.1329 -0.5577
 7958SOL    HW135336   4.369   1.202  11.673 -0.9964  1.6052 -0.0590
 7958SOL    HW235337   4.242   1.133  11.713  0.6902 -1.8217 -1.0498
 7959SOL     OW35338   0.606   3.405   5.147  0.1131 -0.3633  0.3888
 7959SOL    HW135339   0.521   3.445   5.126 -0.0642 -0.4551  0.9387
 7959SOL    HW235340   0.635   3.367   5.064  1.2447 -0.6244  0.9100
 7960SOL     OW35341   4.283   0.504   7.201  0.4383  0.3001  0.1903
 7960SOL    HW135342   4.274   0.492   7.295 -0.0954  1.0509  0.2336
 7960SOL    HW235343   4.376   0.508   7.182  0.7760 -1.6282  1.4583
 7961SOL     OW35344   3.452   0.513  17.611  0.1393 -0.2289  0.4138
 7961SOL    HW135345   3.517   0.467  17.664 -1.1755  0.9881  3.1128
 7961SOL    HW235346   3.416   0.438  17.565 -0.0262 -0.3644  0.7644
 7962SOL     OW35347   2.776   2.964  11.672 -0.1335  0.1389  0.2070
 7962SOL    HW135348   2.796   3.027  11.742 -0.9200  0.8594 -0.2135
 7962SOL    HW235349   2.742   3.016  11.600 -1.2911 -0.0212  0.6463
 7963SOL     OW35350   4.561   2.283  16.465  0.3544 -0.4969  0.2690
 7963SOL    HW135351   4.620   2.340  16.515 -1.0597 -0.3049  1.7011
 7963SOL    HW235352   4.483   2.338  16.470  0.0793 -0.9125  0.4689
 7964SOL     OW35353   2.940   1.943   6.718 -0.1486  0.6823 -0.0713
 7964SOL    HW135354   2.895   1.957   6.635 -0.1617 -1.7881 -0.5044
 7964SOL    HW235355   2.898   1.862   6.747  0.5242  0.7872  1.1901
 7965SOL     OW35356   3.406   0.634  13.788 -0.3313  0.5462 -0.1039
 7965SOL    HW135357   3.417   0.691  13.712 -1.0527  0.7814 -0.0278
 7965SOL    HW235358   3.376   0.552  13.748  2.3611 -0.0142 -0.9675
 7966SOL     OW35359   3.928   3.303  14.829  0.3446 -0.1039 -0.2116
 7966SOL    HW135360   3.953   3.211  14.842 -1.2997 -0.4931  0.2192
 7966SOL    HW235361   3.993   3.346  14.883 -0.1346 -1.3100  1.3535
 7967SOL     OW35362   2.992   4.428   2.676 -0.3542  0.3692  0.3943
 7967SOL    HW135363   2.923   4.416   2.610 -0.0359  0.3967  0.0565
 7967SOL    HW235364   3.060   4.398   2.616 -0.7022 -3.2454  1.8200
 7968SOL     OW35365   0.041   0.238   1.338  0.2326 -0.6263 -0.0590
 7968SOL    HW135366   0.098   0.220   1.412  2.4168  1.2886 -1.2548
 7968SOL    HW235367   4.687   0.267   1.380  1.3193 -0.2019  1.7354
 7969SOL     OW35368   4.521   0.478   8.208  0.3065 -0.5408 -0.3815
 7969SOL    HW135369   4.441   0.516   8.245  1.1867  0.9223  0.0113
 7969SOL    HW235370   4.588   0.515   8.264 -1.7586 -1.4517  2.6836
 7970SOL     OW35371   4.613   1.999  13.799 -0.1390  0.2718 -0.2574
 7970SOL    HW135372   4.654   2.063  13.857  0.1130  0.5044 -0.6894
 7970SOL    HW235373   4.684   1.984  13.737  0.1654 -1.5979  0.5611
 7971SOL     OW35374   4.149   3.941   8.407  0.6168 -0.4782  0.0274
 7971SOL    HW135375   4.222   3.910   8.353  0.1391  1.7783 -1.9065
 7971SOL    HW235376   4.184   3.993   8.480 -0.7619 -0.2666  0.5442
 7972SOL     OW35377   1.390   0.769   9.923 -0.0282 -0.3810 -0.2608
 7972SOL    HW135378   1.428   0.681   9.919  1.2479  0.1474  0.1737
 7972SOL    HW235379   1.394   0.787  10.017  2.3812  0.7457 -0.5799
 7973SOL     OW35380   0.733   2.455   3.868 -0.1705 -0.9877 -0.7541
 7973SOL    HW135381   0.680   2.386   3.908 -0.1296 -0.2121  0.6370
 7973SOL    HW235382   0.741   2.412   3.782 -0.6488  0.8398 -1.7188
 7974SOL     OW35383   1.541   0.604   1.228 -0.4581 -0.0002  0.3359
 7974SOL    HW135384   1.544   0.561   1.314  1.8299  0.1743  0.3409
 7974SOL    HW235385   1.479   0.549   1.180 -1.9666  1.4330  0.6328
 7975SOL     OW35386   1.361   3.831   2.769  0.0613  0.2185  0.2106
 7975SOL    HW135387   1.456   3.837   2.782  0.3060 -2.7056 -0.1701
 7975SOL    HW235388   1.336   3.836   2.861  0.7761  0.4096  0.3960
 7976SOL     OW35389   2.388   3.908   8.982 -0.7979 -0.6318  0.5963
 7976SOL    HW135390   2.475   3.904   9.022 -1.8333  0.6964  2.9533
 7976SOL    HW235391   2.356   3.991   9.017  0.6637  1.0706 -2.0596
 7977SOL     OW35392   2.445   2.621   4.930 -0.4500  0.3183 -0.1299
 7977SOL    HW135393   2.372   2.679   4.905 -0.6552  1.3392  2.8245
 7977SOL    HW235394   2.465   2.578   4.847 -0.6279 -1.1524  0.5925
 7978SOL     OW35395   1.217   0.550   8.821 -0.3382 -0.1506  0.3672
 7978SOL    HW135396   1.141   0.494   8.842 -1.2618  1.2029  0.6042
 7978SOL    HW235397   1.195   0.629   8.870  2.9466  1.0345 -0.1140
 7979SOL     OW35398   2.801   3.827   7.993  0.3536  0.6492  0.4354
 7979SOL    HW135399   2.789   3.918   8.023 -2.3711  0.8245 -1.1678
 7979SOL    HW235400   2.743   3.829   7.917  0.3837 -0.7873  0.3748
 7980SOL     OW35401   1.014   1.886   6.147 -0.0063 -0.5541 -0.3203
 7980SOL    HW135402   0.933   1.842   6.121 -0.1551 -1.0161  0.9367
 7980SOL    HW235403   0.986   1.976   6.130  0.6069 -0.1326  0.9507
 7981SOL     OW35404   2.653   2.906   0.808 -0.4585  0.2734  0.3122
 7981SOL    HW135405   2.644   2.814   0.833 -2.5440 -0.1863 -2.2421
 7981SOL    HW235406   2.638   2.961   0.885  0.0111 -0.4751  0.9319
 7982SOL     OW35407   1.978   1.083   9.136 -0.4160 -0.1714 -0.1238
 7982SOL    HW135408   2.043   1.018   9.109 -1.2428 -1.2219  0.4087
 7982SOL    HW235409   1.914   1.018   9.165  0.5810 -0.2806  1.8196
 7983SOL     OW35410   4.109   1.620  17.182  0.1719  0.1213 -0.7174
 7983SOL    HW135411   4.095   1.700  17.234 -0.5909 -0.0539 -0.6600
 7983SOL    HW235412   4.148   1.665  17.107 -0.6167 -1.0661 -1.8443
 7984SOL     OW35413   3.951   0.691  12.218 -0.2955  0.6032 -0.2591
 7984SOL    HW135414   3.963   0.611  12.270  2.0259 -0.1206 -1.8958
 7984SOL    HW235415   4.012   0.753  12.259  3.5616 -1.8301 -2.3433
 7985SOL     OW35416   3.542   1.322   6.736 -0.3018  0.0540 -0.0007
 7985SOL    HW135417   3.515   1.237   6.701 -1.4484  1.1291 -1.7641
 7985SOL    HW235418   3.467   1.378   6.718  0.2769  0.9069  0.2517
 7986SOL     OW35419   0.186   0.018   6.353  0.1015  0.2976  0.0499
 7986SOL    HW135420   0.243   4.727   6.427  0.9861  2.1082 -0.1876
 7986SOL    HW235421   0.102   4.703   6.373 -1.3269  3.3690  0.4744
 7987SOL     OW35422   1.742   0.545   6.523 -0.4868  0.1544  0.3259
 7987SOL    HW135423   1.750   0.600   6.601 -2.8086  1.5360 -0.3994
 7987SOL    HW235424   1.830   0.539   6.485 -1.0283  1.2014 -1.0788
 7988SOL     OW35425   3.225   1.512   6.225  0.4142  0.4028 -0.0582
 7988SOL    HW135426   3.149   1.521   6.168  1.3710  0.7974 -1.2737
 7988SOL    HW235427   3.199   1.566   6.299 -0.9301 -2.0060  1.2184
 7989SOL     OW35428   2.289   1.271  11.530  0.2414  0.0519  0.0714
 7989SOL    HW135429   2.340   1.202  11.572  3.0460  1.9283 -0.1838
 7989SOL    HW235430   2.323   1.354  11.566  0.0750  0.3488 -0.4651
 7990SOL     OW35431   2.260   2.875   1.081 -0.2686  0.4154  0.6172
 7990SOL    HW135432   2.171   2.901   1.055 -0.9865 -1.1321  1.5262
 7990SOL    HW235433   2.258   2.779   1.076 -0.7910  0.3691  1.6214
 7991SOL     OW35434   1.726   0.358   8.521  0.2288 -0.1770  0.3569
 7991SOL    HW135435   1.646   0.410   8.523 -0.8425 -1.8898  1.9849
 7991SOL    HW235436   1.709   0.297   8.449 -2.9256 -0.4060  1.2769
 7992SOL     OW35437   4.377   3.761  13.936  0.1354  0.0712  0.3362
 7992SOL    HW135438   4.404   3.676  13.901 -2.2297 -0.5059 -0.0544
 7992SOL    HW235439   4.446   3.822  13.908 -0.7127  1.4383  1.2230
 7993SOL     OW35440   2.802   1.073   3.167 -0.4302 -0.2392  0.1347
 7993SOL    HW135441   2.829   1.154   3.124 -0.3889  0.3597  1.2847
 7993SOL    HW235442   2.881   1.025   3.144 -0.2324 -0.2486  0.8296
 7994SOL     OW35443   2.211   1.388   6.549  0.2461 -0.1982 -0.2009
 7994SOL    HW135444   2.157   1.365   6.624 -0.1581  0.9159 -0.1465
 7994SOL    HW235445   2.290   1.336   6.564  0.9387  0.7684 -0.5003
 7995SOL     OW35446   4.705   3.922   3.075 -0.8659 -0.1949 -0.4055
 7995SOL    HW135447   4.711   3.830   3.104 -2.4065 -0.7945 -2.0181
 7995SOL    HW235448   4.615   3.911   3.045 -0.9402  1.3182 -0.7080
 7996SOL     OW35449   3.250   0.323   6.166 -0.2672  0.0907 -0.0733
 7996SOL    HW135450   3.269   0.377   6.089 -2.0286  1.5157  0.4774
 7996SOL    HW235451   3.256   0.233   6.133 -1.0838 -0.6791  1.8696
 7997SOL     OW35452   4.716   4.273   2.412 -0.2482 -0.6118 -0.6107
 7997SOL    HW135453   0.076   4.273   2.372 -0.0433  0.0976 -0.1603
 7997SOL    HW235454   0.004   4.311   2.498  0.1699 -0.8245 -0.5900
 7998SOL     OW35455   3.857   2.621  14.039 -0.0072 -0.3251 -0.2012
 7998SOL    HW135456   3.804   2.628  13.960  0.0775 -1.8906 -0.3987
 7998SOL    HW235457   3.773   2.622  14.086  0.5418  0.9076  0.7527
 7999SOL     OW35458   2.245   2.281   4.707 -0.0020 -0.0141 -0.2919
 7999SOL    HW135459   2.318   2.220   4.718 -1.1754 -1.4145 -0.4138
 7999SOL    HW235460   2.184   2.250   4.774  0.9754  0.4182  0.8096
 8000SOL     OW35461   1.418   1.199   6.468 -0.2399  0.0744 -0.1774
 8000SOL    HW135462   1.389   1.290   6.476 -0.8141 -0.2340  1.2016
 8000SOL    HW235463   1.460   1.205   6.554  0.9389  0.5444 -0.7918
 8001SOL     OW35464   0.124   2.720  14.340 -0.0907 -0.2037 -0.6750
 8001SOL    HW135465   0.187   2.792  14.337 -2.3112  1.6703 -1.6906
 8001SOL    HW235466   0.114   2.694  14.248  0.5214  2.0721 -1.3683
 8002SOL     OW35467   2.712   2.648   6.660  0.1228  0.2509  0.3303
 8002SOL    HW135468   2.621   2.653   6.633 -0.5563 -1.9994  2.1670
 8002SOL    HW235469   2.752   2.585   6.600 -0.2078  0.0579  0.3129
 8003SOL     OW35470   0.638   3.961  10.941 -0.2784 -0.2988 -0.1088
 8003SOL    HW135471   0.614   4.041  10.989 -0.3274  0.0351 -0.6968
 8003SOL    HW235472   0.566   3.955  10.878  0.2908  1.2069 -0.8856
 8004SOL     OW35473   1.796   0.616  12.374 -0.6946  0.2880  0.6139
 8004SOL    HW135474   1.719   0.565  12.351  0.0572  0.9894 -3.4590
 8004SOL    HW235475   1.813   0.664  12.293 -1.2553  1.5757  1.2776
 8005SOL     OW35476   4.024   0.977   8.085  0.6437 -0.1294  0.2162
 8005SOL    HW135477   3.934   0.954   8.108  0.1246 -0.3137 -1.9884
 8005SOL    HW235478   4.071   1.010   8.162 -0.9008  0.3890  0.9411
 8006SOL     OW35479   3.784   1.108   3.428  0.1113  0.3429  0.1691
 8006SOL    HW135480   3.779   1.014   3.443 -1.4814  0.2876 -0.7846
 8006SOL    HW235481   3.760   1.134   3.517 -0.3720 -0.6511  0.3135
 8007SOL     OW35482   2.911   3.453  13.189 -0.2715 -0.4610 -0.4676
 8007SOL    HW135483   2.855   3.388  13.232 -0.5863  0.2856  0.2396
 8007SOL    HW235484   2.844   3.516  13.163 -1.2118 -0.7550  1.2756
 8008SOL     OW35485   1.143   1.922   7.394 -0.9661  0.0438  0.4094
 8008SOL    HW135486   1.091   1.924   7.475 -1.1950 -0.2426  0.2715
 8008SOL    HW235487   1.098   1.848   7.353 -1.9992 -0.0097  1.6120
 8009SOL     OW35488   4.142   1.491  16.504 -0.3511  0.7389 -0.1645
 8009SOL    HW135489   4.121   1.486  16.410  1.7154 -0.8582 -0.5260
 8009SOL    HW235490   4.164   1.407  16.543  3.4662  1.5675 -0.5170
 8010SOL     OW35491   0.055   4.354   5.100  0.0209 -0.3823  0.2179
 8010SOL    HW135492   0.138   4.321   5.134  1.3261  0.9936 -1.6307
 8010SOL    HW235493   0.073   4.344   5.007  2.0216 -0.6381  0.6499
 8011SOL     OW35494   1.388   3.640   6.169 -0.0208  0.1398 -0.0862
 8011SOL    HW135495   1.402   3.686   6.086 -1.3137 -1.6346 -1.3124
 8011SOL    HW235496   1.416   3.549   6.154  0.0251  0.1135  0.1639
 8012SOL     OW35497   2.612   3.634   5.979  0.4085  0.0185 -0.9990
 8012SOL    HW135498   2.531   3.685   5.986  2.7802  3.4049  1.5973
 8012SOL    HW235499   2.654   3.656   6.061 -1.9483 -0.3047  0.3036
 8013SOL     OW35500   0.953   2.291   5.762  0.0972  0.1655 -0.1606
 8013SOL    HW135501   0.935   2.356   5.830  1.3631  1.4874 -1.0802
 8013SOL    HW235502   1.047   2.273   5.773  0.5447  2.5426 -0.0475
 8014SOL     OW35503   4.369   1.206   3.014 -0.8680 -0.1933 -0.0735
 8014SOL    HW135504   4.368   1.296   2.983 -3.3401 -0.2238 -0.1101
 8014SOL    HW235505   4.404   1.212   3.102  1.6670  0.6182 -1.1457
 8015SOL     OW35506   4.050   2.751   1.031 -0.4019 -0.4655 -0.2357
 8015SOL    HW135507   4.063   2.844   1.010  2.4497 -0.7132  0.4722
 8015SOL    HW235508   4.124   2.731   1.088 -0.7471 -0.0907  0.3425
 8016SOL     OW35509   1.859   3.747  11.153  0.5626  0.3540  0.3844
 8016SOL    HW135510   1.816   3.670  11.116  0.1617  2.1865 -2.9431
 8016SOL    HW235511   1.874   3.722  11.244 -0.1317 -0.8025  0.1801
 8017SOL     OW35512   0.782   3.964  12.337 -0.4240 -0.1284 -0.1101
 8017SOL    HW135513   0.813   3.877  12.310  2.8855  1.1198 -0.2863
 8017SOL    HW235514   0.703   3.937  12.385 -0.8575  0.7315 -0.3439
 8018SOL     OW35515   0.717   1.242   4.722 -0.2834 -0.2334  0.0887
 8018SOL    HW135516   0.631   1.243   4.764 -1.3315  3.8914 -2.2027
 8018SOL    HW235517   0.735   1.158   4.765  1.5505 -0.5847 -1.3490
 8019SOL     OW35518   0.151   4.116   3.770 -0.7409 -0.1385  0.9315
 8019SOL    HW135519   0.181   4.054   3.703  0.7675  1.9535 -0.3035
 8019SOL    HW235520   0.153   4.196   3.718 -0.5109 -0.5330  0.3354
 8020SOL     OW35521   1.016   0.170   4.770 -0.3219  0.0045  0.4899
 8020SOL    HW135522   1.014   0.246   4.829 -2.9039 -0.6295  1.2426
 8020SOL    HW235523   0.933   0.191   4.726  0.5158  1.4641 -0.4262
 8021SOL     OW35524   4.220   1.543   1.691  0.3720 -0.1565 -0.7478
 8021SOL    HW135525   4.255   1.623   1.653  1.0968 -0.1421 -0.0562
 8021SOL    HW235526   4.292   1.480   1.689 -0.0217 -0.5482 -2.8724
 8022SOL     OW35527   2.431   4.426   1.890 -0.3049  0.3042 -0.3276
 8022SOL    HW135528   2.381   4.347   1.911 -0.0858 -0.4333 -2.5896
 8022SOL    HW235529   2.409   4.440   1.798  0.2107  2.0865 -0.1910
 8023SOL     OW35530   2.131   1.832  15.419  0.2926  1.1517  0.8713
 8023SOL    HW135531   2.182   1.906  15.388 -0.5895  1.3107 -0.1784
 8023SOL    HW235532   2.128   1.850  15.513  2.8404  3.8646  0.3980
 8024SOL     OW35533   3.160   0.094  14.814  0.4981 -0.3449 -0.3628
 8024SOL    HW135534   3.238   0.069  14.865  1.3903  1.4288 -0.8514
 8024SOL    HW235535   3.208   0.112  14.733  0.1165  1.6998 -0.1101
 8025SOL     OW35536   0.599   0.299  14.551 -0.0483  0.4287  0.5286
 8025SOL    HW135537   0.569   0.389  14.541 -1.0315  0.0414 -0.0286
 8025SOL    HW235538   0.632   0.302  14.641 -0.9195 -0.1323  0.8725
 8026SOL     OW35539   0.053   4.339   9.118 -0.1759 -0.8442  0.1733
 8026SOL    HW135540   0.144   4.331   9.146 -0.3877  0.3853  1.2461
 8026SOL    HW235541   0.015   4.304   9.199 -1.3626 -0.9851 -0.4449
 8027SOL     OW35542   4.093   1.247   5.579 -0.0900  0.2512  0.5884
 8027SOL    HW135543   4.045   1.189   5.637 -0.1641 -0.5766 -0.3077
 8027SOL    HW235544   4.180   1.247   5.620  0.8204 -1.9904 -1.3842
 8028SOL     OW35545   0.326   4.702  15.520 -0.1143 -0.0478 -0.1590
 8028SOL    HW135546   0.281   4.651  15.587 -1.2303 -1.0011 -1.6417
 8028SOL    HW235547   0.411   4.719  15.560  0.7707 -0.1841 -1.9898
 8029SOL     OW35548   3.235   0.626   1.885 -0.5449  0.6063  0.6292
 8029SOL    HW135549   3.224   0.678   1.805 -4.7400 -0.6720  0.3838
 8029SOL    HW235550   3.318   0.581   1.866 -1.9192 -1.2256 -1.1089
 8030SOL     OW35551   1.693   4.155   5.098 -0.5922  0.3800  0.0248
 8030SOL    HW135552   1.636   4.198   5.034 -2.5714 -0.6678  1.0810
 8030SOL    HW235553   1.648   4.168   5.181  0.5955 -0.8967  0.8739
 8031SOL     OW35554   0.878   1.755   3.930 -0.0856  0.2631 -0.3150
 8031SOL    HW135555   0.965   1.714   3.938 -0.8277 -1.0541  1.0186
 8031SOL    HW235556   0.832   1.717   3.856 -2.5533  0.6886  1.0261
 8032SOL     OW35557   3.922   2.575   7.033 -0.0969  0.1936 -0.0902
 8032SOL    HW135558   3.886   2.493   7.002 -0.2034  0.1540  0.1373
 8032SOL    HW235559   4.012   2.571   6.999 -0.2461  2.1142 -0.7522
 8033SOL     OW35560   1.010   2.782   6.025 -0.4494  0.4664  0.4043
 8033SOL    HW135561   1.084   2.826   5.985 -0.8744 -2.1212 -3.1763
 8033SOL    HW235562   0.982   2.853   6.083  0.5027 -0.5360  2.1169
 8034SOL     OW35563   3.389   2.620   2.065 -0.5869  0.0126  0.1953
 8034SOL    HW135564   3.327   2.604   1.994 -1.0137  1.2474  0.2814
 8034SOL    HW235565   3.427   2.533   2.075 -1.6411 -0.6427 -1.5751
 8035SOL     OW35566   0.712   2.394   5.564  0.5163 -0.6219 -0.6561
 8035SOL    HW135567   0.766   2.438   5.499  3.7219 -0.1403  2.3301
 8035SOL    HW235568   0.755   2.310   5.582  0.0358 -0.6202  0.5486
 8036SOL     OW35569   1.441   3.952   6.172  0.6577  0.5767 -0.0672
 8036SOL    HW135570   1.405   4.039   6.156 -1.4914 -0.6379 -1.8800
 8036SOL    HW235571   1.498   3.970   6.247  0.2585 -0.4154  0.4804
 8037SOL     OW35572   0.360   4.013   7.037 -0.9010 -0.0662  0.2565
 8037SOL    HW135573   0.300   4.071   6.989  0.2825  0.2126 -0.8868
 8037SOL    HW235574   0.380   4.076   7.106 -5.7264  0.5174  1.1184
 8038SOL     OW35575   2.906   3.391   8.816  0.4251  0.3976 -0.1301
 8038SOL    HW135576   2.973   3.342   8.864  0.7528 -0.0651 -1.0687
 8038SOL    HW235577   2.837   3.401   8.881  0.2702 -0.5467 -0.1612
 8039SOL     OW35578   2.493   4.190   1.706  0.2421  0.1136 -0.2334
 8039SOL    HW135579   2.405   4.208   1.673  1.6460  2.4618 -2.7006
 8039SOL    HW235580   2.536   4.258   1.655  1.0678  0.1277  0.4743
 8040SOL     OW35581   3.842   1.514  17.380 -0.4461 -0.1316  0.6582
 8040SOL    HW135582   3.828   1.431  17.427 -0.7060 -0.4031  0.1074
 8040SOL    HW235583   3.903   1.550  17.444 -0.4229 -1.6780  1.5170
 8041SOL     OW35584   4.221   0.048  16.328 -0.0296 -0.1824 -0.0832
 8041SOL    HW135585   4.259   0.001  16.254 -0.2125  2.2152 -1.6934
 8041SOL    HW235586   4.223   4.705  16.393  0.5378  0.8729  1.0465
 8042SOL     OW35587   0.799   0.553   4.923  0.4325  0.0057  0.1843
 8042SOL    HW135588   0.872   0.512   4.968  0.7665  0.8289  0.3911
 8042SOL    HW235589   0.833   0.642   4.938  0.5460 -0.0892  0.4782
 8043SOL     OW35590   1.539   4.504   8.155 -0.0390  0.5812 -0.0806
 8043SOL    HW135591   1.467   4.541   8.205 -1.0699 -0.8670 -0.5269
 8043SOL    HW235592   1.615   4.531   8.207  0.5264  0.4124 -0.8197
 8044SOL     OW35593   1.258   3.382  11.369 -0.4249 -0.1439 -0.0603
 8044SOL    HW135594   1.176   3.420  11.401 -0.0179  0.2557  0.5063
 8044SOL    HW235595   1.230   3.364  11.279 -0.2935  0.4606 -0.2200
 8045SOL     OW35596   1.230   0.826   9.532  0.3919  0.3096  0.3183
 8045SOL    HW135597   1.312   0.779   9.519  0.5600  0.8400 -0.4998
 8045SOL    HW235598   1.196   0.776   9.606  0.9098  0.5562  0.7235
 8046SOL     OW35599   2.390   1.788   7.393  0.4132  0.7067  0.2217
 8046SOL    HW135600   2.424   1.832   7.315 -0.8597  0.1535 -0.6461
 8046SOL    HW235601   2.317   1.841   7.423 -0.1377  0.9617 -1.5685
 8047SOL     OW35602   0.854   1.740   7.964  0.0517 -0.0876  0.4211
 8047SOL    HW135603   0.853   1.779   8.052  0.2966  0.3752  0.2195
 8047SOL    HW235604   0.762   1.737   7.936  0.1168 -0.4423  0.2545
 8048SOL     OW35605   0.506   0.544   3.495 -0.1316 -0.1182 -0.3597
 8048SOL    HW135606   0.487   0.620   3.440 -0.9531  0.0746  0.1836
 8048SOL    HW235607   0.429   0.547   3.553 -0.6311  1.0027 -1.0786
 8049SOL     OW35608   3.414   1.045   2.448  0.2614  0.2614 -0.2053
 8049SOL    HW135609   3.408   0.973   2.386  0.7519 -0.2829  0.3869
 8049SOL    HW235610   3.422   1.113   2.381 -0.6835 -0.4769 -1.0658
 8050SOL     OW35611   4.599   1.587   7.348 -0.9819  0.2113  0.5448
 8050SOL    HW135612   4.635   1.633   7.424  1.8281 -0.1388 -0.5665
 8050SOL    HW235613   4.594   1.500   7.388 -2.8812  0.8863  1.7489
 8051SOL     OW35614   1.312   1.908  13.006 -0.1920  0.1834 -0.5544
 8051SOL    HW135615   1.396   1.863  13.003  0.1623  0.7848  0.1731
 8051SOL    HW235616   1.328   1.988  12.955  0.5589  0.8100  0.6585
 8052SOL     OW35617   3.972   3.681   3.526  0.2038  0.4523 -0.2379
 8052SOL    HW135618   4.042   3.664   3.463  1.8112  0.4470  1.5210
 8052SOL    HW235619   3.910   3.612   3.502 -0.5768  0.3723  2.0442
 8053SOL     OW35620   3.233   0.861   2.239 -0.2093 -0.5287  0.4575
 8053SOL    HW135621   3.160   0.878   2.179 -1.1392  0.3005  1.8473
 8053SOL    HW235622   3.197   0.795   2.297 -0.3177  0.0202  1.0096
 8054SOL     OW35623   2.276   0.980  16.661 -0.0100  0.0956  0.3231
 8054SOL    HW135624   2.341   0.985  16.591 -3.0497  2.7164 -2.3163
 8054SOL    HW235625   2.322   1.025  16.732  0.7446  0.8212 -0.6305
 8055SOL     OW35626   0.028   2.596   8.019  0.3824  0.7960  0.2257
 8055SOL    HW135627   4.697   2.649   8.074 -0.5504 -0.3867  0.3808
 8055SOL    HW235628   4.703   2.536   7.966  0.2431 -0.5607  1.8983
 8056SOL     OW35629   0.431   0.233   7.091 -0.3212 -0.3166 -0.0782
 8056SOL    HW135630   0.456   0.234   7.184  0.3392 -0.3799 -0.2591
 8056SOL    HW235631   0.362   0.299   7.085 -0.7941 -0.8696 -0.6901
 8057SOL     OW35632   1.391   3.475   9.810  0.5947 -0.2661  0.1441
 8057SOL    HW135633   1.395   3.564   9.773 -2.4815 -0.0198  0.3648
 8057SOL    HW235634   1.471   3.476   9.862  1.3480 -0.0786 -1.0222
 8058SOL     OW35635   1.439   3.530   0.727 -0.0137 -0.2428 -0.3975
 8058SOL    HW135636   1.464   3.579   0.805  1.3082  1.2510 -1.7346
 8058SOL    HW235637   1.514   3.564   0.677  0.4472  1.1792  1.2436
 8059SOL     OW35638   4.086   0.937  15.081  0.2867 -0.2674 -0.0760
 8059SOL    HW135639   4.006   0.971  15.121 -0.2942 -2.4560  0.6396
 8059SOL    HW235640   4.148   0.999  15.117 -0.1950  0.6785 -0.8505
 8060SOL     OW35641   3.013   2.389   6.155  0.1049  0.3051 -0.3583
 8060SOL    HW135642   3.015   2.295   6.135 -0.0514  0.3008 -0.3591
 8060SOL    HW235643   3.042   2.425   6.071  0.1219 -0.4261 -0.6733
 8061SOL     OW35644   3.530   3.894   9.337 -0.6218 -0.1336 -0.3218
 8061SOL    HW135645   3.435   3.904   9.330 -0.4412 -0.1275 -2.6681
 8061SOL    HW235646   3.543   3.801   9.321  0.3234  0.1439 -1.1710
 8062SOL     OW35647   4.260   2.776   6.692  0.3721  0.3354  0.1900
 8062SOL    HW135648   4.295   2.698   6.648  0.4542  0.1009  0.6757
 8062SOL    HW235649   4.255   2.837   6.619  2.1954 -0.2893 -0.4730
 8063SOL     OW35650   1.124   3.693   6.532 -0.3141  0.0901 -0.6333
 8063SOL    HW135651   1.208   3.695   6.486  0.5690 -1.6247  0.9021
 8063SOL    HW235652   1.107   3.602   6.557 -0.8436  0.0365 -1.1793
 8064SOL     OW35653   1.762   1.688   5.380  0.4664 -0.4523 -0.0146
 8064SOL    HW135654   1.832   1.745   5.410 -0.2964  0.4069  0.1179
 8064SOL    HW235655   1.734   1.631   5.452 -1.9005 -1.7629 -1.9435
 8065SOL     OW35656   3.591   3.874  11.955  0.0050 -0.0979  0.1700
 8065SOL    HW135657   3.654   3.809  11.986 -1.3172 -0.4509  2.1415
 8065SOL    HW235658   3.592   3.873  11.859  3.0204  0.2699  0.2084
 8066SOL     OW35659   3.531   2.548   8.488 -0.3089 -0.2728  0.1505
 8066SOL    HW135660   3.592   2.616   8.458  1.0976 -1.4604  0.3007
 8066SOL    HW235661   3.492   2.605   8.554 -1.5704 -1.5232  0.4779
 8067SOL     OW35662   1.424   3.375  12.826 -0.0136  0.4756  0.3532
 8067SOL    HW135663   1.519   3.364  12.838 -0.2008 -1.1237  0.3783
 8067SOL    HW235664   1.419   3.465  12.856 -0.0356  1.2283 -1.9460
 8068SOL     OW35665   3.427   3.288   2.470  0.3087  0.5460  0.0273
 8068SOL    HW135666   3.478   3.213   2.439 -0.5668 -0.1528  0.2848
 8068SOL    HW235667   3.452   3.357   2.408 -0.6283 -0.5341 -1.5603
 8069SOL     OW35668   0.044   1.609   0.908 -0.3292 -0.2722  0.3960
 8069SOL    HW135669   0.052   1.656   0.825  0.9629  0.0142  0.6751
 8069SOL    HW235670   4.687   1.565   0.899  0.8168 -2.4062  0.1724
 8070SOL     OW35671   1.548   2.200  17.378 -0.0554 -0.5028 -0.6325
 8070SOL    HW135672   1.501   2.199  17.462  1.9092  0.4294  0.4597
 8070SOL    HW235673   1.519   2.110  17.364  2.3122 -1.5563  1.2914
 8071SOL     OW35674   0.103   0.082   6.775 -0.2588  0.6052  0.1424
 8071SOL    HW135675   0.065   0.025   6.841 -0.2909  2.9918  2.2117
 8071SOL    HW235676   0.086   0.166   6.818 -0.1998  0.1237  1.0922
 8072SOL     OW35677   3.516   4.676   6.104  0.3585  0.2590 -0.0236
 8072SOL    HW135678   3.564   4.711   6.179 -1.5891  1.3884  0.6867
 8072SOL    HW235679   3.564   4.714   6.030  1.5352 -2.0073 -0.4399
 8073SOL     OW35680   3.685   0.521   2.804 -0.1634  0.0687 -0.2264
 8073SOL    HW135681   3.698   0.510   2.710 -1.6826 -1.3683 -0.2671
 8073SOL    HW235682   3.777   0.507   2.825 -0.0137  1.0160 -0.2294
 8074SOL     OW35683   3.748   2.845  14.293 -0.2357 -0.4257  0.1912
 8074SOL    HW135684   3.834   2.836  14.332 -1.0734  0.3094  2.1899
 8074SOL    HW235685   3.725   2.753  14.283  2.6369 -1.0318 -0.7594
 8075SOL     OW35686   3.294   0.252   9.599  0.0395 -0.0124 -0.0172
 8075SOL    HW135687   3.323   0.341   9.617 -1.1807  0.2137  0.8821
 8075SOL    HW235688   3.203   0.258   9.569 -0.8798  0.0134  2.7257
 8076SOL     OW35689   3.992   3.974   3.509  0.4737  0.5716 -0.0140
 8076SOL    HW135690   3.938   4.001   3.582  0.0765 -0.6842  0.1505
 8076SOL    HW235691   3.993   3.879   3.523 -0.1067  0.5237 -0.2679
 8077SOL     OW35692   4.225   3.241   5.089  0.0728 -0.4090 -0.4811
 8077SOL    HW135693   4.223   3.154   5.050  2.1580 -0.2493 -0.9324
 8077SOL    HW235694   4.146   3.280   5.049 -0.3351 -3.0744 -2.2426
 8078SOL     OW35695   1.081   4.629  12.908  0.6072 -0.4226 -0.3909
 8078SOL    HW135696   1.142   4.672  12.847  0.3306 -0.9698 -1.0543
 8078SOL    HW235697   1.065   4.698  12.973 -0.9075  0.0197 -1.2409
 8079SOL     OW35698   3.553   0.460   4.395 -0.0525  0.6865 -0.0704
 8079SOL    HW135699   3.559   0.364   4.394  3.1631  0.8649  1.8382
 8079SOL    HW235700   3.597   0.484   4.476 -1.5440  0.8273  0.6918
 8080SOL     OW35701   3.870   0.780  13.885  0.5154  0.2657  0.4280
 8080SOL    HW135702   3.877   0.761  13.978  0.4349 -0.8413  0.2114
 8080SOL    HW235703   3.834   0.868  13.885  1.3402  0.5898  1.8167
 8081SOL     OW35704   3.398   0.550   5.357  0.4225 -0.4635  0.1288
 8081SOL    HW135705   3.340   0.494   5.409  0.2320 -1.0649 -0.7284
 8081SOL    HW235706   3.478   0.524   5.402  0.3484 -0.2351  0.3947
 8082SOL     OW35707   0.198   0.383   7.529 -0.4469  0.1755  0.8709
 8082SOL    HW135708   0.131   0.365   7.595 -1.1816  0.5268  0.2257
 8082SOL    HW235709   0.144   0.440   7.473 -0.3932 -1.7069 -1.0793
 8083SOL     OW35710   0.949   1.068   8.945 -0.4884  0.4131 -0.1262
 8083SOL    HW135711   0.999   0.989   8.922 -0.0494  0.9296 -0.9385
 8083SOL    HW235712   0.913   1.037   9.028  0.4966  1.9818  0.8852
 8084SOL     OW35713   2.747   2.797   7.947  0.4995 -0.2595  0.1856
 8084SOL    HW135714   2.749   2.824   8.038 -0.7002 -1.3910  0.5486
 8084SOL    HW235715   2.782   2.708   7.957  0.1589 -0.3554  0.5110
 8085SOL     OW35716   3.843   3.263   6.154 -0.2777 -0.5053 -0.2845
 8085SOL    HW135717   3.808   3.265   6.243  1.6079 -0.5991  0.4424
 8085SOL    HW235718   3.764   3.289   6.105  0.4382  2.0669 -0.0766
 8086SOL     OW35719   4.652   4.624   6.948 -0.2859 -0.5292  0.5059
 8086SOL    HW135720   4.595   4.548   6.957 -0.8064 -0.3662 -1.4892
 8086SOL    HW235721   4.682   4.632   7.039  0.7509  0.2561  0.1054
 8087SOL     OW35722   1.542   0.548   2.749 -0.2591 -0.0441  0.7138
 8087SOL    HW135723   1.559   0.524   2.840  0.9818  3.6824  1.4997
 8087SOL    HW235724   1.452   0.581   2.751 -1.2413 -2.7967  1.9268
 8088SOL     OW35725   3.584   4.445  10.884  0.1541 -0.1392 -0.4638
 8088SOL    HW135726   3.590   4.491  10.800 -1.0479 -1.8456 -1.4952
 8088SOL    HW235727   3.528   4.505  10.933  2.1094 -0.1989  1.8286
 8089SOL     OW35728   1.066   0.841   8.858 -0.4473  0.4562 -0.2086
 8089SOL    HW135729   0.985   0.812   8.817 -1.1081  3.7728 -1.3069
 8089SOL    HW235730   1.124   0.851   8.782 -0.8882 -1.3096 -0.7696
 8090SOL     OW35731   2.377   3.700  11.894 -0.0040  0.1943 -0.3105
 8090SOL    HW135732   2.366   3.732  11.983 -0.0016 -0.2158 -0.1608
 8090SOL    HW235733   2.366   3.607  11.915  1.1548 -0.0580 -0.8158
 8091SOL     OW35734   0.141   0.696  13.567 -0.3753 -0.7435  0.3215
 8091SOL    HW135735   0.107   0.782  13.542  2.7557  0.2544 -0.5532
 8091SOL    HW235736   0.059   0.672  13.610 -0.0119 -2.0067  0.2826
 8092SOL     OW35737   2.350   1.315   1.499  0.0271 -0.4679 -1.0064
 8092SOL    HW135738   2.425   1.272   1.539 -2.2056 -1.9600  1.6420
 8092SOL    HW235739   2.284   1.249   1.523  0.6668 -1.4395 -1.9297
 8093SOL     OW35740   1.506   3.692  15.851  0.0561 -0.0556 -0.3295
 8093SOL    HW135741   1.564   3.711  15.777 -0.0792  0.2802 -0.3512
 8093SOL    HW235742   1.496   3.597  15.846 -1.3029  0.1550 -1.5766
 8094SOL     OW35743   4.596   0.569  13.363  0.1582  0.9325 -0.3610
 8094SOL    HW135744   4.590   0.612  13.448  0.3055 -0.6189  0.4239
 8094SOL    HW235745   4.508   0.574  13.326  0.5302  2.9247 -0.9927
 8095SOL     OW35746   1.623   0.656  11.713 -0.4354  0.4181  0.1535
 8095SOL    HW135747   1.585   0.574  11.743  0.4358  0.1520  0.5172
 8095SOL    HW235748   1.673   0.611  11.646 -1.9149 -1.4316  0.3134
 8096SOL     OW35749   3.775   1.923   1.616  0.2778  0.0205  0.2327
 8096SOL    HW135750   3.850   1.878   1.578  1.5182  0.7231  1.8773
 8096SOL    HW235751   3.717   1.846   1.616 -0.1860  0.3737  0.0094
 8097SOL     OW35752   4.030   4.438  12.462  0.7026 -0.4790 -0.4198
 8097SOL    HW135753   3.967   4.510  12.452  0.9226  0.2349  3.4312
 8097SOL    HW235754   4.109   4.486  12.437 -0.1223  0.6535 -0.8718
 8098SOL     OW35755   4.399   2.179   5.280 -0.0045 -0.9004  0.1925
 8098SOL    HW135756   4.341   2.250   5.253  0.1267 -1.1627 -0.7781
 8098SOL    HW235757   4.356   2.132   5.351  1.8651 -1.2453  1.1128
 8099SOL     OW35758   4.360   3.769   9.323 -0.0731  0.4155 -0.3399
 8099SOL    HW135759   4.352   3.723   9.406 -1.2873  0.2438 -0.5483
 8099SOL    HW235760   4.368   3.698   9.260 -1.1822 -1.9941  2.2477
 8100SOL     OW35761   1.183   0.664   1.439  0.3212 -0.1398  0.3032
 8100SOL    HW135762   1.237   0.689   1.514 -1.8946  2.2253  1.1131
 8100SOL    HW235763   1.223   0.718   1.371 -0.3512  0.5037  0.4118
 8101SOL     OW35764   3.223   4.458  13.931 -0.2133  0.2522 -0.1606
 8101SOL    HW135765   3.129   4.442  13.927  0.2244 -2.5327  0.8264
 8101SOL    HW235766   3.253   4.389  13.873 -1.2340  0.3047 -0.7478
 8102SOL     OW35767   0.574   2.575   5.705  0.3204  0.4465  0.0143
 8102SOL    HW135768   0.658   2.600   5.744  0.2667  1.8885 -0.7961
 8102SOL    HW235769   0.606   2.506   5.648  1.4760  2.1399 -1.3753
 8103SOL     OW35770   4.508   1.914   1.310  0.1760  0.9875  0.4170
 8103SOL    HW135771   4.554   1.860   1.245 -2.1179  1.7336 -1.8326
 8103SOL    HW235772   4.417   1.888   1.294  1.1055 -1.1553 -1.2696
 8104SOL     OW35773   4.536   4.277   5.385 -0.3141 -0.2434  0.0292
 8104SOL    HW135774   4.614   4.222   5.388 -0.5447 -0.5408  0.4428
 8104SOL    HW235775   4.553   4.335   5.459 -0.4228 -1.2513  0.8349
 8105SOL     OW35776   1.514   1.266   6.161  0.4284  0.3001 -0.1712
 8105SOL    HW135777   1.484   1.351   6.191  2.0929 -0.5497  3.9060
 8105SOL    HW235778   1.492   1.211   6.236 -1.9310  0.2086 -0.9400
 8106SOL     OW35779   1.698   3.074   8.748  0.6117 -0.3594 -0.4244
 8106SOL    HW135780   1.794   3.078   8.749  0.6073 -0.2453 -0.4239
 8106SOL    HW235781   1.683   3.043   8.659 -0.7538 -0.8325 -0.0389
 8107SOL     OW35782   4.059   2.774   7.812 -0.5405  0.1067  0.3487
 8107SOL    HW135783   4.014   2.754   7.729 -0.2364  2.1962 -0.3187
 8107SOL    HW235784   4.135   2.828   7.793 -0.3983 -0.4908 -0.7995
 8108SOL     OW35785   4.015   3.414  17.318 -0.4878  0.2772  0.2716
 8108SOL    HW135786   4.078   3.383  17.383 -1.7464 -2.7849  0.0621
 8108SOL    HW235787   3.975   3.328  17.304 -2.3992  1.1906  0.1015
 8109SOL     OW35788   2.653   3.797  17.564  0.1321 -0.4000 -0.2927
 8109SOL    HW135789   2.667   3.810  17.658  0.8612  0.3421 -0.5012
 8109SOL    HW235790   2.639   3.703  17.557 -0.0349 -0.2977 -1.2499
 8110SOL     OW35791   4.323   1.250   5.738 -0.3354  0.0859 -0.2624
 8110SOL    HW135792   4.336   1.191   5.812  0.3424  1.4529  0.7175
 8110SOL    HW235793   4.408   1.294   5.743  0.1075 -0.8957  0.5974
 8111SOL     OW35794   2.391   4.667   3.175 -0.2683 -0.0217 -0.2287
 8111SOL    HW135795   2.457   4.714   3.124  2.0024 -2.0854  0.8192
 8111SOL    HW235796   2.357   4.621   3.098  3.2316 -0.6473 -1.4240
 8112SOL     OW35797   3.797   4.189   7.689 -0.2922  0.2046  0.4077
 8112SOL    HW135798   3.864   4.150   7.745 -1.3497  1.0879  2.2878
 8112SOL    HW235799   3.821   4.281   7.699  0.6953  0.1032 -1.1765
 8113SOL     OW35800   1.678   2.694  13.934  0.2246  0.1887 -0.2110
 8113SOL    HW135801   1.702   2.777  13.976  1.0013  0.3131 -0.9025
 8113SOL    HW235802   1.705   2.705  13.843 -1.1001  0.1683 -0.6199
 8114SOL     OW35803   2.048   2.827   7.023  0.0420 -0.2250  0.5028
 8114SOL    HW135804   2.130   2.873   7.040 -0.3852  0.3998  0.9201
 8114SOL    HW235805   2.023   2.853   6.934 -1.2356 -1.1782  0.5829
 8115SOL     OW35806   2.891   3.115   4.310  0.1667 -0.2038  1.1364
 8115SOL    HW135807   2.814   3.060   4.326 -0.8432  0.6956 -0.7054
 8115SOL    HW235808   2.857   3.192   4.355  3.0328  1.1156  1.0704
 8116SOL     OW35809   1.787   1.053  10.204  0.1606 -0.9308  0.6095
 8116SOL    HW135810   1.806   1.057  10.110 -0.7222 -0.9397  0.4312
 8116SOL    HW235811   1.695   1.079  10.207 -0.1863 -2.0137 -0.7104
 8117SOL     OW35812   0.751   3.335   9.438  0.0111 -0.2968  0.5988
 8117SOL    HW135813   0.711   3.378   9.363  1.6042 -0.6718 -0.4745
 8117SOL    HW235814   0.835   3.381   9.434  0.0288 -0.3204  0.7024
 8118SOL     OW35815   4.699   1.495   9.280  0.2892 -0.1008 -0.2641
 8118SOL    HW135816   4.657   1.430   9.225 -0.9404 -1.1280  1.8829
 8118SOL    HW235817   0.025   1.438   9.335 -1.4466  0.3808  1.9181
 8119SOL     OW35818   4.510   4.127   2.272  0.1014 -0.8447 -0.0630
 8119SOL    HW135819   4.544   4.106   2.359  0.3293 -0.8477 -0.1529
 8119SOL    HW235820   4.522   4.221   2.285  2.6974 -1.2486  0.3220
 8120SOL     OW35821   3.744   1.091   6.098  0.6108 -0.0713  0.3017
 8120SOL    HW135822   3.653   1.113   6.117  1.1383  2.6701 -0.3568
 8120SOL    HW235823   3.737   1.018   6.035 -0.9552  0.7044 -0.4279
 8121SOL     OW35824   2.683   3.251   3.452 -0.1240  0.4401 -0.2520
 8121SOL    HW135825   2.593   3.248   3.482  0.6225 -1.4346  1.8232
 8121SOL    HW235826   2.669   3.329   3.399  0.5209  0.7300  0.0082
 8122SOL     OW35827   4.091   1.223   2.876  0.4714  0.7473 -0.2416
 8122SOL    HW135828   4.010   1.269   2.856 -0.3810 -0.4834  0.4019
 8122SOL    HW235829   4.114   1.256   2.963 -0.4259 -1.0328  0.6695
 8123SOL     OW35830   2.027   2.739   4.126  0.1876  0.2760  0.0594
 8123SOL    HW135831   2.043   2.709   4.037  0.1122  2.8944 -0.8545
 8123SOL    HW235832   1.932   2.747   4.125  0.2660  1.0239 -1.8820
 8124SOL     OW35833   1.259   2.025   2.395 -0.1117  0.1124  0.0681
 8124SOL    HW135834   1.164   2.017   2.400 -0.1179  0.0173 -0.2413
 8124SOL    HW235835   1.273   2.118   2.375 -0.8987  0.2091 -0.0283
 8125SOL     OW35836   3.763   2.671   2.131  0.0868 -0.3724  0.1718
 8125SOL    HW135837   3.818   2.638   2.060 -1.3511  1.9266 -1.9993
 8125SOL    HW235838   3.830   2.719   2.181 -2.8417  1.3038  2.4735
 8126SOL     OW35839   0.864   3.988  11.166 -0.3310 -0.4398 -0.6648
 8126SOL    HW135840   0.895   4.076  11.186 -0.2612  0.3442 -4.1459
 8126SOL    HW235841   0.864   3.952  11.255 -1.2920  0.2338 -0.3870
 8127SOL     OW35842   4.245   3.723   2.559  0.8299 -0.0913  0.2123
 8127SOL    HW135843   4.252   3.628   2.568  2.0626  0.0374  0.5695
 8127SOL    HW235844   4.164   3.735   2.509  2.2310 -0.3498 -2.1236
 8128SOL     OW35845   3.094   3.577  17.089  0.2230  0.3447 -0.6895
 8128SOL    HW135846   3.155   3.558  17.161 -0.6363 -1.1027 -0.3456
 8128SOL    HW235847   3.026   3.525  17.131  1.9800 -2.7585 -1.6657
 8129SOL     OW35848   3.356   1.025  13.163 -0.6153 -0.3319 -0.8830
 8129SOL    HW135849   3.278   0.972  13.178 -2.0915  1.6484 -1.6496
 8129SOL    HW235850   3.357   1.043  13.069 -0.2027  0.8648 -0.6492
 8130SOL     OW35851   2.166   2.006   3.751  0.1225 -0.0848  0.6808
 8130SOL    HW135852   2.092   1.977   3.805 -0.2957  0.3747  0.3477
 8130SOL    HW235853   2.172   1.939   3.684  1.2156 -0.1549  0.8425
 8131SOL     OW35854   4.410   1.712   4.565 -0.3029 -0.0414 -0.8675
 8131SOL    HW135855   4.444   1.702   4.654 -2.2882 -2.5067 -0.3898
 8131SOL    HW235856   4.489   1.735   4.516 -0.1298  1.7286  0.2097
 8132SOL     OW35857   3.478   1.778   8.500  0.0831  0.0776 -0.0844
 8132SOL    HW135858   3.401   1.766   8.444  0.0793  0.0054 -0.0637
 8132SOL    HW235859   3.487   1.872   8.488 -1.2892  0.1386 -0.5856
 8133SOL     OW35860   3.839   1.354   0.269  0.2683  0.4787  0.3567
 8133SOL    HW135861   3.799   1.441   0.269  1.8125  1.2121 -1.4829
 8133SOL    HW235862   3.811   1.327   0.181 -1.2714 -3.0327  1.9246
 8134SOL     OW35863   1.087   1.989   8.246  0.3026  0.0203  0.1550
 8134SOL    HW135864   1.094   1.899   8.215 -1.1936  0.8704 -2.6921
 8134SOL    HW235865   0.995   1.994   8.272  0.1596 -0.3694 -0.2765
 8135SOL     OW35866   0.369   4.579   2.014  0.1562 -0.3947  0.3144
 8135SOL    HW135867   0.306   4.507   2.024  0.0501  0.0127  2.5636
 8135SOL    HW235868   0.439   4.529   1.971  0.3381 -1.0034  1.3202
 8136SOL     OW35869   1.483   1.838  12.219  0.4591  0.6592  0.4787
 8136SOL    HW135870   1.396   1.857  12.185 -0.1107 -0.4442  1.3158
 8136SOL    HW235871   1.505   1.755  12.177 -0.2783  1.4178 -1.3938
 8137SOL     OW35872   4.312   3.155   3.218  0.0282 -0.2203  0.1764
 8137SOL    HW135873   4.293   3.204   3.138 -2.5085  1.8812  2.1056
 8137SOL    HW235874   4.325   3.068   3.179  0.3036  0.0404 -0.3087
 8138SOL     OW35875   2.192   0.227   6.463 -0.1276  0.0232  0.2675
 8138SOL    HW135876   2.142   0.164   6.411  0.9095 -2.0970  1.8181
 8138SOL    HW235877   2.262   0.249   6.402  0.5293  0.9351  1.3604
 8139SOL     OW35878   1.397   1.801   8.934  0.1643  0.5766  0.1347
 8139SOL    HW135879   1.435   1.713   8.942 -2.6476 -0.7450 -0.9447
 8139SOL    HW235880   1.314   1.798   8.982  0.4932  1.4743  0.7511
 8140SOL     OW35881   3.783   2.587   2.528 -0.1870  0.1324  0.0063
 8140SOL    HW135882   3.755   2.555   2.614 -0.5855  1.6821  0.4650
 8140SOL    HW235883   3.719   2.657   2.514 -2.6830 -2.0750  0.2701
 8141SOL     OW35884   3.317   3.801   0.198  0.3907  0.4766  0.5744
 8141SOL    HW135885   3.363   3.763   0.122  0.5172 -0.4817  1.1369
 8141SOL    HW235886   3.231   3.826   0.164  0.5577 -0.0393 -0.2487
 8142SOL     OW35887   2.866   1.296  14.807 -0.2493  0.4466  0.1088
 8142SOL    HW135888   2.898   1.348  14.880 -1.4442  0.1425  0.8613
 8142SOL    HW235889   2.882   1.346  14.727  1.1336  1.8553  1.2720
 8143SOL     OW35890   1.483   4.264   8.513  0.1073 -0.1791  0.0807
 8143SOL    HW135891   1.390   4.272   8.537  0.9522  1.4041  2.8616
 8143SOL    HW235892   1.523   4.341   8.553 -1.3264  0.6070  0.0219
 8144SOL     OW35893   4.607   2.868   3.428  0.0685  0.6077  0.1285
 8144SOL    HW135894   4.647   2.809   3.363 -0.8403 -0.2809  0.3718
 8144SOL    HW235895   4.664   2.942   3.409 -2.6453  2.4579 -0.8620
 8145SOL     OW35896   4.350   0.929   2.998  0.7083  0.7274 -0.1050
 8145SOL    HW135897   4.344   1.023   3.013 -1.1028  0.6128 -0.1990
 8145SOL    HW235898   4.444   0.914   2.987  0.8663  0.4397  1.5588
 8146SOL     OW35899   1.476   3.180  12.384  0.5701 -0.4914  0.2766
 8146SOL    HW135900   1.555   3.232  12.374  0.4418 -0.5420 -0.9930
 8146SOL    HW235901   1.416   3.246  12.420 -0.1971 -0.1630 -1.6182
 8147SOL     OW35902   3.239   4.329   9.603  0.0178 -0.1097 -0.8016
 8147SOL    HW135903   3.164   4.381   9.573 -1.1686 -1.3761 -0.0343
 8147SOL    HW235904   3.261   4.368   9.688 -0.5000 -1.4255 -0.0709
 8148SOL     OW35905   3.626   4.096  15.836  0.3873 -0.2670 -0.2276
 8148SOL    HW135906   3.550   4.078  15.781 -0.1899 -1.1962  0.8648
 8148SOL    HW235907   3.670   4.171  15.796 -1.8840 -0.9031 -3.8842
 8149SOL     OW35908   4.460   3.368   5.121  0.1863  0.1174 -0.1549
 8149SOL    HW135909   4.387   3.311   5.095  0.4052  0.7627 -2.1201
 8149SOL    HW235910   4.529   3.306   5.098  1.8796  1.2483  1.8252
 8150SOL     OW35911   2.860   1.638   0.630 -0.5656 -0.3538  0.2899
 8150SOL    HW135912   2.934   1.697   0.646 -0.8157  0.2851 -0.8928
 8150SOL    HW235913   2.871   1.569   0.695 -0.3561  0.0492  0.6828
 8151SOL     OW35914   2.979   4.179   2.243  0.0096  0.1953  0.2018
 8151SOL    HW135915   2.905   4.121   2.224 -0.2927  0.5197  0.3754
 8151SOL    HW235916   2.940   4.265   2.226  0.5323  0.9470  2.7702
 8152SOL     OW35917   3.709   3.620   8.931 -0.1654  0.5572 -0.1685
 8152SOL    HW135918   3.706   3.525   8.931  0.2432  0.5436 -0.4987
 8152SOL    HW235919   3.650   3.653   8.999 -0.6283  0.1412 -0.3713
 8153SOL     OW35920   1.590   3.786   3.131 -0.1041 -0.4496  0.1740
 8153SOL    HW135921   1.595   3.863   3.188 -1.5254  0.6743 -1.2525
 8153SOL    HW235922   1.495   3.780   3.123 -0.1717 -0.0873  0.6808
 8154SOL     OW35923   2.910   2.119   7.967 -0.1614  0.3182 -0.4462
 8154SOL    HW135924   2.991   2.069   7.953 -0.8256 -1.1298  0.8889
 8154SOL    HW235925   2.948   2.201   7.998 -2.7930  1.3000  0.1919
 8155SOL     OW35926   2.645   2.654   8.667  0.5091 -0.0773  0.4126
 8155SOL    HW135927   2.595   2.728   8.632 -3.5324 -1.9326  2.3401
 8155SOL    HW235928   2.697   2.690   8.739  0.2754 -0.5865  0.8349
 8156SOL     OW35929   1.762   2.884   7.614  0.2430 -0.0194 -0.3054
 8156SOL    HW135930   1.762   2.905   7.521 -2.7358  0.0074 -0.3120
 8156SOL    HW235931   1.684   2.935   7.639  0.3073 -0.3102  0.4920
 8157SOL     OW35932   1.580   2.819   2.937 -0.0935  0.1381  0.5198
 8157SOL    HW135933   1.674   2.822   2.921 -0.0246  0.2412  0.9378
 8157SOL    HW235934   1.581   2.772   3.021  2.5495  2.0141  1.5502
 8158SOL     OW35935   2.967   0.348  12.516  0.0017  0.1021  0.0393
 8158SOL    HW135936   3.020   0.410  12.567  1.7477 -1.3453 -0.0057
 8158SOL    HW235937   2.915   0.412  12.468  0.4436  0.9448  0.6843
 8159SOL     OW35938   4.213   0.653   4.533 -0.1454  0.2005 -0.1341
 8159SOL    HW135939   4.239   0.617   4.617 -0.4255 -1.8143 -0.9126
 8159SOL    HW235940   4.147   0.595   4.495  1.2062 -0.6539 -1.1574
 8160SOL     OW35941   2.329   2.381   0.798  0.4036 -0.0443  0.2529
 8160SOL    HW135942   2.391   2.369   0.869 -1.8047 -1.3636  1.9401
 8160SOL    HW235943   2.275   2.302   0.800 -0.3687  0.4688  0.0275
 8161SOL     OW35944   0.390   1.941   9.777 -0.1072 -0.4288  0.1299
 8161SOL    HW135945   0.478   1.978   9.766 -0.0216 -0.4822  0.6189
 8161SOL    HW235946   0.395   1.859   9.729  0.6453  0.4970 -1.4030
 8162SOL     OW35947   2.006   2.702   1.299  0.2852 -0.2541 -0.1748
 8162SOL    HW135948   2.009   2.777   1.239 -1.6418 -0.4526 -0.5212
 8162SOL    HW235949   2.085   2.661   1.263 -0.4235 -1.4081 -0.4052
 8163SOL     OW35950   4.613   0.915   1.819  0.3114  0.2842 -0.0110
 8163SOL    HW135951   4.621   0.831   1.774  1.5315  1.0316 -1.1698
 8163SOL    HW235952   4.549   0.884   1.883 -0.5887  1.6800 -0.2446
 8164SOL     OW35953   3.180   0.318   2.722 -0.2014  0.4217  0.2030
 8164SOL    HW135954   3.259   0.336   2.773  0.0943  2.4450 -0.9630
 8164SOL    HW235955   3.109   0.286   2.777  1.4577 -2.5073  0.6401
 8165SOL     OW35956   4.361   0.104   2.299 -0.0513  0.0035 -0.3653
 8165SOL    HW135957   4.386   0.114   2.207  1.6342 -3.6307 -0.2983
 8165SOL    HW235958   4.448   0.124   2.334 -0.0689  0.5762 -0.6582
 8166SOL     OW35959   3.309   2.350   7.064  0.2101  0.0407  0.0585
 8166SOL    HW135960   3.380   2.351   7.000 -0.9913  1.6413 -1.2538
 8166SOL    HW235961   3.305   2.444   7.082 -0.2683 -0.3574  2.0204
 8167SOL     OW35962   3.795   4.682   7.147 -0.0694  0.7795  0.1649
 8167SOL    HW135963   3.846   4.710   7.071  0.8261  0.4700  0.6519
 8167SOL    HW235964   3.761   4.597   7.119 -3.2544  2.6413 -1.6005
 8168SOL     OW35965   4.257   0.479  14.531 -0.0110 -0.8151  0.1987
 8168SOL    HW135966   4.281   0.561  14.573 -0.4120  0.2144 -1.5857
 8168SOL    HW235967   4.172   0.504  14.496  0.1531 -1.9118 -0.9864
 8169SOL     OW35968   0.424   0.122  13.455 -0.1750 -0.2921  0.1290
 8169SOL    HW135969   0.469   0.155  13.377 -0.2461 -0.1359  0.1537
 8169SOL    HW235970   0.335   0.145  13.427 -0.1719 -2.3944 -1.5926
 8170SOL     OW35971   1.112   3.533   8.540  0.2406  0.4650  0.2163
 8170SOL    HW135972   1.078   3.490   8.619 -1.0260  1.4462  0.1877
 8170SOL    HW235973   1.200   3.536   8.578 -0.3192  1.4466  1.4522
 8171SOL     OW35974   4.363   3.482   6.544  0.3206 -0.2391  0.4431
 8171SOL    HW135975   4.373   3.483   6.449  1.6531 -0.2648  0.5907
 8171SOL    HW235976   4.298   3.547   6.570 -0.7546 -0.1552 -2.4137
 8172SOL     OW35977   4.234   1.028   4.705 -0.7344 -0.1020 -0.3348
 8172SOL    HW135978   4.293   0.972   4.756 -2.1536  0.1765  1.6418
 8172SOL    HW235979   4.261   1.016   4.614  0.1257  0.8209 -0.2050
 8173SOL     OW35980   3.000   4.196   4.987  0.5140 -0.5365  0.9289
 8173SOL    HW135981   2.929   4.221   4.928  1.0748 -0.0737  0.4590
 8173SOL    HW235982   3.050   4.139   4.929 -2.7311 -1.2379 -1.1877
 8174SOL     OW35983   3.960   0.937   5.218 -0.0028  0.4603 -0.6937
 8174SOL    HW135984   4.015   1.013   5.237 -0.9114  0.2215  2.7515
 8174SOL    HW235985   4.009   0.885   5.153  1.6206  1.2734 -0.1350
 8175SOL     OW35986   3.039   4.438   9.463  0.6703 -0.0332 -0.1241
 8175SOL    HW135987   3.051   4.463   9.371  0.3652 -0.7745 -0.3669
 8175SOL    HW235988   2.964   4.495   9.481  1.3106  0.3025  1.4796
 8176SOL     OW35989   0.066   0.823   3.577  0.1445  0.1277  0.0642
 8176SOL    HW135990   0.058   0.789   3.488 -0.1778  1.2394 -0.3271
 8176SOL    HW235991   0.047   0.741   3.622 -0.9002 -0.3154 -1.1964
 8177SOL     OW35992   2.346   0.393   4.931  0.0314  0.8321  0.7722
 8177SOL    HW135993   2.283   0.378   4.860 -2.1851  2.4781  2.3787
 8177SOL    HW235994   2.402   0.462   4.894 -0.2399  0.0658 -1.0621
 8178SOL     OW35995   1.854   4.048   5.304  0.5403 -0.4117  0.4491
 8178SOL    HW135996   1.793   4.068   5.375  0.2108 -1.8440  0.5642
 8178SOL    HW235997   1.810   4.097   5.235  0.8802  0.7498  1.0671
 8179SOL     OW35998   3.748   2.120   4.240 -0.1691  0.0544  0.5016
 8179SOL    HW135999   3.759   2.030   4.271 -1.3990 -0.1125  0.4379
 8179SOL    HW236000   3.819   2.120   4.176 -0.3448  0.4344  0.3093
 8180SOL     OW36001   2.864   0.573   2.918 -0.1256  0.5877  0.6296
 8180SOL    HW136002   2.784   0.528   2.943 -0.8809 -0.7374 -4.1801
 8180SOL    HW236003   2.839   0.634   2.849  1.3607 -0.0969 -0.5386
 8181SOL     OW36004   2.314   0.775   2.878 -0.2533 -0.0902 -0.4844
 8181SOL    HW136005   2.246   0.708   2.887 -1.2677  1.1309  0.9097
 8181SOL    HW236006   2.286   0.842   2.940  3.8155  2.1515 -1.0963
 8182SOL     OW36007   2.510   0.505   1.900  0.1557  0.2892 -0.2185
 8182SOL    HW136008   2.475   0.482   1.987  3.3490  0.4915  1.1041
 8182SOL    HW236009   2.483   0.431   1.845 -1.3025 -0.4413  1.4477
 8183SOL     OW36010   1.372   3.472   7.218  0.5514  0.4586 -0.0765
 8183SOL    HW136011   1.291   3.524   7.219  2.1199  2.9192 -1.2393
 8183SOL    HW236012   1.335   3.386   7.197 -1.4404  1.6187 -1.3220
 8184SOL     OW36013   1.932   1.612  14.045 -0.1091 -0.8016  0.0833
 8184SOL    HW136014   1.987   1.668  13.991 -1.7189  1.5657  0.8895
 8184SOL    HW236015   1.932   1.649  14.133 -3.1705 -1.5764  0.4180
 8185SOL     OW36016   3.050   3.343   4.151  0.0558 -0.5230  0.4282
 8185SOL    HW136017   3.057   3.437   4.131 -2.6639  0.0243  2.0903
 8185SOL    HW236018   2.968   3.311   4.113  0.4426  0.1403 -0.9773
 8186SOL     OW36019   3.093   2.934   5.024 -0.2688  0.4445  0.0671
 8186SOL    HW136020   3.059   2.927   4.935 -0.3527  1.4378  0.0239
 8186SOL    HW236021   3.162   3.000   5.014  0.5408 -0.2262  1.1984
 8187SOL     OW36022   2.365   3.101  10.755  0.0479  0.2599  0.1310
 8187SOL    HW136023   2.353   3.190  10.789  3.7047  1.0199 -0.5566
 8187SOL    HW236024   2.436   3.081  10.816 -0.4010  0.8182  0.8497
 8188SOL     OW36025   1.892   1.613   4.256 -0.0736 -0.1313  0.0208
 8188SOL    HW136026   1.885   1.702   4.221  0.7426 -0.0993 -0.0491
 8188SOL    HW236027   1.835   1.602   4.332 -0.6943  0.7329 -0.3190
 8189SOL     OW36028   2.622   4.685   8.318  0.0468 -0.2891 -0.1905
 8189SOL    HW136029   2.643   4.655   8.229  0.2529  1.2228 -0.6499
 8189SOL    HW236030   2.535   4.647   8.329  1.1701 -2.3365  1.5582
 8190SOL     OW36031   4.708   4.237   9.355 -0.2981  0.1783  0.5694
 8190SOL    HW136032   4.714   4.313   9.412  0.0384 -0.3502  1.2426
 8190SOL    HW236033   4.651   4.180   9.408  0.1887  0.8121  1.7632
 8191SOL     OW36034   2.441   0.972  10.908  0.1685  0.2269 -0.0129
 8191SOL    HW136035   2.352   0.939  10.915  0.9258 -1.7056  0.6904
 8191SOL    HW236036   2.458   1.028  10.984  1.5382 -2.5712  1.7774
 8192SOL     OW36037   4.564   2.711   9.338 -0.5138  0.1259 -0.2267
 8192SOL    HW136038   4.549   2.762   9.258 -0.8517  1.6376  0.8067
 8192SOL    HW236039   4.659   2.723   9.342 -0.2065 -2.6217  0.2976
 8193SOL     OW36040   2.935   1.221   1.572 -0.1685  0.0979  0.4346
 8193SOL    HW136041   2.923   1.272   1.492  2.4678  1.3164  0.8199
 8193SOL    HW236042   2.964   1.293   1.628 -1.9662  1.4397 -0.3712
 8194SOL     OW36043   4.518   0.082   7.196 -0.2363 -0.1983 -0.3810
 8194SOL    HW136044   4.454   0.143   7.233  1.3291  0.6285  0.9634
 8194SOL    HW236045   4.588   0.108   7.256 -2.8818  1.2957  2.0556
 8195SOL     OW36046   2.285   3.122   8.400  0.4074  0.3173  0.3826
 8195SOL    HW136047   2.201   3.168   8.392 -1.4031 -3.1159 -0.0539
 8195SOL    HW236048   2.285   3.133   8.496 -0.1878  1.3535  0.2672
 8196SOL     OW36049   3.925   1.884   5.183  0.3142  0.2251 -0.0396
 8196SOL    HW136050   3.898   1.795   5.204  0.6105  0.2742  0.5592
 8196SOL    HW236051   3.950   1.860   5.094  0.3885  0.1178  0.0106
 8197SOL     OW36052   0.265   2.961   0.098  0.2843  0.1334  0.4382
 8197SOL    HW136053   0.247   3.003   0.182 -0.8597  2.3181 -0.8935
 8197SOL    HW236054   0.257   3.034   0.037  0.2735 -0.3238 -0.1114
 8198SOL     OW36055   3.130   0.616  10.356 -0.3016 -0.5441 -0.0447
 8198SOL    HW136056   3.176   0.666  10.289 -0.2467 -2.0179 -1.1299
 8198SOL    HW236057   3.180   0.535  10.368  0.0849 -0.4440 -0.9617
 8199SOL     OW36058   2.107   2.692   3.577  0.0683 -0.2088  0.2007
 8199SOL    HW136059   2.191   2.647   3.582  0.9327  1.4338  0.6846
 8199SOL    HW236060   2.075   2.666   3.491 -0.5544  0.7191  0.1509
 8200SOL     OW36061   3.581   0.251  17.414  0.1036  0.0139  0.0346
 8200SOL    HW136062   3.592   0.282  17.323 -1.7462  0.9910  0.1366
 8200SOL    HW236063   3.486   0.258  17.428  0.3821  0.3556  1.7481
 8201SOL     OW36064   0.255   4.389   6.352 -0.2385 -0.9338  0.0684
 8201SOL    HW136065   0.236   4.295   6.351  1.4833 -1.2877  0.8554
 8201SOL    HW236066   0.182   4.417   6.408  1.3587 -1.5280  2.4275
 8202SOL     OW36067   3.998   4.127   3.957  0.0635 -0.1897 -0.4210
 8202SOL    HW136068   3.932   4.057   3.963  1.8777 -1.7769  1.3976
 8202SOL    HW236069   3.973   4.172   4.038 -1.0239  1.0586 -1.4610
 8203SOL     OW36070   4.075   1.271  11.517  0.2306 -0.2885  0.0318
 8203SOL    HW136071   4.003   1.270  11.581  1.9741 -0.5009  1.9801
 8203SOL    HW236072   4.143   1.240  11.576  1.8245 -0.3037 -1.8465
 8204SOL     OW36073   3.953   0.278   0.859 -0.5499  0.4729 -0.1033
 8204SOL    HW136074   3.919   0.366   0.846  0.5479  0.7704 -0.9675
 8204SOL    HW236075   4.047   0.287   0.842 -0.5110 -0.2515 -0.2901
 8205SOL     OW36076   4.473   3.903   7.930 -0.5458 -0.0635 -0.5503
 8205SOL    HW136077   4.501   3.876   8.018 -0.6168 -0.7867 -0.7472
 8205SOL    HW236078   4.491   3.830   7.870  2.0582 -0.0370  0.1906
 8206SOL     OW36079   1.544   2.502  10.445  0.0116  0.0790  0.6290
 8206SOL    HW136080   1.542   2.580  10.389  0.3225  0.1676  0.7427
 8206SOL    HW236081   1.631   2.467  10.427  0.0031  0.6106 -0.4247
 8207SOL     OW36082   2.575   3.017  17.140  0.7049  0.2838 -0.1632
 8207SOL    HW136083   2.546   2.986  17.054  0.0218 -0.6344  0.3904
 8207SOL    HW236084   2.592   2.936  17.189  2.8105  0.6914 -0.2401
 8208SOL     OW36085   2.106   1.474   3.951 -0.2458  0.1076 -0.1165
 8208SOL    HW136086   2.138   1.560   3.922  3.8707 -0.8612  1.5027
 8208SOL    HW236087   2.051   1.500   4.025  1.2409 -0.4042  1.1747
 8209SOL     OW36088   3.940   3.014  11.953  0.0351 -0.0579  0.3111
 8209SOL    HW136089   4.017   3.056  11.993  0.8749 -1.4010  0.1013
 8209SOL    HW236090   3.980   2.960  11.885 -1.2035 -0.7990  0.1900
 8210SOL     OW36091   0.636   0.027   4.327 -0.1092  0.6723 -0.2086
 8210SOL    HW136092   0.607   0.032   4.236  2.4902  2.8567 -0.9049
 8210SOL    HW236093   0.699   0.099   4.326 -1.6916  2.0622  0.7589
 8211SOL     OW36094   1.498   4.128   6.994 -0.3597 -0.5791  0.1769
 8211SOL    HW136095   1.466   4.218   7.006 -2.1362 -1.0568 -1.1059
 8211SOL    HW236096   1.432   4.077   7.041 -0.6261 -1.6189 -1.3318
 8212SOL     OW36097   1.414   2.949   9.715  0.5633  0.1288 -0.2705
 8212SOL    HW136098   1.416   3.024   9.775  1.0717  2.1416 -2.8366
 8212SOL    HW236099   1.363   2.991   9.646  2.0341  1.1263 -0.7505
 8213SOL     OW36100   1.593   0.240   9.039  0.0852 -0.2839  0.4846
 8213SOL    HW136101   1.677   0.199   9.018  0.3037 -0.6115  1.9445
 8213SOL    HW236102   1.594   0.230   9.135  0.5716 -1.4992  0.3465
 8214SOL     OW36103   4.716   0.472  12.156  0.7524  0.4781  0.2423
 8214SOL    HW136104   0.034   0.480  12.072 -0.7329  0.7143 -0.5336
 8214SOL    HW236105   4.627   0.465  12.122  1.3609 -1.4667 -0.9279
 8215SOL     OW36106   3.858   2.434   8.237  0.5106 -0.3990  0.1056
 8215SOL    HW136107   3.918   2.388   8.296 -0.2690 -0.2747  0.9946
 8215SOL    HW236108   3.915   2.470   8.169  1.5266  1.1489  1.7813
 8216SOL     OW36109   0.909   3.523  17.280  0.5351  0.2168  0.3376
 8216SOL    HW136110   0.942   3.610  17.305 -1.0973  0.3989  1.8865
 8216SOL    HW236111   0.985   3.478  17.242 -1.2073 -0.9070 -1.7765
 8217SOL     OW36112   4.077   3.884   5.522  0.6547 -0.2845 -0.0607
 8217SOL    HW136113   4.090   3.809   5.465  1.6428 -0.1251 -0.0402
 8217SOL    HW236114   4.154   3.940   5.513 -0.1871  0.9778  0.5234
 8218SOL     OW36115   1.609   1.752   1.363  0.1513 -0.3655 -0.5609
 8218SOL    HW136116   1.594   1.775   1.455  0.9974 -0.3658 -0.4282
 8218SOL    HW236117   1.532   1.701   1.337 -2.3648  2.6608  0.9807
 8219SOL     OW36118   2.768   3.611   3.492 -0.5901 -0.4272  0.2627
 8219SOL    HW136119   2.765   3.540   3.428  1.5221  0.1598 -0.4580
 8219SOL    HW236120   2.785   3.687   3.438 -3.2022 -0.7030 -0.9800
 8220SOL     OW36121   4.711   1.634  15.087  0.3526  0.1531 -0.7981
 8220SOL    HW136122   4.658   1.563  15.121 -0.0640  1.3247  1.0075
 8220SOL    HW236123   4.694   1.693  15.161  1.7673  0.3520 -0.6318
 8221SOL     OW36124   3.458   3.290   9.310 -0.3118 -0.4540  0.5030
 8221SOL    HW136125   3.541   3.311   9.352  0.3687 -0.4388 -0.8488
 8221SOL    HW236126   3.397   3.316   9.379 -1.1435  1.7093 -1.0382
 8222SOL     OW36127   2.197   1.618  14.468  0.1513 -0.0698 -0.2628
 8222SOL    HW136128   2.253   1.685  14.427  0.9047 -1.5262 -1.5783
 8222SOL    HW236129   2.252   1.542  14.488  0.9711  0.4913 -0.3702
 8223SOL     OW36130   3.327   0.571  16.137 -0.2971  0.2377  0.1509
 8223SOL    HW136131   3.293   0.516  16.065  0.4655  0.6235 -0.5109
 8223SOL    HW236132   3.420   0.569  16.115  0.1512 -0.2899  2.1111
 8224SOL     OW36133   2.116   1.546   5.281 -0.2498  0.0172 -0.5814
 8224SOL    HW136134   2.156   1.523   5.365 -0.5082  2.0402  0.0954
 8224SOL    HW236135   2.118   1.641   5.286 -3.5442  0.0034  1.2140
 8225SOL     OW36136   1.722   4.421  10.401 -0.0431  0.0907  0.4911
 8225SOL    HW136137   1.806   4.441  10.443 -0.0899 -0.4320  0.8404
 8225SOL    HW236138   1.679   4.506  10.407 -2.1686 -0.8170 -2.0547
 8226SOL     OW36139   3.110   4.660  12.860 -0.1714  0.3443 -0.7071
 8226SOL    HW136140   3.150   4.726  12.916  0.3214  0.8078 -1.6112
 8226SOL    HW236141   3.079   4.723  12.795  0.4445 -0.3795 -1.6998
 8227SOL     OW36142   1.886   1.912   7.847 -0.3273 -0.2482  0.2150
 8227SOL    HW136143   1.876   1.967   7.924 -0.9101 -2.2084  1.5244
 8227SOL    HW236144   1.793   1.914   7.824 -0.5558 -0.7932  1.1078
 8228SOL     OW36145   4.631   3.076   4.034  0.0445  0.4331  0.0411
 8228SOL    HW136146   4.541   3.060   4.006  0.5392 -0.1372 -1.2343
 8228SOL    HW236147   4.649   3.143   3.968  1.0771 -0.0525 -0.1609
 8229SOL     OW36148   4.692   4.170  11.702  0.0551 -0.0557 -0.4792
 8229SOL    HW136149   4.634   4.246  11.708 -1.5127 -1.2849 -0.0508
 8229SOL    HW236150   0.034   4.194  11.764 -0.1751  1.2008 -0.7016
 8230SOL     OW36151   2.451   1.623   2.634 -0.1343  0.6831  0.3638
 8230SOL    HW136152   2.377   1.563   2.633  1.9207 -1.8538 -1.0929
 8230SOL    HW236153   2.526   1.567   2.611  2.1917  3.1835  1.7945
 8231SOL     OW36154   2.589   0.712  15.047  0.4922  0.4561 -0.2948
 8231SOL    HW136155   2.669   0.659  15.052  0.1861 -0.0478 -0.7054
 8231SOL    HW236156   2.617   0.788  14.995  0.3320  2.4143  2.4663
 8232SOL     OW36157   2.765   4.446  10.428  0.1096  0.4062 -0.7083
 8232SOL    HW136158   2.787   4.466  10.519 -0.2317 -1.6086 -0.1878
 8232SOL    HW236159   2.745   4.352  10.431  2.1125  0.0400  1.1735
 8233SOL     OW36160   4.113   4.596   5.182  0.2511 -0.3089  0.2486
 8233SOL    HW136161   4.134   4.638   5.098 -0.1747  1.2434  0.9173
 8233SOL    HW236162   4.198   4.558   5.204 -0.4056 -3.5550 -2.8163
 8234SOL     OW36163   3.703   1.079   2.248  0.6015 -0.2606 -0.2506
 8234SOL    HW136164   3.634   1.015   2.228  0.0305  0.0213  0.8557
 8234SOL    HW236165   3.659   1.158   2.215  0.6598 -1.4621 -3.2318
 8235SOL     OW36166   3.298   0.795   8.942  1.1661 -0.1168 -0.3654
 8235SOL    HW136167   3.222   0.846   8.913  0.8750  0.9556  2.2951
 8235SOL    HW236168   3.259   0.717   8.980 -1.0530  0.2305 -1.9043
 8236SOL     OW36169   1.342   1.498   5.432  0.3412 -0.7696 -0.6442
 8236SOL    HW136170   1.436   1.515   5.425  0.4819 -1.3435 -0.0331
 8236SOL    HW236171   1.318   1.496   5.339 -0.5288  0.1353 -0.4490
 8237SOL     OW36172   3.909   2.741   6.008  0.3320 -0.6350 -0.2716
 8237SOL    HW136173   3.890   2.830   6.038 -2.0632 -1.9765  2.2623
 8237SOL    HW236174   3.974   2.762   5.941  1.7704  2.4700  2.1119
 8238SOL     OW36175   2.302   0.318   1.466 -0.3292 -0.0081  0.0372
 8238SOL    HW136176   2.300   0.339   1.559  1.3269  1.6056 -0.3020
 8238SOL    HW236177   2.219   0.271   1.459  0.2568 -1.0036 -0.1983
 8239SOL     OW36178   4.095   0.905   6.343  0.5473 -0.2564 -0.3459
 8239SOL    HW136179   4.084   0.968   6.414  0.4395 -2.0376  1.1883
 8239SOL    HW236180   4.098   0.968   6.270 -0.4347 -1.1896 -1.1936
 8240SOL     OW36181   3.628   4.149   7.153 -0.1745 -0.4831 -0.2480
 8240SOL    HW136182   3.644   4.207   7.227  1.4904 -2.4818  0.9520
 8240SOL    HW236183   3.566   4.084   7.186 -0.5370  1.0967  2.1624
 8241SOL     OW36184   4.475   2.710   4.931  0.2580 -0.1873  0.7285
 8241SOL    HW136185   4.504   2.799   4.952 -0.2011  0.1314  0.0116
 8241SOL    HW236186   4.558   2.665   4.915 -0.0356 -1.2486  2.1830
 8242SOL     OW36187   2.537   2.151   2.296 -0.1034  0.6707  0.1624
 8242SOL    HW136188   2.525   2.181   2.386 -1.5671  2.2553 -0.5729
 8242SOL    HW236189   2.486   2.213   2.244 -0.3612 -0.4369 -0.8943
 8243SOL     OW36190   3.901   3.589   9.307  0.3188  0.4082 -0.0987
 8243SOL    HW136191   3.831   3.648   9.279  0.4088  0.4301 -0.2756
 8243SOL    HW236192   3.955   3.580   9.229  2.0686  2.0560  0.9265
 8244SOL     OW36193   0.510   0.146   5.689 -0.9914  0.1732 -0.1441
 8244SOL    HW136194   0.419   0.116   5.691 -0.3683 -1.5846  2.5030
 8244SOL    HW236195   0.505   0.232   5.648 -0.5832  0.3922  0.2633
 8245SOL     OW36196   1.742   1.128   1.400  0.2470  0.4052  0.8350
 8245SOL    HW136197   1.826   1.140   1.443  0.0678 -0.3371  1.3829
 8245SOL    HW236198   1.752   1.195   1.332  0.9968  0.6832  1.2182
 8246SOL     OW36199   3.999   4.589  14.967 -0.5069  0.0370 -0.1823
 8246SOL    HW136200   4.000   4.674  15.011 -0.5610 -1.1976  2.1905
 8246SOL    HW236201   3.970   4.624  14.883 -0.6957 -0.7783 -0.4563
 8247SOL     OW36202   4.343   1.617   6.400 -0.2866  0.4694  0.0948
 8247SOL    HW136203   4.296   1.698   6.420 -0.4827  0.5129 -0.5529
 8247SOL    HW236204   4.355   1.623   6.305 -0.0322 -1.6967 -0.0241
 8248SOL     OW36205   0.853   3.519  15.938  0.1898  0.1166 -0.2288
 8248SOL    HW136206   0.763   3.492  15.920  0.3797  0.6310 -1.9020
 8248SOL    HW236207   0.860   3.501  16.032 -2.5931  0.1050 -0.0436
 8249SOL     OW36208   2.051   2.086  12.324  0.7244 -0.0015 -0.2160
 8249SOL    HW136209   2.016   2.111  12.238 -0.0797  0.7394  0.3265
 8249SOL    HW236210   2.103   2.165  12.339  2.2099 -0.9152 -0.5705
 8250SOL     OW36211   1.936   2.965  11.893 -0.1138  0.8544  0.0141
 8250SOL    HW136212   2.026   2.972  11.925 -0.7737  0.0200  2.0093
 8250SOL    HW236213   1.885   3.004  11.963  0.0392  2.0122 -0.5153
 8251SOL     OW36214   1.375   4.288   6.486  0.5304  0.3278  0.0634
 8251SOL    HW136215   1.409   4.361   6.538  2.7072 -0.3073 -0.4271
 8251SOL    HW236216   1.301   4.265   6.542 -0.8727  1.6929 -1.2545
 8252SOL     OW36217   0.645   0.281   6.263 -0.0607 -0.2397 -0.5845
 8252SOL    HW136218   0.643   0.348   6.331 -0.1644 -0.4708 -0.3571
 8252SOL    HW236219   0.556   0.248   6.279 -0.5196  0.0893 -2.5018
 8253SOL     OW36220   1.814   4.412   8.336 -0.0643  0.1924 -0.4387
 8253SOL    HW136221   1.876   4.355   8.383  0.0954 -0.6583 -1.6854
 8253SOL    HW236222   1.741   4.351   8.320 -1.0775  1.1676  0.4958
 8254SOL     OW36223   3.763   0.066   1.109 -0.2564  0.0769 -0.0518
 8254SOL    HW136224   3.702   4.720   1.120 -2.4058  2.0463  1.2971
 8254SOL    HW236225   3.831   0.029   1.053  0.8300 -0.5083  1.6641
 8255SOL     OW36226   4.218   1.727   2.830 -0.0138  0.1628 -0.3285
 8255SOL    HW136227   4.170   1.809   2.823 -0.2667 -0.0887 -1.5212
 8255SOL    HW236228   4.154   1.678   2.779 -1.4659  1.5787  0.1290
 8256SOL     OW36229   1.495   4.253  16.235  0.1342  0.1461  0.2458
 8256SOL    HW136230   1.542   4.222  16.313  1.2491  0.1480 -0.4278
 8256SOL    HW236231   1.459   4.175  16.194  1.0086  0.3677 -0.9352
 8257SOL     OW36232   1.229   4.270   2.586  0.3697  0.2957  0.0612
 8257SOL    HW136233   1.184   4.270   2.501  0.6055 -1.9728 -0.0739
 8257SOL    HW236234   1.185   4.343   2.628 -0.4855 -0.5723  0.6586
 8258SOL     OW36235   2.145   0.388  10.777 -0.0842 -0.2483 -0.7877
 8258SOL    HW136236   2.115   0.320  10.837 -1.2277 -0.0945 -1.1912
 8258SOL    HW236237   2.238   0.364  10.770 -0.0965 -0.7217  0.8117
 8259SOL     OW36238   3.602   1.166   7.699  0.0504  0.1611 -0.2665
 8259SOL    HW136239   3.523   1.154   7.647  0.7702 -2.0090 -0.8673
 8259SOL    HW236240   3.655   1.096   7.661  0.3147  1.0149 -1.4791
 8260SOL     OW36241   2.346   0.545   7.621 -0.1914  0.3670 -0.3849
 8260SOL    HW136242   2.279   0.558   7.554 -0.8060 -1.5237 -0.1476
 8260SOL    HW236243   2.291   0.549   7.700  0.5763 -0.0582  0.1705
 8261SOL     OW36244   4.277   0.503  16.512  0.5568 -0.0505 -0.1875
 8261SOL    HW136245   4.293   0.417  16.473  0.7531 -1.0328  2.0555
 8261SOL    HW236246   4.349   0.556  16.477  0.5380  0.1473  0.0815
 8262SOL     OW36247   1.319   2.797   6.374  0.1952  0.3874 -0.5994
 8262SOL    HW136248   1.408   2.761   6.378  0.5706  1.3442 -0.3884
 8262SOL    HW236249   1.324   2.853   6.297  0.0968  0.8563 -0.2707
 8263SOL     OW36250   2.556   1.928   5.169  0.3475 -0.2454 -0.2029
 8263SOL    HW136251   2.634   1.875   5.156  0.1889  0.2698 -3.1020
 8263SOL    HW236252   2.543   1.943   5.263 -1.0390  0.1023 -0.4419
 8264SOL     OW36253   3.196   2.698  15.290  0.0970  0.2371  0.3427
 8264SOL    HW136254   3.277   2.649  15.306 -0.2759 -0.5861 -0.2403
 8264SOL    HW236255   3.164   2.693  15.380 -0.7530 -0.6139 -0.0021
 8265SOL     OW36256   0.915   2.759   3.262  0.1587 -0.6033  0.1172
 8265SOL    HW136257   0.835   2.776   3.213  0.1379 -1.3361 -0.0998
 8265SOL    HW236258   0.977   2.752   3.189  1.0466 -1.4769  0.9387
 8266SOL     OW36259   0.053   2.328   1.438 -0.1950  0.7423  0.5217
 8266SOL    HW136260   0.052   2.364   1.349 -0.3481 -0.6696 -0.0396
 8266SOL    HW236261   0.012   2.243   1.424  0.6357  0.6898 -1.5919
 8267SOL     OW36262   2.553   3.024   5.962  0.5428  0.1858  0.3348
 8267SOL    HW136263   2.611   2.970   6.016 -1.3685 -0.5269  1.6755
 8267SOL    HW236264   2.612   3.086   5.921 -0.8608  0.6129 -1.0114
 8268SOL     OW36265   2.767   3.375  14.542  0.3858  0.3664  0.2692
 8268SOL    HW136266   2.748   3.282  14.529  4.0552 -0.3695  0.0472
 8268SOL    HW236267   2.828   3.362  14.614 -2.0573 -0.5682  2.1878
 8269SOL     OW36268   1.049   1.641   7.334  0.3276  0.6587  0.3013
 8269SOL    HW136269   1.116   1.603   7.391  0.8683  0.3276 -0.5479
 8269SOL    HW236270   1.045   1.582   7.258  1.0024  1.8917 -0.6913
 8270SOL     OW36271   3.669   2.522   6.576 -0.1998 -0.2190 -0.1096
 8270SOL    HW136272   3.709   2.581   6.640 -1.5298  0.2092  0.3373
 8270SOL    HW236273   3.686   2.433   6.607 -0.8937  0.0805  1.1310
 8271SOL     OW36274   2.713   4.470   4.134  0.2679 -0.2140 -0.1796
 8271SOL    HW136275   2.685   4.380   4.150  3.1870 -0.8531  1.1969
 8271SOL    HW236276   2.791   4.482   4.187 -0.4262 -2.1265  1.2700
 8272SOL     OW36277   2.915   4.525   7.452 -0.2936  0.4761 -0.1231
 8272SOL    HW136278   2.922   4.550   7.360  1.9612 -0.0659 -0.0939
 8272SOL    HW236279   2.939   4.433   7.445  0.7711  0.6441  1.3719
 8273SOL     OW36280   1.428   0.418   8.563  0.2475 -0.0282  0.2574
 8273SOL    HW136281   1.398   0.508   8.551  2.2882  0.4936 -0.8033
 8273SOL    HW236282   1.447   0.417   8.657 -0.6056  0.3412  0.4307
 8274SOL     OW36283   3.126   1.566   3.757 -0.3418  0.4862  0.0033
 8274SOL    HW136284   3.054   1.557   3.819 -1.9722  2.6066 -1.5920
 8274SOL    HW236285   3.081   1.598   3.679 -0.3699 -1.2779 -0.7054
 8275SOL     OW36286   1.571   1.880   8.439  0.1693  0.5155  0.3100
 8275SOL    HW136287   1.551   1.787   8.441  0.9145  0.3940  1.8737
 8275SOL    HW236288   1.595   1.901   8.349  0.0639  2.1022  0.6579
 8276SOL     OW36289   4.085   4.004  16.746  0.7124 -0.0186 -0.0295
 8276SOL    HW136290   4.096   4.099  16.749  1.4051 -0.0069 -2.9193
 8276SOL    HW236291   4.121   3.974  16.829 -1.6452  0.9389  1.3267
 8277SOL     OW36292   2.945   2.167   0.834 -0.4946 -0.5320 -0.3794
 8277SOL    HW136293   2.965   2.074   0.846 -0.9131 -0.6669 -0.6972
 8277SOL    HW236294   2.970   2.204   0.918  0.1396  1.6967 -1.5602
 8278SOL     OW36295   2.399   2.404   0.181 -0.2094 -0.3760  0.4176
 8278SOL    HW136296   2.317   2.441   0.147  0.0829 -0.3693 -0.2717
 8278SOL    HW236297   2.383   2.412   0.275  0.1575  1.1146  0.3633
 8279SOL     OW36298   4.168   3.596  14.649  0.2975  0.4857  0.0706
 8279SOL    HW136299   4.101   3.653  14.685 -0.6878 -1.1890  0.8991
 8279SOL    HW236300   4.170   3.635  14.561 -2.5311  0.9129  0.2110
 8280SOL     OW36301   0.814   0.045   9.338  0.2411 -0.0271  0.1180
 8280SOL    HW136302   0.722   0.024   9.321 -0.4667  1.7613  1.7043
 8280SOL    HW236303   0.842   4.691   9.380 -0.9778 -0.0990  0.8022
 8281SOL     OW36304   1.828   1.026   7.690 -0.5931  0.3609 -0.7875
 8281SOL    HW136305   1.873   1.016   7.774 -0.2014  0.7707 -0.9501
 8281SOL    HW236306   1.845   0.945   7.643  1.1694 -0.4255  1.2392
 8282SOL     OW36307   0.931   3.283   7.880 -0.1773 -0.1680  0.0054
 8282SOL    HW136308   0.974   3.210   7.835 -1.7006 -1.5240  0.7745
 8282SOL    HW236309   0.900   3.242   7.961 -0.4415  1.4049  0.6965
 8283SOL     OW36310   0.196   4.507   5.766  0.0640  0.1196 -0.5012
 8283SOL    HW136311   0.278   4.527   5.811 -0.6875  0.8944  0.5215
 8283SOL    HW236312   0.145   4.477   5.842  0.2994  0.0555 -0.3706
 8284SOL     OW36313   4.660   2.453   4.308 -0.5891 -0.3394 -0.0107
 8284SOL    HW136314   4.586   2.478   4.252 -1.6587 -1.5295  0.8783
 8284SOL    HW236315   0.001   2.514   4.282  1.5095 -1.0897  3.8840
 8285SOL     OW36316   4.566   3.527   8.302  0.3962 -0.5400 -0.8718
 8285SOL    HW136317   4.626   3.476   8.248  0.1619 -3.0347  1.2203
 8285SOL    HW236318   4.628   3.553   8.370 -0.7663 -1.8552  0.6910
 8286SOL     OW36319   2.127   0.022   5.467 -0.1405 -0.0042 -0.2232
 8286SOL    HW136320   2.221   0.026   5.448  0.3837 -0.9862  2.1119
 8286SOL    HW236321   2.091   0.014   5.379 -1.4144 -0.7603  0.3638
 8287SOL     OW36322   3.029   4.715   7.933 -0.4470 -0.3530  0.5330
 8287SOL    HW136323   3.015   4.624   7.958  0.1732 -0.2567  1.2293
 8287SOL    HW236324   3.124   4.720   7.928 -0.5114 -0.9147 -1.2175
 8288SOL     OW36325   2.367   3.490  16.602  0.4378 -0.0666 -0.0664
 8288SOL    HW136326   2.276   3.502  16.577  0.1246  0.8160  1.5595
 8288SOL    HW236327   2.399   3.490  16.511  0.3668  2.3806 -0.0926
 8289SOL     OW36328   2.036   2.457   7.558  0.4936  0.3270 -0.0713
 8289SOL    HW136329   2.020   2.362   7.563  0.1606  0.3813 -0.0715
 8289SOL    HW236330   2.019   2.476   7.650 -3.4301  1.0779 -0.9361
 8290SOL     OW36331   2.932   4.044   7.607  0.0212  0.9013  0.0764
 8290SOL    HW136332   2.927   3.950   7.624 -0.9872  0.9764  0.1712
 8290SOL    HW236333   2.901   4.084   7.688  1.1618 -0.9315  1.4262
 8291SOL     OW36334   4.458   1.821   1.783  0.0693  0.7490 -0.7193
 8291SOL    HW136335   4.408   1.790   1.707 -2.0641 -1.6526  1.6553
 8291SOL    HW236336   4.547   1.826   1.748  0.5451 -2.6797  0.0384
 8292SOL     OW36337   0.189   3.114   0.308 -0.0750  0.9792 -0.5942
 8292SOL    HW136338   0.199   3.208   0.318  1.0899  0.5621  2.1842
 8292SOL    HW236339   0.107   3.093   0.353 -0.0597 -1.4788 -1.7194
 8293SOL     OW36340   0.165   4.459   1.805 -0.3644  0.0194  0.4532
 8293SOL    HW136341   0.178   4.370   1.837 -0.5312 -0.2612 -0.2543
 8293SOL    HW236342   0.169   4.449   1.710  3.1500 -0.5099  0.6844
 8294SOL     OW36343   2.165   4.151   2.625  0.1085  0.4488 -0.4465
 8294SOL    HW136344   2.092   4.112   2.673  0.1422 -0.2657 -0.9678
 8294SOL    HW236345   2.125   4.149   2.539 -0.3923 -0.4002 -0.1971
 8295SOL     OW36346   0.758   2.921   0.411 -0.2013  0.2241  0.0868
 8295SOL    HW136347   0.810   2.943   0.489 -2.6807  0.1189  1.7817
 8295SOL    HW236348   0.786   2.978   0.340  2.7958 -2.1927 -0.6554
 8296SOL     OW36349   0.128   0.791   2.334 -0.0112  0.4703  0.1638
 8296SOL    HW136350   0.222   0.776   2.337 -0.1664 -0.4238  0.3366
 8296SOL    HW236351   0.096   0.746   2.412 -0.6701 -0.0945 -0.4387
 8297SOL     OW36352   2.219   2.519   6.663  0.6312 -0.4469 -0.1049
 8297SOL    HW136353   2.172   2.557   6.736  3.8330  1.6214  0.8828
 8297SOL    HW236354   2.147   2.483   6.612 -0.0144 -1.4573  1.5413
 8298SOL     OW36355   4.563   2.927   0.895  0.0857  0.0626 -0.3296
 8298SOL    HW136356   4.629   2.977   0.943 -0.5918 -0.9044  1.6257
 8298SOL    HW236357   4.490   2.922   0.957 -1.0386 -0.2978 -1.6752
 8299SOL     OW36358   4.057   3.765   7.406 -0.0216  0.2455  0.2107
 8299SOL    HW136359   3.982   3.756   7.465  1.1972  1.4094  1.9274
 8299SOL    HW236360   4.029   3.832   7.343 -1.9705 -0.2620  0.5282
 8300SOL     OW36361   3.044   3.452   3.281 -0.0779  0.1178  0.2968
 8300SOL    HW136362   3.025   3.469   3.188  0.1130 -1.3038 -0.0005
 8300SOL    HW236363   2.993   3.372   3.292 -0.0335  0.2063  1.1229
 8301SOL     OW36364   2.444   2.820   5.717 -0.1772 -0.4742 -0.0706
 8301SOL    HW136365   2.480   2.743   5.762 -3.0312 -0.2170  2.6799
 8301SOL    HW236366   2.476   2.892   5.771 -3.7796 -0.7017  2.4346
 8302SOL     OW36367   0.638   3.283   5.518 -0.1498 -0.0715  0.4334
 8302SOL    HW136368   0.615   3.375   5.499 -2.2038 -0.7454 -0.3795
 8302SOL    HW236369   0.591   3.280   5.602 -1.5557  0.4055 -0.3378
 8303SOL     OW36370   3.153   4.555   1.187  0.2405 -0.3532 -0.5902
 8303SOL    HW136371   3.105   4.611   1.127 -0.0561 -0.1657 -0.1818
 8303SOL    HW236372   3.214   4.518   1.123 -0.2086  0.3405 -1.4141
 8304SOL     OW36373   4.346   3.695   7.083  0.7099 -0.0414  0.3663
 8304SOL    HW136374   4.298   3.658   7.157  1.0327 -1.5585 -0.1834
 8304SOL    HW236375   4.316   3.786   7.087 -0.7598 -0.5098 -0.0196
 8305SOL     OW36376   4.535   3.241   2.401 -0.0167 -0.7209 -0.0681
 8305SOL    HW136377   4.449   3.250   2.442  1.8243  1.6380  3.3408
 8305SOL    HW236378   4.536   3.325   2.354  2.7455  0.9028  2.8607
 8306SOL     OW36379   4.046   1.043   7.139  0.6589  0.1821 -0.1458
 8306SOL    HW136380   4.086   1.118   7.095 -2.3510  2.2657  0.6647
 8306SOL    HW236381   4.086   1.049   7.226  0.3140 -1.4989  0.1257
 8307SOL     OW36382   0.537   2.188   1.439  0.5620 -0.5617  0.4756
 8307SOL    HW136383   0.506   2.128   1.371  0.7540 -0.7751  0.5749
 8307SOL    HW236384   0.463   2.194   1.499  0.3180  4.2670 -0.3710
 8308SOL     OW36385   2.728   0.565   8.359  0.0764  0.3771  0.0380
 8308SOL    HW136386   2.816   0.562   8.321 -0.0159  1.2565 -0.2655
 8308SOL    HW236387   2.670   0.570   8.283 -0.7775 -3.7855  0.4329
 8309SOL     OW36388   3.664   3.867  13.645 -0.1047  0.7450 -0.1800
 8309SOL    HW136389   3.576   3.878  13.609 -0.1234 -0.8544 -0.6076
 8309SOL    HW236390   3.649   3.864  13.739  0.5456  0.3357 -0.0892
 8310SOL     OW36391   4.050   1.896   7.980  0.6003 -0.3153 -0.3914
 8310SOL    HW136392   4.107   1.927   7.909 -0.3347  0.0798 -0.9709
 8310SOL    HW236393   4.000   1.826   7.938  1.6940 -2.6756  2.2562
 8311SOL     OW36394   1.552   2.245   2.827  0.2367 -0.3011 -0.0258
 8311SOL    HW136395   1.593   2.320   2.870  0.1398 -0.5106  0.4333
 8311SOL    HW236396   1.599   2.170   2.863  1.4395 -0.2213 -1.4473
 8312SOL     OW36397   4.355   3.833  16.879 -0.0374 -0.0980 -0.6114
 8312SOL    HW136398   4.275   3.844  16.932  1.9243  0.9652  2.1605
 8312SOL    HW236399   4.346   3.746  16.840 -3.6294  0.3017 -0.7012
 8313SOL     OW36400   1.202   1.741   6.293  0.1861  0.3297 -0.2545
 8313SOL    HW136401   1.128   1.780   6.246  0.3904 -1.7092 -2.2576
 8313SOL    HW236402   1.230   1.822   6.335 -0.7279  1.0025 -0.9424
 8314SOL     OW36403   4.351   0.195   4.277  0.0569 -0.4565 -0.0561
 8314SOL    HW136404   4.296   0.125   4.242 -0.8128 -0.5548  1.5043
 8314SOL    HW236405   4.343   0.179   4.371 -1.8305 -0.1609 -0.1720
 8315SOL     OW36406   4.606   2.690   1.517  0.3740  0.0915  0.4051
 8315SOL    HW136407   4.641   2.691   1.428  2.6047 -2.1578  1.2774
 8315SOL    HW236408   4.517   2.718   1.494 -0.8463 -1.9328  2.6540
 8316SOL     OW36409   2.960   4.572   1.643 -0.3562  0.4470  0.3532
 8316SOL    HW136410   2.945   4.542   1.733  0.1259 -0.5956  0.0918
 8316SOL    HW236411   2.872   4.573   1.605 -1.2929 -1.6998  2.4649
 8317SOL     OW36412   4.693   2.714   0.798  0.0877 -0.0459  0.3133
 8317SOL    HW136413   0.024   2.756   0.735 -0.7071  0.1087 -0.3108
 8317SOL    HW236414   4.651   2.786   0.846  3.6099  0.8990  2.0721
 8318SOL     OW36415   1.133   2.288   7.547  0.2643  0.3843 -0.6736
 8318SOL    HW136416   1.088   2.278   7.463  1.6598 -1.9451 -1.1609
 8318SOL    HW236417   1.221   2.304   7.514  0.3691  1.0360 -0.0556
 8319SOL     OW36418   2.647   3.897  16.688  0.7053  0.5199  0.2163
 8319SOL    HW136419   2.608   3.818  16.725 -3.0137  0.9932 -2.5487
 8319SOL    HW236420   2.561   3.939  16.676 -0.5766 -2.0157  0.5397
 8320SOL     OW36421   1.741   3.324   3.474 -0.1156 -0.5011 -0.0275
 8320SOL    HW136422   1.834   3.342   3.456  0.3327 -2.7613  0.0866
 8320SOL    HW236423   1.748   3.324   3.570 -1.2417 -0.7618  0.0502
 8321SOL     OW36424   0.799   1.794   0.688 -0.1399 -0.1831  0.0318
 8321SOL    HW136425   0.831   1.729   0.626 -0.2532  0.2523 -0.4855
 8321SOL    HW236426   0.861   1.809   0.759  0.2353  2.1767 -0.8062
 8322SOL     OW36427   1.375   4.575   7.433 -0.2730  0.1841  0.4266
 8322SOL    HW136428   1.283   4.599   7.439 -0.7824 -0.9310 -3.0585
 8322SOL    HW236429   1.404   4.610   7.518  0.0989  1.9996 -0.4396
 8323SOL     OW36430   0.533   3.065   5.908 -0.7837 -0.5060  0.3589
 8323SOL    HW136431   0.548   3.126   5.836  0.7554  1.5346  2.3771
 8323SOL    HW236432   0.461   3.115   5.948 -0.5370 -1.0581  1.5030
 8324SOL     OW36433   0.082   2.302   8.591 -0.1092 -0.4603 -0.3622
 8324SOL    HW136434   0.073   2.325   8.684 -2.0693  0.3210 -0.7430
 8324SOL    HW236435   0.001   2.252   8.577 -0.1076 -0.4683 -0.3427
 8325SOL     OW36436   4.107   2.190   7.988  0.8240  0.3066  0.1212
 8325SOL    HW136437   4.065   2.271   8.018 -0.4895 -0.7861  1.1992
 8325SOL    HW236438   4.038   2.126   8.004 -0.2779  1.4721  0.0836
 8326SOL     OW36439   0.224   1.661  17.055 -0.6623 -0.2522  0.8322
 8326SOL    HW136440   0.247   1.577  17.015  1.6568  1.0501 -0.5232
 8326SOL    HW236441   0.130   1.648  17.068 -0.5268 -1.9267  0.1120
 8327SOL     OW36442   2.477   0.335   9.140 -0.1640  0.5392  0.6075
 8327SOL    HW136443   2.450   0.272   9.206 -3.8515  0.9579 -0.5451
 8327SOL    HW236444   2.537   0.389   9.193  1.1894 -0.5827  0.2181
 8328SOL     OW36445   3.417   0.748   5.560  0.0163  0.3729 -0.3679
 8328SOL    HW136446   3.401   0.673   5.503  0.5138 -1.5923  2.0883
 8328SOL    HW236447   3.332   0.777   5.593 -1.2412 -1.5061 -1.9741
 8329SOL     OW36448   4.406   2.178  16.151  0.0575  0.0233 -0.4069
 8329SOL    HW136449   4.399   2.239  16.077 -0.0490 -0.2036 -0.5832
 8329SOL    HW236450   4.321   2.133  16.150  0.4145 -0.6951  2.6454
 8330SOL     OW36451   3.196   4.158   6.489  0.3889 -0.0330  0.4815
 8330SOL    HW136452   3.154   4.079   6.454 -1.3170  0.1274  2.1473
 8330SOL    HW236453   3.234   4.191   6.408  2.3543 -2.2352  0.5240
 8331SOL     OW36454   1.587   4.188   4.150  1.1572  0.5359 -0.4564
 8331SOL    HW136455   1.584   4.133   4.072 -0.1505 -1.7208  1.1458
 8331SOL    HW236456   1.589   4.117   4.215 -1.0814  0.8441 -0.0432
 8332SOL     OW36457   3.126   2.231   1.647 -0.3111  0.2635 -0.1665
 8332SOL    HW136458   3.215   2.236   1.682  0.2069 -2.3765 -1.0591
 8332SOL    HW236459   3.151   2.205   1.558  0.0143  1.2033 -0.3389
 8333SOL     OW36460   3.107   3.174  13.542 -0.1176  0.4706 -0.4282
 8333SOL    HW136461   3.107   3.234  13.467  1.0560  0.7597 -0.1906
 8333SOL    HW236462   3.199   3.166  13.565  0.3756 -3.9370 -3.7842
 8334SOL     OW36463   1.290   4.387   3.062  0.1500  0.0003  0.3409
 8334SOL    HW136464   1.247   4.401   3.147 -0.8902  0.1533 -0.2177
 8334SOL    HW236465   1.221   4.424   3.007  0.9960 -0.4646 -1.0211
 8335SOL     OW36466   1.994   2.797   5.128  0.0599  0.4227 -0.4463
 8335SOL    HW136467   2.084   2.821   5.152 -0.4332  0.4771  1.3040
 8335SOL    HW236468   1.968   2.769   5.215  1.6797 -2.9190 -1.0422
 8336SOL     OW36469   3.998   0.058   6.016 -0.3773 -0.0885 -0.3738
 8336SOL    HW136470   4.053   0.088   5.944  0.6404 -1.0213  0.0035
 8336SOL    HW236471   3.931   0.126   6.020 -0.0554  0.1131  1.5163
 8337SOL     OW36472   3.651   0.713   0.419 -0.0619  0.0565  0.1113
 8337SOL    HW136473   3.631   0.651   0.349 -1.1930  0.3708  0.1500
 8337SOL    HW236474   3.573   0.701   0.473  0.0583  1.7578  0.6635
 8338SOL     OW36475   0.775   4.362   4.248  0.0674 -0.3251  0.0787
 8338SOL    HW136476   0.850   4.377   4.190 -0.3019  0.4299 -0.2110
 8338SOL    HW236477   0.793   4.427   4.316  1.2116 -0.0725 -0.4632
 8339SOL     OW36478   1.201   4.316   8.573 -0.2434  0.0872  0.1916
 8339SOL    HW136479   1.213   4.384   8.640  0.1754 -0.6705  0.8928
 8339SOL    HW236480   1.107   4.324   8.561  0.1303 -0.5021 -3.0293
 8340SOL     OW36481   1.743   1.093   3.717  0.1852  0.3617  0.0730
 8340SOL    HW136482   1.728   1.007   3.755 -0.0603 -0.0012 -0.8428
 8340SOL    HW236483   1.734   1.068   3.625  1.7722  2.5639 -0.6812
 8341SOL     OW36484   4.143   0.246  14.519  0.4804  0.0059  0.2010
 8341SOL    HW136485   4.202   0.195  14.464 -0.1849 -0.9725  0.3927
 8341SOL    HW236486   4.194   0.327  14.519  0.8004 -0.2118 -2.0016
 8342SOL     OW36487   4.631   1.710   1.164  0.3447  0.0361  0.1134
 8342SOL    HW136488   4.629   1.642   1.231 -0.2615  0.5614  0.6226
 8342SOL    HW236489   4.652   1.658   1.087 -1.0720  0.4543 -0.5499
 8343SOL     OW36490   1.537   1.666   6.599 -0.4293 -0.2052 -0.6108
 8343SOL    HW136491   1.631   1.679   6.600 -0.1730 -1.9251 -2.6969
 8343SOL    HW236492   1.501   1.745   6.559 -2.2336 -0.0390  1.3215
 8344SOL     OW36493   0.615   0.359   9.100 -0.2596  0.3700  0.0921
 8344SOL    HW136494   0.642   0.415   9.173 -0.1495 -0.9615  1.0898
 8344SOL    HW236495   0.529   0.327   9.129 -1.1514 -1.2817 -4.3785
 8345SOL     OW36496   3.786   3.978   7.491  0.5978  0.2708  0.1034
 8345SOL    HW136497   3.858   3.999   7.431  1.6712  0.4490  1.4668
 8345SOL    HW236498   3.781   4.051   7.553  1.4446 -0.9884  1.6340
 8346SOL     OW36499   3.089   2.865   7.354  0.5357 -0.4411 -0.2246
 8346SOL    HW136500   3.008   2.915   7.360 -0.2884 -1.9887  1.6825
 8346SOL    HW236501   3.145   2.906   7.420  0.8512  0.6193 -1.1616
 8347SOL     OW36502   1.511   0.689   9.622 -0.3931 -0.1576 -0.0787
 8347SOL    HW136503   1.517   0.646   9.707 -0.6423  1.1623  0.5961
 8347SOL    HW236504   1.509   0.615   9.561 -1.2158 -1.6451  1.7556
 8348SOL     OW36505   4.610   3.854   1.848  0.2768  0.4104 -0.7982
 8348SOL    HW136506   4.645   3.765   1.848  0.8774  0.6437 -0.1630
 8348SOL    HW236507   4.577   3.863   1.937 -1.3423  1.1526 -1.4676
 8349SOL     OW36508   4.061   4.323   9.758 -0.0080  0.5121  1.0045
 8349SOL    HW136509   4.110   4.368   9.828 -0.2916  0.7482  1.0513
 8349SOL    HW236510   4.087   4.361   9.675 -0.6167  0.9419  1.0141
 8350SOL     OW36511   0.449   1.713   7.557 -0.0654  0.2496 -0.3453
 8350SOL    HW136512   0.474   1.799   7.592  1.0192  0.3711 -1.4021
 8350SOL    HW236513   0.452   1.732   7.463 -0.4899  2.2120  0.0358
 8351SOL     OW36514   3.141   4.711  10.332  0.2437 -0.1073 -0.8672
 8351SOL    HW136515   3.082   0.036  10.278 -0.1587 -0.4798 -0.7863
 8351SOL    HW236516   3.166   0.052  10.395 -1.4130  0.5969 -0.9752
 8352SOL     OW36517   3.341   2.049   3.947 -0.0985  0.0681 -0.1061
 8352SOL    HW136518   3.356   1.997   3.868  0.7023 -0.1815  0.2095
 8352SOL    HW236519   3.409   2.115   3.956 -3.1996  3.0862  1.0115
 8353SOL     OW36520   3.508   2.307   1.843 -0.6409 -0.1771 -0.3204
 8353SOL    HW136521   3.551   2.242   1.787 -2.5272 -1.8330  0.1506
 8353SOL    HW236522   3.567   2.383   1.839  2.6208 -2.7646 -1.4918
 8354SOL     OW36523   3.980   0.740   2.803 -0.0012  0.3295  0.0837
 8354SOL    HW136524   4.004   0.827   2.836  0.1914  0.3568 -0.1279
 8354SOL    HW236525   4.005   0.763   2.714  1.2198  2.2014  0.9001
 8355SOL     OW36526   1.873   2.813   2.289 -0.1391 -0.1937  0.1970
 8355SOL    HW136527   1.845   2.870   2.218  2.4291 -0.0737 -0.7249
 8355SOL    HW236528   1.795   2.810   2.345 -0.7358  0.2485 -0.6226
 8356SOL     OW36529   1.538   3.927   9.146 -0.1361 -0.2546  0.7022
 8356SOL    HW136530   1.587   3.857   9.187  1.4860  0.2319 -0.4244
 8356SOL    HW236531   1.450   3.890   9.135  0.2795 -1.2297  0.7461
 8357SOL     OW36532   1.740   3.605  12.843 -0.2509  0.5890  0.2807
 8357SOL    HW136533   1.801   3.629  12.913 -1.0035 -0.5975  1.3428
 8357SOL    HW236534   1.746   3.510  12.845  0.1239  0.5463 -2.2038
 8358SOL     OW36535   3.936   3.778   7.652 -0.5984 -0.3277  0.4447
 8358SOL    HW136536   3.909   3.787   7.744  0.2741  1.2236  0.5577
 8358SOL    HW236537   3.872   3.835   7.610 -0.8031 -0.6783  0.2801
 8359SOL     OW36538   1.876   0.930  15.776  0.3546  0.5186  0.2037
 8359SOL    HW136539   1.946   0.903  15.835 -0.8771 -1.0145  0.9734
 8359SOL    HW236540   1.904   1.018  15.750 -3.0266  1.0029 -1.8876
 8360SOL     OW36541   3.919   2.695   8.645  0.2867 -0.2938  0.0251
 8360SOL    HW136542   3.884   2.776   8.682 -0.8088 -0.7068 -0.1125
 8360SOL    HW236543   3.880   2.695   8.558 -0.1799  4.3421  0.2401
 8361SOL     OW36544   3.447   0.455  14.213  0.6226 -0.1980  0.3199
 8361SOL    HW136545   3.359   0.460  14.177  0.1498  1.7983  1.7285
 8361SOL    HW236546   3.495   0.440  14.131  1.3088 -1.3740  0.9314
 8362SOL     OW36547   0.644   2.877   4.814 -0.3918 -0.5083 -0.3808
 8362SOL    HW136548   0.697   2.862   4.893  0.2482 -1.9806 -1.0960
 8362SOL    HW236549   0.674   2.807   4.756  0.1248  1.0829 -2.0147
 8363SOL     OW36550   0.212   1.615   6.786  0.7395 -0.0393 -0.2918
 8363SOL    HW136551   0.285   1.595   6.727  0.8800  0.9776 -0.4490
 8363SOL    HW236552   0.214   1.546   6.852 -0.0656 -0.5613 -0.8082
 8364SOL     OW36553   1.690   1.598   4.469  0.1639 -0.3677 -0.3277
 8364SOL    HW136554   1.636   1.677   4.479  2.7278  1.6051 -2.1791
 8364SOL    HW236555   1.745   1.614   4.545  1.2893 -0.4579 -1.1155
 8365SOL     OW36556   2.497   4.689   6.567 -0.7606 -0.1590  0.0825
 8365SOL    HW136557   2.479   0.024   6.637  0.0869 -1.6068  1.5849
 8365SOL    HW236558   2.559   4.638   6.620  2.2444  2.7626 -0.5622
 8366SOL     OW36559   4.400   1.546   2.376 -0.0777  0.2775  0.1422
 8366SOL    HW136560   4.404   1.600   2.454 -2.6004 -1.5429  1.5342
 8366SOL    HW236561   4.465   1.480   2.400 -2.3588 -1.8365  0.5430
 8367SOL     OW36562   2.113   1.260   9.499  0.8293 -0.4293 -0.5596
 8367SOL    HW136563   2.182   1.207   9.538  1.3635 -0.4414 -1.5181
 8367SOL    HW236564   2.133   1.252   9.406  3.4345 -0.7404  0.0446
 8368SOL     OW36565   4.084   2.368   5.852  0.6321 -0.1046 -0.4105
 8368SOL    HW136566   4.162   2.383   5.906  0.5492 -0.6965 -0.1269
 8368SOL    HW236567   4.108   2.412   5.771  0.9148  1.2135  0.3908
 8369SOL     OW36568   0.395   1.576   3.079  0.2006  0.2276  0.8510
 8369SOL    HW136569   0.365   1.580   2.988 -0.7325  1.3301  1.2052
 8369SOL    HW236570   0.448   1.497   3.075  1.1946  0.9413 -0.2023
 8370SOL     OW36571   1.764   1.584   2.824 -0.1239  0.3055 -0.6616
 8370SOL    HW136572   1.700   1.642   2.784 -0.9763  0.3260  0.7155
 8370SOL    HW236573   1.781   1.528   2.749  0.5193  1.0814 -1.0904
 8371SOL     OW36574   0.837   3.584   2.377 -0.0608 -0.5142 -0.3721
 8371SOL    HW136575   0.742   3.573   2.379 -0.1736  0.8180  1.0436
 8371SOL    HW236576   0.835   3.679   2.370 -0.1204 -0.4825  0.0693
 8372SOL     OW36577   1.133   0.086   9.860  0.2806  0.2913 -0.7553
 8372SOL    HW136578   1.159   0.119   9.946 -4.9773 -0.6287  1.2123
 8372SOL    HW236579   1.038   0.096   9.872  0.5723  0.4762  1.2770
 8373SOL     OW36580   3.960   0.775   1.824  0.1789 -0.0883 -0.2061
 8373SOL    HW136581   3.881   0.826   1.841  0.9946  1.2864 -0.5403
 8373SOL    HW236582   3.956   0.735   1.738  2.3447  0.5629 -0.6089
 8374SOL     OW36583   4.280   1.177   0.541 -0.6754  0.2077  0.0206
 8374SOL    HW136584   4.329   1.235   0.483  3.5039 -1.9260  1.4616
 8374SOL    HW236585   4.248   1.114   0.476  0.3457  0.5613 -0.8179
 8375SOL     OW36586   2.719   3.266  17.616 -0.0000  0.2583 -0.3369
 8375SOL    HW136587   2.664   3.327  17.665  0.3486  0.8369 -0.6572
 8375SOL    HW236588   2.761   3.214  17.685 -0.4154 -0.1894 -0.4246
 8376SOL     OW36589   4.481   2.589   7.412 -0.2416  0.7494 -0.1473
 8376SOL    HW136590   4.484   2.496   7.433  0.1758  1.0283  1.0045
 8376SOL    HW236591   4.469   2.588   7.317  1.2885  1.2126 -0.3469
 8377SOL     OW36592   1.985   1.637   5.065  0.0856 -0.1355  0.6583
 8377SOL    HW136593   2.012   1.585   5.141  0.9515  1.8599  1.7497
 8377SOL    HW236594   1.904   1.590   5.047  0.6670 -0.5807 -0.7322
 8378SOL     OW36595   0.521   3.642   9.452 -0.0699 -0.0979  0.1905
 8378SOL    HW136596   0.467   3.688   9.517 -0.8471  2.2290 -2.1202
 8378SOL    HW236597   0.569   3.584   9.511 -0.2281 -2.3092 -1.8824
 8379SOL     OW36598   1.580   1.766   6.039  0.1304 -0.2312  0.3705
 8379SOL    HW136599   1.514   1.703   6.068  0.2787 -0.9907 -0.9113
 8379SOL    HW236600   1.639   1.776   6.113 -0.1611 -0.6059  0.6523
 8380SOL     OW36601   1.401   3.523  12.131  0.1066 -0.5475 -0.5413
 8380SOL    HW136602   1.414   3.590  12.064  0.1517  1.6033  1.5987
 8380SOL    HW236603   1.441   3.446  12.090  0.6941 -0.7761  0.4425
 8381SOL     OW36604   3.006   2.616  13.011 -0.5139 -0.2868 -0.6252
 8381SOL    HW136605   2.910   2.622  13.014 -0.5846 -1.0545 -1.3956
 8381SOL    HW236606   3.021   2.565  12.931  0.1550  2.1671 -2.0652
 8382SOL     OW36607   0.201   3.091   5.772 -0.8148  0.2657 -0.7269
 8382SOL    HW136608   0.214   3.174   5.817  0.7994  0.5249 -1.6752
 8382SOL    HW236609   0.251   3.104   5.691 -1.3787 -1.7339 -1.3929
 8383SOL     OW36610   0.926   4.291   7.953  0.3152 -0.6642  0.6541
 8383SOL    HW136611   0.993   4.299   7.885  0.4474 -0.5309  0.8000
 8383SOL    HW236612   0.959   4.351   8.020 -1.0815  0.3422  0.4251
 8384SOL     OW36613   3.253   1.728   4.125 -0.7284  0.0927  0.3726
 8384SOL    HW136614   3.201   1.672   4.183 -0.4591  0.4046  0.9151
 8384SOL    HW236615   3.230   1.818   4.149 -1.2958  0.2788 -0.8625
 8385SOL     OW36616   0.679   1.467   9.133  0.6488 -0.1670 -0.1400
 8385SOL    HW136617   0.609   1.527   9.160  1.3598 -0.7094  3.0095
 8385SOL    HW236618   0.676   1.484   9.039 -3.5337  1.4186  0.2551
 8386SOL     OW36619   2.006   0.924  15.273  0.0209  0.0018  0.0202
 8386SOL    HW136620   1.942   0.857  15.250 -0.4077  0.6072 -0.5353
 8386SOL    HW236621   2.085   0.899  15.225 -0.6063  1.8375 -1.9484
 8387SOL     OW36622   3.765   0.528   6.466 -0.0226  0.6124 -0.5514
 8387SOL    HW136623   3.825   0.459   6.495  0.6103  1.3370 -0.1253
 8387SOL    HW236624   3.703   0.541   6.537  0.6085  0.9372 -0.0605
 8388SOL     OW36625   4.084   3.966   6.249  0.1952  0.5483  0.5361
 8388SOL    HW136626   3.999   3.925   6.262  2.0258 -3.0469  1.2878
 8388SOL    HW236627   4.135   3.893   6.214  0.6742  1.6044 -0.9735
 8389SOL     OW36628   3.669   1.035   6.458 -0.5418 -0.5498 -0.1946
 8389SOL    HW136629   3.647   1.120   6.420  0.2705 -0.2095  0.1118
 8389SOL    HW236630   3.758   1.015   6.430 -0.4780 -0.1133 -0.2998
 8390SOL     OW36631   1.565   2.400  16.915 -0.1970 -0.2903 -0.1661
 8390SOL    HW136632   1.494   2.418  16.853 -0.4279 -0.3394  0.0840
 8390SOL    HW236633   1.530   2.348  16.987  0.5326 -1.0262 -0.3490
 8391SOL     OW36634   4.324   3.853   7.476  0.2393  0.3038  0.2345
 8391SOL    HW136635   4.293   3.844   7.567  0.1061  0.2748  0.1856
 8391SOL    HW236636   4.274   3.784   7.434  0.6488  0.5155 -0.5970
 8392SOL     OW36637   0.866   0.235   9.154  0.2083 -0.5491 -0.2095
 8392SOL    HW136638   0.849   0.169   9.221 -0.9321  0.3735  0.4077
 8392SOL    HW236639   0.777   0.267   9.138  0.6593  0.1122 -1.4732
 8393SOL     OW36640   1.808   3.853   6.445  0.0771 -0.6387  0.3460
 8393SOL    HW136641   1.853   3.795   6.383 -2.1192 -1.2017 -0.7094
 8393SOL    HW236642   1.814   3.812   6.532  0.6836 -1.0066  0.1317
 8394SOL     OW36643   0.608   4.180   6.961  0.2580  0.3859  0.4211
 8394SOL    HW136644   0.534   4.162   7.019  0.3823 -0.8861  0.1857
 8394SOL    HW236645   0.574   4.252   6.908 -0.0267  0.2885  0.4731
 8395SOL     OW36646   3.760   3.821   9.213  0.3167  0.4792  0.2883
 8395SOL    HW136647   3.783   3.879   9.285  1.9127  0.2260 -0.0256
 8395SOL    HW236648   3.670   3.844   9.190 -0.4056 -2.3107  0.4115
 8396SOL     OW36649   3.757   1.088   7.086  0.6315  0.5258 -0.0927
 8396SOL    HW136650   3.747   1.161   7.024  0.4838 -2.2393 -3.3304
 8396SOL    HW236651   3.838   1.044   7.061  0.7357  0.3309  0.5966
 8397SOL     OW36652   3.806   0.246   5.585  0.1681  0.3710 -0.0446
 8397SOL    HW136653   3.806   0.245   5.490  1.0471 -0.0242 -0.0416
 8397SOL    HW236654   3.860   0.170   5.605  0.0642  0.5070  0.7763
 8398SOL     OW36655   3.440   1.981   4.396  0.0291 -0.1764  0.5297
 8398SOL    HW136656   3.402   1.993   4.309  1.2244 -0.0430  0.0155
 8398SOL    HW236657   3.470   1.890   4.388  0.4872 -0.0430  0.7147
 8399SOL     OW36658   3.320   0.010   8.201 -0.5004 -0.0212 -0.3691
 8399SOL    HW136659   3.405   0.051   8.216 -0.0942  0.2773 -3.3588
 8399SOL    HW236660   3.284   4.722   8.288 -2.0544  0.9825 -0.8267
 8400SOL     OW36661   2.017   4.499   5.000 -0.0414  0.2289 -0.0138
 8400SOL    HW136662   2.032   4.502   4.905 -2.6056  1.1968 -0.3903
 8400SOL    HW236663   1.923   4.510   4.994 -0.2600 -0.0297  3.1634
 8401SOL     OW36664   3.998   0.672  15.138 -0.3573 -0.0997 -0.0128
 8401SOL    HW136665   4.015   0.766  15.127 -0.4649  0.0970  1.4568
 8401SOL    HW236666   4.054   0.657  15.215 -0.7871  1.4138  0.6047
 8402SOL     OW36667   3.861   3.965  12.539 -0.2031  0.2533  0.0325
 8402SOL    HW136668   3.842   3.888  12.592  0.7755 -1.1750 -1.6621
 8402SOL    HW236669   3.801   3.969  12.464  2.0995  4.6244 -1.6204
 8403SOL     OW36670   3.523   4.520   4.843  0.0584 -0.1921 -0.0080
 8403SOL    HW136671   3.474   4.531   4.925 -2.7317 -0.6579 -1.6209
 8403SOL    HW236672   3.470   4.567   4.778 -0.1821 -2.6036 -1.5372
 8404SOL     OW36673   1.003   4.403   6.248 -0.7745  0.0859 -0.7115
 8404SOL    HW136674   1.027   4.311   6.237  2.2072  0.8951 -0.8474
 8404SOL    HW236675   0.925   4.401   6.192 -1.0634  1.1294 -0.3506
 8405SOL     OW36676   1.718   0.337  12.019 -0.2990 -0.0382 -0.4780
 8405SOL    HW136677   1.794   0.397  12.018 -2.2245  2.3919 -1.1030
 8405SOL    HW236678   1.707   0.310  11.929 -2.2214 -0.2559 -0.1667
 8406SOL     OW36679   3.048   2.978   4.528 -0.1574  0.0659 -0.0976
 8406SOL    HW136680   3.056   2.902   4.470 -0.5393  1.0019 -1.3673
 8406SOL    HW236681   2.994   3.031   4.470 -0.7035  0.3865  0.6981
 8407SOL     OW36682   4.319   3.765   8.911 -0.2990  0.0124 -0.2466
 8407SOL    HW136683   4.374   3.790   8.837  0.9376  0.1841  0.7158
 8407SOL    HW236684   4.244   3.735   8.861 -1.8070 -0.4095  2.2861
 8408SOL     OW36685   2.642   1.154  12.553  0.1007 -0.1734 -0.9188
 8408SOL    HW136686   2.613   1.208  12.626  3.2117  0.1514  0.0937
 8408SOL    HW236687   2.708   1.205  12.507  0.8332  0.8601  1.2350
 8409SOL     OW36688   0.736   3.659   2.720 -0.0855  0.1808  0.2599
 8409SOL    HW136689   0.662   3.680   2.777 -1.6365 -1.4343 -1.1602
 8409SOL    HW236690   0.704   3.572   2.697  0.3386 -0.1379  0.8864
 8410SOL     OW36691   4.020   3.676   4.947 -0.1385  0.4114  0.7679
 8410SOL    HW136692   4.063   3.743   5.000 -0.6891  1.6052 -0.2999
 8410SOL    HW236693   3.935   3.719   4.933  0.2563  0.7258 -0.6467
 8411SOL     OW36694   2.338   0.895   4.365 -0.0877  0.3915  0.0224
 8411SOL    HW136695   2.418   0.910   4.416  0.3829  0.4696 -0.7418
 8411SOL    HW236696   2.351   0.948   4.287  3.4291 -1.2461 -0.5262
 8412SOL     OW36697   2.306   2.376   5.986  0.3567  0.2547 -1.1843
 8412SOL    HW136698   2.217   2.366   6.018  0.7160  1.4852  0.1916
 8412SOL    HW236699   2.293   2.412   5.898 -2.9278  0.7205 -0.5030
 8413SOL     OW36700   2.842   1.964   8.584 -0.2086 -0.0637  0.3441
 8413SOL    HW136701   2.936   1.974   8.599  0.0431 -1.2092 -0.4301
 8413SOL    HW236702   2.813   2.052   8.560  0.9068  0.5313  1.1324
 8414SOL     OW36703   3.307   2.820   8.310  0.1566  0.3806  0.3719
 8414SOL    HW136704   3.382   2.789   8.362 -0.5855 -0.9554  0.6718
 8414SOL    HW236705   3.334   2.904   8.275  0.8394 -0.8263 -2.0154
 8415SOL     OW36706   1.365   0.039  11.921  0.4940  0.3165 -0.1634
 8415SOL    HW136707   1.452   4.726  11.928 -0.6893 -1.9735  1.3994
 8415SOL    HW236708   1.384   0.102  11.990  0.1955 -1.9023  1.9158
 8416SOL     OW36709   2.812   1.230   1.899  0.2224  0.3334  0.8014
 8416SOL    HW136710   2.757   1.232   1.821 -0.2222 -3.3520  1.0210
 8416SOL    HW236711   2.750   1.235   1.971 -1.5532 -1.3132 -0.6100
 8417SOL     OW36712   1.470   2.617  14.544 -0.3560  0.3414 -0.0750
 8417SOL    HW136713   1.527   2.609  14.620  0.0328 -2.0066 -0.6079
 8417SOL    HW236714   1.419   2.536  14.546 -1.0101  0.7365 -0.7752
 8418SOL     OW36715   1.076   3.797   9.362  0.2254  0.3797 -0.4617
 8418SOL    HW136716   1.063   3.825   9.452 -1.2908  0.7622 -0.7925
 8418SOL    HW236717   0.982   3.786   9.343  0.3692 -1.8497  0.1146
 8419SOL     OW36718   4.501   3.798   3.879  0.1448  0.3504 -0.3401
 8419SOL    HW136719   4.410   3.785   3.852  0.1427 -1.8131  0.7063
 8419SOL    HW236720   4.490   3.812   3.973 -0.5307 -0.9644 -0.2209
 8420SOL     OW36721   2.487   2.218  15.197 -0.5897 -0.6011  0.2983
 8420SOL    HW136722   2.394   2.198  15.209 -0.5846 -1.7269 -1.6166
 8420SOL    HW236723   2.501   2.289  15.260  0.0297 -1.7040  1.4046
 8421SOL     OW36724   1.123   1.101   8.207 -0.2943 -0.4526  0.0830
 8421SOL    HW136725   1.137   1.037   8.276 -1.6258 -2.5495 -1.5995
 8421SOL    HW236726   1.135   1.058   8.122 -1.5611 -1.4080  0.3955
 8422SOL     OW36727   1.324   1.194   1.456 -0.6477  0.2869  0.1168
 8422SOL    HW136728   1.378   1.157   1.527  1.7362  3.5794  0.0446
 8422SOL    HW236729   1.335   1.289   1.455  0.1231  0.1672 -2.2692
 8423SOL     OW36730   2.024   1.949   5.747  0.1786 -0.2208  0.7620
 8423SOL    HW136731   2.047   1.968   5.838 -0.1458  1.6982  0.4433
 8423SOL    HW236732   2.105   1.993   5.721 -1.1580  0.9498 -1.4123
 8424SOL     OW36733   1.735   1.230   4.064  0.4317  0.9751 -0.2273
 8424SOL    HW136734   1.665   1.165   4.054  2.8033 -1.3154 -1.7028
 8424SOL    HW236735   1.687   1.306   4.098  0.1867  0.6734  0.0979
 8425SOL     OW36736   0.554   1.566  14.310 -0.4334 -0.3956  0.4572
 8425SOL    HW136737   0.546   1.579  14.404 -1.5789  0.1261  0.2842
 8425SOL    HW236738   0.495   1.491  14.303 -1.5225  0.2807  2.7683
 8426SOL     OW36739   4.511   0.675   1.724  0.2556  0.4814  0.6278
 8426SOL    HW136740   4.539   0.584   1.732 -0.9108 -0.1498 -2.4188
 8426SOL    HW236741   4.456   0.667   1.646  0.0754  1.4660  0.6525
 8427SOL     OW36742   3.047   3.683   2.672  0.4403  0.0579 -0.5948
 8427SOL    HW136743   2.981   3.746   2.701  3.3195  1.8287  2.1004
 8427SOL    HW236744   3.123   3.741   2.681  1.6855 -1.2702 -2.5170
 8428SOL     OW36745   1.277   4.600   8.239  0.5195  0.1911  0.0450
 8428SOL    HW136746   1.220   4.657   8.187 -1.6057 -0.6869  1.3918
 8428SOL    HW236747   1.263   4.641   8.325  2.4708 -0.4104  0.6354
 8429SOL     OW36748   4.386   3.889   5.759  0.2047  0.1959  0.1954
 8429SOL    HW136749   4.438   3.901   5.679 -1.2351 -0.3491 -0.8134
 8429SOL    HW236750   4.418   3.800   5.769 -0.1432 -0.0706 -1.1387
 8430SOL     OW36751   0.359   2.520   5.898  0.4535 -0.0520 -0.1555
 8430SOL    HW136752   0.280   2.558   5.859  1.0026  1.2418 -0.0061
 8430SOL    HW236753   0.430   2.521   5.834  2.1021 -1.2320  1.6456
 8431SOL     OW36754   2.437   0.905  13.294 -0.5268 -0.3708  0.1826
 8431SOL    HW136755   2.372   0.836  13.311 -1.4990  0.5753  0.3089
 8431SOL    HW236756   2.464   0.920  13.385 -1.7198 -1.9206  0.7976
 8432SOL     OW36757   3.974   0.238   8.089  0.0629  0.1809  0.6435
 8432SOL    HW136758   4.001   0.158   8.134 -1.5157 -2.3614 -2.9363
 8432SOL    HW236759   3.903   0.194   8.043  0.3266  0.8928 -0.4428
 8433SOL     OW36760   2.017   3.387   2.588  0.4427 -0.0147 -0.2154
 8433SOL    HW136761   1.934   3.390   2.635  0.5716  1.2163 -0.0747
 8433SOL    HW236762   2.040   3.478   2.568  1.7647  0.2345  2.4754
 8434SOL     OW36763   4.508   2.693  14.320 -0.1117 -0.6903 -0.3139
 8434SOL    HW136764   4.563   2.621  14.349  0.4860 -0.7203 -1.5334
 8434SOL    HW236765   4.447   2.652  14.259 -0.4332  0.1637 -0.5710
 8435SOL     OW36766   2.734   2.867   5.608  0.1328  0.0203  0.2729
 8435SOL    HW136767   2.786   2.915   5.673  0.5439 -0.2706  0.1551
 8435SOL    HW236768   2.666   2.828   5.664  0.4767 -0.8817  0.0664
 8436SOL     OW36769   0.240   2.772   6.860 -0.6218 -0.3110  0.1878
 8436SOL    HW136770   0.152   2.744   6.834  0.9519 -1.8225 -3.4771
 8436SOL    HW236771   0.286   2.790   6.778 -1.8436 -1.4205 -0.7441
 8437SOL     OW36772   3.185   1.053   9.633  0.2445 -0.0780 -0.2307
 8437SOL    HW136773   3.276   1.060   9.603 -0.1380 -1.8346 -1.7032
 8437SOL    HW236774   3.160   1.146   9.635  0.6705  0.0323  0.1400
 8438SOL     OW36775   0.204   1.773   8.118 -0.4353  0.2188 -0.3073
 8438SOL    HW136776   0.255   1.827   8.057  0.7501 -0.1891  0.3098
 8438SOL    HW236777   0.271   1.748   8.182 -0.4974 -0.4260 -0.4996
 8439SOL     OW36778   0.697   0.395   0.920 -0.3762 -0.4579  0.2351
 8439SOL    HW136779   0.686   0.300   0.924  0.1940 -0.5234  0.2893
 8439SOL    HW236780   0.620   0.422   0.869 -0.2837 -0.9508 -0.1709
 8440SOL     OW36781   3.607   3.984   4.935  0.1817  0.4394 -0.0229
 8440SOL    HW136782   3.608   4.072   4.899 -1.0748  1.1432  1.6811
 8440SOL    HW236783   3.547   3.994   5.009 -0.8597  1.8610 -1.0650
 8441SOL     OW36784   4.652   0.008  10.527  0.5078 -0.1923 -0.2360
 8441SOL    HW136785   4.593   0.021  10.601  0.2336  2.1829 -0.8772
 8441SOL    HW236786   4.629   4.644  10.507  1.0421 -0.7468  1.5932
 8442SOL     OW36787   1.738   4.157   7.194 -0.5939 -0.8341  0.7611
 8442SOL    HW136788   1.718   4.161   7.288 -1.1266 -3.0684  0.7459
 8442SOL    HW236789   1.657   4.189   7.154  0.0099  1.5969  1.4758
 8443SOL     OW36790   2.339   2.142   6.835 -0.7790 -0.1746  0.4293
 8443SOL    HW136791   2.333   2.082   6.909  0.3425 -1.2203 -0.3120
 8443SOL    HW236792   2.349   2.223   6.884 -0.7089 -1.0430  1.8487
 8444SOL     OW36793   1.243   2.643   5.396 -1.0398 -0.1452  0.2677
 8444SOL    HW136794   1.239   2.661   5.490  0.7517  0.0878  0.3004
 8444SOL    HW236795   1.268   2.551   5.385 -0.2295  0.4346 -2.6371
 8445SOL     OW36796   0.059   0.391   9.156  0.4744 -0.4505  0.2032
 8445SOL    HW136797   0.097   0.386   9.069  2.8044  0.9836  1.1337
 8445SOL    HW236798   0.007   0.470   9.148  0.1112 -0.6784  0.3124
 8446SOL     OW36799   4.675   3.638   6.088  0.1679  0.1303  0.4143
 8446SOL    HW136800   4.592   3.663   6.130 -0.6672 -2.5854  0.3918
 8446SOL    HW236801   4.642   3.574   6.024 -0.9422 -0.3351  1.4445
 8447SOL     OW36802   3.393   2.713   7.652 -0.0233  0.0256 -0.2231
 8447SOL    HW136803   3.374   2.645   7.587 -0.7129  1.3539 -1.4299
 8447SOL    HW236804   3.464   2.671   7.701  0.1918  2.8541  1.8983
 8448SOL     OW36805   1.066   3.978   8.569 -0.2715 -0.1527 -0.3296
 8448SOL    HW136806   1.106   4.061   8.594 -1.3436  0.6224 -1.1816
 8448SOL    HW236807   1.070   3.923   8.647 -3.0139 -0.3734 -0.3173
 8449SOL     OW36808   2.791   3.954  14.971  0.3748 -0.8113  0.8366
 8449SOL    HW136809   2.804   4.046  14.945  3.1898 -0.8784  1.9619
 8449SOL    HW236810   2.855   3.907  14.917 -0.0998  1.2690 -1.5581
 8450SOL     OW36811   3.231   0.626   8.014 -0.5095  0.3434 -0.2681
 8450SOL    HW136812   3.326   0.619   8.004 -0.5808  1.1563 -1.6103
 8450SOL    HW236813   3.210   0.543   8.056  1.9496 -0.0469  0.1786
 8451SOL     OW36814   0.595   0.680   5.130 -0.0242  0.3975  0.1158
 8451SOL    HW136815   0.635   0.676   5.043 -0.1213 -1.7280  0.1549
 8451SOL    HW236816   0.585   0.774   5.139  2.8931  0.8284 -1.2581
 8452SOL     OW36817   3.950   4.052   3.266  0.0828  0.3183  0.2112
 8452SOL    HW136818   3.918   3.970   3.227 -2.2730  0.2936  2.2288
 8452SOL    HW236819   3.971   4.018   3.353 -2.0619  0.1363  0.6715
 8453SOL     OW36820   0.874   3.556   4.835 -0.5703  0.6467  0.3362
 8453SOL    HW136821   0.787   3.592   4.817 -0.8166 -0.4691 -0.6809
 8453SOL    HW236822   0.890   3.551   4.929  0.0566 -0.0066  0.1942
 8454SOL     OW36823   1.476   1.647   8.290  0.0453 -0.2764 -0.0325
 8454SOL    HW136824   1.398   1.610   8.248 -0.9060  1.9194 -0.1867
 8454SOL    HW236825   1.469   1.621   8.381 -0.3220 -0.6435 -0.1665
 8455SOL     OW36826   0.630   0.837  11.074  0.0639 -0.6399  0.0898
 8455SOL    HW136827   0.669   0.863  11.157  2.3811 -1.9191 -0.5969
 8455SOL    HW236828   0.554   0.895  11.067  0.1840 -0.6781 -1.5457
 8456SOL     OW36829   0.012   2.629   3.711 -0.4216  0.6719 -0.1626
 8456SOL    HW136830   0.007   2.725   3.717  0.8413  0.7773 -0.8827
 8456SOL    HW236831   0.088   2.612   3.766  1.4522 -0.9329 -3.2408
 8457SOL     OW36832   1.879   3.219  15.895 -0.0297  0.0448  0.2808
 8457SOL    HW136833   1.811   3.165  15.935 -1.3583  1.2725 -0.2757
 8457SOL    HW236834   1.959   3.191  15.939  0.6799  0.6205 -0.6317
 8458SOL     OW36835   0.721   1.141   7.717 -0.4789  0.3923 -0.0225
 8458SOL    HW136836   0.784   1.090   7.766 -0.1940  1.0607  0.3058
 8458SOL    HW236837   0.744   1.232   7.738 -2.3296  0.9891 -0.5758
 8459SOL     OW36838   0.496   1.302   3.263  0.4083 -0.1390 -0.2443
 8459SOL    HW136839   0.410   1.321   3.226  0.9846  1.2074 -0.8720
 8459SOL    HW236840   0.544   1.291   3.181  2.1252  2.1806  0.4629
 8460SOL     OW36841   0.655   0.380   8.395  0.5081  0.1555 -0.1499
 8460SOL    HW136842   0.693   0.408   8.478 -2.4133  0.8249  0.9909
 8460SOL    HW236843   0.714   0.308   8.378  0.2610 -0.2591  0.7425
 8461SOL     OW36844   1.831   4.562   2.897 -0.2184 -0.2306  0.4520
 8461SOL    HW136845   1.847   4.611   2.977  3.3451 -1.3540  0.3966
 8461SOL    HW236846   1.906   4.595   2.848 -0.7051  0.9531  0.5099
 8462SOL     OW36847   4.662   4.253   6.842 -0.2293 -0.1479 -0.1855
 8462SOL    HW136848   0.017   4.230   6.887 -0.2197 -0.4823 -0.3719
 8462SOL    HW236849   4.618   4.296   6.915  0.9237 -0.7517  0.8813
 8463SOL     OW36850   3.195   1.771   5.663 -0.3893  0.2161  0.2208
 8463SOL    HW136851   3.250   1.742   5.591  0.6106  0.9448  0.6953
 8463SOL    HW236852   3.110   1.736   5.635 -1.2350  2.5918 -0.1690
 8464SOL     OW36853   3.321   2.646   3.437 -0.7114 -0.3290 -0.6210
 8464SOL    HW136854   3.262   2.641   3.362 -0.1653 -1.8216 -0.9569
 8464SOL    HW236855   3.278   2.593   3.505  0.5358 -0.9235 -0.2918
 8465SOL     OW36856   2.942   1.194   4.215  0.4032  0.1925 -0.3314
 8465SOL    HW136857   3.006   1.259   4.187  0.5908  0.9543  1.8897
 8465SOL    HW236858   2.995   1.120   4.184  0.5512  0.2777 -0.2832
 8466SOL     OW36859   2.660   4.659   8.028  0.5347 -0.1815  1.1624
 8466SOL    HW136860   2.593   4.681   7.963 -0.1900 -2.1262  1.2437
 8466SOL    HW236861   2.723   4.727   8.002  1.2528 -1.1313  0.3977
 8467SOL     OW36862   4.697   0.582   7.532 -0.6763  0.5536  0.4255
 8467SOL    HW136863   4.637   0.654   7.551 -0.2873  0.2172  3.0166
 8467SOL    HW236864   4.693   0.532   7.614  2.5664  1.0224  0.8766
 8468SOL     OW36865   4.505   1.407  15.938  0.3548 -0.4990  0.1421
 8468SOL    HW136866   4.488   1.372  15.850  0.1636 -0.2242  0.0702
 8468SOL    HW236867   4.584   1.359  15.965  0.5033 -0.0719  0.4630
 8469SOL     OW36868   1.874   2.298  15.182  0.1431  0.1318  0.0691
 8469SOL    HW136869   1.855   2.388  15.208 -2.1152 -0.3661  0.1539
 8469SOL    HW236870   1.889   2.304  15.088  0.1703  3.7798  0.3105
 8470SOL     OW36871   1.296   2.972   8.260  0.0021  0.1305  0.3502
 8470SOL    HW136872   1.341   2.989   8.178 -0.2102  1.7878  0.5709
 8470SOL    HW236873   1.342   2.897   8.298  1.2960  0.9818  0.4820
 8471SOL     OW36874   2.236   1.096   1.952  0.0594  0.0438 -0.2273
 8471SOL    HW136875   2.239   1.009   1.991  0.0232  0.7465  1.3692
 8471SOL    HW236876   2.228   1.079   1.858 -3.1921  1.5150 -0.2503
 8472SOL     OW36877   2.874   0.833   6.980  0.7586  0.1457 -0.0084
 8472SOL    HW136878   2.877   0.751   7.031 -0.0981 -0.6852 -1.3043
 8472SOL    HW236879   2.791   0.815   6.937  0.3182  2.4709 -0.1204
 8473SOL     OW36880   4.420   4.340   4.128 -0.4095  0.2734  0.7136
 8473SOL    HW136881   4.333   4.364   4.096 -1.1179 -0.2005  2.2840
 8473SOL    HW236882   4.395   4.258   4.169 -0.6717  0.6308  1.2662
 8474SOL     OW36883   2.484   0.054  11.567  0.6845  0.3285 -0.2639
 8474SOL    HW136884   2.558   0.111  11.545  1.1293 -0.3592 -0.5457
 8474SOL    HW236885   2.408   0.109  11.547  0.8957  0.6656 -0.1461
 8475SOL     OW36886   0.912   0.781   9.794 -0.1590  0.3574 -0.9001
 8475SOL    HW136887   0.995   0.793   9.748 -0.1664  0.0330 -1.0035
 8475SOL    HW236888   0.935   0.813   9.881 -1.7783 -0.3740 -0.1949
 8476SOL     OW36889   2.117   1.567  17.685 -0.0372  0.0394  0.0783
 8476SOL    HW136890   2.097   1.585  17.593 -0.0825 -0.0902  0.0629
 8476SOL    HW236891   2.026   1.566   0.005 -0.1824 -2.4906 -0.4428
 8477SOL     OW36892   1.434   4.059   2.002  0.3750 -0.1453 -0.1888
 8477SOL    HW136893   1.350   4.106   2.005 -1.5522 -3.9016  2.8992
 8477SOL    HW236894   1.410   3.968   2.016  0.9674  0.0333  1.9393
 8478SOL     OW36895   2.112   4.632   2.056 -0.2835 -0.5920 -0.2183
 8478SOL    HW136896   2.144   4.721   2.040 -0.4812 -0.3456  0.7203
 8478SOL    HW236897   2.021   4.629   2.026  0.4266 -3.3612 -1.9761
 8479SOL     OW36898   2.078   2.385   6.144  0.4206 -0.2870 -0.4496
 8479SOL    HW136899   2.151   2.365   6.202 -0.3836 -1.4049  0.1726
 8479SOL    HW236900   2.055   2.470   6.180 -0.5610 -0.8466  0.2449
 8480SOL     OW36901   0.159   4.339   1.553  0.5490  0.2972  0.2944
 8480SOL    HW136902   0.097   4.393   1.503  0.5834 -0.9090 -1.0581
 8480SOL    HW236903   0.159   4.257   1.504  0.1779  0.7783 -0.5167
 8481SOL     OW36904   3.227   2.058   6.107 -0.5073  0.6297 -0.2405
 8481SOL    HW136905   3.304   2.018   6.066  0.2800 -0.2202  2.1103
 8481SOL    HW236906   3.258   2.094   6.190  0.8248  0.4432 -0.6528
 8482SOL     OW36907   2.134   2.055   6.489 -0.2952  0.3279 -0.5996
 8482SOL    HW136908   2.057   2.112   6.493 -0.0981  0.5629 -0.1050
 8482SOL    HW236909   2.197   2.110   6.535 -1.2923 -0.5556  1.8229
 8483SOL     OW36910   1.283   3.432  16.719 -0.5847 -0.2971  0.5001
 8483SOL    HW136911   1.200   3.442  16.766  0.4114 -0.7759  2.3782
 8483SOL    HW236912   1.330   3.382  16.786  0.0251  0.1983  0.4399
 8484SOL     OW36913   2.805   0.342   4.494  0.1120  0.6850 -0.1807
 8484SOL    HW136914   2.851   0.377   4.570  2.2546 -0.0362 -1.1422
 8484SOL    HW236915   2.853   0.390   4.427 -1.9503 -1.4412 -3.1816
 8485SOL     OW36916   1.683   2.220  11.889 -0.0366  0.2441 -0.4461
 8485SOL    HW136917   1.638   2.199  11.970  0.2506  1.8032  0.1046
 8485SOL    HW236918   1.661   2.143  11.836  0.3028 -1.2608  1.6216
 8486SOL     OW36919   1.395   3.264   6.881 -0.4476 -0.1092 -0.7357
 8486SOL    HW136920   1.464   3.330   6.872 -0.6197  0.0716 -0.7348
 8486SOL    HW236921   1.368   3.285   6.970 -0.8126  0.6283 -1.0152
 8487SOL     OW36922   0.408   0.786   2.367 -0.2477 -0.2503 -0.0017
 8487SOL    HW136923   0.395   0.787   2.461  2.1497 -0.4114  0.3279
 8487SOL    HW236924   0.464   0.710   2.348 -0.0677  0.1184 -0.9400
 8488SOL     OW36925   0.014   2.241   3.439 -0.3516 -0.2210  0.3606
 8488SOL    HW136926   0.050   2.328   3.427  2.1723 -1.1116  1.5518
 8488SOL    HW236927   0.064   2.209   3.514  1.8194 -0.7614 -1.3191
 8489SOL     OW36928   0.610   1.734   6.909 -0.0512  0.0431 -0.3824
 8489SOL    HW136929   0.673   1.805   6.894  0.2078  0.3042  1.9201
 8489SOL    HW236930   0.533   1.782   6.941  0.9440  0.7353  0.9425
 8490SOL     OW36931   2.807   0.076   2.844 -0.0356  0.6796 -0.1264
 8490SOL    HW136932   2.826   0.021   2.920 -0.1743  0.7153 -0.0676
 8490SOL    HW236933   2.872   0.143   2.864 -1.1416  0.9566  2.4550
 8491SOL     OW36934   1.146   4.390  13.344 -0.3083 -0.1571  0.1191
 8491SOL    HW136935   1.054   4.379  13.322 -0.8455  1.4080  1.5316
 8491SOL    HW236936   1.188   4.374  13.260  1.2620  0.7941  0.7226
 8492SOL     OW36937   3.233   1.988  13.884  0.0859 -0.2104  0.2787
 8492SOL    HW136938   3.214   1.936  13.806  0.0219  1.0791 -0.5793
 8492SOL    HW236939   3.293   2.055  13.851 -2.2288  0.2629 -2.9497
 8493SOL     OW36940   1.966   1.539   7.618 -0.3398 -0.1598 -0.0062
 8493SOL    HW136941   1.930   1.480   7.552  0.7876 -1.6146  0.6803
 8493SOL    HW236942   2.027   1.598   7.573 -1.6330  3.3574  2.8395
 8494SOL     OW36943   1.973   1.081   3.138 -0.5798 -0.5083  0.0617
 8494SOL    HW136944   1.985   1.086   3.043  0.0473  0.6343  0.2000
 8494SOL    HW236945   1.901   1.143   3.150 -0.2887 -0.1450 -0.0436
 8495SOL     OW36946   1.338   3.188   9.867 -0.0761 -0.3883 -0.0722
 8495SOL    HW136947   1.322   3.278   9.841 -1.0623 -0.1609  1.3408
 8495SOL    HW236948   1.265   3.180   9.929 -0.3305 -0.8252 -0.4255
 8496SOL     OW36949   1.273   0.747   4.096  0.2726 -0.3491  0.4173
 8496SOL    HW136950   1.264   0.842   4.086  0.3704 -0.4618 -0.7455
 8496SOL    HW236951   1.293   0.733   4.189 -2.4958 -1.9481  0.7740
 8497SOL     OW36952   2.834   1.915  15.463 -0.6109  0.0023 -0.4307
 8497SOL    HW136953   2.744   1.884  15.460 -1.5153  2.5258  0.5043
 8497SOL    HW236954   2.847   1.950  15.375 -1.0202 -2.0709 -1.2994
 8498SOL     OW36955   2.700   3.683   5.351 -0.2976  0.0921 -0.1343
 8498SOL    HW136956   2.668   3.729   5.429 -2.1361 -0.6783 -0.4384
 8498SOL    HW236957   2.629   3.626   5.320  0.6089 -0.7748 -0.6307
 8499SOL     OW36958   2.382   0.755   4.630  0.1510  0.2917  0.4303
 8499SOL    HW136959   2.320   0.826   4.647  1.6517  1.6583  0.1447
 8499SOL    HW236960   2.446   0.804   4.579 -0.2884 -1.6070 -1.9567
 8500SOL     OW36961   1.998   3.372   4.809 -0.2113 -0.5125  0.2620
 8500SOL    HW136962   2.031   3.365   4.899 -2.5868 -0.9123  1.0945
 8500SOL    HW236963   1.916   3.419   4.822 -0.3531 -0.4597 -0.7945
 8501SOL     OW36964   0.364   2.207   1.796  0.0767  0.2131 -0.1069
 8501SOL    HW136965   0.408   2.131   1.836  0.8536  0.7645  0.0992
 8501SOL    HW236966   0.337   2.162   1.716  1.9165  0.4365 -0.8417
 8502SOL     OW36967   3.488   0.889   2.160 -0.0985 -1.3716 -0.2510
 8502SOL    HW136968   3.495   0.915   2.068  0.0836 -1.8668 -0.3788
 8502SOL    HW236969   3.397   0.913   2.176 -0.1671 -2.8972  1.7498
 8503SOL     OW36970   2.747   3.056  16.400  0.4144 -0.0799  0.4273
 8503SOL    HW136971   2.772   3.145  16.423 -2.2787  0.6293  0.6482
 8503SOL    HW236972   2.751   3.068  16.305 -1.3408  1.5555  0.5700
 8504SOL     OW36973   0.111   2.446  10.841  0.4224  0.6435 -0.1611
 8504SOL    HW136974   0.159   2.429  10.922  0.1218  1.2586  0.1466
 8504SOL    HW236975   0.023   2.420  10.868  0.6208 -0.4366 -0.5698
 8505SOL     OW36976   2.135   1.430  10.515 -0.2044  0.4589  0.5357
 8505SOL    HW136977   2.176   1.499  10.568  1.7007  0.6032 -1.0994
 8505SOL    HW236978   2.044   1.459  10.506 -0.7679 -0.5595  2.9015
 8506SOL     OW36979   1.780   0.291  15.874  0.6992 -0.4916 -0.2698
 8506SOL    HW136980   1.793   0.284  15.968  0.2843  0.2234 -0.1650
 8506SOL    HW236981   1.734   0.375  15.869  0.1237 -0.7812  0.2946
 8507SOL     OW36982   3.776   1.311   3.945  0.1113  0.0543  0.5284
 8507SOL    HW136983   3.806   1.361   3.869  1.0515  1.8297  2.0651
 8507SOL    HW236984   3.830   1.232   3.940  2.4207  1.6068  0.7541
 8508SOL     OW36985   1.253   2.874   1.706  0.7169 -0.0160  0.7452
 8508SOL    HW136986   1.239   2.959   1.664 -2.4882 -1.2194 -0.6447
 8508SOL    HW236987   1.272   2.911   1.792 -1.9762  0.7255  1.0230
 8509SOL     OW36988   0.033   0.940   1.165 -0.1653 -0.0009 -0.5381
 8509SOL    HW136989   0.126   0.927   1.185 -0.3640 -0.8946 -0.2102
 8509SOL    HW236990   0.014   0.865   1.109  0.2448  0.4437 -1.2961
 8510SOL     OW36991   3.815   3.903  10.898  0.6026 -0.7567  0.0025
 8510SOL    HW136992   3.852   3.991  10.896 -0.5805 -0.3460 -3.2910
 8510SOL    HW236993   3.885   3.848  10.863 -1.0310 -0.7582 -3.2613
 8511SOL     OW36994   1.266   3.406   8.162  0.6661 -0.1913 -0.0648
 8511SOL    HW136995   1.330   3.361   8.107  0.4218 -1.3834  0.6194
 8511SOL    HW236996   1.213   3.327   8.174 -3.1368  2.4424  0.4647
 8512SOL     OW36997   3.687   4.207   9.707 -0.3035  0.5836 -0.1032
 8512SOL    HW136998   3.709   4.271   9.639 -0.3797  1.1319  0.3895
 8512SOL    HW236999   3.592   4.197   9.699 -0.1499 -0.7895 -0.2425
 8513SOL     OW37000   0.332   4.402   9.001 -0.4643 -0.1185 -0.5822
 8513SOL    HW137001   0.355   4.310   8.997 -0.3011 -0.1043  0.0072
 8513SOL    HW237002   0.414   4.451   8.998 -0.4975  0.1097  2.0349
 8514SOL     OW37003   3.789   3.614   6.833  0.5431 -0.3815 -0.5120
 8514SOL    HW137004   3.747   3.675   6.772 -0.2758  0.3517  0.7863
 8514SOL    HW237005   3.881   3.618   6.805  0.5363  2.3921 -0.1412
 8515SOL     OW37006   2.057   0.777   8.131 -0.4332  0.3631 -0.3610
 8515SOL    HW137007   2.011   0.693   8.135 -2.5536  1.5179 -0.6231
 8515SOL    HW237008   2.001   0.841   8.174  1.9787  1.3306  1.3469
 8516SOL     OW37009   4.040   3.319   5.863  0.3748  0.5973 -0.4342
 8516SOL    HW137010   4.076   3.408   5.859  1.1835  0.3501  1.4703
 8516SOL    HW237011   3.945   3.332   5.858  0.1230 -0.8786  0.6158
 8517SOL     OW37012   1.651   3.220   4.790  0.2976 -0.4403  0.3661
 8517SOL    HW137013   1.628   3.263   4.872 -1.1538  0.8750 -0.7227
 8517SOL    HW237014   1.611   3.133   4.791  0.7438 -0.6560 -0.9069
 8518SOL     OW37015   0.097   1.772   3.465  0.3714 -0.1950  0.7071
 8518SOL    HW137016   0.054   1.836   3.409 -1.4604 -1.0288  1.1539
 8518SOL    HW237017   0.133   1.706   3.406  0.8759 -1.2366  2.1847
 8519SOL     OW37018   0.551   2.814   7.073 -0.2688 -0.1157 -0.2672
 8519SOL    HW137019   0.510   2.779   7.152  0.9602  1.2195  0.9621
 8519SOL    HW237020   0.613   2.743   7.058  1.4703  1.3828 -0.1260
 8520SOL     OW37021   3.598   4.289   7.424 -0.6156 -0.1496 -0.0759
 8520SOL    HW137022   3.640   4.375   7.426 -0.4753 -0.2662  2.1096
 8520SOL    HW237023   3.610   4.256   7.514 -0.2291 -0.2686 -0.1686
 8521SOL     OW37024   4.111   4.252  16.883  0.3126  0.4779 -0.0693
 8521SOL    HW137025   4.074   4.247  16.971 -1.6950  1.0321 -0.9003
 8521SOL    HW237026   4.071   4.330  16.844  0.3114 -0.0619 -1.1318
 8522SOL     OW37027   2.182   1.958   0.978 -0.2396  0.5879 -0.1914
 8522SOL    HW137028   2.102   1.974   0.927 -1.1100 -2.2715  0.2892
 8522SOL    HW237029   2.147   1.948   1.067  1.2179 -0.3214  0.2791
 8523SOL     OW37030   0.405   0.819  12.721  0.1130 -0.1844 -0.3859
 8523SOL    HW137031   0.442   0.749  12.775 -0.2099 -0.0020  0.0676
 8523SOL    HW237032   0.464   0.811  12.646  0.3927 -2.5350  0.0658
 8524SOL     OW37033   1.346   3.463   8.637  0.3986  0.1429 -0.0265
 8524SOL    HW137034   1.425   3.493   8.683 -0.1984 -1.1404  1.8289
 8524SOL    HW237035   1.366   3.374   8.608 -2.5040 -0.2152 -0.8713
 8525SOL     OW37036   2.415   4.497   4.794 -0.0136 -0.6224  0.4650
 8525SOL    HW137037   2.510   4.494   4.782 -0.1919  1.0733 -1.2854
 8525SOL    HW237038   2.396   4.578   4.747 -0.8969  0.3815  2.5526
 8526SOL     OW37039   1.667   0.857   2.264  0.0318  0.4364 -0.4233
 8526SOL    HW137040   1.659   0.767   2.295  0.2091 -0.4769 -3.0080
 8526SOL    HW237041   1.762   0.864   2.256  0.1463  0.5105  1.0965
 8527SOL     OW37042   0.772   1.816   7.290  0.0620 -0.3210  0.4323
 8527SOL    HW137043   0.799   1.908   7.283 -0.9085  0.1074  2.2683
 8527SOL    HW237044   0.830   1.776   7.225  1.3411  0.7577  0.8894
 8528SOL     OW37045   4.129   0.571  12.636  0.1079 -0.0307 -0.1104
 8528SOL    HW137046   4.195   0.603  12.696 -0.3111  0.8978 -0.1390
 8528SOL    HW237047   4.053   0.554  12.692 -1.5169  1.5328 -1.7959
 8529SOL     OW37048   1.375   4.012   8.735  0.0647 -0.0111  0.0900
 8529SOL    HW137049   1.447   4.074   8.748  0.7746 -0.8621  0.2513
 8529SOL    HW237050   1.300   4.049   8.780  0.4688 -0.0322  0.7734
 8530SOL     OW37051   3.049   3.660  11.407 -0.3149 -0.1488  0.3891
 8530SOL    HW137052   2.957   3.659  11.432 -1.2926 -0.9282 -3.1616
 8530SOL    HW237053   3.064   3.712  11.328  0.5734  1.6082  1.7206
 8531SOL     OW37054   1.129   1.457   1.370 -0.0514 -0.4762 -0.9161
 8531SOL    HW137055   1.135   1.383   1.431  2.5002 -2.2740 -3.3836
 8531SOL    HW237056   1.048   1.442   1.320  0.2708 -1.1844 -1.2301
 8532SOL     OW37057   1.886   1.261   5.824 -0.1097 -0.3660  0.5859
 8532SOL    HW137058   1.799   1.250   5.786  1.4150 -0.4780 -2.8593
 8532SOL    HW237059   1.901   1.174   5.863 -1.0825 -1.0797 -0.6371
 8533SOL     OW37060   3.775   4.010   9.937  0.3384  0.0824 -0.1436
 8533SOL    HW137061   3.845   3.984   9.996  0.9639  0.4028 -0.7415
 8533SOL    HW237062   3.760   3.938   9.876  1.8381  0.4105 -0.9168
 8534SOL     OW37063   1.254   4.365  12.708 -0.4889 -0.0456  0.4146
 8534SOL    HW137064   1.308   4.442  12.724 -0.5864  0.2552 -0.6963
 8534SOL    HW237065   1.263   4.321  12.793  1.2327 -0.4593  0.0043
 8535SOL     OW37066   3.417   3.851   1.184  0.2704 -0.5738  0.3697
 8535SOL    HW137067   3.432   3.866   1.277 -0.0923  1.7597  0.0558
 8535SOL    HW237068   3.492   3.795   1.164  0.7460  0.0582  0.4303
 8536SOL     OW37069   1.292   2.493   8.380  0.1551 -0.2707 -0.2206
 8536SOL    HW137070   1.250   2.526   8.459 -0.5468  1.4710 -1.3166
 8536SOL    HW237071   1.217   2.507   8.322  1.5948 -2.1068 -2.5156
 8537SOL     OW37072   3.607   2.626  12.583  0.0131 -0.0457  0.5893
 8537SOL    HW137073   3.664   2.683  12.531  1.4742 -1.3390  0.7492
 8537SOL    HW237074   3.663   2.551  12.604 -1.2249 -1.6821 -1.9103
 8538SOL     OW37075   2.660   3.018   2.939  0.1278 -0.1258 -0.5288
 8538SOL    HW137076   2.701   2.950   2.885 -1.3545 -2.1068  0.8509
 8538SOL    HW237077   2.582   3.033   2.886 -1.2535 -1.7632  1.0501
 8539SOL     OW37078   2.345   1.959  13.748  0.4262  0.5063  0.0893
 8539SOL    HW137079   2.323   1.972  13.841 -0.9353 -1.4068  0.0294
 8539SOL    HW237080   2.391   1.875  13.752  1.2994  0.8638 -2.4658
 8540SOL     OW37081   3.341   0.228  15.054  0.3291 -0.0790  0.0403
 8540SOL    HW137082   3.402   0.293  15.088  1.7809 -1.1061 -0.6287
 8540SOL    HW237083   3.309   0.188  15.135 -0.7260 -0.7217 -0.6916
 8541SOL     OW37084   0.086   0.965   5.190 -0.1984 -0.2610  0.3079
 8541SOL    HW137085   0.127   0.910   5.124 -1.3449 -0.0718 -0.5788
 8541SOL    HW237086   0.102   1.055   5.161  2.1707 -0.8215 -0.0587
 8542SOL     OW37087   4.307   3.803   3.400 -0.1818 -0.2331  0.2268
 8542SOL    HW137088   4.267   3.826   3.316 -2.1772 -0.6858  1.0524
 8542SOL    HW237089   4.317   3.895   3.423  1.3009 -0.0252 -1.2441
 8543SOL     OW37090   0.260   4.307   2.558 -0.4379  0.4577 -0.2002
 8543SOL    HW137091   0.352   4.301   2.584 -0.2611  1.5576 -0.5809
 8543SOL    HW237092   0.264   4.384   2.502 -2.2726  0.3175 -0.5368
 8544SOL     OW37093   0.231   2.114   7.306  0.3565  0.3347 -0.0696
 8544SOL    HW137094   0.173   2.050   7.349  0.5885  1.2283  1.5510
 8544SOL    HW237095   0.196   2.098   7.218  1.5955  0.7965 -0.6444
 8545SOL     OW37096   2.979   1.888   7.255  0.7458 -0.7100 -0.1439
 8545SOL    HW137097   3.063   1.851   7.284  0.4118  0.0829  1.8360
 8545SOL    HW237098   2.989   1.906   7.161 -2.1690  0.9622 -0.1358
 8546SOL     OW37099   0.761   2.575   6.742 -0.1392  0.2136 -0.5485
 8546SOL    HW137100   0.808   2.610   6.818  1.4323  0.3095 -1.5523
 8546SOL    HW237101   0.682   2.629   6.736  0.0799  0.6024  0.1452
 8547SOL     OW37102   2.642   0.242   0.036  0.1361  0.0086  0.0394
 8547SOL    HW137103   2.567   0.237   0.095 -0.3119 -1.2976 -0.6227
 8547SOL    HW237104   2.658   0.150   0.015 -1.5614 -0.1332 -0.6778
 8548SOL     OW37105   3.720   0.117  12.163 -0.1898  0.1269  0.0719
 8548SOL    HW137106   3.639   0.136  12.114  1.6963  0.7579 -2.8078
 8548SOL    HW237107   3.781   0.183  12.130 -0.8467  1.1582  0.9505
 8549SOL     OW37108   1.247   3.343   0.983 -0.1450 -0.1076 -0.0345
 8549SOL    HW137109   1.230   3.293   0.903 -2.5985  3.1036 -1.5575
 8549SOL    HW237110   1.245   3.432   0.946  0.4370 -0.4175 -0.8004
 8550SOL     OW37111   0.620   2.543   7.492 -0.0152  0.0850 -0.0441
 8550SOL    HW137112   0.667   2.558   7.574 -0.1191 -1.7263  0.3499
 8550SOL    HW237113   0.677   2.482   7.446 -1.0842  0.9302 -2.4600
 8551SOL     OW37114   0.316   4.312  15.814  0.4070 -0.1611 -0.0204
 8551SOL    HW137115   0.262   4.289  15.890  0.5936 -0.5974 -0.0159
 8551SOL    HW237116   0.405   4.314  15.851  0.8187  0.7776 -1.0935
 8552SOL     OW37117   0.501   3.368   9.946  0.3120 -0.4198 -0.3162
 8552SOL    HW137118   0.488   3.292  10.002 -3.2128  1.3824  1.3120
 8552SOL    HW237119   0.578   3.411   9.982 -0.9957 -0.2818  2.3022
 8553SOL     OW37120   1.392   3.392   9.536  0.2715 -0.7993  0.8473
 8553SOL    HW137121   1.406   3.435   9.620 -1.6832 -1.8021  1.6915
 8553SOL    HW237122   1.469   3.426   9.490  0.1420  0.1039  1.2966
 8554SOL     OW37123   4.574   1.886   7.541  0.0247 -0.6402  0.0064
 8554SOL    HW137124   4.545   1.896   7.450  2.6398 -0.7701 -0.8349
 8554SOL    HW237125   4.488   1.868   7.578 -0.6399  0.3877 -1.0099
 8555SOL     OW37126   1.818   4.666   2.065  0.2128  0.1286 -0.4550
 8555SOL    HW137127   1.749   4.714   2.020 -0.8619  0.6839  1.7683
 8555SOL    HW237128   1.775   4.580   2.070  1.5936 -0.5817 -0.7027
 8556SOL     OW37129   4.370   1.474  11.440 -0.1325 -0.3811 -0.1034
 8556SOL    HW137130   4.405   1.556  11.405 -0.4955 -0.5570 -0.8627
 8556SOL    HW237131   4.391   1.414  11.369 -0.4349 -0.2745 -0.2790
 8557SOL     OW37132   2.850   2.157  11.246 -0.4896 -0.2591 -0.6277
 8557SOL    HW137133   2.935   2.112  11.239 -0.5388 -0.9786  3.5915
 8557SOL    HW237134   2.885   2.224  11.304 -2.1782 -1.0053  1.2454
 8558SOL     OW37135   1.511   1.004  14.861  0.4010  0.7100  0.0360
 8558SOL    HW137136   1.443   0.949  14.822  0.3299 -0.2553  1.5133
 8558SOL    HW237137   1.466   1.041  14.937  0.2431  1.3794 -0.3792
 8559SOL     OW37138   2.138   0.539   2.097 -0.1157 -0.1449 -0.2745
 8559SOL    HW137139   2.073   0.476   2.067 -0.7404  1.9954 -3.4544
 8559SOL    HW237140   2.082   0.601   2.144 -2.2510 -0.9971 -1.6794
 8560SOL     OW37141   2.394   2.829   6.170 -0.1022 -0.3532  0.1182
 8560SOL    HW137142   2.484   2.826   6.137  0.4644  0.0106  1.6458
 8560SOL    HW237143   2.364   2.917   6.146 -0.5176 -0.6730 -0.5234
 8561SOL     OW37144   1.196   0.949   7.054  0.2589  0.3208 -0.1130
 8561SOL    HW137145   1.153   0.898   6.985 -1.4296  0.5269  0.7867
 8561SOL    HW237146   1.215   1.033   7.011  1.9798  0.4432  0.9001
 8562SOL     OW37147   4.275   4.286   2.622  0.5514 -0.0745  0.4571
 8562SOL    HW137148   4.276   4.234   2.702  1.2647 -0.5381  0.1410
 8562SOL    HW237149   4.230   4.221   2.569  1.0849  0.5693 -0.7833
 8563SOL     OW37150   2.241   1.767   4.820  0.5353 -0.1413 -0.2288
 8563SOL    HW137151   2.273   1.838   4.876 -0.4026 -0.4021  0.6198
 8563SOL    HW237152   2.234   1.690   4.877  0.0916  2.5266  3.2946
 8564SOL     OW37153   1.876   1.699   6.045 -0.0013  0.3088 -0.0473
 8564SOL    HW137154   1.907   1.622   5.996 -1.8835  0.0640 -0.8348
 8564SOL    HW237155   1.788   1.702   6.007 -1.2068  1.6785  2.9166
 8565SOL     OW37156   0.915   1.843   7.573 -0.1809  0.2346 -0.4548
 8565SOL    HW137157   0.948   1.767   7.621  2.3706  1.4107 -0.3402
 8565SOL    HW237158   0.861   1.813   7.500 -1.4570 -0.8866  0.9708
 8566SOL     OW37159   3.246   4.566   3.862  0.4284  0.2612  0.7080
 8566SOL    HW137160   3.227   4.658   3.844 -1.2183 -0.6898 -2.5374
 8566SOL    HW237161   3.318   4.557   3.800 -0.3298 -0.3282 -0.1004
 8567SOL     OW37162   1.272   1.956   7.106 -0.7623 -0.5816  0.5686
 8567SOL    HW137163   1.189   1.995   7.078 -1.3900 -0.9214  1.9240
 8567SOL    HW237164   1.288   2.030   7.165 -1.3741 -1.2946  1.6394
 8568SOL     OW37165   2.336   1.928   2.432 -0.3163  0.3985 -0.7849
 8568SOL    HW137166   2.425   1.951   2.407 -0.0649 -0.8861 -1.0583
 8568SOL    HW237167   2.349   1.834   2.427  2.8438  0.7375  1.2288
 8569SOL     OW37168   0.293   2.291   9.888 -0.0842 -0.2491 -0.4470
 8569SOL    HW137169   0.363   2.308   9.824  3.2889 -1.6754  2.8657
 8569SOL    HW237170   0.343   2.234   9.946 -1.8353 -0.6306  0.6927
 8570SOL     OW37171   1.309   1.285   5.668 -0.7000 -0.1193  0.2498
 8570SOL    HW137172   1.291   1.379   5.665  0.8275  0.2656  2.9248
 8570SOL    HW237173   1.396   1.289   5.629  0.5550 -0.0615  3.0078
 8571SOL     OW37174   2.057   2.883   2.015  0.7889 -0.0045  0.1767
 8571SOL    HW137175   2.026   2.958   2.066 -0.2768 -0.0996 -0.3329
 8571SOL    HW237176   2.014   2.899   1.931  1.9966  0.3086 -0.3736
 8572SOL     OW37177   3.036   0.190   9.531  0.0797 -0.1464 -0.2866
 8572SOL    HW137178   3.001   0.154   9.613  0.5648  0.6677  0.2822
 8572SOL    HW237179   2.979   0.266   9.536  0.4443  0.0822  0.4064
 8573SOL     OW37180   3.739   0.454   9.253 -0.7278 -0.3823  0.1957
 8573SOL    HW137181   3.667   0.454   9.191 -0.7103  0.6470  0.1835
 8573SOL    HW237182   3.697   0.402   9.322 -0.5900  1.4964  1.7020
 8574SOL     OW37183   0.945   1.279   8.341 -0.0684 -0.3637  0.4147
 8574SOL    HW137184   0.981   1.197   8.309  0.2192  0.2757 -0.9195
 8574SOL    HW237185   1.010   1.281   8.411  1.6878  1.4567 -1.2212
 8575SOL     OW37186   4.489   1.408   2.627 -1.0065 -0.5611 -0.4306
 8575SOL    HW137187   4.411   1.353   2.626 -0.1619 -1.7685 -0.0946
 8575SOL    HW237188   4.557   1.343   2.608  2.5495  2.8205  0.8205
 8576SOL     OW37189   4.136   3.847  12.522  0.2763 -0.6575 -0.7174
 8576SOL    HW137190   4.068   3.912  12.536  1.9820  1.2277 -1.1056
 8576SOL    HW237191   4.202   3.874  12.586  0.3519  1.6541 -1.7542
 8577SOL     OW37192   3.366   2.776  16.483  0.2020  0.0400 -0.1728
 8577SOL    HW137193   3.455   2.741  16.495 -0.1774 -0.1870  2.0221
 8577SOL    HW237194   3.336   2.798  16.571 -1.0484  0.5369 -0.7276
 8578SOL     OW37195   2.385   3.318   7.648  0.0061  0.2521  0.0834
 8578SOL    HW137196   2.315   3.256   7.668  1.2652 -1.4553 -0.8228
 8578SOL    HW237197   2.342   3.373   7.583 -2.5357 -2.0827 -0.1985
 8579SOL     OW37198   3.606   0.313   0.794 -0.0718 -0.1411  0.0923
 8579SOL    HW137199   3.673   0.282   0.732 -0.6663  1.6666 -1.4302
 8579SOL    HW237200   3.560   0.370   0.732 -1.0294 -2.3699 -1.2711
 8580SOL     OW37201   2.390   1.927  12.035 -0.9543 -0.9711  0.3153
 8580SOL    HW137202   2.310   1.936  11.982 -1.7465 -0.4617  1.5859
 8580SOL    HW237203   2.451   1.921  11.962 -0.6673  0.3262  0.4414
 8581SOL     OW37204   4.114   3.655   6.529 -0.2896 -0.2834  0.0480
 8581SOL    HW137205   4.076   3.661   6.617  0.0144 -2.4181  0.3268
 8581SOL    HW237206   4.125   3.747   6.505  0.6739 -0.6518 -0.9221
 8582SOL     OW37207   0.933   4.118  17.676  0.0752 -0.0446 -0.1691
 8582SOL    HW137208   0.996   4.087  17.611  1.1601  0.1252  0.7799
 8582SOL    HW237209   1.002   4.158   0.021 -0.1816  1.4298 -0.9512
 8583SOL     OW37210   0.082   3.083   6.186  0.0119  0.2654 -0.0509
 8583SOL    HW137211   0.016   3.119   6.128 -2.3363 -0.3683  2.1999
 8583SOL    HW237212   0.165   3.110   6.147 -1.4035  1.5286 -2.1883
 8584SOL     OW37213   0.296   0.172   4.577  0.5470  0.7076  0.2196
 8584SOL    HW137214   0.269   0.187   4.486 -3.2200 -1.6372  0.9474
 8584SOL    HW237215   0.214   0.161   4.624  0.1739 -0.9881 -0.8160
 8585SOL     OW37216   3.623   0.271   9.438  0.1727 -0.1834  0.0818
 8585SOL    HW137217   3.639   0.225   9.521 -0.4779  0.1532  0.3927
 8585SOL    HW237218   3.666   0.208   9.381 -0.0646  0.7309 -1.1000
 8586SOL     OW37219   3.426   4.069   2.629  0.6773 -0.6676  0.5264
 8586SOL    HW137220   3.495   4.135   2.625 -0.2727  0.3263  0.4862
 8586SOL    HW237221   3.408   4.043   2.539 -1.4662  0.8108  0.5367
 8587SOL     OW37222   4.359   3.655  10.209  0.1984 -0.2828  0.2857
 8587SOL    HW137223   4.431   3.627  10.152 -0.2944  0.3399 -0.6396
 8587SOL    HW237224   4.311   3.726  10.166  0.4704 -1.4542 -1.8928
 8588SOL     OW37225   0.687   1.337   5.299 -0.2387  0.1261 -0.3599
 8588SOL    HW137226   0.658   1.412   5.247 -0.7451  0.2899  0.1617
 8588SOL    HW237227   0.615   1.330   5.361 -0.7593 -0.7083 -1.0544
 8589SOL     OW37228   4.102   0.690  13.016 -0.2930  0.0144 -0.0135
 8589SOL    HW137229   4.099   0.617  12.954  3.0670  1.3336 -1.7043
 8589SOL    HW237230   4.014   0.676  13.053 -0.5004 -1.3517 -1.0055
 8590SOL     OW37231   0.550   0.344   5.998 -0.8839 -0.1607 -0.5240
 8590SOL    HW137232   0.631   0.302   5.967  0.3846  0.1105  2.4421
 8590SOL    HW237233   0.549   0.344   6.094  1.8526 -3.3425 -0.4701
 8591SOL     OW37234   2.144   2.186  14.168  0.3454  0.5240  0.8136
 8591SOL    HW137235   2.094   2.255  14.211  1.8487  2.0893  0.0563
 8591SOL    HW237236   2.074   2.121  14.159  0.3543  0.6443 -0.1530
 8592SOL     OW37237   4.725   2.700  11.254 -0.0256  0.7080  0.0297
 8592SOL    HW137238   4.715   2.784  11.298  0.8338  1.1689 -0.6471
 8592SOL    HW237239   4.658   2.705  11.185 -0.2691 -1.8461  0.0667
 8593SOL     OW37240   0.928   4.702  14.366 -0.1341 -0.4080  0.1984
 8593SOL    HW137241   0.896   4.616  14.339 -0.2742 -0.3596  0.2057
 8593SOL    HW237242   0.937   0.022  14.283  0.0208  0.0778  0.4880
 8594SOL     OW37243   4.561   2.696   5.384  0.4899  0.1748 -0.3611
 8594SOL    HW137244   4.653   2.704   5.409 -0.3509  2.0459  2.1025
 8594SOL    HW237245   4.552   2.776   5.331 -0.3852  0.4338  0.1802
 8595SOL     OW37246   3.645   0.133   9.694  0.2096  0.5603 -0.0968
 8595SOL    HW137247   3.680   0.215   9.728  1.1202 -0.5140  1.5781
 8595SOL    HW237248   3.629   0.092   9.779  2.2463 -0.6148 -0.2788
 8596SOL     OW37249   2.247   3.434   7.469  0.2118  0.4992  0.3973
 8596SOL    HW137250   2.263   3.491   7.394  0.2224  3.1934  2.4606
 8596SOL    HW237251   2.169   3.391   7.433  2.8662 -3.1042 -1.0721
 8597SOL     OW37252   2.685   3.325  13.000  0.7352  0.4394 -0.3911
 8597SOL    HW137253   2.692   3.382  13.077  0.3327  1.7693 -1.3364
 8597SOL    HW237254   2.604   3.359  12.961  0.1739 -0.9124 -0.3759
 8598SOL     OW37255   2.966   2.399   3.925  0.2780  0.2588  0.3946
 8598SOL    HW137256   3.056   2.378   3.948  0.8231  2.4173  0.2338
 8598SOL    HW237257   2.974   2.493   3.905  0.6730  0.4659  1.5496
 8599SOL     OW37258   1.705   1.396   8.508 -0.1776  0.2690 -0.4485
 8599SOL    HW137259   1.773   1.330   8.494 -0.1101  0.3675 -0.5816
 8599SOL    HW237260   1.676   1.403   8.417 -0.8663 -1.7261 -0.3715
 8600SOL     OW37261   3.366   2.177  16.775 -0.2031 -0.0476 -0.0838
 8600SOL    HW137262   3.438   2.229  16.811  1.3152 -0.4568 -2.5531
 8600SOL    HW237263   3.424   2.105  16.749  0.3982 -0.1213  1.4630
 8601SOL     OW37264   3.584   0.596  14.402 -0.6998 -0.0227  0.0341
 8601SOL    HW137265   3.509   0.627  14.453 -1.3871  0.4916 -1.2748
 8601SOL    HW237266   3.545   0.535  14.339  1.4086 -0.4137 -0.8831
 8602SOL     OW37267   3.762   1.366  15.098  1.0028 -0.0508  0.0120
 8602SOL    HW137268   3.681   1.326  15.066  2.9780 -2.9854 -1.3912
 8602SOL    HW237269   3.742   1.457  15.117 -0.1005  0.0479 -1.6634
 8603SOL     OW37270   1.220   2.367  14.944  0.1450  0.7928 -0.0778
 8603SOL    HW137271   1.297   2.366  14.887  0.5410  0.0004  0.4686
 8603SOL    HW237272   1.148   2.378  14.883 -0.2107 -0.5825  0.1021
 8604SOL     OW37273   0.943   4.442   4.697  0.3676  0.0282  0.0974
 8604SOL    HW137274   0.932   4.487   4.781 -0.7118 -1.3813  0.7160
 8604SOL    HW237275   0.970   4.355   4.728  0.6500  1.1783  3.0337
 8605SOL     OW37276   2.735   3.970  15.374  0.1128 -0.2549  0.4349
 8605SOL    HW137277   2.768   4.053  15.339 -0.6701  0.9014  2.4314
 8605SOL    HW237278   2.660   3.999  15.425  0.8904  0.8120  0.9709
 8606SOL     OW37279   0.178   3.031   4.058 -0.3465 -0.2311  0.1985
 8606SOL    HW137280   0.085   3.051   4.049 -0.1619 -0.1110 -1.4154
 8606SOL    HW237281   0.182   3.041   4.153 -0.4713  2.7993 -0.1150
 8607SOL     OW37282   2.658   0.640  14.777  0.0892  0.1982 -0.6291
 8607SOL    HW137283   2.597   0.629  14.849  0.0651  0.6506 -0.5805
 8607SOL    HW237284   2.739   0.672  14.818 -1.0673  0.5046  1.4009
 8608SOL     OW37285   0.565   0.688   6.120  0.6328 -0.2675 -0.3381
 8608SOL    HW137286   0.637   0.747   6.099 -0.2513  0.6309 -0.8689
 8608SOL    HW237287   0.495   0.752   6.112 -0.7901 -1.7099  0.4728
 8609SOL     OW37288   0.096   1.420   6.263  0.2695  0.1757 -0.3309
 8609SOL    HW137289   0.130   1.424   6.174 -0.0694  0.1103 -0.4624
 8609SOL    HW237290   0.013   1.465   6.247  1.5763  2.5884 -0.2991
 8610SOL     OW37291   3.839   2.784   2.896  0.1787 -0.0274 -1.0178
 8610SOL    HW137292   3.806   2.825   2.816  0.9647 -2.3346 -2.5345
 8610SOL    HW237293   3.816   2.692   2.879 -3.5644  0.9230 -1.2760
 8611SOL     OW37294   0.213   2.035   0.330 -0.0604  0.2511 -0.6576
 8611SOL    HW137295   0.303   2.030   0.296  0.0546 -2.2064 -0.0067
 8611SOL    HW237296   0.189   2.125   0.311 -0.0471  0.4395  0.2596
 8612SOL     OW37297   0.945   2.928   6.819 -0.2173 -0.0288  0.5572
 8612SOL    HW137298   0.985   2.871   6.753  1.2410  2.1229 -0.4523
 8612SOL    HW237299   1.019   2.988   6.832 -1.3478  1.3575  0.5457
 8613SOL     OW37300   0.957   4.606   6.824 -0.0992 -0.1502  0.1340
 8613SOL    HW137301   0.941   4.684   6.878 -1.4981  0.4333 -1.0988
 8613SOL    HW237302   0.948   4.539   6.891 -1.9905  0.3548  0.3921
 8614SOL     OW37303   3.999   4.505  13.509  0.3968 -0.4128 -0.1997
 8614SOL    HW137304   4.057   4.499  13.585  0.4106  1.6482 -0.0487
 8614SOL    HW237305   4.062   4.534  13.442 -1.4439  0.4439 -1.5556
 8615SOL     OW37306   3.794   4.287   9.999 -0.2637  0.0886  0.6166
 8615SOL    HW137307   3.782   4.300   9.905 -1.0963  1.6679  0.9381
 8615SOL    HW237308   3.804   4.192   9.998 -3.0059 -0.1976 -0.8992
 8616SOL     OW37309   3.529   2.388  13.322  0.0302 -0.1722 -0.0463
 8616SOL    HW137310   3.536   2.429  13.408  1.3828  0.0951 -0.2804
 8616SOL    HW237311   3.621   2.372  13.302  0.3013  0.8158  0.4253
 8617SOL     OW37312   2.253   1.151   7.813 -0.1529 -0.3561  0.5457
 8617SOL    HW137313   2.240   1.211   7.740 -1.8093 -1.9704 -0.4937
 8617SOL    HW237314   2.238   1.072   7.761 -3.1146  0.6715 -0.2049
 8618SOL     OW37315   0.863   2.931  15.382 -0.2307 -0.2134  0.4301
 8618SOL    HW137316   0.798   2.955  15.448  0.3861  2.3041  0.1174
 8618SOL    HW237317   0.891   2.846  15.417 -0.4033  0.5762  2.5296
 8619SOL     OW37318   1.373   1.478   0.632 -0.2304  0.1125  0.1915
 8619SOL    HW137319   1.467   1.497   0.626  0.2237 -2.1322  0.0704
 8619SOL    HW237320   1.368   1.395   0.584 -1.7084 -0.4201  1.2878
 8620SOL     OW37321   3.172   1.997  17.094  0.2158  0.2388  0.0185
 8620SOL    HW137322   3.102   2.004  17.030  0.5300  1.6378 -0.1815
 8620SOL    HW237323   3.157   2.073  17.150 -2.0833  1.4512 -2.2570
 8621SOL     OW37324   4.176   0.970  12.269 -0.3051 -0.9252 -0.1949
 8621SOL    HW137325   4.269   0.960  12.290 -0.1811  0.0300 -0.3284
 8621SOL    HW237326   4.141   0.907  12.332  1.6543  0.3636  2.1872
 8622SOL     OW37327   1.162   3.318  13.812 -0.7713  0.4303  0.2934
 8622SOL    HW137328   1.187   3.226  13.817 -0.9651  0.5021  2.7080
 8622SOL    HW237329   1.130   3.328  13.723 -2.9721 -0.2650  1.0202
 8623SOL     OW37330   0.767   1.051   7.259  0.6501  0.2002  0.0052
 8623SOL    HW137331   0.716   1.132   7.259  2.0246  1.0541  0.1703
 8623SOL    HW237332   0.857   1.083   7.257  0.6332  0.0372 -3.1754
 8624SOL     OW37333   4.668   3.746   5.138 -0.2829 -0.0996  0.8829
 8624SOL    HW137334   0.032   3.719   5.142 -0.6919 -1.1600  3.0677
 8624SOL    HW237335   4.677   3.827   5.088  0.8788 -0.8144 -0.0446
 8625SOL     OW37336   2.676   4.518   2.905  0.0099 -0.2751 -1.0065
 8625SOL    HW137337   2.582   4.519   2.889  0.0094  0.9132 -0.9226
 8625SOL    HW237338   2.685   4.425   2.885 -0.0880 -0.3182 -0.8510
 8626SOL     OW37339   2.323   2.224   6.588 -0.1584  0.5555  0.1651
 8626SOL    HW137340   2.412   2.250   6.563 -0.1409  1.7413  1.4782
 8626SOL    HW237341   2.346   2.193   6.675 -0.3759  0.0721  0.0487
 8627SOL     OW37342   3.596   3.921   3.405  0.0968  0.1924 -0.6243
 8627SOL    HW137343   3.621   3.914   3.313 -0.4760  1.1239 -0.8488
 8627SOL    HW237344   3.556   3.835   3.411  1.0351 -0.0752  1.7999
 8628SOL     OW37345   1.725   0.556   4.980  0.5526  0.4000  0.1315
 8628SOL    HW137346   1.801   0.504   5.007  1.4252  0.7955 -1.5674
 8628SOL    HW237347   1.732   0.558   4.884  0.7898  1.4051  0.1676
 8629SOL     OW37348   1.057   0.650  10.990 -0.1423  0.4663 -0.0255
 8629SOL    HW137349   0.980   0.701  10.967  1.0882  2.0665 -0.6509
 8629SOL    HW237350   1.117   0.718  11.022  0.8029  0.0589 -0.9500
 8630SOL     OW37351   1.908   4.675   4.425 -0.3680  0.5744 -0.8587
 8630SOL    HW137352   1.851   4.611   4.466  2.4451 -1.2863  0.1766
 8630SOL    HW237353   1.894   0.026   4.479 -2.1767 -0.9159  0.8014
 8631SOL     OW37354   4.303   1.901   3.822  0.1360 -0.3259 -0.1000
 8631SOL    HW137355   4.393   1.873   3.838  0.2855  0.3344  0.1750
 8631SOL    HW237356   4.254   1.819   3.833 -0.4050 -0.2650 -2.1176
 8632SOL     OW37357   4.414   2.306   6.458  0.3423 -0.1966  0.0453
 8632SOL    HW137358   4.450   2.223   6.427  0.7956 -0.0369  0.1541
 8632SOL    HW237359   4.475   2.368   6.418 -0.0650  0.0037 -0.2680
 8633SOL     OW37360   3.522   3.883   7.818 -0.3485  0.2660  0.2827
 8633SOL    HW137361   3.536   3.815   7.751 -1.3622 -1.3438  1.7032
 8633SOL    HW237362   3.518   3.819   7.889  1.0625  0.3657  0.4521
 8634SOL     OW37363   0.919   2.986   5.225  0.3279 -0.5536  0.4142
 8634SOL    HW137364   0.910   2.926   5.151 -2.2447 -0.6298  0.7721
 8634SOL    HW237365   0.866   3.059   5.192  1.3712 -0.3335 -0.7845
 8635SOL     OW37366   4.076   3.369   3.569  0.2052  0.5671 -0.5360
 8635SOL    HW137367   4.157   3.406   3.533 -0.2172  1.3064 -0.7242
 8635SOL    HW237368   4.096   3.356   3.662  0.0918 -1.0757 -0.7366
 8636SOL     OW37369   3.025   1.393   8.817 -0.8089 -0.1486 -0.1480
 8636SOL    HW137370   2.940   1.348   8.813 -1.5865  1.1918  1.1947
 8636SOL    HW237371   3.024   1.440   8.734 -2.0124 -0.7520 -0.4731
 8637SOL     OW37372   4.303   3.111   8.558  0.5138 -0.0528 -0.1933
 8637SOL    HW137373   4.231   3.057   8.525  0.5393  0.6425 -1.3984
 8637SOL    HW237374   4.306   3.089   8.651 -0.0799  0.0844 -0.1451
 8638SOL     OW37375   3.659   0.680   2.107  0.2522  0.4584  0.3012
 8638SOL    HW137376   3.690   0.739   2.038  0.2569  0.3274  0.1894
 8638SOL    HW237377   3.586   0.733   2.137 -0.1681 -1.3025  2.4183
 8639SOL     OW37378   3.930   4.497  13.148  0.3120  0.2411  0.5426
 8639SOL    HW137379   3.884   4.571  13.187 -0.5946  0.4309 -0.9052
 8639SOL    HW237380   3.866   4.427  13.160  0.8639 -0.5036 -0.8886
 8640SOL     OW37381   3.258   0.500  12.429  0.3769  0.2958 -0.2475
 8640SOL    HW137382   3.187   0.465  12.482  1.5094 -0.3298  0.8481
 8640SOL    HW237383   3.304   0.560  12.487 -1.5631  0.2303  1.3583
 8641SOL     OW37384   1.248   1.001   0.517  0.3442  0.0301  0.2769
 8641SOL    HW137385   1.264   0.917   0.475  0.4082  0.4073 -0.4481
 8641SOL    HW237386   1.319   0.998   0.581 -0.2210  0.9862  0.9529
 8642SOL     OW37387   3.991   1.621   6.320  0.0028 -0.1901 -0.0026
 8642SOL    HW137388   3.958   1.704   6.285  0.8932 -0.1585 -0.7666
 8642SOL    HW237389   4.084   1.610   6.301 -0.6559 -0.0376 -3.2073
 8643SOL     OW37390   0.502   3.846   6.437  0.4057  0.1610  0.2804
 8643SOL    HW137391   0.471   3.801   6.516  0.6590 -1.7080 -0.6764
 8643SOL    HW237392   0.456   3.786   6.379 -1.8375  0.3158  1.9051
 8644SOL     OW37393   1.046   0.233  13.316  0.0129 -0.3981  0.0321
 8644SOL    HW137394   1.120   0.204  13.262 -0.5223 -2.0440  0.1669
 8644SOL    HW237395   0.973   0.211  13.258  0.0026 -0.5399  0.0992
 8645SOL     OW37396   2.294   2.345   3.035  0.4893 -0.2599  0.1195
 8645SOL    HW137397   2.376   2.297   3.037  0.8445  0.3942  0.9356
 8645SOL    HW237398   2.263   2.332   2.945  1.6842  0.4137 -0.3898
 8646SOL     OW37399   4.571   2.294   7.507 -0.4312 -0.6172  0.1133
 8646SOL    HW137400   4.600   2.244   7.431  1.8225  1.4290 -0.3660
 8646SOL    HW237401   4.507   2.228   7.536 -0.6965 -0.3918  0.0355
 8647SOL     OW37402   3.909   0.710   0.424 -0.2436 -0.1568  0.0819
 8647SOL    HW137403   3.814   0.721   0.423 -0.5716 -2.7944  1.5417
 8647SOL    HW237404   3.937   0.705   0.515 -0.3535 -1.6260  0.0357
 8648SOL     OW37405   2.696   0.699   2.274  0.6693  0.3215  0.0030
 8648SOL    HW137406   2.611   0.678   2.314  0.4786  0.7646 -0.1660
 8648SOL    HW237407   2.742   0.616   2.286  0.4444  0.2401  0.3195
 8649SOL     OW37408   0.976   1.801  13.024  0.4438  0.9278 -0.2819
 8649SOL    HW137409   1.048   1.758  12.978 -1.4502 -2.5564  0.0596
 8649SOL    HW237410   0.913   1.776  12.956  1.0013  1.2526 -0.9313
 8650SOL     OW37411   0.965   1.975   2.917  0.0138 -0.2862 -0.0608
 8650SOL    HW137412   1.019   2.007   2.844 -2.3395  2.1446 -0.7427
 8650SOL    HW237413   0.885   1.948   2.871  0.8927 -1.0060 -1.1953
 8651SOL     OW37414   3.228   4.369   1.372  0.0535  0.0829 -0.0482
 8651SOL    HW137415   3.279   4.314   1.313 -1.2204 -1.0520 -0.0899
 8651SOL    HW237416   3.190   4.429   1.309  0.2667  0.4984  0.2211
 8652SOL     OW37417   4.411   0.458   4.166 -0.5535  0.0928 -0.2269
 8652SOL    HW137418   4.480   0.481   4.229  0.3728 -1.0948 -0.8221
 8652SOL    HW237419   4.398   0.368   4.195 -1.6688  0.3918  0.1976
 8653SOL     OW37420   2.339   4.006   4.467  0.2208 -0.1718 -0.4116
 8653SOL    HW137421   2.423   4.047   4.486  0.8717 -1.1083 -1.2589
 8653SOL    HW237422   2.368   3.926   4.423  1.8135  0.1424  0.0703
 8654SOL     OW37423   2.355   1.047   3.653 -0.4598  0.0133  0.5667
 8654SOL    HW137424   2.267   1.023   3.622 -0.7655  0.1985  1.2701
 8654SOL    HW237425   2.349   1.025   3.746 -0.8206 -0.1294  0.5126
 8655SOL     OW37426   2.165   3.329   5.540  0.7394  0.0815  0.0033
 8655SOL    HW137427   2.176   3.397   5.473 -0.1781  0.6499  0.4262
 8655SOL    HW237428   2.135   3.379   5.616  0.5012 -2.7702  1.7813
 8656SOL     OW37429   2.144   1.780   4.444  0.4529  0.5326 -0.2587
 8656SOL    HW137430   2.158   1.850   4.508 -1.6139  1.9775 -1.3800
 8656SOL    HW237431   2.181   1.818   4.364 -1.0989  2.4091 -0.0839
 8657SOL     OW37432   0.327   3.265   7.172  0.1938  0.1070  0.5868
 8657SOL    HW137433   0.284   3.204   7.232  0.9755  0.5593  1.6108
 8657SOL    HW237434   0.281   3.344   7.200  3.8868  2.3380  0.3788
 8658SOL     OW37435   1.372   3.292   6.599  0.2948 -0.2672  0.3592
 8658SOL    HW137436   1.377   3.264   6.690  1.9340 -1.8262 -0.1961
 8658SOL    HW237437   1.420   3.374   6.598 -0.6931  0.3011 -0.1197
 8659SOL     OW37438   2.131   1.517   1.485 -0.1369 -0.0159 -0.2101
 8659SOL    HW137439   2.194   1.447   1.470 -1.4022 -1.3139  0.4194
 8659SOL    HW237440   2.181   1.591   1.517 -1.6746  1.4294 -1.1358
 8660SOL     OW37441   1.966   4.429  10.527 -0.0674  0.2659  0.2578
 8660SOL    HW137442   1.999   4.517  10.513  0.7188 -0.2596 -1.1756
 8660SOL    HW237443   2.031   4.382  10.475  1.0157  1.1588  0.8277
 8661SOL     OW37444   1.921   4.027   3.874 -0.4015 -0.0922  0.3398
 8661SOL    HW137445   1.963   4.099   3.922  0.9099 -1.5842  1.4364
 8661SOL    HW237446   1.878   3.969   3.937 -1.5063  1.3347  0.9250
 8662SOL     OW37447   2.318   1.854  13.101 -0.5852  0.5194 -0.5440
 8662SOL    HW137448   2.384   1.785  13.114 -0.4691  0.3723 -1.8454
 8662SOL    HW237449   2.297   1.865  13.193 -0.5561  0.0732 -0.4846
 8663SOL     OW37450   2.409   2.471   3.264  0.0663 -0.3767  0.3137
 8663SOL    HW137451   2.355   2.413   3.317  0.6277  1.3435  2.7903
 8663SOL    HW237452   2.374   2.457   3.176 -0.3370 -0.8311  0.5466
 8664SOL     OW37453   1.285   2.235   3.056  0.2349 -0.1167 -0.2563
 8664SOL    HW137454   1.365   2.198   3.094  1.2936  0.0126 -2.3305
 8664SOL    HW237455   1.290   2.328   3.076 -1.8890 -0.4069  1.5668
 8665SOL     OW37456   2.287   4.491   6.032  0.0571 -0.0431 -0.0521
 8665SOL    HW137457   2.235   4.508   6.111  0.8502 -1.3016  0.7403
 8665SOL    HW237458   2.242   4.540   5.964  0.4132 -1.1552 -1.0808
 8666SOL     OW37459   0.099   0.867   5.875  0.6294 -0.2771  0.5958
 8666SOL    HW137460   0.075   0.828   5.959 -3.8281 -1.9772 -1.4551
 8666SOL    HW237461   0.118   0.958   5.898  1.1194 -0.4580  0.8962
 8667SOL     OW37462   1.550   3.208   1.133  0.8037 -0.1013 -0.0681
 8667SOL    HW137463   1.478   3.271   1.141  1.8889  1.1317 -0.0188
 8667SOL    HW237464   1.613   3.272   1.098  3.0658 -2.7661 -0.8460
 8668SOL     OW37465   1.213   0.467   7.124 -0.4917 -0.2823 -0.0122
 8668SOL    HW137466   1.249   0.488   7.038 -1.6908 -0.8034 -0.6472
 8668SOL    HW237467   1.136   0.417   7.098 -1.3780  1.8748 -1.5183
 8669SOL     OW37468   1.710   3.713  13.982 -0.2197 -0.0066 -0.2377
 8669SOL    HW137469   1.632   3.764  14.005 -0.0643 -1.3921  3.3091
 8669SOL    HW237470   1.694   3.636  14.036 -1.6678  0.0814 -0.5340
 8670SOL     OW37471   4.049   1.080   6.122  0.3281 -0.3836  0.1441
 8670SOL    HW137472   3.982   1.148   6.133 -0.3122 -0.9328 -0.3986
 8670SOL    HW237473   4.021   1.040   6.039 -1.0790  0.5898  0.1355
 8671SOL     OW37474   3.913   4.232  15.521 -0.1685 -0.6483  0.1346
 8671SOL    HW137475   3.876   4.144  15.529  1.8372 -1.4069  1.3069
 8671SOL    HW237476   3.980   4.213  15.455 -0.7009  1.1405 -0.9145
 8672SOL     OW37477   4.246   1.600  14.469 -0.0403 -0.3384  0.1159
 8672SOL    HW137478   4.319   1.616  14.529  0.4818  2.7836 -1.3783
 8672SOL    HW237479   4.173   1.606  14.531  0.3424 -0.8498  0.6091
 8673SOL     OW37480   3.834   0.778   5.410  0.4344  0.5364  0.4616
 8673SOL    HW137481   3.898   0.711   5.435 -0.0300  1.2094  3.3843
 8673SOL    HW237482   3.889   0.827   5.349 -0.6171 -0.8103 -1.5604
 8674SOL     OW37483   2.767   4.367   9.064  0.0600  0.3276 -0.0598
 8674SOL    HW137484   2.799   4.423   8.994  1.4909  0.8263  0.9943
 8674SOL    HW237485   2.671   4.370   9.058  0.1473  0.1421 -1.4171
 8675SOL     OW37486   2.606   2.485   6.316  0.8282  0.3437 -0.1898
 8675SOL    HW137487   2.512   2.504   6.314  0.7101 -0.2413 -0.3073
 8675SOL    HW237488   2.609   2.465   6.222  1.6593 -0.8016  0.0807
 8676SOL     OW37489   2.447   0.861  13.584 -0.1076 -0.4166 -0.4198
 8676SOL    HW137490   2.504   0.813  13.524 -1.4732 -0.4885 -1.6430
 8676SOL    HW237491   2.385   0.794  13.612 -0.4963  0.5982  1.1263
 8677SOL     OW37492   0.174   2.016   4.391 -0.0563  0.0997 -0.1240
 8677SOL    HW137493   0.208   2.077   4.455 -1.7053  1.6108 -0.6890
 8677SOL    HW237494   0.200   2.062   4.311  2.3063 -1.0544 -0.0277
 8678SOL     OW37495   0.468   0.382   4.299 -0.5015 -0.3842  0.0954
 8678SOL    HW137496   0.461   0.401   4.206  0.7033 -1.4543 -0.2104
 8678SOL    HW237497   0.395   0.324   4.317 -1.3429 -0.0806 -2.4336
 8679SOL     OW37498   2.430   1.445   6.303 -0.4742 -0.0456  0.3494
 8679SOL    HW137499   2.336   1.427   6.303 -0.7147  1.2219 -0.4335
 8679SOL    HW237500   2.435   1.516   6.366  0.1522 -0.3516  0.6496
 8680SOL     OW37501   1.252   3.604   2.553 -0.4582 -0.0184  0.2545
 8680SOL    HW137502   1.175   3.578   2.603 -0.6260  0.5830  0.3081
 8680SOL    HW237503   1.266   3.695   2.582 -2.1036  0.4302 -0.3497
 8681SOL     OW37504   0.018   2.861   2.283 -0.4569 -0.0932 -0.7160
 8681SOL    HW137505   0.050   2.899   2.201  1.0869  0.7782  0.2941
 8681SOL    HW237506   0.084   2.795   2.303 -0.4550  0.1598  0.1006
 8682SOL     OW37507   0.375   0.986  16.920  0.1147  0.0035 -0.4556
 8682SOL    HW137508   0.348   1.072  16.886 -0.2528 -0.0679 -0.3419
 8682SOL    HW237509   0.346   0.919  16.859 -2.7584  2.2915 -1.6324
 8683SOL     OW37510   3.944   2.373  13.115  0.2385 -0.1601  0.4365
 8683SOL    HW137511   4.040   2.370  13.111  0.0676 -3.7094 -0.9596
 8683SOL    HW237512   3.931   2.348  13.207  0.1996 -0.8012  0.2587
 8684SOL     OW37513   3.871   3.579  14.955 -0.4390  0.4957 -0.2939
 8684SOL    HW137514   3.923   3.612  15.028 -1.8882 -0.0878  1.0060
 8684SOL    HW237515   3.894   3.635  14.881 -1.1396  2.2121  0.7987
 8685SOL     OW37516   0.874   4.073   5.918 -0.4262 -0.1103  0.1335
 8685SOL    HW137517   0.846   4.090   6.008 -0.6100  0.3356 -0.0042
 8685SOL    HW237518   0.952   4.021   5.933 -0.6612 -1.1869 -2.4996
 8686SOL     OW37519   0.565   3.733  15.469  0.0917  0.2862  0.3441
 8686SOL    HW137520   0.562   3.828  15.473  2.1726  0.3550  0.2169
 8686SOL    HW237521   0.473   3.710  15.488 -0.0791  1.6463  1.1176
 8687SOL     OW37522   2.627   2.433   1.440 -0.2220  0.2626  0.0122
 8687SOL    HW137523   2.568   2.402   1.371  0.3627 -0.8991  0.0291
 8687SOL    HW237524   2.604   2.526   1.439  1.2921  0.6425  0.8935
 8688SOL     OW37525   2.287   3.395   2.250 -0.3331  0.2656 -0.1054
 8688SOL    HW137526   2.343   3.347   2.189 -0.3881  1.3631 -1.0177
 8688SOL    HW237527   2.218   3.331   2.266 -0.0922  0.2507  0.8571
 8689SOL     OW37528   0.340   4.348   4.463 -0.2931 -0.0848 -0.1576
 8689SOL    HW137529   0.402   4.339   4.391 -1.6066  1.9914 -1.5480
 8689SOL    HW237530   0.290   4.419   4.424  2.7194  1.4443 -1.1953
 8690SOL     OW37531   4.549   0.188   1.862 -0.6531 -0.3467 -0.1039
 8690SOL    HW137532   4.558   0.182   1.767  0.6204 -1.5900  0.0951
 8690SOL    HW237533   4.635   0.162   1.895 -0.1404  1.0047 -0.3600
 8691SOL     OW37534   3.881   2.330   4.454  0.2434  0.2927 -0.3254
 8691SOL    HW137535   3.898   2.235   4.449  0.0643  0.1877  1.0518
 8691SOL    HW237536   3.791   2.337   4.483  0.0675 -0.6329 -0.6370
 8692SOL     OW37537   1.077   2.826   6.601 -0.0209 -0.5516  0.7475
 8692SOL    HW137538   1.172   2.838   6.591 -0.2785 -0.3185 -1.4232
 8692SOL    HW237539   1.059   2.746   6.553 -0.0568  0.5488 -1.0877
 8693SOL     OW37540   3.654   1.579   5.419 -0.1273  0.5309  0.8016
 8693SOL    HW137541   3.687   1.617   5.338  1.7599  0.5326  1.5699
 8693SOL    HW237542   3.730   1.547   5.468  0.2834 -0.1042 -0.2491
 8694SOL     OW37543   1.338   3.169   5.865  0.4042 -0.4873 -0.1794
 8694SOL    HW137544   1.408   3.196   5.806  0.7334  0.6607  0.7420
 8694SOL    HW237545   1.398   3.154   5.938 -1.7546  4.1872  2.5783
 8695SOL     OW37546   4.051   4.114  11.242  0.5099  0.8293  0.1076
 8695SOL    HW137547   4.060   4.051  11.171  0.2271 -0.0335  0.8333
 8695SOL    HW237548   3.959   4.140  11.243 -0.1403 -1.4987  1.1268
 8696SOL     OW37549   4.528   0.874  13.106  0.2191 -0.4402  0.2508
 8696SOL    HW137550   4.524   0.779  13.098  1.3390 -0.6541  2.3008
 8696SOL    HW237551   4.450   0.900  13.057  1.3054  2.1872 -0.1196
 8697SOL     OW37552   2.742   2.195   8.443  0.3305  0.1849  0.1458
 8697SOL    HW137553   2.701   2.275   8.477 -0.2257  0.0376 -0.1893
 8697SOL    HW237554   2.780   2.232   8.363  0.7456  0.0315  0.2738
 8698SOL     OW37555   1.479   1.695   4.226  0.7779  0.5966  0.0109
 8698SOL    HW137556   1.447   1.698   4.316  0.0381  0.0854 -0.2388
 8698SOL    HW237557   1.401   1.718   4.177 -0.3057  1.1692  2.0269
 8699SOL     OW37558   2.970   2.669   3.945 -0.5127 -0.0124 -0.0986
 8699SOL    HW137559   3.024   2.746   3.925 -1.8736  0.7617 -0.7747
 8699SOL    HW237560   2.897   2.710   3.990 -0.5060  1.4087 -1.3853
 8700SOL     OW37561   1.659   0.274  15.134  0.2169  0.2981  0.0773
 8700SOL    HW137562   1.604   0.197  15.147  0.1423 -0.1185 -2.6954
 8700SOL    HW237563   1.685   0.288  15.225 -0.1236  0.1124  0.2048
 8701SOL     OW37564   4.153   4.044   4.326 -0.1726 -0.1209  0.1454
 8701SOL    HW137565   4.229   4.046   4.268 -1.0805 -0.4451 -1.0473
 8701SOL    HW237566   4.090   3.999   4.270  0.7211  0.7889 -1.5888
 8702SOL     OW37567   2.395   1.462  11.671  0.3953 -0.3131 -0.3365
 8702SOL    HW137568   2.491   1.463  11.667  0.4815 -0.3819  1.6173
 8702SOL    HW237569   2.386   1.504  11.757 -0.3552 -1.0208 -0.0693
 8703SOL     OW37570   3.282   2.926   1.939  0.1206 -0.7311 -0.0603
 8703SOL    HW137571   3.271   2.997   2.002  2.9751 -1.4733  1.2534
 8703SOL    HW237572   3.197   2.882   1.949 -0.2641 -0.1097 -0.5804
 8704SOL     OW37573   3.513   1.279  15.059  0.1731 -0.0825  0.6509
 8704SOL    HW137574   3.438   1.267  15.117 -1.3465 -0.0323 -1.3391
 8704SOL    HW237575   3.507   1.206  14.997 -1.9074  0.1023  0.6543
 8705SOL     OW37576   2.221   1.565   7.445  0.0348  0.3510  0.0260
 8705SOL    HW137577   2.274   1.643   7.433  0.6129 -0.2034 -1.1028
 8705SOL    HW237578   2.238   1.534   7.356  2.2130  2.1119 -0.1845
 8706SOL     OW37579   1.589   3.573  16.607 -0.6722  0.3031  0.8510
 8706SOL    HW137580   1.614   3.641  16.544  0.0642 -0.1669  0.6419
 8706SOL    HW237581   1.644   3.501  16.578  1.0045  1.5890  0.8120
 8707SOL     OW37582   2.817   3.454   4.671  0.3183 -0.4841  0.1646
 8707SOL    HW137583   2.871   3.374   4.665 -1.5824 -1.8508  1.3393
 8707SOL    HW237584   2.725   3.431   4.683  0.3770 -0.6062  0.3845
 8708SOL     OW37585   2.121   4.212   2.372 -0.0071  0.3543  0.2181
 8708SOL    HW137586   2.036   4.168   2.370  0.1086  0.1367  0.0980
 8708SOL    HW237587   2.117   4.270   2.296 -0.5269 -0.6359 -0.5079
 8709SOL     OW37588   1.883   1.690  13.695  0.8608 -0.6559 -0.3693
 8709SOL    HW137589   1.788   1.689  13.686  0.9870 -3.7140 -1.2345
 8709SOL    HW237590   1.900   1.736  13.777  0.7619  1.8040 -1.7183
 8710SOL     OW37591   3.285   1.039   8.515  0.2955 -0.0833 -0.0216
 8710SOL    HW137592   3.332   1.089   8.448 -0.9317  1.2861  0.1269
 8710SOL    HW237593   3.278   1.091   8.594 -1.1167  1.0186 -0.8514
 8711SOL     OW37594   0.495   1.240   2.021  0.2681  0.2035 -0.4474
 8711SOL    HW137595   0.437   1.287   1.961 -0.1229  0.1052 -0.1459
 8711SOL    HW237596   0.436   1.172   2.054  0.4987 -0.6792 -1.8891
 8712SOL     OW37597   1.473   2.024   2.547  0.0913  0.5344 -0.2609
 8712SOL    HW137598   1.497   2.117   2.540 -1.8047  1.2366  2.7664
 8712SOL    HW237599   1.391   2.024   2.497 -0.5233  2.5409  0.7244
 8713SOL     OW37600   2.898   3.960  16.747  0.1162  0.1962 -0.0918
 8713SOL    HW137601   2.897   4.044  16.700 -0.0065 -0.1935 -0.7896
 8713SOL    HW237602   2.816   3.918  16.721  0.2957 -0.5098  0.5012
 8714SOL     OW37603   0.840   1.918   3.639  0.2579  0.0931 -0.5812
 8714SOL    HW137604   0.872   1.976   3.708 -1.5292 -0.0084  0.3541
 8714SOL    HW237605   0.796   1.851   3.692 -0.1957 -0.1004 -1.1965
 8715SOL     OW37606   2.974   0.150   5.645 -0.7279 -0.7238  0.0073
 8715SOL    HW137607   3.021   0.179   5.567  1.9168  1.8472  2.5283
 8715SOL    HW237608   3.043   0.159   5.710 -0.3673 -1.1921 -0.3075
 8716SOL     OW37609   2.735   1.891   4.601 -0.6295  0.1528  0.0462
 8716SOL    HW137610   2.693   1.810   4.630  1.2762 -0.8032  0.0774
 8716SOL    HW237611   2.790   1.901   4.679 -2.1056 -1.1604  1.2757
 8717SOL     OW37612   3.391   4.438  13.398 -0.1552 -0.5393 -0.9415
 8717SOL    HW137613   3.372   4.394  13.315  1.2934  1.0594 -2.1263
 8717SOL    HW237614   3.316   4.412  13.451 -0.2693 -1.0688 -1.3571
 8718SOL     OW37615   2.519   3.763   6.849 -0.2015  0.5417  0.3783
 8718SOL    HW137616   2.533   3.758   6.754  0.4719 -1.2343  0.5630
 8718SOL    HW237617   2.508   3.857   6.862 -2.0771  0.0929  1.9596
 8719SOL     OW37618   3.987   3.203   8.444 -0.4715  0.0361  0.1819
 8719SOL    HW137619   3.932   3.278   8.419 -2.2885 -1.4353 -0.2348
 8719SOL    HW237620   4.031   3.244   8.518  1.0939  0.4274 -0.9528
 8720SOL     OW37621   2.316   2.445  12.637  0.1010 -0.1617 -0.2815
 8720SOL    HW137622   2.311   2.540  12.646 -0.6199 -0.2830  0.6142
 8720SOL    HW237623   2.265   2.412  12.710  0.1355 -1.9178 -1.0592
 8721SOL     OW37624   2.160   0.558   5.843 -0.3946 -0.2470  0.2339
 8721SOL    HW137625   2.134   0.509   5.765 -0.8584  0.0132  0.2260
 8721SOL    HW237626   2.084   0.535   5.896 -1.2859 -0.3350 -1.0643
 8722SOL     OW37627   4.469   0.832   9.281 -0.3336  0.9798  0.5790
 8722SOL    HW137628   4.475   0.845   9.375  1.0982  0.8952  0.4882
 8722SOL    HW237629   4.558   0.803   9.262 -0.0483  1.5286  1.0756
 8723SOL     OW37630   2.217   3.076  10.328  0.1995 -0.2658  0.0639
 8723SOL    HW137631   2.145   3.018  10.305  0.0450 -0.6786  1.5704
 8723SOL    HW237632   2.246   3.108  10.243 -1.1161 -1.9511 -1.0041
 8724SOL     OW37633   0.769   3.306  10.193 -0.0786 -0.4614  0.0368
 8724SOL    HW137634   0.774   3.216  10.227 -1.4083 -0.9022 -0.9059
 8724SOL    HW237635   0.863   3.322  10.193 -0.2695  0.5952  2.7548
 8725SOL     OW37636   3.964   1.930  14.817 -0.5481 -0.5310 -0.2148
 8725SOL    HW137637   3.914   1.849  14.807  0.2367 -0.9552 -0.7278
 8725SOL    HW237638   3.978   1.910  14.909 -1.3644 -1.2938 -0.2599
 8726SOL     OW37639   3.638   1.297   6.316 -0.7788 -0.4227 -0.3359
 8726SOL    HW137640   3.615   1.330   6.229 -0.3828 -1.1990 -0.7384
 8726SOL    HW237641   3.734   1.291   6.307 -0.7044 -0.6984  0.6728
 8727SOL     OW37642   3.919   1.492   6.539 -0.4778  0.2050 -0.1228
 8727SOL    HW137643   3.961   1.537   6.465 -0.0291  1.2254  0.7472
 8727SOL    HW237644   3.847   1.551   6.561  0.4990  1.3151  0.1359
 8728SOL     OW37645   1.491   3.002   5.007 -0.0606 -0.3352 -0.6715
 8728SOL    HW137646   1.436   2.929   4.979  0.1539 -1.3665  1.5475
 8728SOL    HW237647   1.578   2.963   5.000  0.0227  0.0885 -1.9567
 8729SOL     OW37648   3.155   3.983  16.843 -0.1186 -0.1474  0.0568
 8729SOL    HW137649   3.107   3.959  16.764  0.7768 -1.4075 -0.1075
 8729SOL    HW237650   3.120   4.070  16.863  2.6679  1.5197 -2.3774
 8730SOL     OW37651   0.492   4.452   3.789 -0.1423 -0.6458  0.1623
 8730SOL    HW137652   0.580   4.460   3.827 -0.7389  1.8157  1.0494
 8730SOL    HW237653   0.449   4.420   3.869 -1.7758 -0.4177 -0.6238
 8731SOL     OW37654   3.050   3.129  14.533  0.4709 -0.9072  0.0848
 8731SOL    HW137655   3.002   3.101  14.455  0.2856 -0.4921  0.0534
 8731SOL    HW237656   3.131   3.162  14.494 -0.4292  2.2813  0.9288
 8732SOL     OW37657   1.445   0.697   5.071 -0.3382 -0.2050  0.2201
 8732SOL    HW137658   1.440   0.780   5.023 -1.3340 -0.9363 -0.9196
 8732SOL    HW237659   1.505   0.645   5.018  0.0434 -0.5817  1.0185
 8733SOL     OW37660   2.778   1.514  17.664  0.0904 -0.1151  0.2328
 8733SOL    HW137661   2.727   1.450   0.004 -1.7919 -0.0978 -1.6633
 8733SOL    HW237662   2.869   1.485  17.669  0.8945  1.9209 -2.2322
 8734SOL     OW37663   2.866   3.693   5.019  0.1081  0.0601 -0.2714
 8734SOL    HW137664   2.814   3.613   5.009  0.3689 -0.1455  0.0083
 8734SOL    HW237665   2.890   3.686   5.111 -1.4920 -1.1484  0.0598
 8735SOL     OW37666   4.408   1.779  13.827  0.3480  0.0653 -0.7267
 8735SOL    HW137667   4.332   1.737  13.869  0.0712  1.6705  0.3788
 8735SOL    HW237668   4.434   1.842  13.895  1.7184  0.2455 -1.4181
 8736SOL     OW37669   2.376   1.924  12.289  0.2977  0.4853 -0.0737
 8736SOL    HW137670   2.385   2.020  12.294  0.4397  0.5617 -1.7326
 8736SOL    HW237671   2.387   1.901  12.197  0.0192 -0.8872  0.2489
 8737SOL     OW37672   0.607   3.644   4.588  0.7465 -0.1297 -0.1670
 8737SOL    HW137673   0.634   3.552   4.595  0.7010 -0.1475 -0.2266
 8737SOL    HW237674   0.656   3.663   4.508  2.4375  0.2557  0.9527
 8738SOL     OW37675   4.416   3.203   1.026 -0.5710  0.5374  0.1852
 8738SOL    HW137676   4.428   3.244   1.111 -2.5672  0.7871  0.3609
 8738SOL    HW237677   4.408   3.110   1.047  2.0233  0.5273  1.0708
 8739SOL     OW37678   0.728   2.910   9.069 -0.0221  0.0570 -0.7826
 8739SOL    HW137679   0.766   2.992   9.100 -1.7340  0.2487  0.8223
 8739SOL    HW237680   0.773   2.843   9.120 -2.6308 -0.3560  1.0111
 8740SOL     OW37681   2.546   2.486   5.476 -0.3551  0.1439  0.1841
 8740SOL    HW137682   2.559   2.485   5.381 -0.5705 -1.5387  0.1814
 8740SOL    HW237683   2.577   2.398   5.496 -1.6192 -0.1696  0.7512
 8741SOL     OW37684   0.250   2.290   0.562 -0.0825 -0.4273 -0.4598
 8741SOL    HW137685   0.342   2.306   0.583  0.4728 -3.0176 -0.9518
 8741SOL    HW237686   0.234   2.198   0.584  0.8154 -0.3473  0.5426
 8742SOL     OW37687   0.132   3.894  10.437 -0.1879  0.6638 -0.3999
 8742SOL    HW137688   0.201   3.959  10.422  0.2377  0.1589 -0.6231
 8742SOL    HW237689   0.184   3.840  10.497 -2.7013  0.6921  1.7794
 8743SOL     OW37690   0.976   1.180  13.512 -0.2936 -0.1728 -0.3376
 8743SOL    HW137691   1.015   1.259  13.474  0.4285  0.0518  0.8715
 8743SOL    HW237692   1.010   1.186  13.601 -0.2340  0.5187 -0.4107
 8744SOL     OW37693   0.515   1.205   2.735 -0.1161  0.3617  0.0482
 8744SOL    HW137694   0.448   1.274   2.736 -1.0670 -0.5845  0.6872
 8744SOL    HW237695   0.458   1.129   2.747 -1.6951  1.5816  0.2838
 8745SOL     OW37696   1.221   1.003  10.858 -0.3659  0.0779  0.1366
 8745SOL    HW137697   1.299   1.043  10.896  0.0578  0.4772 -1.1645
 8745SOL    HW237698   1.252   0.968  10.774  1.4843 -0.6650  1.1155
 8746SOL     OW37699   0.493   0.828   3.418 -0.2601  0.0879 -0.3453
 8746SOL    HW137700   0.482   0.919   3.447  1.8832 -0.4236  2.1574
 8746SOL    HW237701   0.465   0.831   3.327 -1.0556 -1.8447 -0.1605
 8747SOL     OW37702   4.370   3.215   6.545  0.4243 -0.2987 -0.0021
 8747SOL    HW137703   4.420   3.200   6.625 -1.2712 -1.5168  0.8465
 8747SOL    HW237704   4.356   3.309   6.553 -1.6164 -0.4335 -1.8419
 8748SOL     OW37705   2.568   4.653   4.009  0.1635  0.2121 -0.0185
 8748SOL    HW137706   2.618   0.004   4.035 -1.0989  1.2431 -0.7186
 8748SOL    HW237707   2.626   4.588   4.049  1.0450  1.4512  0.7292
 8749SOL     OW37708   2.219   2.604   1.122  0.0268  0.0694  0.7282
 8749SOL    HW137709   2.286   2.540   1.143  1.4293  1.1479 -0.5050
 8749SOL    HW237710   2.186   2.568   1.039  0.4001  1.8153 -0.1722
 8750SOL     OW37711   4.189   0.669   3.804 -0.4158  0.6109 -0.2041
 8750SOL    HW137712   4.117   0.682   3.742  1.1895  0.0585 -2.2249
 8750SOL    HW237713   4.238   0.751   3.791  0.4169 -0.0236 -1.1181
 8751SOL     OW37714   4.413   4.645   8.194 -0.3496  0.7433 -0.6010
 8751SOL    HW137715   4.466   4.613   8.121 -0.7973 -2.1250  0.3430
 8751SOL    HW237716   4.479   4.706   8.225 -0.7663  1.1032 -0.4189
 8752SOL     OW37717   3.931   3.975   5.965  0.7042 -0.0149  0.3106
 8752SOL    HW137718   3.947   4.069   5.963 -1.6171  0.3745  0.5548
 8752SOL    HW237719   4.012   3.949   5.920 -0.3763 -1.1646 -0.9730
 8753SOL     OW37720   2.055   3.384   7.283 -0.3913  0.0178 -0.5118
 8753SOL    HW137721   1.992   3.311   7.286 -0.2815 -0.0459  0.3413
 8753SOL    HW237722   1.991   3.449   7.312  0.0617 -1.0964  3.0739
 8754SOL     OW37723   1.873   0.142   0.178 -0.2093 -0.5471 -0.2007
 8754SOL    HW137724   1.944   0.173   0.120 -0.8376 -0.0076 -0.6781
 8754SOL    HW237725   1.916   0.162   0.261  2.4525  0.6051 -1.8171
 8755SOL     OW37726   2.000   2.697   9.392  0.3031 -0.2364 -0.3624
 8755SOL    HW137727   1.948   2.640   9.336 -0.1218  0.9064 -1.1472
 8755SOL    HW237728   1.952   2.780   9.393  0.1394 -0.3532  1.2952
 8756SOL     OW37729   4.097   4.407   6.775 -0.5700 -0.9627 -0.2007
 8756SOL    HW137730   4.013   4.438   6.810  0.8077  2.1843  0.3251
 8756SOL    HW237731   4.074   4.322   6.739 -0.1266 -1.9238  1.8070
 8757SOL     OW37732   4.457   2.541   0.807 -0.5830  0.1238  0.7429
 8757SOL    HW137733   4.475   2.615   0.750 -1.6503  0.1182  0.3990
 8757SOL    HW237734   4.550   2.518   0.817 -1.3047 -1.9010  2.9614
 8758SOL     OW37735   3.011   2.947   1.698  0.6931 -0.5438  0.4844
 8758SOL    HW137736   3.051   2.913   1.618  2.8777  1.6464  0.6306
 8758SOL    HW237737   3.060   2.887   1.755  0.9805 -0.6752  0.0990
 8759SOL     OW37738   0.628   2.116   0.753 -0.2027 -0.4719 -0.5256
 8759SOL    HW137739   0.563   2.049   0.772  0.6104 -0.8204  1.0323
 8759SOL    HW237740   0.709   2.073   0.781 -0.1918  0.1255  0.3870
 8760SOL     OW37741   1.270   3.668  16.562 -0.2746  0.3589  1.0722
 8760SOL    HW137742   1.180   3.694  16.542 -0.4025 -1.1886 -0.3832
 8760SOL    HW237743   1.305   3.739  16.616  1.5463 -0.4576  0.9748
 8761SOL     OW37744   4.167   4.707   4.207  0.3054 -0.4376  1.0071
 8761SOL    HW137745   4.086   0.016   4.170  0.8401  0.3827  0.6529
 8761SOL    HW237746   4.183   4.634   4.147 -1.8145 -0.4545  0.4629
 8762SOL     OW37747   1.824   2.062   2.208  0.1363 -0.1842  0.2585
 8762SOL    HW137748   1.887   2.010   2.258 -0.8269 -3.5239 -1.9724
 8762SOL    HW237749   1.881   2.109   2.147  0.0145 -1.5548 -0.9279
 8763SOL     OW37750   3.584   4.496  12.859  0.0717  0.8740  0.3205
 8763SOL    HW137751   3.507   4.459  12.816  0.4157  1.1029 -0.4859
 8763SOL    HW237752   3.554   4.510  12.949 -1.8181  2.6946 -0.5976
 8764SOL     OW37753   0.580   1.705   2.302  0.3915 -0.0334  0.0652
 8764SOL    HW137754   0.671   1.685   2.324  0.2039 -1.3517 -0.3670
 8764SOL    HW237755   0.599   1.782   2.248 -0.7448  0.0919 -0.1562
 8765SOL     OW37756   2.964   2.620   4.742  0.4071  0.1757 -0.1651
 8765SOL    HW137757   2.953   2.706   4.784  0.8167 -1.1510  2.6093
 8765SOL    HW237758   2.897   2.631   4.673 -0.2246 -0.1954  0.3894
 8766SOL     OW37759   1.386   2.711  13.771  0.0249 -0.5414 -0.6640
 8766SOL    HW137760   1.432   2.791  13.796  0.4931 -0.4819 -1.7105
 8766SOL    HW237761   1.449   2.684  13.704 -0.3209  0.7363 -1.4975
 8767SOL     OW37762   2.696   4.541  13.538  0.0583 -0.9606  0.1976
 8767SOL    HW137763   2.721   4.454  13.566 -1.9888 -1.0825  1.6664
 8767SOL    HW237764   2.769   4.561  13.479 -0.1198 -0.6301  0.0854
 8768SOL     OW37765   0.178   4.531   7.879 -0.1577  0.1210  0.0064
 8768SOL    HW137766   0.270   4.553   7.865 -0.2094 -0.2747 -0.9835
 8768SOL    HW237767   0.187   4.437   7.890  0.8870 -0.0066 -1.8509
 8769SOL     OW37768   3.448   1.620   7.083 -0.4415 -0.1318 -0.0518
 8769SOL    HW137769   3.376   1.672   7.045  0.4629  1.0860 -0.1173
 8769SOL    HW237770   3.411   1.532   7.081  0.7132 -0.5958 -1.5084
 8770SOL     OW37771   0.106   4.459   4.390 -0.0782  0.3799 -0.0449
 8770SOL    HW137772   0.019   4.486   4.420 -1.3452 -1.3776 -2.1661
 8770SOL    HW237773   0.089   4.366   4.373  1.9087 -0.1729  1.0517
 8771SOL     OW37774   0.249   0.734  16.966  0.3480 -0.1268 -0.8275
 8771SOL    HW137775   0.265   0.678  17.041  0.0819  1.9825  0.7917
 8771SOL    HW237776   0.333   0.729  16.921  0.7299 -1.1601  0.0252
 8772SOL     OW37777   2.473   4.000   5.659  0.1125 -0.2659  0.6471
 8772SOL    HW137778   2.406   4.066   5.644  1.2868  0.9926  0.8909
 8772SOL    HW237779   2.485   4.016   5.753 -0.2210 -0.7334  0.7641
 8773SOL     OW37780   2.777   0.314   9.239 -0.0859 -0.6734  0.1270
 8773SOL    HW137781   2.783   0.404   9.272 -1.2146 -1.7607  3.3209
 8773SOL    HW237782   2.739   0.334   9.154  0.7481 -1.0710 -0.3389
 8774SOL     OW37783   3.796   4.037   4.498  0.2188 -0.1579  0.3806
 8774SOL    HW137784   3.833   4.121   4.527 -0.7775 -0.0677  1.3891
 8774SOL    HW237785   3.861   3.980   4.540  1.6819  0.0088 -1.6426
 8775SOL     OW37786   1.349   2.386   9.849 -0.0841  0.0703  0.3511
 8775SOL    HW137787   1.285   2.394   9.919  0.3332 -1.5121  0.8996
 8775SOL    HW237788   1.427   2.359   9.897  1.5542  2.4629 -0.9822
 8776SOL     OW37789   0.102   3.528   6.263 -0.9412 -0.1058  0.1548
 8776SOL    HW137790   0.039   3.472   6.308 -1.3498  0.2779  0.0579
 8776SOL    HW237791   0.044   3.573   6.202 -1.1686 -3.8406 -2.3950
 8777SOL     OW37792   2.886   0.661   6.023 -0.1780 -0.2945  0.2205
 8777SOL    HW137793   2.844   0.746   6.013 -0.5443 -0.6025 -0.9286
 8777SOL    HW237794   2.860   0.613   5.944 -1.3617 -0.9758  1.0074
 8778SOL     OW37795   0.275   0.556   3.156 -0.1953 -0.3254  0.0642
 8778SOL    HW137796   0.262   0.635   3.104 -0.7476  0.4677  1.4148
 8778SOL    HW237797   0.359   0.518   3.131 -0.7553 -2.7598  1.8685
 8779SOL     OW37798   3.296   2.124   2.853 -0.6666  0.0240  0.2038
 8779SOL    HW137799   3.280   2.144   2.760 -0.7928  0.3747  0.3028
 8779SOL    HW237800   3.328   2.210   2.880  0.8366 -1.4329  2.9999
 8780SOL     OW37801   3.453   0.134   2.543 -0.6033  0.0952 -0.0488
 8780SOL    HW137802   3.462   0.228   2.529 -1.6613  0.4466  1.7368
 8780SOL    HW237803   3.486   0.095   2.462  1.3094 -0.4471  0.9907
 8781SOL     OW37804   2.537   0.451   6.086 -0.0069  0.1422  0.3070
 8781SOL    HW137805   2.610   0.501   6.122 -1.0768  3.7725 -2.5376
 8781SOL    HW237806   2.507   0.404   6.163  2.1609 -2.4856 -0.4490
 8782SOL     OW37807   2.018   4.095  15.424  0.1199  0.0597  0.5904
 8782SOL    HW137808   1.944   4.105  15.363  0.3530 -0.2850  0.2473
 8782SOL    HW237809   2.076   4.168  15.399 -0.3489  0.5207  0.8591
 8783SOL     OW37810   0.368   3.235   3.453  0.1036  0.2859 -0.1023
 8783SOL    HW137811   0.312   3.269   3.384 -0.8647  0.5447  0.8007
 8783SOL    HW237812   0.323   3.154   3.477 -0.6666  1.3803  2.1502
 8784SOL     OW37813   2.364   2.151   8.547  0.1502  0.3656 -0.2168
 8784SOL    HW137814   2.405   2.212   8.608  1.0489  2.3403 -2.8034
 8784SOL    HW237815   2.313   2.103   8.612  0.4656 -1.7568 -1.5280
 8785SOL     OW37816   4.267   0.135   7.591  0.2522 -0.7152  0.6931
 8785SOL    HW137817   4.327   0.061   7.586 -0.0295 -1.0496  2.0670
 8785SOL    HW237818   4.319   0.211   7.616 -0.5295  0.7556 -2.1610
 8786SOL     OW37819   0.790   2.197   6.917  0.1445  0.1214  0.0927
 8786SOL    HW137820   0.757   2.145   6.843  1.5669 -0.7321  0.0661
 8786SOL    HW237821   0.722   2.264   6.925 -0.4701 -0.4802 -0.1369
 8787SOL     OW37822   2.942   4.326   3.467  0.2080 -0.0448 -0.4876
 8787SOL    HW137823   2.855   4.326   3.427 -0.7241 -0.4025  1.5387
 8787SOL    HW237824   2.942   4.412   3.510  0.1413 -0.4928  0.4099
 8788SOL     OW37825   0.318   0.005   6.618  0.0731 -0.0576  0.0745
 8788SOL    HW137826   0.377   0.063   6.667  0.0586  0.3881 -0.4314
 8788SOL    HW237827   0.240   0.022   6.671 -2.2573  1.1568 -3.7404
 8789SOL     OW37828   2.188   0.281   3.143  0.7141  0.1940  0.0303
 8789SOL    HW137829   2.167   0.358   3.196 -0.1767  1.4126 -2.1192
 8789SOL    HW237830   2.105   0.268   3.097 -0.7054  0.5153  2.5168
 8790SOL     OW37831   3.717   1.554   7.060 -0.2130 -0.2525 -0.4489
 8790SOL    HW137832   3.737   1.647   7.061  0.5480 -0.4230  0.3450
 8790SOL    HW237833   3.622   1.559   7.074 -0.3632  0.1341 -1.5911
 8791SOL     OW37834   1.552   4.684   6.021 -0.4121  0.3981 -0.3583
 8791SOL    HW137835   1.555   0.036   5.967  1.7383  0.9635  0.5949
 8791SOL    HW237836   1.463   4.688   6.056 -0.9145 -0.5504 -1.5122
 8792SOL     OW37837   4.112   4.717   2.965 -0.2947  0.1931 -0.5949
 8792SOL    HW137838   4.119   0.076   2.923  0.9920 -0.2707 -1.3460
 8792SOL    HW237839   4.019   4.707   2.946 -0.3679  0.4891 -0.3923
 8793SOL     OW37840   0.804   2.972  15.116 -0.3428  0.2963  0.3436
 8793SOL    HW137841   0.827   2.941  15.203  2.7923  3.1389  0.5578
 8793SOL    HW237842   0.888   2.966  15.071 -0.3211  1.0518  0.2815
 8794SOL     OW37843   2.536   4.686  14.064  0.0123  0.2653 -0.2731
 8794SOL    HW137844   2.629   4.674  14.042  0.1403  1.3313 -0.2846
 8794SOL    HW237845   2.537   4.616  14.129 -1.8440 -1.7697 -2.4271
 8795SOL     OW37846   0.432   0.222   6.736  0.1192 -0.1727  0.0449
 8795SOL    HW137847   0.403   0.300   6.784  1.6773 -0.6884  1.8315
 8795SOL    HW237848   0.518   0.216   6.778 -0.5789 -2.7000  1.0730
 8796SOL     OW37849   2.754   3.147   8.969 -0.1022 -0.2386  0.3045
 8796SOL    HW137850   2.714   3.073   9.015 -2.2244  0.5554 -0.2685
 8796SOL    HW237851   2.678   3.177   8.919 -0.2362 -0.7701  0.1888
 8797SOL     OW37852   2.170   3.522   9.478 -0.2786  0.1260 -0.3638
 8797SOL    HW137853   2.088   3.569   9.466 -0.1694  0.7778  1.3901
 8797SOL    HW237854   2.198   3.548   9.566  0.4781 -0.7032 -0.3532
 8798SOL     OW37855   4.221   2.309  11.825  0.1176 -0.4690  0.2936
 8798SOL    HW137856   4.136   2.344  11.852  0.3428 -0.2248  0.6717
 8798SOL    HW237857   4.183   2.238  11.772 -0.1125  0.4212 -0.7384
 8799SOL     OW37858   0.044   4.097  10.954 -0.7384  0.3003 -0.1150
 8799SOL    HW137859   0.108   4.028  10.937 -1.2737 -0.2778  0.1947
 8799SOL    HW237860   4.704   4.081  10.887 -0.8603 -0.9997  0.3170
 8800SOL     OW37861   3.060   2.833   5.300  0.0431  0.1759 -0.3399
 8800SOL    HW137862   3.103   2.852   5.216 -0.0306  0.9882 -0.1897
 8800SOL    HW237863   3.053   2.917   5.345 -0.6970 -0.8284  1.4238
 8801SOL     OW37864   1.699   0.105  17.672 -0.3064  0.0890  0.1968
 8801SOL    HW137865   1.769   0.115   0.027  0.3665  0.7728 -0.6378
 8801SOL    HW237866   1.664   0.016  17.684  2.2065 -0.6315  2.1756
 8802SOL     OW37867   2.536   0.734  13.949  0.0335  0.4297 -0.3467
 8802SOL    HW137868   2.528   0.789  13.871 -3.3948 -0.2512 -0.5104
 8802SOL    HW237869   2.475   0.778  14.008 -0.8135 -0.1721 -0.7627
 8803SOL     OW37870   1.966   0.573  11.774 -0.1009  0.4719 -0.2775
 8803SOL    HW137871   1.966   0.663  11.808  0.2579  0.5797 -0.5647
 8803SOL    HW237872   1.946   0.583  11.681 -1.1465  0.3829 -0.0612
 8804SOL     OW37873   4.116   0.905   5.498  0.7962  0.3773  0.6288
 8804SOL    HW137874   4.191   0.955   5.463 -0.9564  2.2454 -0.4469
 8804SOL    HW237875   4.082   0.869   5.416 -1.1574  2.5099  0.4855
 8805SOL     OW37876   1.319   0.433   1.189 -0.5049  0.6503 -0.3428
 8805SOL    HW137877   1.363   0.351   1.167 -1.4967  0.2918 -0.9894
 8805SOL    HW237878   1.322   0.435   1.284  0.9028  4.7916 -0.4649
 8806SOL     OW37879   0.862   4.170   7.064 -0.3148 -0.0401  0.3710
 8806SOL    HW137880   0.906   4.092   7.029  2.0870 -0.1411  3.5765
 8806SOL    HW237881   0.773   4.164   7.030  0.0583  1.6271 -0.8783
 8807SOL     OW37882   3.846   0.381   1.481 -0.3693 -0.6799 -0.3694
 8807SOL    HW137883   3.803   0.298   1.462  0.5058 -2.1259  3.9615
 8807SOL    HW237884   3.895   0.384   1.399  0.9341 -1.3769  0.3744
 8808SOL     OW37885   4.662   0.656   4.563 -0.4047 -0.0670 -0.2494
 8808SOL    HW137886   4.638   0.739   4.604 -1.5465 -0.6005  0.1971
 8808SOL    HW237887   0.003   0.631   4.625 -0.2837 -1.5439 -0.9603
 8809SOL     OW37888   4.303   4.421   3.246  0.0440  0.2536 -0.3219
 8809SOL    HW137889   4.321   4.467   3.164  0.5177  1.3846  0.4186
 8809SOL    HW237890   4.208   4.406   3.245  0.0679  0.2392 -1.7545
 8810SOL     OW37891   1.174   4.597   9.394 -0.7015  0.0602  0.1577
 8810SOL    HW137892   1.151   4.689   9.406 -0.8750 -0.0509  0.6765
 8810SOL    HW237893   1.152   4.557   9.478  1.2986 -1.7075 -0.1446
 8811SOL     OW37894   1.120   0.272   6.722  0.0503  0.2895  0.1984
 8811SOL    HW137895   1.125   0.288   6.817  1.4415 -0.1640  0.2002
 8811SOL    HW237896   1.212   0.258   6.702  0.2187  3.4294 -1.2931
 8812SOL     OW37897   1.384   2.439   0.223 -0.4369 -0.7214 -0.1452
 8812SOL    HW137898   1.335   2.361   0.198 -0.4814 -0.0094 -2.2810
 8812SOL    HW237899   1.305   2.491   0.232  1.0404  1.5677 -0.5160
 8813SOL     OW37900   0.712   1.875   3.234  0.2938 -0.3556  0.0295
 8813SOL    HW137901   0.753   1.850   3.152  0.2336 -0.1448 -0.0625
 8813SOL    HW237902   0.701   1.968   3.218  0.5053 -0.4731 -0.8075
 8814SOL     OW37903   1.816   1.541   4.714 -0.2523  0.3160 -1.3259
 8814SOL    HW137904   1.891   1.600   4.714  0.6379 -0.8178  0.0124
 8814SOL    HW237905   1.870   1.463   4.725 -0.3816  0.9938  3.7869
 8815SOL     OW37906   2.193   1.470  17.257 -0.1200 -0.3954  0.5388
 8815SOL    HW137907   2.183   1.525  17.179 -0.6517  1.3217  1.8097
 8815SOL    HW237908   2.173   1.531  17.329 -4.7375 -1.1098 -0.1649
 8816SOL     OW37909   0.542   1.483   5.847  0.5478 -0.1665  0.2068
 8816SOL    HW137910   0.511   1.574   5.839  1.7239  0.1473 -0.7247
 8816SOL    HW237911   0.522   1.449   5.760  2.8123 -0.2205 -0.2956
 8817SOL     OW37912   1.317   3.012   5.433 -0.0352  0.4574  0.2137
 8817SOL    HW137913   1.275   2.968   5.360  0.7523  2.3069 -1.3547
 8817SOL    HW237914   1.398   3.034   5.387 -0.8873  0.6752 -1.1919
 8818SOL     OW37915   1.469   1.543   7.950 -0.5311  0.2149 -0.4877
 8818SOL    HW137916   1.424   1.627   7.941 -0.6697  0.1884 -0.0013
 8818SOL    HW237917   1.553   1.568   7.988 -0.9540  0.5181  0.2387
 8819SOL     OW37918   2.728   0.109   4.575  0.2449 -0.5109  0.0537
 8819SOL    HW137919   2.661   0.128   4.641  0.2929  0.6326 -0.2318
 8819SOL    HW237920   2.753   0.197   4.548 -0.4965 -0.6685 -1.1164
 8820SOL     OW37921   0.937   0.463   0.722 -0.0373  0.0835 -0.4150
 8820SOL    HW137922   0.878   0.492   0.791 -1.7884 -0.8091 -1.5332
 8820SOL    HW237923   1.021   0.447   0.764 -0.6138  0.9809  1.0739
 8821SOL     OW37924   1.165   1.642  12.368 -0.4574 -0.1959 -0.2958
 8821SOL    HW137925   1.253   1.614  12.396  0.4333  0.8021 -2.0874
 8821SOL    HW237926   1.103   1.619  12.437  0.9451 -0.8825  0.7399
 8822SOL     OW37927   1.934   1.025   2.554  0.2300 -0.3848 -0.4711
 8822SOL    HW137928   1.914   1.118   2.550  1.2179 -0.1419  0.4348
 8822SOL    HW237929   1.843   0.995   2.560 -0.2234  0.6989 -1.8640
 8823SOL     OW37930   4.579   3.293   5.419 -0.3730  0.0637  0.0085
 8823SOL    HW137931   4.521   3.365   5.393  1.0560  1.2768  0.1640
 8823SOL    HW237932   4.607   3.257   5.335  0.2711 -1.1203  0.7363
 8824SOL     OW37933   4.197   0.140   3.781  0.0368 -0.0491  0.3406
 8824SOL    HW137934   4.242   0.209   3.733 -1.3198  1.5444  1.3477
 8824SOL    HW237935   4.133   0.105   3.718 -1.3520 -0.0382  1.7250
 8825SOL     OW37936   1.265   0.696   0.533 -0.6270 -0.2601 -0.4394
 8825SOL    HW137937   1.256   0.651   0.617 -2.6945 -0.9207 -1.0320
 8825SOL    HW237938   1.182   0.683   0.487 -0.1557 -1.2175 -1.0084
 8826SOL     OW37939   3.565   4.652  13.320 -0.2047 -0.5083  0.7084
 8826SOL    HW137940   3.504   4.599  13.372 -1.7002  0.9938  0.4810
 8826SOL    HW237941   3.515   4.649  13.238  3.3991 -1.0192 -1.4722
 8827SOL     OW37942   2.831   0.911   5.035  0.9350  0.5448  0.5873
 8827SOL    HW137943   2.738   0.890   5.023  0.8142  0.7706  1.1133
 8827SOL    HW237944   2.853   0.932   4.945  1.2688  1.7955  0.9573
 8828SOL     OW37945   3.250   1.873  16.504 -0.6228 -0.1020  0.3865
 8828SOL    HW137946   3.287   1.822  16.431 -0.7285  1.0906 -0.5034
 8828SOL    HW237947   3.249   1.962  16.469  1.2613  0.3370  1.4746
 8829SOL     OW37948   3.170   2.210   3.737 -0.1369  0.1580  0.0932
 8829SOL    HW137949   3.195   2.222   3.829  0.4084 -0.3553  0.0073
 8829SOL    HW237950   3.227   2.135   3.721 -0.0738  0.3325 -0.4996
 8830SOL     OW37951   3.001   0.186   4.872 -0.2589 -0.4215  0.2420
 8830SOL    HW137952   2.925   0.188   4.929 -0.5303 -0.0832 -0.1351
 8830SOL    HW237953   2.970   0.248   4.806 -0.9842 -0.9517  0.0904
 8831SOL     OW37954   0.734   2.244   4.550 -0.2376  0.1618  0.2844
 8831SOL    HW137955   0.792   2.169   4.537  1.5873  1.4199  1.1795
 8831SOL    HW237956   0.680   2.210   4.621  1.7409 -1.4907  0.9805
 8832SOL     OW37957   3.908   2.956   9.559  0.3091  0.0372 -0.7252
 8832SOL    HW137958   3.996   2.922   9.574 -0.5392 -1.7716  0.1920
 8832SOL    HW237959   3.888   2.898   9.485  1.8830 -1.6505  0.1749
 8833SOL     OW37960   3.147   3.007   8.451  0.4606 -0.8620 -0.2677
 8833SOL    HW137961   3.172   2.949   8.379  0.6919  0.0339 -0.9004
 8833SOL    HW237962   3.111   3.079   8.400 -0.1900 -1.1046 -0.1436
 8834SOL     OW37963   0.123   3.419  17.221  0.0194  0.1093 -0.1238
 8834SOL    HW137964   0.208   3.376  17.232 -0.0846  0.0081  0.3027
 8834SOL    HW237965   0.147   3.502  17.180  1.8432  0.1967  1.0902
 8835SOL     OW37966   1.482   2.240   5.467  0.6623 -0.4533 -0.4891
 8835SOL    HW137967   1.420   2.281   5.528 -1.1263 -0.2380 -2.4691
 8835SOL    HW237968   1.430   2.180   5.413  1.8032 -2.8719  1.1040
 8836SOL     OW37969   1.874   2.265   8.636  0.4436 -0.4015 -0.2388
 8836SOL    HW137970   1.849   2.220   8.555 -1.3348  0.9436 -0.4430
 8836SOL    HW237971   1.865   2.355   8.606 -1.7653 -0.7117 -0.5663
 8837SOL     OW37972   0.155   2.049   7.050 -0.1167 -0.5037  0.3650
 8837SOL    HW137973   0.187   2.123   6.999 -0.5332 -0.8634 -0.4076
 8837SOL    HW237974   0.122   1.988   6.985  1.4780 -0.4253 -0.5318
 8838SOL     OW37975   3.644   0.842   2.790  0.8032  0.3649 -0.2176
 8838SOL    HW137976   3.657   0.747   2.782 -1.6398  0.0688 -0.6899
 8838SOL    HW237977   3.719   0.880   2.745  0.9108  0.6605  0.2097
 8839SOL     OW37978   3.763   2.400   2.282 -0.5789  0.4084 -0.2874
 8839SOL    HW137979   3.741   2.458   2.209  0.8190  2.6489  1.0490
 8839SOL    HW237980   3.754   2.455   2.360 -2.2882 -0.6937  0.2686
 8840SOL     OW37981   4.673   0.734   6.372 -0.1438 -0.0356  0.3180
 8840SOL    HW137982   4.701   0.644   6.383 -1.8991 -0.3815  2.0892
 8840SOL    HW237983   4.612   0.734   6.299  0.4289  1.2779 -0.1608
 8841SOL     OW37984   1.535   2.104   7.292  0.3713 -0.2324  1.1664
 8841SOL    HW137985   1.623   2.120   7.326  0.8524 -1.7343  0.6124
 8841SOL    HW237986   1.540   2.009   7.282 -2.0895 -0.1715 -0.7981
 8842SOL     OW37987   3.161   3.051   3.066  0.8554 -0.3220 -0.0966
 8842SOL    HW137988   3.086   3.039   3.009  0.9251  0.9575 -0.4583
 8842SOL    HW237989   3.207   3.120   3.017  0.0956 -0.3604 -0.8602
 8843SOL     OW37990   2.298   3.677  17.383  0.2186  0.1086 -0.1503
 8843SOL    HW137991   2.204   3.689  17.367  0.5502 -0.5659 -2.7631
 8843SOL    HW237992   2.299   3.582  17.373  1.5976 -0.0372  1.3790
 8844SOL     OW37993   2.714   4.389   7.819  0.3430  0.1362  0.1758
 8844SOL    HW137994   2.657   4.436   7.757  0.6579  1.8223  1.1463
 8844SOL    HW237995   2.669   4.404   7.903  1.1657 -0.5773  0.7385
 8845SOL     OW37996   0.794   0.635   4.111  0.2450  1.0023  0.6054
 8845SOL    HW137997   0.749   0.676   4.185  0.2593  1.8756  0.1257
 8845SOL    HW237998   0.864   0.697   4.090 -0.1145  1.5642  1.0829
 8846SOL     OW37999   4.088   2.295   6.525  0.3078 -0.3499  0.3745
 8846SOL    HW138000   4.110   2.383   6.495 -2.1089 -0.5124 -1.8251
 8846SOL    HW238001   4.168   2.265   6.568  0.9426  0.7629 -0.0305
 8847SOL     OW38002   2.429   3.751   7.627  0.4112 -0.3015 -0.5609
 8847SOL    HW138003   2.389   3.787   7.548 -2.2612 -0.3024  0.7934
 8847SOL    HW238004   2.390   3.800   7.700  1.4467 -0.3834  0.0447
 8848SOL     OW38005   4.619   3.387  16.280 -0.4637  0.0102  0.2767
 8848SOL    HW138006   4.577   3.458  16.328 -2.9056 -1.0224 -0.3608
 8848SOL    HW238007   4.671   3.418  16.205 -0.5638  0.2349  0.2996
 8849SOL     OW38008   2.246   2.910   5.170  0.5028  0.0873  0.1226
 8849SOL    HW138009   2.274   2.989   5.215 -0.6054  0.7782 -0.4034
 8849SOL    HW238010   2.301   2.837   5.200 -1.1012 -0.1846  2.4555
 8850SOL     OW38011   1.606   0.497   3.002 -0.7317  0.0042 -0.6380
 8850SOL    HW138012   1.558   0.488   3.085  1.1377 -0.0044  0.4241
 8850SOL    HW238013   1.669   0.426   3.009 -1.5897 -0.9462 -2.3150
 8851SOL     OW38014   3.229   3.941   2.414 -0.0303 -0.4608  0.0967
 8851SOL    HW138015   3.256   3.857   2.376  0.9124 -0.1046 -0.0222
 8851SOL    HW238016   3.165   3.964   2.347 -0.7240 -0.7162  0.6681
 8852SOL     OW38017   0.991   0.247   2.532  0.6434  0.4909  0.4994
 8852SOL    HW138018   0.971   0.270   2.441 -1.8123  0.7604  1.1114
 8852SOL    HW238019   1.086   0.244   2.531  0.5467 -2.8005 -0.2023
 8853SOL     OW38020   3.403   4.508   6.466 -0.3444 -0.8102  0.1592
 8853SOL    HW138021   3.334   4.565   6.433 -0.6490 -0.5271  1.2932
 8853SOL    HW238022   3.479   4.566   6.462 -0.0706 -0.9927  3.0628
 8854SOL     OW38023   2.381   1.120  13.023  0.0267  0.4491 -0.2292
 8854SOL    HW138024   2.448   1.052  13.030 -0.1207  0.3761  0.4357
 8854SOL    HW238025   2.306   1.071  12.992 -0.4462  0.3801  1.0405
 8855SOL     OW38026   2.950   1.414  12.242  0.2701  0.2415 -0.3509
 8855SOL    HW138027   2.916   1.361  12.170  0.8462  0.8801 -1.0978
 8855SOL    HW238028   3.035   1.376  12.265  1.1868  0.6237 -3.1732
 8856SOL     OW38029   2.838   3.148   0.126 -0.6045  0.5894 -1.1797
 8856SOL    HW138030   2.813   3.235   0.158 -2.9184 -0.2579 -0.7305
 8856SOL    HW238031   2.837   3.103   0.211 -0.4292 -0.5689 -1.7968
 8857SOL     OW38032   2.528   2.189  17.509 -0.1112  0.1622 -0.2959
 8857SOL    HW138033   2.490   2.135  17.579  0.1379  0.4189  0.0398
 8857SOL    HW238034   2.495   2.278  17.525 -1.1154 -0.8568  3.3329
 8858SOL     OW38035   4.550   0.493   6.587 -0.4447  0.1716 -0.4794
 8858SOL    HW138036   4.502   0.570   6.619 -0.2397  0.0093  0.2282
 8858SOL    HW238037   4.630   0.524   6.545  1.3820  0.1361  3.0010
 8859SOL     OW38038   0.469   0.528   7.247  0.1635 -0.1351  0.0806
 8859SOL    HW138039   0.523   0.554   7.172 -1.6838 -0.7173 -1.4481
 8859SOL    HW238040   0.484   0.605   7.302  1.5291 -1.8917  2.1685
 8860SOL     OW38041   3.701   2.006  16.991  0.3356  0.4808  0.4275
 8860SOL    HW138042   3.630   1.979  16.933  3.0263  0.7116 -3.0140
 8860SOL    HW238043   3.651   2.045  17.063 -1.4550 -1.6609  0.3354
 8861SOL     OW38044   3.921   4.234   8.475  0.4528  0.2163  0.0273
 8861SOL    HW138045   3.955   4.161   8.527 -0.6580 -1.3619 -1.4826
 8861SOL    HW238046   3.950   4.202   8.390 -0.6497  1.5200 -0.8357
 8862SOL     OW38047   4.152   0.125   8.698 -0.9301 -0.5036 -0.6985
 8862SOL    HW138048   4.167   0.063   8.626  1.9178 -1.7651  0.9653
 8862SOL    HW238049   4.239   0.119   8.737 -2.0430 -4.2510  1.2464
 8863SOL     OW38050   1.682   1.334   9.775  0.0036 -0.0284  0.8337
 8863SOL    HW138051   1.592   1.310   9.800 -0.0773  0.5112  1.0682
 8863SOL    HW238052   1.698   1.316   9.682 -0.3159  1.5536  0.4727
 8864SOL     OW38053   0.394   1.869   7.096  0.0121 -0.1749  0.2255
 8864SOL    HW138054   0.335   1.944   7.096  1.0361  0.6313  0.7940
 8864SOL    HW238055   0.340   1.797   7.127 -3.0528  2.4559  1.0391
 8865SOL     OW38056   3.830   3.923  13.438 -0.7138  0.3382 -0.7954
 8865SOL    HW138057   3.785   3.913  13.522 -0.1597 -2.7422 -0.8546
 8865SOL    HW238058   3.903   3.978  13.467 -1.4087  1.3164 -0.9090
 8866SOL     OW38059   3.348   1.823  16.991  0.1111  0.2442 -0.2438
 8866SOL    HW138060   3.293   1.807  16.914  1.0059  1.2794 -1.0985
 8866SOL    HW238061   3.289   1.880  17.039 -1.1982 -0.7095 -0.7186
 8867SOL     OW38062   3.821   4.725  10.726 -0.7970 -0.2212 -0.4072
 8867SOL    HW138063   3.868   0.013  10.808 -0.3051  0.7511 -0.8665
 8867SOL    HW238064   3.851   0.070  10.671  2.2243  0.6072  2.3346
 8868SOL     OW38065   3.067   2.268  13.827  0.0338 -0.4840 -0.3019
 8868SOL    HW138066   3.057   2.206  13.900  0.1349  0.2724  0.3555
 8868SOL    HW238067   2.980   2.307  13.822 -0.9108 -2.6134 -0.1803
 8869SOL     OW38068   3.537   1.073   4.528 -0.5723  0.6345  0.0447
 8869SOL    HW138069   3.474   1.086   4.599 -0.0313  1.1577  0.4380
 8869SOL    HW238070   3.532   0.978   4.522  0.5593  0.6458 -1.2301
 8870SOL     OW38071   1.010   3.844   0.928 -0.3652  0.6160 -0.3004
 8870SOL    HW138072   1.057   3.919   0.965 -0.8105  0.6682  0.1537
 8870SOL    HW238073   0.919   3.849   0.957 -0.0810 -0.4637  0.7716
 8871SOL     OW38074   4.591   1.297   9.131  0.0836 -0.2840 -0.4369
 8871SOL    HW138075   4.609   1.299   9.037 -1.0342 -2.1124 -0.6744
 8871SOL    HW238076   4.615   1.206   9.148 -1.1949 -0.9743 -2.3220
 8872SOL     OW38077   1.302   1.942   8.710 -0.1967  0.1957 -0.3392
 8872SOL    HW138078   1.344   1.884   8.774 -1.0797  0.4980  0.5072
 8872SOL    HW238079   1.259   1.880   8.652  0.6581 -1.2202  0.5504
 8873SOL     OW38080   1.282   3.908   9.180 -0.1793 -0.1517  0.0900
 8873SOL    HW138081   1.278   3.992   9.226  0.0380  0.8374 -1.7116
 8873SOL    HW238082   1.213   3.854   9.218 -0.0682  0.4477  1.1303
 8874SOL     OW38083   2.916   3.691   7.168 -0.3431  0.3617  0.2653
 8874SOL    HW138084   2.911   3.646   7.252  1.8912 -1.1990 -0.4287
 8874SOL    HW238085   2.831   3.688   7.125 -0.9083 -0.0805  1.3980
 8875SOL     OW38086   4.333   4.329  11.453  0.1882 -0.1006 -0.1196
 8875SOL    HW138087   4.391   4.285  11.516 -0.7445  0.2544  0.9845
 8875SOL    HW238088   4.376   4.304  11.371 -1.3339  0.1747 -1.0001
 8876SOL     OW38089   4.040   4.199   8.199  0.3770 -0.2853 -0.1537
 8876SOL    HW138090   3.962   4.207   8.145 -0.8755  1.3094  1.8712
 8876SOL    HW238091   4.077   4.117   8.166  2.6345  0.1324  1.3370
 8877SOL     OW38092   2.172   0.762   4.073 -0.0516  0.0796 -0.3339
 8877SOL    HW138093   2.254   0.712   4.075 -0.9531 -1.4042 -0.4513
 8877SOL    HW238094   2.205   0.851   4.058 -1.8313  1.0811  1.6788
 8878SOL     OW38095   1.441   3.405   2.421  0.0950  0.3455 -0.4623
 8878SOL    HW138096   1.515   3.388   2.480 -0.9770  2.3001  1.4532
 8878SOL    HW238097   1.388   3.456   2.482 -0.5358 -0.5041 -0.3030
 8879SOL     OW38098   0.652   2.167  13.991  0.1285  0.3173  0.1445
 8879SOL    HW138099   0.578   2.213  14.030  0.4399  0.0271  1.0687
 8879SOL    HW238100   0.692   2.236  13.939  1.8874 -2.5533 -2.3520
 8880SOL     OW38101   1.617   0.435   7.927  0.0985 -0.0959 -0.3194
 8880SOL    HW138102   1.564   0.440   8.007  2.5841 -0.4000  1.3500
 8880SOL    HW238103   1.570   0.376   7.869  2.0284 -1.7582 -0.1847
 8881SOL     OW38104   3.008   0.507  13.742  0.4905 -0.3814 -0.0732
 8881SOL    HW138105   2.980   0.563  13.815  0.7840 -1.0053  0.5157
 8881SOL    HW238106   3.102   0.520  13.748  0.2825  1.4919 -0.9800
 8882SOL     OW38107   0.019   1.712   5.879  0.5494 -0.3502  0.0091
 8882SOL    HW138108   0.107   1.748   5.881 -0.8120  3.0140 -0.9090
 8882SOL    HW238109   4.700   1.786   5.840  1.1238  0.6953  1.3331
 8883SOL     OW38110   3.581   1.955   8.066  0.1186 -0.4483 -0.1446
 8883SOL    HW138111   3.569   1.864   8.094 -0.2877 -0.6667 -1.0046
 8883SOL    HW238112   3.601   1.997   8.150  1.8386  0.8290 -1.1764
 8884SOL     OW38113   0.502   4.233   9.339 -0.8416  0.6267  0.6731
 8884SOL    HW138114   0.524   4.237   9.246 -1.9612 -1.5213  0.3223
 8884SOL    HW238115   0.409   4.213   9.350 -0.1702 -1.8288  1.7799
 8885SOL     OW38116   4.075   1.118  11.834 -0.0790 -0.1665 -0.2017
 8885SOL    HW138117   4.005   1.179  11.813 -1.3447 -0.8699  1.9427
 8885SOL    HW238118   4.040   1.037  11.798  0.6033 -0.0957 -1.0086
 8886SOL     OW38119   1.946   0.822   1.378  0.1829 -0.2845 -0.1337
 8886SOL    HW138120   1.984   0.898   1.334  0.4651 -1.2063 -1.4923
 8886SOL    HW238121   2.002   0.751   1.348 -2.9219 -2.3887 -0.8959
 8887SOL     OW38122   3.034   2.479   4.273  0.0996  0.0563 -0.1885
 8887SOL    HW138123   3.062   2.432   4.351  0.6740  3.5355  1.6953
 8887SOL    HW238124   2.940   2.493   4.284  0.0335 -0.3111 -0.2683
 8888SOL     OW38125   0.955   2.419   7.180 -0.6071 -0.0213 -0.1104
 8888SOL    HW138126   1.050   2.416   7.172 -0.3749 -0.2973  2.6612
 8888SOL    HW238127   0.949   2.324   7.192  1.0195 -0.2434 -1.1301
 8889SOL     OW38128   3.151   3.937  12.660 -0.1013  0.2587  0.0332
 8889SOL    HW138129   3.231   3.990  12.662  0.5824 -0.7058 -1.8932
 8889SOL    HW238130   3.168   3.889  12.580 -2.4148  0.4587 -0.5821
 8890SOL     OW38131   3.697   0.043  16.789 -0.5280 -0.7503 -0.2403
 8890SOL    HW138132   3.749   0.056  16.710 -1.2462 -0.1106 -0.6019
 8890SOL    HW238133   3.630   4.705  16.766  1.5334 -3.3804  1.2075
 8891SOL     OW38134   2.989   3.049  16.624  0.0526  0.0922  0.5530
 8891SOL    HW138135   3.031   3.090  16.547 -0.9863 -1.3837 -0.8028
 8891SOL    HW238136   3.040   3.094  16.691  0.8903 -0.6834  0.4291
 8892SOL     OW38137   2.725   4.396   4.978 -0.1088  0.1396 -0.3861
 8892SOL    HW138138   2.769   4.456   5.039  0.2617  3.4988 -3.9652
 8892SOL    HW238139   2.667   4.367   5.048 -0.5301 -0.2289 -0.8969
 8893SOL     OW38140   3.305   3.269  14.533  0.1192 -0.3023  0.1162
 8893SOL    HW138141   3.388   3.224  14.547  1.1451  1.6302  0.1568
 8893SOL    HW238142   3.327   3.354  14.494  1.5360 -0.3230  0.8919
 8894SOL     OW38143   2.882   0.364  10.072  0.4324  0.0747  0.2936
 8894SOL    HW138144   2.965   0.333  10.035  1.0184  1.5178  0.4120
 8894SOL    HW238145   2.904   0.453  10.097 -3.4991  0.9423  0.6464
 8895SOL     OW38146   1.422   2.194  11.698 -0.3420 -0.1734 -0.1026
 8895SOL    HW138147   1.467   2.278  11.706 -2.2745  0.7284  1.3860
 8895SOL    HW238148   1.482   2.128  11.731  0.5628 -0.5948 -2.5560
 8896SOL     OW38149   0.335   3.520  10.558 -0.0781 -0.1343 -0.1406
 8896SOL    HW138150   0.372   3.441  10.518  0.2256 -0.0239 -0.0702
 8896SOL    HW238151   0.421   3.560  10.565  0.1403 -0.4287 -1.0628
 8897SOL     OW38152   3.493   1.567   0.089  0.0941  0.2162  0.4368
 8897SOL    HW138153   3.555   1.624   0.044 -0.9446  0.0654 -1.2274
 8897SOL    HW238154   3.442   1.623   0.147  0.7879 -0.4713  1.7247
 8898SOL     OW38155   2.605   1.352   2.659  0.0681 -0.3068  0.6298
 8898SOL    HW138156   2.528   1.304   2.690 -1.7336  0.4373 -2.6755
 8898SOL    HW238157   2.645   1.290   2.598 -2.4270 -0.8872 -0.4363
 8899SOL     OW38158   0.371   2.473   4.195  0.1060 -0.2744  0.4333
 8899SOL    HW138159   0.457   2.442   4.225  0.6425  2.9577  2.2713
 8899SOL    HW238160   0.390   2.546   4.136  0.8935 -0.1443  0.8425
 8900SOL     OW38161   1.646   0.894   7.397  0.4423  0.0739  0.0628
 8900SOL    HW138162   1.692   0.824   7.444  1.4996  1.0578  0.4987
 8900SOL    HW238163   1.706   0.911   7.324  0.2119  1.4253  0.1819
 8901SOL     OW38164   3.365   3.392  13.189 -0.5474  0.6612 -0.8508
 8901SOL    HW138165   3.406   3.463  13.240  0.8908 -0.5405 -0.3243
 8901SOL    HW238166   3.342   3.320  13.248 -1.1502  2.1612  0.7572
 8902SOL     OW38167   4.680   2.328   8.148  0.3860  0.2665 -0.3559
 8902SOL    HW138168   4.664   2.235   8.160  3.0071  0.0258  1.2360
 8902SOL    HW238169   4.603   2.362   8.103  1.9986 -0.2881 -3.5117
 8903SOL     OW38170   0.218   0.061   5.631 -0.0069 -0.3189 -0.2719
 8903SOL    HW138171   0.197   4.723   5.697  3.8823 -0.5180  0.7394
 8903SOL    HW238172   0.143   0.052   5.571 -1.7119  2.4990  1.4386
 8904SOL     OW38173   3.427   4.039   0.649 -0.0151  0.4064 -0.4581
 8904SOL    HW138174   3.466   4.006   0.569  0.7799  2.2507 -0.8349
 8904SOL    HW238175   3.433   4.134   0.637  3.6729  0.5317  2.0678
 8905SOL     OW38176   3.486   0.945  11.756 -0.3949  0.5118  0.5794
 8905SOL    HW138177   3.459   1.005  11.826  2.1360  2.2081  0.1020
 8905SOL    HW238178   3.412   0.954  11.696 -0.1665  1.2428  0.4095
 8906SOL     OW38179   2.032   1.490  12.392 -0.0456  0.0816  0.6133
 8906SOL    HW138180   1.973   1.565  12.390  0.4601  0.4435 -1.0396
 8906SOL    HW238181   2.003   1.439  12.468  2.4037 -1.7807  0.3015
 8907SOL     OW38182   0.270   2.156   1.544  0.8427 -0.6401  0.0573
 8907SOL    HW138183   0.203   2.108   1.496  1.0090  0.4261 -1.2594
 8907SOL    HW238184   0.221   2.238   1.553  1.8033  0.1323 -1.5426
 8908SOL     OW38185   1.821   0.245   5.814  0.3563  0.2043 -0.4518
 8908SOL    HW138186   1.865   0.179   5.759 -0.5318  0.1318 -1.0655
 8908SOL    HW238187   1.771   0.182   5.866 -0.5336  0.7723 -0.6388
 8909SOL     OW38188   2.389   2.740  16.031 -0.7156  0.5950  0.5991
 8909SOL    HW138189   2.310   2.749  15.979 -0.6752 -1.0254  0.2591
 8909SOL    HW238190   2.422   2.673  15.971  1.1183  0.1461  2.0817
 8910SOL     OW38191   0.178   1.129   8.965 -0.0329  0.7164  0.9274
 8910SOL    HW138192   0.272   1.120   8.951 -0.3771 -1.5010  0.0723
 8910SOL    HW238193   0.155   1.175   8.885 -0.0122 -0.6704  0.1150
 8911SOL     OW38194   2.129   0.984  13.021  0.2995 -0.8577 -0.0275
 8911SOL    HW138195   2.142   0.907  12.966 -2.0425 -2.1213  1.1927
 8911SOL    HW238196   2.035   0.978  13.038  0.4791  0.2529  1.3968
 8912SOL     OW38197   0.358   2.863   2.028  0.3511  0.3859  0.6167
 8912SOL    HW138198   0.333   2.950   1.996 -1.2834 -1.0466 -1.9816
 8912SOL    HW238199   0.416   2.900   2.095  1.6816  0.1864 -0.4083
 8913SOL     OW38200   0.241   3.099   7.377  0.4102 -0.2126 -0.2002
 8913SOL    HW138201   0.248   3.003   7.374  1.3496 -0.2085  1.7853
 8913SOL    HW238202   0.280   3.099   7.464 -2.2677  2.2144  0.9895
 8914SOL     OW38203   3.174   3.632   1.219  0.3277 -0.1313  0.3363
 8914SOL    HW138204   3.254   3.581   1.204  0.3982  0.2525 -0.6206
 8914SOL    HW238205   3.127   3.580   1.285  0.1582 -1.9264 -1.1987
 8915SOL     OW38206   4.409   2.280   3.458 -0.1758 -0.2751  0.0172
 8915SOL    HW138207   4.365   2.202   3.490  0.3830 -1.5487 -2.3051
 8915SOL    HW238208   4.413   2.268   3.363  0.7602  3.7155 -0.4385
 8916SOL     OW38209   0.585   1.241   1.716 -0.0355 -0.1873 -0.1350
 8916SOL    HW138210   0.518   1.304   1.742 -0.9669 -2.3310  2.7255
 8916SOL    HW238211   0.659   1.257   1.775 -1.1182  3.2068  0.3169
 8917SOL     OW38212   0.265   4.205   5.132 -0.9674 -0.1222  0.1723
 8917SOL    HW138213   0.347   4.253   5.143 -0.9686  0.3812 -1.8577
 8917SOL    HW238214   0.275   4.145   5.058 -0.8035  1.2399 -0.9117
 8918SOL     OW38215   2.822   1.966   0.610  0.0518  0.0798 -0.5135
 8918SOL    HW138216   2.913   1.959   0.582 -0.5582  2.2671 -3.0097
 8918SOL    HW238217   2.838   2.036   0.674  0.3242  0.4479 -0.9935
 8919SOL     OW38218   4.494   4.220   4.757 -0.1463 -0.2774 -0.1524
 8919SOL    HW138219   4.426   4.274   4.716 -1.7718 -1.4082  1.0205
 8919SOL    HW238220   4.561   4.219   4.689  1.9245  0.5496  1.8669
 8920SOL     OW38221   0.892   2.830   4.997 -0.0435 -0.4074  0.2556
 8920SOL    HW138222   0.927   2.889   4.930  1.8878  1.0279  2.5113
 8920SOL    HW238223   0.942   2.753   4.969  0.2060  0.5958 -2.0887
 8921SOL     OW38224   4.507   3.345   1.982  0.2061  0.6297  0.0578
 8921SOL    HW138225   4.460   3.266   2.007  3.1172 -0.5043  1.8280
 8921SOL    HW238226   4.600   3.328   1.994  0.4169  1.7088  0.0068
 8922SOL     OW38227   2.374   2.142  13.556  0.2074  0.1487  0.0509
 8922SOL    HW138228   2.315   2.200  13.604  2.0976 -0.7753  3.5068
 8922SOL    HW238229   2.373   2.067  13.617  0.7669 -0.5170 -0.7660
 8923SOL     OW38230   0.607   1.480   3.898 -0.0256  0.2537  0.7617
 8923SOL    HW138231   0.638   1.551   3.842 -1.3011  1.4168  1.4963
 8923SOL    HW238232   0.688   1.431   3.908  0.9798  2.0694  1.6458
 8924SOL     OW38233   4.160   3.377   2.531  0.0645 -0.0948 -0.4193
 8924SOL    HW138234   4.077   3.360   2.575  1.4064  0.8882  2.4623
 8924SOL    HW238235   4.138   3.402   2.441 -1.2839 -2.6467 -0.7864
 8925SOL     OW38236   0.448   0.303   5.060  0.0468 -0.0641 -0.1542
 8925SOL    HW138237   0.517   0.337   5.004 -0.6409  0.6250 -0.5823
 8925SOL    HW238238   0.458   0.209   5.044  1.4461 -0.0436  0.6454
 8926SOL     OW38239   2.415   0.475  13.815 -0.1795 -0.8842 -0.6428
 8926SOL    HW138240   2.495   0.435  13.779  0.4972 -1.1777  1.1814
 8926SOL    HW238241   2.393   0.544  13.752 -0.3024  0.2920  0.7080
 8927SOL     OW38242   2.002   3.420   3.435  0.0905  0.3253 -0.3661
 8927SOL    HW138243   2.068   3.354   3.460 -1.0109 -0.5148  0.3151
 8927SOL    HW238244   2.033   3.492   3.491 -1.0808 -0.9388  1.8690
 8928SOL     OW38245   1.196   1.750   4.696  0.3215  0.3454  0.0773
 8928SOL    HW138246   1.194   1.688   4.769 -0.7257  0.3951  0.0935
 8928SOL    HW238247   1.180   1.828   4.748  2.8845 -0.1129  1.5562
 8929SOL     OW38248   2.055   0.047  10.238 -0.3290  0.1308 -0.1695
 8929SOL    HW138249   2.021   0.131  10.267 -0.4007 -0.4144  1.3737
 8929SOL    HW238250   2.136   0.077  10.196 -0.4973 -1.5451 -1.6778
 8930SOL     OW38251   3.174   4.441  13.120 -0.3693 -0.5523  0.0338
 8930SOL    HW138252   3.119   4.487  13.182 -0.1064 -2.3067  1.5687
 8930SOL    HW238253   3.123   4.364  13.094 -2.4370  0.7469  0.3295
 8931SOL     OW38254   4.535   2.371   2.770 -0.3009  0.9109  0.8021
 8931SOL    HW138255   4.520   2.283   2.733 -0.1103  0.7432  1.1242
 8931SOL    HW238256   4.488   2.358   2.852  0.7576  0.4933  1.3276
 8932SOL     OW38257   3.621   3.938  16.061  0.7509 -0.0754  0.3607
 8932SOL    HW138258   3.551   3.883  16.024 -0.2474  0.5641  1.2986
 8932SOL    HW238259   3.609   4.011  16.000  1.8035 -0.6861 -0.5766
 8933SOL     OW38260   0.663   3.565  12.971  0.2441 -0.5113  0.6139
 8933SOL    HW138261   0.573   3.537  12.985  0.1200 -0.5955 -0.4156
 8933SOL    HW238262   0.655   3.602  12.884  1.6227 -0.3450  0.5573
 8934SOL     OW38263   1.617   3.354   5.023  0.0696  0.1634 -0.4227
 8934SOL    HW138264   1.686   3.345   5.089 -1.3999  0.1131  1.1200
 8934SOL    HW238265   1.546   3.390   5.076 -0.4990 -3.0173  0.9761
 8935SOL     OW38266   2.216   3.745   4.811  0.1083 -0.0200  0.2480
 8935SOL    HW138267   2.214   3.751   4.907 -0.9443  1.2684  0.1390
 8935SOL    HW238268   2.124   3.766   4.796  0.2450 -0.9357 -1.8705
 8936SOL     OW38269   2.862   0.728   9.054  0.0521 -0.5128 -0.0591
 8936SOL    HW138270   2.845   0.696   8.966 -2.2769  0.9346 -0.1333
 8936SOL    HW238271   2.865   0.822   9.040  0.9835 -0.3844  0.9839
 8937SOL     OW38272   0.891   3.193   5.560  0.1610 -0.2059 -0.3644
 8937SOL    HW138273   0.889   3.276   5.609  0.7163 -0.2567 -0.2524
 8937SOL    HW238274   0.811   3.200   5.508  0.4090  0.4681 -0.6575
 8938SOL     OW38275   1.583   4.628   4.083  0.1241  0.0837  0.1871
 8938SOL    HW138276   1.579   4.691   4.156 -2.1509  0.1655 -0.0228
 8938SOL    HW238277   1.656   4.579   4.122 -0.6109  0.0773  1.5576
 8939SOL     OW38278   4.610   0.648  11.617  0.2880  0.5030  0.4241
 8939SOL    HW138279   4.685   0.639  11.558 -1.0274  1.0630 -1.3358
 8939SOL    HW238280   4.548   0.691  11.559  0.7237  1.2225  0.4958
 8940SOL     OW38281   0.448   2.467   2.458 -0.0443  0.0489  0.0923
 8940SOL    HW138282   0.366   2.489   2.502  0.0178 -1.4209  0.9360
 8940SOL    HW238283   0.468   2.386   2.506  0.9375  0.8437  1.0373
 8941SOL     OW38284   3.837   0.042   4.190  0.0479  0.3981  0.0796
 8941SOL    HW138285   3.779   0.110   4.156 -0.2211  1.0188  1.7859
 8941SOL    HW238286   3.889   0.034   4.110  1.4108 -2.1456  1.2036
 8942SOL     OW38287   0.589   1.765   0.529 -0.3077 -0.3906 -0.1527
 8942SOL    HW138288   0.563   1.678   0.499  1.1631 -0.7915 -0.2609
 8942SOL    HW238289   0.638   1.749   0.609 -0.5751  1.0440  0.2978
 8943SOL     OW38290   3.404   0.512   2.804  0.8562  0.7036  0.1639
 8943SOL    HW138291   3.493   0.489   2.830  0.8754  0.8052  0.1883
 8943SOL    HW238292   3.359   0.484   2.884  0.3105  2.0192  0.3131
 8944SOL     OW38293   3.193   1.946   6.461  0.4295  0.2303 -1.0592
 8944SOL    HW138294   3.212   1.957   6.554  1.3494  0.0245 -1.2296
 8944SOL    HW238295   3.234   2.026   6.427 -0.2567  0.4368 -1.4076
 8945SOL     OW38296   2.542   4.414   3.726  0.1673 -0.0944  0.1599
 8945SOL    HW138297   2.580   4.475   3.789 -0.2194 -0.1557  0.4556
 8945SOL    HW238298   2.451   4.445   3.729  0.2746  0.2344 -0.0806
 8946SOL     OW38299   1.848   1.920   0.633  0.5817  0.3549 -0.1309
 8946SOL    HW138300   1.768   1.942   0.586 -1.5658 -2.2255  2.2955
 8946SOL    HW238301   1.916   1.957   0.578  3.3845 -0.8731  2.5042
 8947SOL     OW38302   4.222   0.904   0.467 -0.5833 -0.2139  0.0614
 8947SOL    HW138303   4.181   0.893   0.553  0.5897  1.8311  0.8855
 8947SOL    HW238304   4.149   0.932   0.412 -0.0892 -0.1282 -0.5505
 8948SOL     OW38305   4.573   1.168   4.837 -0.0495 -0.1689 -0.1556
 8948SOL    HW138306   4.492   1.186   4.885  1.5857  0.1418  2.5235
 8948SOL    HW238307   4.549   1.141   4.749 -0.1393  1.0279 -0.4946
 8949SOL     OW38308   4.270   1.004   9.326  0.2314  0.2065 -0.4918
 8949SOL    HW138309   4.271   1.041   9.415  1.2096  0.2142 -0.5131
 8949SOL    HW238310   4.348   0.954   9.304 -0.3270 -0.5415 -0.7435
 8950SOL     OW38311   2.194   1.976   2.067 -0.2448  0.1313 -0.3739
 8950SOL    HW138312   2.197   1.884   2.044  0.4630 -0.1034  0.6236
 8950SOL    HW238313   2.166   1.970   2.159 -0.6029  0.7392 -0.4429
 8951SOL     OW38314   4.126   2.960   4.065  0.2872 -0.3272  0.1370
 8951SOL    HW138315   4.042   2.967   4.021 -1.0621 -2.1363  2.3998
 8951SOL    HW238316   4.095   2.890   4.123  0.7219 -0.0416  0.7178
 8952SOL     OW38317   4.361   1.993   3.092  0.5386 -0.1073  0.7901
 8952SOL    HW138318   4.270   1.980   3.066  0.5059 -0.6879  1.1864
 8952SOL    HW238319   4.380   2.079   3.055  2.0898 -1.0232 -0.5548
 8953SOL     OW38320   3.512   2.385   4.265 -0.0449  0.0656  0.2360
 8953SOL    HW138321   3.536   2.474   4.290  0.5026 -0.2482  0.8607
 8953SOL    HW238322   3.428   2.394   4.311 -0.7975 -1.5053 -0.8411
 8954SOL     OW38323   1.502   2.525   7.135 -0.3534 -0.7949  0.0269
 8954SOL    HW138324   1.570   2.555   7.075  1.2742 -2.9533  0.7755
 8954SOL    HW238325   1.553   2.517   7.215  1.9248  0.6010 -1.2951
 8955SOL     OW38326   0.212   4.152   4.028  0.2870 -0.6771 -0.1398
 8955SOL    HW138327   0.187   4.241   4.051 -0.7464 -0.3065 -2.6132
 8955SOL    HW238328   0.173   4.142   3.941  2.4595 -0.4001 -1.1477
 8956SOL     OW38329   4.065   1.354   4.377  0.1262 -0.5037  0.5756
 8956SOL    HW138330   4.125   1.291   4.337 -3.0549 -1.9484 -1.8675
 8956SOL    HW238331   4.049   1.300   4.454  1.8636 -1.2118  0.4513
 8957SOL     OW38332   4.043   4.180  15.298 -0.4118  0.5241 -0.6599
 8957SOL    HW138333   3.977   4.187  15.229 -2.9423  0.7428  1.7633
 8957SOL    HW238334   4.116   4.132  15.260 -0.1664 -0.8347  1.4957
 8958SOL     OW38335   4.400   2.291   4.908  0.4669  0.8262 -0.1904
 8958SOL    HW138336   4.320   2.270   4.957  2.2530 -0.5473  2.0957
 8958SOL    HW238337   4.447   2.341   4.974  0.3601  0.0001  0.5112
 8959SOL     OW38338   3.247   1.085   6.721 -0.0238 -0.5763 -0.6124
 8959SOL    HW138339   3.342   1.070   6.725 -0.4380 -2.8288  0.8210
 8959SOL    HW238340   3.206   1.030   6.787 -0.2712 -0.4258 -0.6391
 8960SOL     OW38341   0.806   1.292   4.003 -0.1960  0.4409  0.2367
 8960SOL    HW138342   0.870   1.308   4.073 -2.4102 -3.8230  3.2114
 8960SOL    HW238343   0.788   1.200   4.019 -3.4143  1.1823  0.8247
 8961SOL     OW38344   0.851   3.653   9.113  0.0691  0.3108 -0.6558
 8961SOL    HW138345   0.796   3.583   9.080  0.3849 -1.1741  1.9466
 8961SOL    HW238346   0.930   3.633   9.063  0.9920  3.0040 -0.2750
 8962SOL     OW38347   4.260   4.453  15.357  0.1836  0.6216 -0.2098
 8962SOL    HW138348   4.203   4.412  15.292  0.3144 -1.0924  0.7383
 8962SOL    HW238349   4.230   4.417  15.440  0.5826 -5.3572 -2.6441
 8963SOL     OW38350   3.188   1.259  15.303  0.1442 -0.3310  0.5855
 8963SOL    HW138351   3.211   1.253  15.211 -0.1523  0.0347  0.4906
 8963SOL    HW238352   3.190   1.353  15.319  0.1806 -0.6686  2.5632
 8964SOL     OW38353   4.178   0.689   1.953 -0.1821 -0.0846 -0.2110
 8964SOL    HW138354   4.176   0.619   1.888  1.7794 -0.9905  0.6884
 8964SOL    HW238355   4.106   0.742   1.920  0.2945  0.2581 -0.6838
 8965SOL     OW38356   4.714   4.165   9.881 -0.4804  0.6654 -0.2742
 8965SOL    HW138357   4.680   4.076   9.892 -0.1688  0.4624 -0.9449
 8965SOL    HW238358   0.043   4.153   9.804  1.8490  0.2560  1.5179
 8966SOL     OW38359   3.452   4.520  16.410  0.0742  0.1669  0.3207
 8966SOL    HW138360   3.422   4.543  16.322 -0.1480  0.8480  0.5768
 8966SOL    HW238361   3.538   4.480  16.399 -0.3518 -0.4782 -0.7266
 8967SOL     OW38362   4.376   1.975   4.332  0.8223 -0.2203 -0.2119
 8967SOL    HW138363   4.340   2.062   4.317 -0.8623 -0.7379  0.7823
 8967SOL    HW238364   4.328   1.959   4.413  2.4878 -0.8027  0.6658
 8968SOL     OW38365   1.105   0.675   7.286  0.2210  0.1379  0.6807
 8968SOL    HW138366   1.068   0.597   7.326 -0.5927 -1.1637 -2.6453
 8968SOL    HW238367   1.159   0.639   7.216 -0.4866 -0.6163  0.5300
 8969SOL     OW38368   2.891   1.461   6.485  0.2687 -0.1599 -0.1106
 8969SOL    HW138369   2.834   1.386   6.467  0.3120 -0.3135  0.4110
 8969SOL    HW238370   2.966   1.443   6.427 -0.4987 -1.0803 -0.8216
 8970SOL     OW38371   4.309   0.305   5.226 -0.6237 -0.0526  0.0136
 8970SOL    HW138372   4.390   0.300   5.275 -0.5550 -1.3206 -0.2083
 8970SOL    HW238373   4.302   0.216   5.190  0.4853  0.3544 -1.1890
 8971SOL     OW38374   3.205   1.350  13.227  0.0648 -0.0562 -0.0953
 8971SOL    HW138375   3.221   1.443  13.213  2.6289 -0.3573  0.7264
 8971SOL    HW238376   3.288   1.346  13.275  0.1598 -1.4944 -0.3717
 8972SOL     OW38377   3.293   2.616   8.707 -0.3459 -0.3328 -0.4405
 8972SOL    HW138378   3.219   2.676   8.700 -0.8349 -0.9611 -0.7306
 8972SOL    HW238379   3.314   2.628   8.800  0.7495  0.4878 -0.7910
 8973SOL     OW38380   4.663   1.631  14.820 -0.4329 -0.2403  0.0246
 8973SOL    HW138381   4.570   1.618  14.839 -0.5403 -2.3422 -2.0590
 8973SOL    HW238382   4.698   1.634  14.909 -0.1376  2.3755 -0.1685
 8974SOL     OW38383   3.360   2.398   2.942  0.2052  0.2888 -0.5230
 8974SOL    HW138384   3.405   2.435   2.866  2.4007 -0.2261  0.5285
 8974SOL    HW238385   3.298   2.469   2.960  0.2190 -0.1494  1.3021
 8975SOL     OW38386   4.005   2.878  14.438  0.3455  0.3808 -0.0157
 8975SOL    HW138387   4.095   2.850  14.421 -0.5462 -1.0137 -2.4390
 8975SOL    HW238388   4.006   2.964  14.396 -0.3346  0.0643 -0.6848
 8976SOL     OW38389   0.827   2.789  10.591 -0.6560 -0.0394  0.3387
 8976SOL    HW138390   0.846   2.804  10.498  1.7220 -2.3667  0.4603
 8976SOL    HW238391   0.732   2.781  10.595 -0.5370  0.1478  3.3712
 8977SOL     OW38392   3.784   4.522   8.237 -0.2551  0.2226  0.0381
 8977SOL    HW138393   3.779   4.429   8.259  1.0652  0.6156  1.9299
 8977SOL    HW238394   3.860   4.544   8.290 -0.6712  1.0977  0.2802
 8978SOL     OW38395   1.168   3.428   4.922  0.4169  0.0145 -0.0409
 8978SOL    HW138396   1.223   3.359   4.884 -1.2378 -1.6097  0.4890
 8978SOL    HW238397   1.111   3.369   4.971  1.0404 -0.8953 -0.3825
 8979SOL     OW38398   4.381   2.654   3.269  0.4863  0.1866  0.0411
 8979SOL    HW138399   4.431   2.624   3.345 -0.6535  1.1059  1.1515
 8979SOL    HW238400   4.445   2.636   3.200  0.1967  1.1658 -0.4844
 8980SOL     OW38401   2.318   1.583  11.935 -0.3112 -0.2139  0.0691
 8980SOL    HW138402   2.236   1.589  11.983  0.0896  2.0193  0.4949
 8980SOL    HW238403   2.385   1.612  11.997 -1.5813 -0.2770  1.4683
 8981SOL     OW38404   2.044   3.883   6.894 -0.5146  0.0967  0.1368
 8981SOL    HW138405   1.996   3.866   6.975 -0.2433  1.8852  0.6767
 8981SOL    HW238406   1.984   3.856   6.824  0.2523  1.7943 -1.1940
 8982SOL     OW38407   1.120   2.124  16.151  0.0970 -0.3381 -0.1163
 8982SOL    HW138408   1.203   2.170  16.159  0.0868 -0.0249 -1.7458
 8982SOL    HW238409   1.051   2.191  16.151 -0.0857 -0.5246  0.9617
 8983SOL     OW38410   0.631   2.847   5.471 -0.1478  0.5468 -0.6925
 8983SOL    HW138411   0.563   2.806   5.525 -0.2499  1.4556 -0.1356
 8983SOL    HW238412   0.585   2.903   5.409 -0.3293 -0.7756 -1.7524
 8984SOL     OW38413   3.106   3.569   5.657  0.3997 -0.2333  0.0806
 8984SOL    HW138414   3.063   3.652   5.678 -1.4698 -0.9444 -0.9284
 8984SOL    HW238415   3.150   3.597   5.576 -1.3362  0.6665 -0.5591
 8985SOL     OW38416   1.668   3.897   4.588  0.2610  0.6266 -0.4878
 8985SOL    HW138417   1.715   3.920   4.669  0.6125 -1.3305 -0.1259
 8985SOL    HW238418   1.618   3.823   4.623  0.6535  1.2226  1.3291
 8986SOL     OW38419   2.299   2.404   0.470  0.3173  0.2424  0.5580
 8986SOL    HW138420   2.281   2.473   0.534  0.1543  0.0520  0.7162
 8986SOL    HW238421   2.233   2.336   0.485 -0.0882  0.7839  1.2442
 8987SOL     OW38422   3.240   2.338   1.392 -0.6454  0.4296  0.1858
 8987SOL    HW138423   3.325   2.319   1.354  0.2876  1.5963  1.6788
 8987SOL    HW238424   3.198   2.395   1.327  0.2373 -1.3089 -1.8995
 8988SOL     OW38425   2.669   3.333   7.249 -0.0682 -0.1259  0.3405
 8988SOL    HW138426   2.696   3.397   7.183  0.0660  1.1528  1.6420
 8988SOL    HW238427   2.724   3.375   7.315  0.9830 -2.3187  0.8711
 8989SOL     OW38428   2.586   0.451   1.428 -0.1443  0.1672  0.5057
 8989SOL    HW138429   2.506   0.476   1.474  0.7553 -1.0091  2.6790
 8989SOL    HW238430   2.653   0.478   1.490  1.3483  0.7327 -1.3412
 8990SOL     OW38431   3.642   4.441   3.077  0.4044  0.9271  0.2393
 8990SOL    HW138432   3.561   4.458   3.125  0.4922  2.3035 -0.1224
 8990SOL    HW238433   3.620   4.476   2.991 -0.7031  0.4695  0.3350
 8991SOL     OW38434   4.495   0.324   6.872  0.0001  0.0425  0.1887
 8991SOL    HW138435   4.471   0.232   6.864 -0.1096 -0.1237  2.3784
 8991SOL    HW238436   4.586   0.321   6.901 -0.1188  0.8526  0.6451
 8992SOL     OW38437   1.661   3.987   2.135 -0.2685  0.0612  0.5848
 8992SOL    HW138438   1.634   4.042   2.062  0.5320 -0.0774  0.1848
 8992SOL    HW238439   1.675   4.063   2.191 -2.1797  1.1286 -0.4023
 8993SOL     OW38440   3.218   3.333   4.385  0.6325 -0.5997 -0.0820
 8993SOL    HW138441   3.191   3.333   4.294 -0.6201  0.2353  0.2991
 8993SOL    HW238442   3.138   3.312   4.432  1.4283  1.2074  2.0921
 8994SOL     OW38443   4.318   1.401   7.392  0.3524  0.0004 -0.0089
 8994SOL    HW138444   4.342   1.463   7.323 -1.8704 -0.3278 -1.0793
 8994SOL    HW238445   4.318   1.455   7.471 -0.7441 -0.3352  0.2310
 8995SOL     OW38446   2.196   2.240  15.139 -0.0565 -0.0775  0.3000
 8995SOL    HW138447   2.129   2.259  15.073  0.8106  1.0909 -0.2344
 8995SOL    HW238448   2.147   2.277  15.213 -0.6431 -1.3574  0.5420
 8996SOL     OW38449   1.497   2.436   8.229 -0.0850 -0.2222  0.3918
 8996SOL    HW138450   1.497   2.502   8.160 -1.5517 -1.2002 -0.5644
 8996SOL    HW238451   1.414   2.449   8.274 -0.3345 -1.8194  0.4165
 8997SOL     OW38452   1.702   3.125   6.296  0.1669  0.2736 -0.0419
 8997SOL    HW138453   1.620   3.133   6.344  0.4804 -0.5549  0.6456
 8997SOL    HW238454   1.715   3.030   6.302  0.0583  0.2795  0.2870
 8998SOL     OW38455   2.237   1.377  10.262  0.4972  0.0520  0.2888
 8998SOL    HW138456   2.293   1.449  10.231 -0.1786  0.0860 -0.8593
 8998SOL    HW238457   2.207   1.395  10.351  2.1869 -1.6348  1.1948
 8999SOL     OW38458   2.589   4.560   2.285  0.1867 -0.0243 -0.1255
 8999SOL    HW138459   2.630   4.556   2.199 -0.6261  2.9282 -0.6163
 8999SOL    HW238460   2.552   4.471   2.289  0.1421 -0.0288 -0.6361
 9000SOL     OW38461   4.138   2.828   3.637  0.2891 -0.3458  0.3243
 9000SOL    HW138462   4.160   2.921   3.624  2.1022 -0.9284 -0.8793
 9000SOL    HW238463   4.225   2.788   3.638 -0.0953 -1.2126 -0.5764
 9001SOL     OW38464   0.567   2.734   6.793 -0.4227  0.5236  0.0827
 9001SOL    HW138465   0.538   2.781   6.871 -3.3328 -0.6547 -0.2926
 9001SOL    HW238466   0.521   2.768   6.717  1.8111  1.2379 -0.9559
 9002SOL     OW38467   3.234   2.589   8.974 -0.0242 -0.2817  0.4348
 9002SOL    HW138468   3.173   2.627   9.036  0.7780  1.8241 -0.0788
 9002SOL    HW238469   3.202   2.500   8.990  1.3636 -0.9374 -0.4196
 9003SOL     OW38470   1.196   0.469   5.799 -0.0828 -0.0658  0.2228
 9003SOL    HW138471   1.137   0.430   5.864 -0.3375  1.9933  1.2052
 9003SOL    HW238472   1.131   0.522   5.753  0.0021 -2.1888 -2.3387
 9004SOL     OW38473   2.010   1.705   4.677 -0.2638 -0.2561  0.0035
 9004SOL    HW138474   2.044   1.717   4.588 -1.5946 -1.4001 -0.6591
 9004SOL    HW238475   2.083   1.744   4.726  0.2125 -0.7519 -0.3062
 9005SOL     OW38476   1.210   1.936   5.951  0.2431  0.2114  0.0100
 9005SOL    HW138477   1.146   1.904   6.015  0.5280  0.7922  0.5813
 9005SOL    HW238478   1.268   1.991   6.004  1.6883 -0.8720 -0.4430
 9006SOL     OW38479   3.092   2.630   6.991 -0.7964  0.2188  0.0805
 9006SOL    HW138480   3.022   2.687   6.960 -0.5480 -0.2260 -1.2870
 9006SOL    HW238481   3.165   2.691   6.986 -0.6702  0.0616  0.0128
 9007SOL     OW38482   3.193   3.890   4.291  0.5678 -0.1207  0.1039
 9007SOL    HW138483   3.125   3.826   4.311  1.3507 -1.1708 -0.5569
 9007SOL    HW238484   3.196   3.938   4.374 -0.3516 -0.1244  0.1374
 9008SOL     OW38485   2.526   3.780   6.271 -0.2445 -0.3255 -0.3643
 9008SOL    HW138486   2.565   3.861   6.239  0.5765 -0.2740  0.7826
 9008SOL    HW238487   2.437   3.813   6.285 -0.7685 -1.3438 -1.2390
 9009SOL     OW38488   2.448   3.949  10.072 -0.6621  0.4236 -0.9051
 9009SOL    HW138489   2.473   3.898   9.995  1.4414 -0.1545  0.1711
 9009SOL    HW238490   2.534   3.942  10.114 -1.1388 -1.0412 -0.1860
 9010SOL     OW38491   1.555   1.894   5.337  0.6483 -0.3322  0.4752
 9010SOL    HW138492   1.612   1.935   5.272 -0.8215 -1.4430 -1.4986
 9010SOL    HW238493   1.613   1.836   5.386 -0.2862 -0.9067  0.8823
 9011SOL     OW38494   2.957   3.449   3.619  0.4413 -0.2030 -0.2533
 9011SOL    HW138495   3.026   3.514   3.631 -0.2574  0.8398 -2.0182
 9011SOL    HW238496   2.889   3.501   3.578  0.4665  1.5175  1.8489
 9012SOL     OW38497   2.061   0.189   7.534  0.5390  0.0371 -0.1966
 9012SOL    HW138498   2.028   0.163   7.448 -0.8016  2.9523 -0.5788
 9012SOL    HW238499   2.091   0.109   7.576  0.7984 -0.6547 -1.6912
 9013SOL     OW38500   2.866   3.100   3.960 -0.5824  0.2312  0.4009
 9013SOL    HW138501   2.774   3.128   3.959 -0.1440  1.6263 -0.7640
 9013SOL    HW238502   2.897   3.101   3.870 -0.3635 -1.4775  0.4515
 9014SOL     OW38503   0.793   2.047   2.348 -0.5264  0.0816  0.8922
 9014SOL    HW138504   0.727   2.008   2.290  1.5984  1.2952 -2.3162
 9014SOL    HW238505   0.756   2.028   2.434  3.0127 -2.7138  1.8186
 9015SOL     OW38506   0.608   4.021   2.046  0.0216  0.8839  0.0091
 9015SOL    HW138507   0.577   3.987   1.963 -0.5001 -1.5132  1.1864
 9015SOL    HW238508   0.674   3.958   2.074  0.7391  2.3065  1.5516
 9016SOL     OW38509   3.763   3.217   6.447  0.0988  0.2635 -0.1026
 9016SOL    HW138510   3.688   3.169   6.481 -0.6351  1.9733  0.7437
 9016SOL    HW238511   3.745   3.307   6.477 -0.1090  0.9715 -2.3162
 9017SOL     OW38512   0.920   4.470   8.255 -0.1306 -0.1029 -0.1755
 9017SOL    HW138513   0.931   4.551   8.206 -0.9486  1.2855  1.9549
 9017SOL    HW238514   0.915   4.493   8.348  0.3535  0.6601 -0.3369
 9018SOL     OW38515   2.302   0.368  13.388  0.1448  0.1135 -0.2539
 9018SOL    HW138516   2.317   0.449  13.338 -0.3881  0.4491  0.1319
 9018SOL    HW238517   2.361   0.311  13.338 -0.7052  1.3950 -2.7081
 9019SOL     OW38518   0.526   1.882   3.423  0.2717  0.0627 -0.4484
 9019SOL    HW138519   0.459   1.860   3.358  0.1206 -1.8974  0.3411
 9019SOL    HW238520   0.604   1.887   3.367  0.4891 -1.7082 -0.3047
 9020SOL     OW38521   2.016   2.512   8.496  0.0010  0.1581 -0.0158
 9020SOL    HW138522   1.944   2.575   8.504 -1.2715 -1.2597 -0.2772
 9020SOL    HW238523   2.029   2.500   8.402  1.3297  1.4637 -0.0066
 9021SOL     OW38524   2.953   4.237   7.425  0.3759  0.1466  0.0116
 9021SOL    HW138525   3.031   4.214   7.374 -1.4400 -1.5589 -1.9816
 9021SOL    HW238526   2.938   4.149   7.459  3.0097  0.4559  1.9751
 9022SOL     OW38527   3.677   3.316   5.509  0.1845  0.5255 -0.3093
 9022SOL    HW138528   3.717   3.299   5.424 -1.8242  1.9609 -1.5331
 9022SOL    HW238529   3.588   3.282   5.497  0.4553 -0.4444  0.4084
 9023SOL     OW38530   4.242   2.173   4.228 -0.0295 -0.1884  0.4086
 9023SOL    HW138531   4.248   2.233   4.154  0.1496 -0.0417  0.5413
 9023SOL    HW238532   4.173   2.121   4.185  1.2585 -1.1281 -0.5020
 9024SOL     OW38533   4.088   2.799   8.877  0.4974  0.3179 -0.4218
 9024SOL    HW138534   4.042   2.752   8.807  0.1048 -0.9944  0.7140
 9024SOL    HW238535   4.014   2.825   8.932 -0.1292 -1.2517 -0.5351
 9025SOL     OW38536   3.625   3.594   4.669 -0.0648  0.2789  0.5217
 9025SOL    HW138537   3.627   3.549   4.585  0.0406  2.0795 -0.4521
 9025SOL    HW238538   3.531   3.595   4.688 -0.3925 -1.1562 -1.1114
 9026SOL     OW38539   0.135   0.841   9.711 -0.0473  0.0289  0.1225
 9026SOL    HW138540   0.224   0.839   9.746 -0.7796 -0.9122  1.9657
 9026SOL    HW238541   0.138   0.916   9.651  1.0424 -0.6158 -0.6401
 9027SOL     OW38542   1.999   0.410   3.488  0.2723  0.0887 -0.2308
 9027SOL    HW138543   2.085   0.377   3.516 -0.0876 -0.6114  0.0464
 9027SOL    HW238544   1.999   0.483   3.549 -2.1710 -0.9569  0.9975
 9028SOL     OW38545   1.298   3.903   6.459 -0.2951  0.3286  0.0189
 9028SOL    HW138546   1.310   3.929   6.550  1.3435 -1.9899  0.4902
 9028SOL    HW238547   1.213   3.939   6.433 -0.3567 -1.2840 -2.0039
 9029SOL     OW38548   0.126   2.054   2.101  0.5949 -0.4081 -0.2812
 9029SOL    HW138549   0.050   2.028   2.154  0.8045 -2.9499 -1.2051
 9029SOL    HW238550   0.198   2.017   2.152  0.5625 -0.8067 -0.5233
 9030SOL     OW38551   0.547   4.430   6.848 -0.0097  0.2872  0.1463
 9030SOL    HW138552   0.545   4.490   6.923 -1.9356  1.0643 -0.5408
 9030SOL    HW238553   0.563   4.482   6.769 -0.4189  0.1332 -0.0351
 9031SOL     OW38554   3.086   1.363  14.314  0.1466  0.0166 -0.2083
 9031SOL    HW138555   3.092   1.341  14.407  1.5156  1.2844  0.0011
 9031SOL    HW238556   3.161   1.307  14.294 -2.2155 -2.9986 -0.7107
 9032SOL     OW38557   1.405   4.389   7.017 -0.1422  0.4370  0.3006
 9032SOL    HW138558   1.378   4.480   7.003 -1.3525 -0.4293 -3.0996
 9032SOL    HW238559   1.405   4.379   7.112 -2.2955 -1.8993  0.0569
 9033SOL     OW38560   2.724   2.145  15.041  0.6775  0.1913  0.2731
 9033SOL    HW138561   2.638   2.163  15.079  0.6414 -2.2115  1.3137
 9033SOL    HW238562   2.733   2.214  14.975 -1.2995  0.8264  0.6714
 9034SOL     OW38563   3.436   0.912   7.422  1.0618  0.2453  0.5546
 9034SOL    HW138564   3.467   0.898   7.332  0.2129 -1.4349  0.5235
 9034SOL    HW238565   3.485   0.846   7.470  1.2428 -2.1525 -2.9646
 9035SOL     OW38566   4.632   2.138   3.696  0.0495  0.1950  0.0793
 9035SOL    HW138567   4.629   2.209   3.760  1.1501 -0.8978  1.3506
 9035SOL    HW238568   4.594   2.183   3.621  0.0243  1.7625  1.0490
 9036SOL     OW38569   3.106   0.661   3.023  0.4557 -0.1759  0.6834
 9036SOL    HW138570   3.013   0.650   3.001  1.0677 -2.9967 -0.5498
 9036SOL    HW238571   3.141   0.712   2.950 -0.2474 -0.2242  0.3081
 9037SOL     OW38572   2.439   3.425   4.364  0.4133  0.0476  0.7621
 9037SOL    HW138573   2.345   3.443   4.358  0.1084 -1.5087  0.7419
 9037SOL    HW238574   2.460   3.478   4.287 -3.5218 -3.2227 -2.5846
 9038SOL     OW38575   4.028   2.710   7.525 -0.4097 -0.2109 -0.4686
 9038SOL    HW138576   3.993   2.722   7.436  0.5959  3.0503 -0.4236
 9038SOL    HW238577   4.122   2.723   7.508 -0.2489 -1.5889 -0.6367
 9039SOL     OW38578   3.839   1.007   2.642 -0.1909  0.1081  0.1629
 9039SOL    HW138579   3.888   1.034   2.719  0.8244 -0.6650 -0.2073
 9039SOL    HW238580   3.906   0.951   2.602  0.3811  0.8084  0.1244
 9040SOL     OW38581   0.902   1.645   2.410  0.3974 -0.0596  0.3132
 9040SOL    HW138582   0.841   1.627   2.482 -1.3135 -0.9252 -1.3518
 9040SOL    HW238583   0.967   1.575   2.415  0.5878  0.0379 -0.8128
 9041SOL     OW38584   2.573   1.200   1.593 -0.4347 -0.6131 -0.0014
 9041SOL    HW138585   2.591   1.274   1.650  1.6938 -1.7125  0.7170
 9041SOL    HW238586   2.550   1.134   1.658 -2.6000 -0.4682 -0.6133
 9042SOL     OW38587   3.921   0.236   6.363 -0.2914 -0.3085  0.5275
 9042SOL    HW138588   3.973   0.314   6.383 -1.0765  0.5177 -0.6755
 9042SOL    HW238589   3.989   0.169   6.372 -2.0060 -2.1337 -0.1774
 9043SOL     OW38590   1.768   2.804   4.982  0.6356  0.0026 -0.4369
 9043SOL    HW138591   1.722   2.725   4.954  0.4522 -0.3092  0.7277
 9043SOL    HW238592   1.847   2.770   5.023 -1.4341 -3.9445  0.2215
 9044SOL     OW38593   1.273   4.121   3.164 -0.2585 -0.0088 -0.7163
 9044SOL    HW138594   1.301   4.208   3.136  2.2472 -0.8825 -1.0173
 9044SOL    HW238595   1.217   4.099   3.089 -0.8815 -2.1330  0.3854
 9045SOL     OW38596   2.120   3.719   0.469  0.0347  0.2412 -0.1372
 9045SOL    HW138597   2.153   3.632   0.493 -1.0702 -0.1898 -0.1892
 9045SOL    HW238598   2.072   3.711   0.387  0.0876 -1.0905 -0.0386
 9046SOL     OW38599   2.949   1.595  16.365 -0.1154 -0.8499 -0.2605
 9046SOL    HW138600   3.026   1.573  16.418 -1.5329 -2.9650  0.9284
 9046SOL    HW238601   2.990   1.646  16.295 -0.7248 -0.1942 -0.1296
 9047SOL     OW38602   0.646   1.291   7.001 -0.5947 -0.2302 -0.1004
 9047SOL    HW138603   0.606   1.292   7.089  1.0553  0.1054  0.6399
 9047SOL    HW238604   0.636   1.384   6.982  1.0728  0.0335  0.2861
 9048SOL     OW38605   0.468   2.072   8.337  0.3590  0.1862  0.1359
 9048SOL    HW138606   0.478   2.067   8.432 -0.1784  1.5033  0.2549
 9048SOL    HW238607   0.424   2.157   8.333  0.6107  0.2547 -1.1997
 9049SOL     OW38608   3.241   3.831   7.833 -0.3378 -0.2638  0.0650
 9049SOL    HW138609   3.222   3.891   7.761 -1.2216  0.6536  1.0687
 9049SOL    HW238610   3.328   3.857   7.862 -0.8316 -0.9370  2.2015
 9050SOL     OW38611   3.173   3.409   8.102  0.0834  0.1075  0.1581
 9050SOL    HW138612   3.182   3.435   8.010 -0.2628 -0.8490 -0.1422
 9050SOL    HW238613   3.237   3.460   8.152  1.0858 -0.7640 -0.2338
 9051SOL     OW38614   2.330   2.248   8.948 -0.9700  0.3638 -0.2384
 9051SOL    HW138615   2.404   2.226   9.005  0.7237  1.6003 -1.9694
 9051SOL    HW238616   2.278   2.170   8.963  1.6056 -1.1033  1.2336
 9052SOL     OW38617   2.937   0.030   7.596 -0.5053  0.5901  0.3180
 9052SOL    HW138618   2.920   4.721   7.683 -1.0400  0.9896  0.3805
 9052SOL    HW238619   2.936   4.679   7.541 -1.9615 -0.3357  1.6733
 9053SOL     OW38620   2.868   2.211   6.537 -0.6677 -0.2532  0.5820
 9053SOL    HW138621   2.858   2.129   6.488  1.0953  0.4272 -0.9372
 9053SOL    HW238622   2.899   2.176   6.621 -1.6050  2.0628  1.8599
 9054SOL     OW38623   2.278   0.724   8.824  0.0793 -0.5272 -0.9777
 9054SOL    HW138624   2.250   0.650   8.771 -0.4628 -0.2623 -1.0670
 9054SOL    HW238625   2.300   0.778   8.749  0.9625 -2.3249 -1.9883
 9055SOL     OW38626   3.937   3.058  12.990 -0.3228 -0.0642  0.8816
 9055SOL    HW138627   3.919   3.149  13.014 -1.7485  0.1885 -1.1877
 9055SOL    HW238628   3.907   3.051  12.900 -0.0157  0.2126  0.7576
 9056SOL     OW38629   2.280   2.000   4.553 -0.0433 -0.5507 -0.5227
 9056SOL    HW138630   2.332   2.069   4.512 -1.0257  0.5929  0.1631
 9056SOL    HW238631   2.349   1.935   4.568  0.7791  0.2233 -0.9629
 9057SOL     OW38632   0.654   2.157   8.834 -0.3517 -0.3062  0.4562
 9057SOL    HW138633   0.706   2.092   8.880  1.3264  0.1131 -0.8374
 9057SOL    HW238634   0.642   2.225   8.901  0.2650 -0.3833  0.6427
 9058SOL     OW38635   0.117   3.527  10.388  0.7906 -0.6235 -0.0617
 9058SOL    HW138636   0.184   3.529  10.456  1.3919 -0.7353 -0.6452
 9058SOL    HW238637   0.049   3.476  10.432  0.5764  0.4060  0.7933
 9059SOL     OW38638   1.986   0.810   3.190  0.2536 -0.2908  0.1590
 9059SOL    HW138639   2.074   0.820   3.153  0.5810 -0.6380  0.8446
 9059SOL    HW238640   1.950   0.898   3.178 -0.5227 -0.9996 -2.7243
 9060SOL     OW38641   1.279   0.335   4.635  0.2483  0.3947  0.3619
 9060SOL    HW138642   1.363   0.379   4.619  2.0398 -2.5727  1.6459
 9060SOL    HW238643   1.270   0.315   4.728 -1.9606 -1.0704 -0.1693
 9061SOL     OW38644   4.343   4.466   5.227  0.4727 -0.2298  0.2661
 9061SOL    HW138645   4.371   4.392   5.281  1.0372 -0.3767 -0.2199
 9061SOL    HW238646   4.346   4.420   5.143  0.8273  0.6001 -0.1690
 9062SOL     OW38647   1.179   4.096  13.148 -0.1327  0.5695 -0.5417
 9062SOL    HW138648   1.108   4.135  13.097 -1.3151  1.5097  1.8247
 9062SOL    HW238649   1.137   4.079  13.232  0.8321 -0.8259 -0.3379
 9063SOL     OW38650   1.783   0.353   3.675  0.1747 -0.5191 -0.5576
 9063SOL    HW138651   1.872   0.372   3.645  0.9105 -0.6806  1.4846
 9063SOL    HW238652   1.808   0.318   3.761 -0.9017 -0.6931 -0.3107
 9064SOL     OW38653   3.473   0.160   5.084 -0.2633  0.3087 -0.2449
 9064SOL    HW138654   3.486   0.117   5.168 -0.9516  0.3401 -0.1184
 9064SOL    HW238655   3.399   0.112   5.046 -0.1491  0.9561 -1.3080
 9065SOL     OW38656   1.858   4.463   6.499 -0.0535 -0.4724 -0.8402
 9065SOL    HW138657   1.886   4.411   6.574  0.6596  0.8442 -0.1840
 9065SOL    HW238658   1.789   4.408   6.462 -0.3600  1.0168 -2.4680
 9066SOL     OW38659   0.148   2.987   8.170  0.3465  0.5189 -0.0037
 9066SOL    HW138660   0.181   2.924   8.234  0.6750 -0.1382 -0.8193
 9066SOL    HW238661   0.197   3.065   8.194  0.3318  0.3195  0.6808
 9067SOL     OW38662   1.492   1.086   1.221  0.1123  0.0008 -0.3654
 9067SOL    HW138663   1.569   1.036   1.194 -0.9362 -1.5146 -0.5180
 9067SOL    HW238664   1.530   1.147   1.285 -1.3395  1.0913 -0.5525
 9068SOL     OW38665   1.359   4.186   2.855 -0.2703 -0.4622  0.4002
 9068SOL    HW138666   1.310   4.215   2.778  0.6620 -2.9633 -1.1138
 9068SOL    HW238667   1.313   4.232   2.926  1.2467 -0.0647  1.1471
 9069SOL     OW38668   3.484   4.312   7.998  0.5485 -0.3023  0.6750
 9069SOL    HW138669   3.512   4.400   7.973  0.5624  0.0826  1.9981
 9069SOL    HW238670   3.495   4.268   7.914  1.6636  0.1511  0.5785
 9070SOL     OW38671   1.594   0.163   4.729 -0.1147 -0.2732 -0.6473
 9070SOL    HW138672   1.525   0.105   4.697 -0.4248 -0.6971  0.7721
 9070SOL    HW238673   1.566   0.245   4.688  0.3687  0.5516  0.6728
 9071SOL     OW38674   2.735   0.050  12.407 -0.2206  0.0583  0.2038
 9071SOL    HW138675   2.714   4.689  12.376  1.2134 -0.0603 -0.4468
 9071SOL    HW238676   2.821   0.028  12.442  0.0265  0.1416 -0.3425
 9072SOL     OW38677   1.511   2.963  13.874  0.9589  0.3838 -0.4401
 9072SOL    HW138678   1.536   3.038  13.820 -1.8284  0.1654 -2.0438
 9072SOL    HW238679   1.538   2.999  13.959  0.5342 -0.4751  0.0536
 9073SOL     OW38680   0.146   0.100   9.587  0.0677 -0.2839 -0.5217
 9073SOL    HW138681   0.164   0.187   9.552 -1.0844  0.9561  1.9238
 9073SOL    HW238682   0.065   0.121   9.634 -1.0243 -0.5060 -2.3085
 9074SOL     OW38683   1.723   3.670  15.124  0.2830 -0.1118 -0.5043
 9074SOL    HW138684   1.748   3.676  15.032  0.3780 -0.5850 -0.5128
 9074SOL    HW238685   1.630   3.649  15.119  0.7065 -2.9436  3.3935
 9075SOL     OW38686   1.890   1.747   8.343  0.3300 -0.4456  0.1340
 9075SOL    HW138687   1.795   1.733   8.333 -0.0109  2.0481 -0.2642
 9075SOL    HW238688   1.926   1.662   8.365  0.3946 -1.6372 -4.7168
 9076SOL     OW38689   0.987   1.849   3.410 -0.1800 -0.4643 -0.0979
 9076SOL    HW138690   1.054   1.916   3.423  1.4478 -2.0244 -0.4405
 9076SOL    HW238691   0.933   1.870   3.486  0.3002  0.4584 -0.0190
 9077SOL     OW38692   0.600   4.551   9.024  0.1202 -0.4084  0.2765
 9077SOL    HW138693   0.685   4.565   8.982 -0.7134  1.5812 -0.6938
 9077SOL    HW238694   0.613   4.604   9.102  0.5258 -0.3800  0.1897
 9078SOL     OW38695   0.926   3.137   2.038  0.5701 -0.3766  0.6418
 9078SOL    HW138696   0.982   3.153   1.962 -0.7155 -0.6067 -0.3583
 9078SOL    HW238697   0.888   3.224   2.046  0.6123 -0.2815 -0.2200
 9079SOL     OW38698   1.645   0.270  11.581 -0.1678  0.1522  0.4542
 9079SOL    HW138699   1.722   0.295  11.633 -0.5431 -1.2512  1.7042
 9079SOL    HW238700   1.577   0.322  11.624  0.9900  2.5258 -0.6105
 9080SOL     OW38701   1.611   1.977   8.177 -0.1214 -0.2897 -0.0880
 9080SOL    HW138702   1.526   2.021   8.174  0.0667  0.1144  0.6493
 9080SOL    HW238703   1.626   1.947   8.087 -1.4160  1.8863 -1.0257
 9081SOL     OW38704   4.545   0.696   8.606 -0.0462  0.1402  0.2003
 9081SOL    HW138705   4.629   0.726   8.640  0.0542  0.2578 -0.1481
 9081SOL    HW238706   4.486   0.769   8.623  1.1571  0.8719  1.2302
 9082SOL     OW38707   3.057   3.634   3.978 -0.1843 -0.5957 -0.9341
 9082SOL    HW138708   3.026   3.551   3.943  0.6706 -1.4704  0.3539
 9082SOL    HW238709   3.044   3.691   3.903  0.1502 -1.5786 -1.7277
 9083SOL     OW38710   1.438   3.909   0.153  0.2843 -0.2403  0.1562
 9083SOL    HW138711   1.430   3.869   0.239  0.1968 -0.5960 -0.0190
 9083SOL    HW238712   1.531   3.933   0.151 -0.7439  3.6485 -0.9004
 9084SOL     OW38713   0.191   2.074  11.836  0.1916  0.0627  0.2717
 9084SOL    HW138714   0.278   2.116  11.837  0.0964  0.2888 -0.5138
 9084SOL    HW238715   0.202   2.003  11.773 -1.7756  0.4623 -0.4945
 9085SOL     OW38716   2.959   0.012   2.638 -0.6276  0.3187 -0.0564
 9085SOL    HW138717   2.943   4.648   2.614 -3.6022 -0.1164  3.5301
 9085SOL    HW238718   2.900   0.024   2.713  0.5697  1.5959  0.6840
 9086SOL     OW38719   0.827   2.634   8.066  0.2888 -0.6637 -0.4198
 9086SOL    HW138720   0.744   2.616   8.023 -0.4003 -0.5313  0.8581
 9086SOL    HW238721   0.784   2.631   8.151 -0.2213 -0.1626 -0.6603
 9087SOL     OW38722   4.717   1.266   1.948 -0.2380 -0.4161  0.8237
 9087SOL    HW138723   4.667   1.346   1.931  1.7017  0.2668 -1.5858
 9087SOL    HW238724   0.062   1.301   2.000  0.9041 -1.1858 -0.2332
 9088SOL     OW38725   4.596   0.146   6.384 -0.0360 -0.2774 -0.0076
 9088SOL    HW138726   4.662   0.211   6.411  1.0590 -0.8681 -1.2547
 9088SOL    HW238727   4.619   0.072   6.441  2.7178  0.0760 -0.6525
 9089SOL     OW38728   1.458   3.042   4.510 -0.1638 -0.2211 -0.0263
 9089SOL    HW138729   1.483   3.043   4.602 -2.0412  0.6629  0.4750
 9089SOL    HW238730   1.452   2.949   4.489 -1.4356 -0.4957  1.6408
 9090SOL     OW38731   1.965   3.225   6.316  0.7084  0.2299 -0.0056
 9090SOL    HW138732   1.994   3.144   6.357  0.3242  0.4024  0.6008
 9090SOL    HW238733   1.873   3.207   6.302  0.8927 -2.0344  1.7160
 9091SOL     OW38734   0.258   3.626   7.537 -0.4865  0.1605  0.4413
 9091SOL    HW138735   0.273   3.720   7.550  0.4432 -0.0916  1.2050
 9091SOL    HW238736   0.176   3.624   7.488 -0.1225 -1.4525 -0.1070
 9092SOL     OW38737   4.570   3.841   1.190  0.2053 -0.2873 -0.4099
 9092SOL    HW138738   4.499   3.902   1.167  0.6375  0.0998 -0.7242
 9092SOL    HW238739   4.579   3.849   1.285 -1.5289  0.9077 -0.3275
 9093SOL     OW38740   3.848   0.196   5.321  0.9197  0.5236 -0.5794
 9093SOL    HW138741   3.810   0.108   5.310 -0.2043  1.3923 -3.8098
 9093SOL    HW238742   3.876   0.225   5.234  0.6552  0.5584 -0.6562
 9094SOL     OW38743   2.195   0.946   6.972 -0.0830  0.3258 -0.9357
 9094SOL    HW138744   2.161   1.034   6.959 -1.3696  0.0958  1.0352
 9094SOL    HW238745   2.287   0.947   6.944  0.9473 -2.5078  2.3810
 9095SOL     OW38746   0.714   4.308   3.004  0.0259 -0.2896  0.0480
 9095SOL    HW138747   0.794   4.356   3.027  0.5792 -1.2421  0.0960
 9095SOL    HW238748   0.723   4.287   2.911 -2.2467 -0.3634 -0.1361
 9096SOL     OW38749   3.897   2.167   3.244 -0.7347  0.0335 -0.1218
 9096SOL    HW138750   3.934   2.177   3.332  0.5329  0.7847 -0.7374
 9096SOL    HW238751   3.846   2.246   3.227 -1.2152  0.0985  1.6083
 9097SOL     OW38752   3.574   0.812   7.848 -0.3754 -0.9323  0.3816
 9097SOL    HW138753   3.609   0.873   7.914 -0.5550  0.2059 -0.5785
 9097SOL    HW238754   3.564   0.729   7.896 -1.1952 -1.0369  0.0122
 9098SOL     OW38755   2.522   0.397   3.752  0.2389 -0.5846  0.4980
 9098SOL    HW138756   2.454   0.464   3.742  1.1943  0.3031 -0.0443
 9098SOL    HW238757   2.519   0.385   3.847 -0.5686  4.0429  1.0246
 9099SOL     OW38758   0.686   2.860   2.855  0.0274  0.1234 -0.8270
 9099SOL    HW138759   0.648   2.845   2.941  0.5958 -2.7838 -1.0857
 9099SOL    HW238760   0.601   2.873   2.814  0.1242  1.0006 -0.7542
 9100SOL     OW38761   0.055   2.107   9.842  0.2857 -0.3426 -0.1057
 9100SOL    HW138762   0.096   2.048   9.779  0.3163  0.9158 -1.2601
 9100SOL    HW238763   0.091   2.194   9.829 -1.3622  0.0525 -1.9667
 9101SOL     OW38764   2.716   4.263   5.602 -0.0774 -0.2629  0.1098
 9101SOL    HW138765   2.782   4.198   5.575  1.8342  1.7136  0.0644
 9101SOL    HW238766   2.685   4.294   5.517 -1.5746 -1.8137  0.0801
 9102SOL     OW38767   3.624   2.150   8.899  0.2792  0.2576 -0.2581
 9102SOL    HW138768   3.703   2.195   8.868  2.0872 -1.6935  1.4748
 9102SOL    HW238769   3.642   2.056   8.891 -2.6955 -0.2468 -1.0210
 9103SOL     OW38770   1.014   0.099   4.196  0.4844 -0.1488 -0.0490
 9103SOL    HW138771   0.987   0.077   4.286  0.0068 -0.3823 -0.2483
 9103SOL    HW238772   1.107   0.119   4.206  0.1171  1.4103  0.2978
 9104SOL     OW38773   2.149   0.672  13.805  0.2787  0.3202  0.3347
 9104SOL    HW138774   2.221   0.653  13.744  0.9040  0.6854  0.9618
 9104SOL    HW238775   2.115   0.753  13.768 -1.2206  0.6385  2.4316
 9105SOL     OW38776   2.649   1.232   0.113 -0.2550 -0.8055  0.0729
 9105SOL    HW138777   2.559   1.263   0.126 -0.1657 -0.9587  1.0421
 9105SOL    HW238778   2.648   1.203   0.022  0.3012  4.1572 -1.5290
 9106SOL     OW38779   3.348   0.601   4.844  0.4151 -0.0450  0.7277
 9106SOL    HW138780   3.384   0.570   4.928  3.0573 -2.6442 -1.3781
 9106SOL    HW238781   3.255   0.604   4.866  0.5707 -0.6393  1.4837
 9107SOL     OW38782   4.207   0.293   3.182 -0.1459 -0.1197  0.4794
 9107SOL    HW138783   4.219   0.388   3.191  1.6174 -0.2752 -0.3440
 9107SOL    HW238784   4.290   0.252   3.204 -1.4889 -2.9821  0.1610
 9108SOL     OW38785   1.603   1.295   5.865  0.1119 -0.0063  0.4108
 9108SOL    HW138786   1.614   1.262   5.954  0.5089  2.1011  1.1515
 9108SOL    HW238787   1.587   1.389   5.877  3.0368  0.3539  1.5325
 9109SOL     OW38788   0.604   0.516   9.297 -0.4033 -0.6139  0.4011
 9109SOL    HW138789   0.603   0.466   9.379 -0.7187  1.8522  1.9185
 9109SOL    HW238790   0.643   0.600   9.320 -0.1518 -0.6095 -0.0447
 9110SOL     OW38791   2.806   2.557  16.999  0.0191  0.0622 -0.1224
 9110SOL    HW138792   2.860   2.505  17.059 -2.9634 -2.6520  0.2408
 9110SOL    HW238793   2.880   2.594  16.951  0.2941 -0.2894  0.0203
 9111SOL     OW38794   4.173   4.695   9.374 -0.5086  0.2568 -0.8032
 9111SOL    HW138795   4.242   0.026   9.342 -0.0371  0.0835 -0.1010
 9111SOL    HW238796   4.133   4.669   9.291 -0.9741 -0.8438 -0.2267
 9112SOL     OW38797   3.033   4.064   2.866 -0.5245 -0.5327 -0.1235
 9112SOL    HW138798   2.981   4.144   2.857  1.4407  0.8636  1.0276
 9112SOL    HW238799   2.979   4.015   2.804  1.6500  0.3382 -2.7136
 9113SOL     OW38800   3.545   3.922   6.980 -0.2050  0.2095  0.4813
 9113SOL    HW138801   3.578   3.997   7.028 -1.4034  0.6880  0.5479
 9113SOL    HW238802   3.612   3.855   6.993  1.0516  1.7513  1.8075
 9114SOL     OW38803   1.898   4.589   7.405  0.4525  0.2083 -0.3868
 9114SOL    HW138804   1.990   4.607   7.426  0.4072  0.6130 -0.5484
 9114SOL    HW238805   1.888   4.520   7.470 -0.4344  0.6168 -0.0974
 9115SOL     OW38806   1.976   2.034  10.469 -0.0566  0.0163 -0.1554
 9115SOL    HW138807   2.054   2.078  10.435  0.4294 -0.5588  0.2160
 9115SOL    HW238808   1.913   2.062  10.403 -1.2756  0.9200  1.3941
 9116SOL     OW38809   3.458   1.965   6.017 -0.4366  0.6078 -0.6079
 9116SOL    HW138810   3.460   1.928   5.929  1.4246 -1.1990  0.1892
 9116SOL    HW238811   3.548   1.998   6.025  0.2493 -1.7646  1.2350
 9117SOL     OW38812   4.195   3.361   6.129  0.1575 -0.6428 -0.3165
 9117SOL    HW138813   4.157   3.345   6.216  2.1985 -1.1016  0.5008
 9117SOL    HW238814   4.122   3.360   6.068  2.1740  1.3705 -2.7509
 9118SOL     OW38815   4.358   3.801   5.284 -0.5788 -0.3789 -0.3015
 9118SOL    HW138816   4.449   3.801   5.255 -1.0277 -1.7822 -1.7557
 9118SOL    HW238817   4.348   3.895   5.299  1.0849  0.2582 -3.1693
 9119SOL     OW38818   1.095   0.168   8.198 -0.4585  0.4641  0.2820
 9119SOL    HW138819   1.064   0.241   8.252  2.6689  1.3986  0.8054
 9119SOL    HW238820   1.117   0.208   8.114  0.1238 -0.3578  0.0430
 9120SOL     OW38821   2.105   0.936   3.577 -0.0469 -0.2558 -0.3043
 9120SOL    HW138822   2.149   0.883   3.510  0.3192 -1.3854  0.8259
 9120SOL    HW238823   2.046   0.876   3.621 -0.1647  0.2860  0.2745
 9121SOL     OW38824   0.468   3.773   2.556  0.2542  0.3221  0.0725
 9121SOL    HW138825   0.413   3.699   2.530 -0.8701  0.9291  0.7363
 9121SOL    HW238826   0.554   3.751   2.520 -0.7969 -1.9137 -1.0694
 9122SOL     OW38827   0.100   4.338   3.591  0.6014 -0.1824  0.3520
 9122SOL    HW138828   0.075   4.339   3.498 -0.1155  2.0937  0.5660
 9122SOL    HW238829   0.146   4.422   3.586  0.6442 -0.1850  0.7326
 9123SOL     OW38830   0.050   1.190   5.034 -0.1993 -0.0929  0.0808
 9123SOL    HW138831   4.708   1.189   4.967 -0.8410 -2.6481  0.7739
 9123SOL    HW238832   0.049   1.284   5.052  0.1140 -0.1127  0.2074
 9124SOL     OW38833   3.199   3.241   3.821 -0.4614  0.3850 -0.0217
 9124SOL    HW138834   3.107   3.245   3.849  0.1507  3.2008  1.5899
 9124SOL    HW238835   3.189   3.225   3.727  1.5274 -1.2703  0.0597
 9125SOL     OW38836   1.585   1.375  16.735  0.5977 -0.2773 -0.2304
 9125SOL    HW138837   1.579   1.299  16.678  2.8320 -0.5285 -0.0997
 9125SOL    HW238838   1.672   1.398  16.705  0.6809  0.1789  0.3650
 9126SOL     OW38839   4.504   4.495  12.317 -0.1891 -0.4804  0.1607
 9126SOL    HW138840   4.508   4.548  12.397  2.2245 -3.2320  1.8531
 9126SOL    HW238841   4.584   4.445  12.330  0.4558  0.8229  1.2085
 9127SOL     OW38842   0.677   2.700   5.140  0.3793 -0.0243 -0.1605
 9127SOL    HW138843   0.654   2.777   5.192 -2.0098  0.2579 -1.6301
 9127SOL    HW238844   0.743   2.737   5.081 -0.1923  0.9298 -0.1970
 9128SOL     OW38845   0.411   4.146   8.705  0.6083 -0.1263 -0.1381
 9128SOL    HW138846   0.423   4.236   8.735  0.5251  1.0535 -3.7006
 9128SOL    HW238847   0.495   4.113   8.673  0.3266 -1.0572  0.0893
 9129SOL     OW38848   4.160   4.430  13.714 -0.6582  0.0762 -0.2519
 9129SOL    HW138849   4.145   4.393  13.801  0.7273  0.7406  0.2648
 9129SOL    HW238850   4.243   4.394  13.682 -0.8601 -1.6978  1.2797
 9130SOL     OW38851   0.086   3.472  12.480  0.1544  0.4918 -0.2086
 9130SOL    HW138852   0.006   3.518  12.455 -1.2461 -2.7509 -1.6945
 9130SOL    HW238853   0.054   3.436  12.563 -1.4625  1.8836 -0.2503
 9131SOL     OW38854   4.334   2.776   9.456  0.0542 -0.4388 -0.0063
 9131SOL    HW138855   4.419   2.748   9.422  1.4019 -0.3970  3.3899
 9131SOL    HW238856   4.289   2.812   9.379  2.3070  1.3796 -0.4707
 9132SOL     OW38857   0.152   1.464   2.083 -0.3682  0.2026 -0.0810
 9132SOL    HW138858   0.183   1.548   2.050  2.5484  0.0734  2.3243
 9132SOL    HW238859   0.137   1.477   2.177 -1.7858  0.4498 -0.3408
 9133SOL     OW38860   2.099   2.000   2.864 -0.3252 -0.3316  0.1943
 9133SOL    HW138861   2.182   2.046   2.860 -0.1469 -0.5203  1.7190
 9133SOL    HW238862   2.112   1.926   2.805  0.6558  0.9460 -1.2129
 9134SOL     OW38863   0.845   2.265   0.332 -0.0266  0.5739  0.1463
 9134SOL    HW138864   0.902   2.260   0.255 -0.6142 -0.7477 -0.2126
 9134SOL    HW238865   0.895   2.314   0.397  0.7734  0.9145 -0.7281
 9135SOL     OW38866   1.875   4.600  10.882  0.3328 -0.4587  0.4991
 9135SOL    HW138867   1.792   4.646  10.892  0.1475 -1.1311  2.0360
 9135SOL    HW238868   1.894   4.618  10.790  0.7261  1.3504  0.9478
 9136SOL     OW38869   1.381   0.334  13.167  0.0085 -0.3573 -0.3478
 9136SOL    HW138870   1.476   0.328  13.161  0.1587  0.2956  1.5551
 9136SOL    HW238871   1.374   0.310  13.259  0.5725 -0.1281 -0.2507
 9137SOL     OW38872   3.434   3.860   5.185 -0.2216  0.5373  0.1414
 9137SOL    HW138873   3.377   3.932   5.158 -1.1833 -0.4978 -0.5689
 9137SOL    HW238874   3.482   3.913   5.249  0.6351  3.2982 -2.7869
 9138SOL     OW38875   2.731   0.035  14.860 -0.1444 -0.2738 -0.1178
 9138SOL    HW138876   2.821   0.039  14.891  0.1479 -1.4308 -0.8134
 9138SOL    HW238877   2.718   0.126  14.833 -1.2089  0.1797  1.8988
 9139SOL     OW38878   4.473   3.950   4.833 -0.1095  0.0679 -0.0047
 9139SOL    HW138879   4.383   3.923   4.814 -0.2926  0.3252  0.5001
 9139SOL    HW238880   4.465   4.042   4.807  1.5254 -0.5847 -2.8945
 9140SOL     OW38881   0.815   0.633   2.381  0.3559  0.0121  0.5525
 9140SOL    HW138882   0.733   0.586   2.365 -1.0116  2.5493  0.0553
 9140SOL    HW238883   0.796   0.654   2.472  1.7337  0.7502  0.6683
 9141SOL     OW38884   2.399   0.632   4.187  0.6165  0.1119 -0.0991
 9141SOL    HW138885   2.444   0.717   4.192  1.1447  0.0078 -3.4602
 9141SOL    HW238886   2.437   0.581   4.259 -0.3896  1.2871  1.2765
 9142SOL     OW38887   3.061   3.787   4.855  0.0114 -0.5408 -0.0689
 9142SOL    HW138888   3.009   3.734   4.915  0.4354 -1.3222 -0.3846
 9142SOL    HW238889   2.992   3.817   4.797 -1.8624 -0.2808  2.2788
 9143SOL     OW38890   1.482   1.296   6.723  0.0871 -1.0826  0.1607
 9143SOL    HW138891   1.500   1.334   6.809 -0.6253  0.2856 -0.2880
 9143SOL    HW238892   1.391   1.324   6.711  0.2472 -1.3234 -1.6672
 9144SOL     OW38893   1.475   3.820  16.088 -0.2272  0.5217 -0.0827
 9144SOL    HW138894   1.463   3.778  16.002  0.1769 -0.5556  0.3851
 9144SOL    HW238895   1.571   3.816  16.091 -0.2199  0.1677 -0.7321
 9145SOL     OW38896   2.607   3.949   1.723 -0.5807 -0.5382  0.0982
 9145SOL    HW138897   2.663   3.958   1.646 -1.1131  1.4167 -0.0612
 9145SOL    HW238898   2.549   4.025   1.714 -0.7284 -0.4682  1.5606
 9146SOL     OW38899   3.556   0.413  12.409  0.4195  0.1580 -0.4453
 9146SOL    HW138900   3.608   0.484  12.371 -0.8698  1.2724 -0.1533
 9146SOL    HW238901   3.473   0.460  12.418  0.1243 -0.3232 -0.6958
 9147SOL     OW38902   3.185   2.713  13.178 -0.4717 -0.4098  0.1876
 9147SOL    HW138903   3.259   2.660  13.149 -1.5652 -1.7793 -0.0717
 9147SOL    HW238904   3.119   2.681  13.117 -0.1528  1.5758 -1.1894
 9148SOL     OW38905   0.171   0.662   2.016 -0.3900 -0.4169  0.0859
 9148SOL    HW138906   0.145   0.753   2.008 -1.1789 -0.5020  1.6060
 9148SOL    HW238907   0.266   0.663   2.003 -0.2745 -0.2560  0.9268
 9149SOL     OW38908   2.747   1.525   3.093  0.3192  0.5302 -0.1026
 9149SOL    HW138909   2.681   1.509   3.026  0.2407 -0.1701  0.1398
 9149SOL    HW238910   2.802   1.446   3.087 -1.9183 -0.8229 -3.1439
 9150SOL     OW38911   4.189   2.958   5.301 -0.2186 -0.4190  0.2929
 9150SOL    HW138912   4.131   2.886   5.326 -0.6618  0.4215  1.7197
 9150SOL    HW238913   4.127   3.021   5.264 -0.5329 -0.7659  0.2236
 9151SOL     OW38914   2.867   4.405   2.191  0.6444  0.1758  0.0729
 9151SOL    HW138915   2.898   4.494   2.173  0.4746 -0.1716 -1.9718
 9151SOL    HW238916   2.794   4.412   2.130  2.8581  0.2557 -2.5554
 9152SOL     OW38917   4.264   3.163  10.298  0.2299 -0.0376  0.1026
 9152SOL    HW138918   4.250   3.187  10.206 -0.8463 -0.3127  0.2037
 9152SOL    HW238919   4.348   3.117  10.295  0.1113 -0.3211  1.2473
 9153SOL     OW38920   3.520   3.369   6.708  0.1560  0.0279  0.0437
 9153SOL    HW138921   3.516   3.276   6.685  1.1942  0.1951 -0.7969
 9153SOL    HW238922   3.597   3.390   6.655 -1.0315  1.6708 -1.0187
 9154SOL     OW38923   1.095   2.573   9.277  0.5064 -0.2264  0.5753
 9154SOL    HW138924   1.096   2.599   9.370 -1.6722  1.0909  0.2364
 9154SOL    HW238925   1.031   2.635   9.242  0.2681 -0.5657  0.4205
 9155SOL     OW38926   3.975   3.417  10.388 -0.0124 -0.3712 -0.0757
 9155SOL    HW138927   4.029   3.490  10.420 -0.1308 -1.2659  2.1773
 9155SOL    HW238928   4.014   3.417  10.300  0.2628 -1.0966  0.0446
 9156SOL     OW38929   0.368   1.128   3.984  0.3397 -0.2914 -0.7531
 9156SOL    HW138930   0.398   1.128   3.894 -0.8775  0.7616 -1.1663
 9156SOL    HW238931   0.416   1.055   4.023  3.0779  1.0914 -1.5134
 9157SOL     OW38932   2.157   0.111  10.971  0.0527 -0.3948 -0.3853
 9157SOL    HW138933   2.232   0.082  10.920 -0.0168  0.0317 -0.7273
 9157SOL    HW238934   2.097   0.109  10.897 -0.0057  0.2520 -0.3579
 9158SOL     OW38935   0.066   3.641   7.353 -0.5257 -0.0418  0.2827
 9158SOL    HW138936   4.713   3.693   7.356 -0.6333 -0.1795 -0.1324
 9158SOL    HW238937   0.019   3.562   7.378 -0.3842 -0.1821  0.1116
 9159SOL     OW38938   1.064   1.954   5.688  0.1716 -0.7265 -0.1005
 9159SOL    HW138939   1.067   1.914   5.774  0.5055  1.2624  0.8119
 9159SOL    HW238940   1.134   2.019   5.694  0.8593 -1.4840 -0.0553
 9160SOL     OW38941   2.547   3.624  16.752  0.1238  0.7478  0.1317
 9160SOL    HW138942   2.631   3.580  16.764 -0.2435  0.1514  0.5462
 9160SOL    HW238943   2.501   3.570  16.687 -1.1199  1.7417  0.1905
 9161SOL     OW38944   0.942   0.172   2.076  0.1246  0.1668 -1.0983
 9161SOL    HW138945   0.968   0.083   2.053  0.9896  0.1719 -0.1328
 9161SOL    HW238946   0.873   0.187   2.010 -1.2879 -0.6837  0.1843
 9162SOL     OW38947   2.894   1.239  15.332 -0.1412 -0.0739  0.2992
 9162SOL    HW138948   2.986   1.211  15.331  0.6506  2.5794 -0.0464
 9162SOL    HW238949   2.893   1.326  15.372  0.4926  0.2196 -0.3212
 9163SOL     OW38950   2.654   2.438   4.756  0.0710 -0.0279 -0.4810
 9163SOL    HW138951   2.626   2.349   4.738 -1.6733  0.1816  1.1685
 9163SOL    HW238952   2.580   2.484   4.717  1.0984  0.4258 -1.8768
 9164SOL     OW38953   0.022   3.393   8.127  0.0098 -0.2086 -0.2910
 9164SOL    HW138954   4.674   3.341   8.099  0.1947 -0.9460  0.5767
 9164SOL    HW238955   0.021   3.463   8.061 -1.8971 -1.3687 -1.4877
 9165SOL     OW38956   1.546   4.518   4.453  0.0869 -0.5213  0.4412
 9165SOL    HW138957   1.583   4.459   4.387 -1.6452 -1.6295  0.4734
 9165SOL    HW238958   1.474   4.465   4.486  1.5703 -2.9866 -0.3310
 9166SOL     OW38959   1.259   3.253   2.266  0.3507  0.3012 -0.3610
 9166SOL    HW138960   1.306   3.319   2.317 -2.6827  2.5134 -0.4480
 9166SOL    HW238961   1.173   3.293   2.256 -0.0221 -0.0156  1.7950
 9167SOL     OW38962   4.300   4.402   6.258  0.5004 -0.0118 -0.3510
 9167SOL    HW138963   4.208   4.396   6.234 -0.1273  0.9633  1.8407
 9167SOL    HW238964   4.322   4.313   6.284  1.0397  0.5715  1.1761
 9168SOL     OW38965   3.551   0.705   8.117 -0.4429 -0.5604  0.8468
 9168SOL    HW138966   3.633   0.755   8.105  0.0715 -1.7038 -0.3710
 9168SOL    HW238967   3.572   0.682   8.208 -0.1687 -2.0534  0.4030
 9169SOL     OW38968   1.394   1.958  14.876 -0.7398 -0.8608 -0.4301
 9169SOL    HW138969   1.338   1.986  14.804  2.1280 -0.7810 -2.6014
 9169SOL    HW238970   1.447   2.038  14.880  0.3303 -1.4681 -2.7253
 9170SOL     OW38971   3.871   3.012   3.048  0.1399 -0.1396  0.3343
 9170SOL    HW138972   3.798   2.969   3.092  0.1568  0.1847  0.6760
 9170SOL    HW238973   3.894   2.928   3.007 -1.3419  0.1571 -1.1091
 9171SOL     OW38974   3.554   1.371   9.564  0.1151  0.6132  0.1499
 9171SOL    HW138975   3.609   1.425   9.621 -1.0388 -0.3618  2.1615
 9171SOL    HW238976   3.584   1.410   9.481  0.8613 -2.6042 -1.0789
 9172SOL     OW38977   2.840   1.586  16.033  0.4394 -0.4786  0.1465
 9172SOL    HW138978   2.928   1.617  16.054  0.6055 -0.3788 -0.6933
 9172SOL    HW238979   2.829   1.614  15.942  1.2140 -0.9932 -0.1035
 9173SOL     OW38980   2.998   1.080   4.716  0.4877  0.3624  0.3304
 9173SOL    HW138981   2.925   1.142   4.717 -1.3404 -1.6930 -2.3171
 9173SOL    HW238982   3.060   1.133   4.667  0.2376  0.3979  0.0486
 9174SOL     OW38983   4.621   1.184   3.512  0.3804 -0.1512 -0.5290
 9174SOL    HW138984   4.567   1.107   3.533  0.6469  0.4962  2.4922
 9174SOL    HW238985   4.573   1.243   3.569  0.2956 -0.2684 -0.4784
 9175SOL     OW38986   2.564   2.578   8.257  0.2351 -0.3887 -0.2446
 9175SOL    HW138987   2.651   2.599   8.292 -0.6326 -0.9199  2.2253
 9175SOL    HW238988   2.515   2.574   8.339  1.3300 -2.3992  0.3185
 9176SOL     OW38989   2.544   1.222  13.835  0.4330  0.0736  0.6525
 9176SOL    HW138990   2.579   1.300  13.879 -0.5183  0.9257 -0.0786
 9176SOL    HW238991   2.539   1.156  13.904 -1.4523  0.6639  1.0905
 9177SOL     OW38992   1.039   1.508   8.769  0.0281 -0.2318 -0.2261
 9177SOL    HW138993   1.110   1.466   8.816  0.4019  0.8828  0.1982
 9177SOL    HW238994   0.957   1.460   8.787 -1.4250  1.7604 -1.5106
 9178SOL     OW38995   0.287   2.023   2.684  0.5542  0.1151 -0.3887
 9178SOL    HW138996   0.308   1.950   2.626  1.4997  0.7511 -0.8601
 9178SOL    HW238997   0.195   2.040   2.667  0.5731  0.4348 -0.1688
 9179SOL     OW38998   3.208   3.099   5.857 -0.1119 -0.2996 -0.1596
 9179SOL    HW138999   3.138   3.121   5.919  0.4849 -0.3677  0.5404
 9179SOL    HW239000   3.254   3.182   5.842  1.6519 -1.2435 -0.0091
 9180SOL     OW39001   3.507   1.302   3.914  0.3366 -0.6221  0.5196
 9180SOL    HW139002   3.596   1.329   3.892  0.0673  0.9148  1.3471
 9180SOL    HW239003   3.487   1.352   3.993  0.8710  1.8674 -0.9275
 9181SOL     OW39004   2.366   0.995  13.814 -0.2398  0.0683 -0.3258
 9181SOL    HW139005   2.274   0.993  13.788 -0.2938  2.8373 -0.3815
 9181SOL    HW239006   2.369   1.002  13.910 -1.1131  1.9135 -0.4336
 9182SOL     OW39007   3.275   1.045  12.443 -0.1730  0.0521  0.4929
 9182SOL    HW139008   3.335   1.117  12.462  0.1381 -0.3906  1.1785
 9182SOL    HW239009   3.334   0.976  12.413 -0.8139 -1.0405  1.7083
 9183SOL     OW39010   1.308   1.158   8.736 -0.1594 -0.1909  0.1889
 9183SOL    HW139011   1.358   1.233   8.702 -0.9783 -0.4738 -1.6372
 9183SOL    HW239012   1.321   1.186   8.827  2.2162  1.5167 -0.6663
 9184SOL     OW39013   4.580   1.633  16.226  0.2963 -0.1253  0.4125
 9184SOL    HW139014   4.543   1.604  16.143  0.8904 -0.5622  0.3020
 9184SOL    HW239015   4.639   1.559  16.233  0.5208  0.0334  0.1762
 9185SOL     OW39016   2.350   1.168   7.344  0.1984  0.0002  0.3512
 9185SOL    HW139017   2.341   1.082   7.304 -0.5940 -0.6770  1.9609
 9185SOL    HW239018   2.395   1.215   7.273 -2.6085  1.1911 -0.6582
 9186SOL     OW39019   3.422   1.759   5.484  0.5219  0.0536 -0.0613
 9186SOL    HW139020   3.477   1.837   5.478  2.4585 -1.1405  2.1161
 9186SOL    HW239021   3.493   1.694   5.482  0.4850 -0.0599  2.7317
 9187SOL     OW39022   1.716   3.255   3.773  0.0699 -0.4923 -0.1205
 9187SOL    HW139023   1.676   3.304   3.845 -0.5216 -0.1178 -0.7085
 9187SOL    HW239024   1.755   3.181   3.820  0.0211  0.1560  0.9515
 9188SOL     OW39025   3.867   3.467   4.385  0.2959  0.1816  0.8149
 9188SOL    HW139026   3.774   3.447   4.400  0.6340 -2.6648 -0.7938
 9188SOL    HW239027   3.854   3.561   4.398 -0.5902  0.2990 -0.8605
 9189SOL     OW39028   1.201   4.147   2.110  0.1839 -0.4609 -0.2178
 9189SOL    HW139029   1.212   4.060   2.148  0.8088 -0.1920  0.2104
 9189SOL    HW239030   1.108   4.134   2.093  0.6590 -0.0325 -3.1987
 9190SOL     OW39031   4.436   2.465   9.316 -0.4200  0.7349  0.3156
 9190SOL    HW139032   4.495   2.527   9.360  1.3130  0.2640 -1.3709
 9190SOL    HW239033   4.497   2.394   9.298 -2.3062 -1.4665  2.6505
 9191SOL     OW39034   4.338   3.196   8.219 -0.0299 -0.1890 -0.2268
 9191SOL    HW139035   4.423   3.187   8.177  0.4729  1.9289  0.3004
 9191SOL    HW239036   4.335   3.121   8.278 -2.3994 -1.1146 -1.5365
 9192SOL     OW39037   4.049   3.331  14.584 -0.0670 -0.2741  0.1476
 9192SOL    HW139038   4.001   3.318  14.666  1.1525 -0.6085  0.8245
 9192SOL    HW239039   4.082   3.420  14.603  2.1455 -0.6927 -1.7526
 9193SOL     OW39040   3.003   0.670   2.091  0.5929  0.2587  0.5872
 9193SOL    HW139041   3.075   0.682   2.030  0.7151  2.0045  1.0843
 9193SOL    HW239042   2.932   0.718   2.048  1.3249  1.1811  0.4235
 9194SOL     OW39043   0.043   0.664   2.546  0.0336 -0.2386 -0.2922
 9194SOL    HW139044   0.086   0.579   2.552 -1.9317 -1.2984 -1.4085
 9194SOL    HW239045   4.714   0.668   2.624 -0.0124 -1.4172 -0.2633
 9195SOL     OW39046   3.441   1.049   3.874 -0.3208 -0.0998 -0.4827
 9195SOL    HW139047   3.479   1.135   3.890  0.2880 -1.2065  3.9361
 9195SOL    HW239048   3.409   1.064   3.784  0.0420 -1.7156 -0.8832
 9196SOL     OW39049   4.283   2.926   5.597 -0.8297  0.4160  0.3644
 9196SOL    HW139050   4.240   3.002   5.636 -1.8646 -0.3033  0.6348
 9196SOL    HW239051   4.335   2.972   5.531  1.4029 -1.0335  1.0828
 9197SOL     OW39052   0.059   4.693   0.064  0.2223  0.0266  0.6460
 9197SOL    HW139053   0.089   4.637   0.135  3.1555  0.1694 -0.5052
 9197SOL    HW239054   0.142   0.010   0.046  1.3771 -1.9780  1.1285
 9198SOL     OW39055   1.638   1.092   8.640 -0.5117  0.6815 -0.4572
 9198SOL    HW139056   1.649   1.164   8.578  0.2325  1.6937  0.8399
 9198SOL    HW239057   1.558   1.048   8.610 -1.3601  1.4152  0.7570
 9199SOL     OW39058   3.338   1.187   3.093 -0.1292 -0.1402 -0.5089
 9199SOL    HW139059   3.386   1.105   3.082  0.3052 -0.2804  2.3782
 9199SOL    HW239060   3.393   1.242   3.037  0.1400 -1.2026 -1.2921
 9200SOL     OW39061   2.452   2.888   3.515  0.4625  0.1081 -0.0705
 9200SOL    HW139062   2.501   2.941   3.579  0.5473  0.8851 -0.7753
 9200SOL    HW239063   2.495   2.803   3.506  0.2104 -0.0653  0.3680
 9201SOL     OW39064   0.205   3.790   8.923 -0.0865  0.8119  0.3703
 9201SOL    HW139065   0.231   3.705   8.889  0.7580 -0.1551  3.4607
 9201SOL    HW239066   0.221   3.843   8.845  1.7123  0.9839  0.8535
 9202SOL     OW39067   2.493   4.086   4.997  0.9398  0.3352  0.8800
 9202SOL    HW139068   2.496   4.023   4.925 -2.8573  0.9028  0.2419
 9202SOL    HW239069   2.564   4.045   5.048 -0.5437 -4.5287 -0.9682
 9203SOL     OW39070   2.101   1.223   8.822  0.0156 -0.3432 -0.1373
 9203SOL    HW139071   2.073   1.302   8.776 -1.3381 -0.2326  0.8759
 9203SOL    HW239072   2.016   1.184   8.842 -0.2906 -0.3653 -1.4665
 9204SOL     OW39073   3.755   4.678  17.288 -0.3463 -0.1964 -0.3868
 9204SOL    HW139074   3.838   4.705  17.325  1.0216 -2.3892 -1.8545
 9204SOL    HW239075   3.744   0.008  17.211 -0.9978 -0.1446 -0.2607
 9205SOL     OW39076   1.297   4.608   4.095  0.0420  0.0601  0.3192
 9205SOL    HW139077   1.280   4.693   4.136  0.4365  0.1203  0.3662
 9205SOL    HW239078   1.393   4.610   4.090  0.0595 -0.0538  0.6141
 9206SOL     OW39079   0.201   0.880   6.379  0.0139 -0.0712  0.6389
 9206SOL    HW139080   0.114   0.847   6.401 -0.1449 -0.5317 -0.6745
 9206SOL    HW239081   0.256   0.803   6.366 -0.2887 -0.4200  1.4776
 9207SOL     OW39082   4.089   3.938   6.533 -0.4140 -0.3672 -0.2568
 9207SOL    HW139083   4.010   3.885   6.525 -1.1203  0.8880 -1.6284
 9207SOL    HW239084   4.074   3.988   6.453  0.0606  0.4220  0.1518
 9208SOL     OW39085   4.473   3.078   5.486  0.4112 -0.1929 -0.3202
 9208SOL    HW139086   4.519   3.055   5.567  1.0273  0.9920 -0.3252
 9208SOL    HW239087   4.491   3.172   5.481 -2.0169  0.3737  2.0935
 9209SOL     OW39088   2.111   1.061   2.825 -0.4055  0.0076  0.0309
 9209SOL    HW139089   2.046   0.991   2.828  0.2041 -0.3965  3.4985
 9209SOL    HW239090   2.157   1.042   2.744 -0.3004 -3.1082  0.8228
 9210SOL     OW39091   3.176   0.366   7.338  0.0333 -0.4254 -0.2103
 9210SOL    HW139092   3.271   0.363   7.329  0.1147  0.0509  0.5134
 9210SOL    HW239093   3.144   0.380   7.249  1.0841 -0.4450 -0.5961
 9211SOL     OW39094   0.136   4.626   3.544  0.1552 -0.0358 -0.4103
 9211SOL    HW139095   0.218   4.593   3.507  1.3962  1.8865  0.6757
 9211SOL    HW239096   0.119   4.699   3.485  0.3771 -1.7187 -2.5437
 9212SOL     OW39097   3.898   2.556   9.917 -0.4371  0.1630 -0.1904
 9212SOL    HW139098   3.918   2.511   9.999  0.1816 -1.4030 -1.1968
 9212SOL    HW239099   3.803   2.553   9.910 -0.4066  0.5407 -0.7933
 9213SOL     OW39100   0.235   1.129   5.392 -0.3364 -1.0829 -0.0993
 9213SOL    HW139101   0.152   1.096   5.427 -1.6748  0.5151 -1.7762
 9213SOL    HW239102   0.224   1.086   5.307 -0.1078  1.4988 -1.4355
 9214SOL     OW39103   3.492   2.594  13.506  0.3632  0.1815 -0.0874
 9214SOL    HW139104   3.508   2.648  13.429 -0.7290  1.9022  0.9009
 9214SOL    HW239105   3.519   2.653  13.576  3.4614 -0.0001 -1.1323
 9215SOL     OW39106   1.384   0.081   4.603 -0.2255 -0.0179 -0.7993
 9215SOL    HW139107   1.336   0.162   4.587  1.2457  0.6744 -1.6373
 9215SOL    HW239108   1.332   0.027   4.662  0.7878 -1.1719 -0.9688
 9216SOL     OW39109   3.863   4.172   0.203 -0.5116 -0.1821  0.1829
 9216SOL    HW139110   3.927   4.126   0.258  1.1309 -2.1648 -3.3770
 9216SOL    HW239111   3.869   4.263   0.232 -1.8055 -0.4476  1.3097
 9217SOL     OW39112   3.212   3.763  12.412  0.0209  0.0318  0.9141
 9217SOL    HW139113   3.126   3.798  12.389 -0.5686 -1.7559  0.4311
 9217SOL    HW239114   3.186   3.674  12.438 -0.5177 -0.8727 -2.7219
 9218SOL     OW39115   1.464   2.776   4.436  0.4134 -0.4133 -0.6548
 9218SOL    HW139116   1.541   2.762   4.381  1.4692 -1.0858  0.9881
 9218SOL    HW239117   1.480   2.711   4.505 -1.7609 -1.0480 -0.7435
 9219SOL     OW39118   2.772   2.528   2.867 -0.1530 -0.1806  0.5286
 9219SOL    HW139119   2.728   2.574   2.940  0.3111  0.5731  0.3335
 9219SOL    HW239120   2.794   2.447   2.912 -0.3359  0.1219  1.1706
 9220SOL     OW39121   0.328   0.204   9.292  0.1212 -0.5486 -0.0023
 9220SOL    HW139122   0.263   0.223   9.225  0.5196 -0.8591 -0.4831
 9220SOL    HW239123   0.309   0.274   9.354 -2.0617  0.0752 -1.4230
 9221SOL     OW39124   0.219   1.406  16.929 -0.3584  0.5996 -0.2967
 9221SOL    HW139125   0.218   1.326  16.875  0.0877  1.1868 -1.1710
 9221SOL    HW239126   0.150   1.384  16.992 -0.7660  0.3999 -0.8157
 9222SOL     OW39127   3.077   0.246   5.419 -0.5355 -0.3492  0.3218
 9222SOL    HW139128   3.007   0.306   5.396  0.1288  0.5236  0.5750
 9222SOL    HW239129   3.139   0.296   5.472  0.0160  0.3039 -0.9431
 9223SOL     OW39130   4.389   3.722   1.709 -0.9765  0.0062 -0.2305
 9223SOL    HW139131   4.329   3.774   1.655 -0.7157  0.5447 -0.0043
 9223SOL    HW239132   4.470   3.772   1.698 -1.5859  1.0515  0.0467
 9224SOL     OW39133   3.490   1.318   9.145  0.0293 -0.1758 -0.3247
 9224SOL    HW139134   3.577   1.288   9.172 -0.6713  0.9865  3.2279
 9224SOL    HW239135   3.515   1.410   9.142  1.5344 -0.5709 -0.1147
 9225SOL     OW39136   4.555   1.204   0.068 -0.0805 -0.0430  0.3627
 9225SOL    HW139137   4.586   1.138   0.129 -1.0962 -0.6354  0.2340
 9225SOL    HW239138   4.621   1.271   0.087  0.8804 -0.3152 -2.1080
 9226SOL     OW39139   0.793   4.507   9.386 -0.0474 -0.2317  0.1332
 9226SOL    HW139140   0.806   4.500   9.291  1.0395 -3.1198  0.4897
 9226SOL    HW239141   0.828   4.427   9.426 -2.7844 -2.2421 -1.4983
 9227SOL     OW39142   4.033   3.594   5.869  0.3721  0.1635 -0.2383
 9227SOL    HW139143   4.079   3.589   5.785  0.7415 -1.3435  0.0429
 9227SOL    HW239144   4.070   3.676   5.903 -1.5161  0.7505  0.3589
 9228SOL     OW39145   2.900   1.772  10.334 -0.1861  0.2496  0.5234
 9228SOL    HW139146   2.959   1.701  10.356 -0.5493 -0.9262 -2.2481
 9228SOL    HW239147   2.875   1.815  10.416  1.4710  0.4376  0.9300
 9229SOL     OW39148   1.665   2.886   9.448 -0.2032  0.1024  0.0784
 9229SOL    HW139149   1.623   2.802   9.426 -1.1860  0.8169 -0.7738
 9229SOL    HW239150   1.594   2.947   9.429  1.4648  1.7377 -0.8862
 9230SOL     OW39151   2.323   2.202   7.296 -0.1072 -0.9705 -0.2814
 9230SOL    HW139152   2.368   2.248   7.366 -1.7121 -2.4482  1.7420
 9230SOL    HW239153   2.245   2.257   7.292 -0.4644 -1.4534 -0.0429
 9231SOL     OW39154   1.704   0.769   6.088 -0.0459 -0.1977  0.2060
 9231SOL    HW139155   1.653   0.713   6.147  1.2242 -1.1247  0.4218
 9231SOL    HW239156   1.653   0.803   6.014 -0.0605 -0.1022  0.2593
 9232SOL     OW39157   4.316   4.512   2.004  0.0841  0.1878  0.3484
 9232SOL    HW139158   4.391   4.521   1.946  0.5417  1.5257  1.1425
 9232SOL    HW239159   4.313   4.603   2.034  0.5365  0.5108 -0.5971
 9233SOL     OW39160   0.483   0.438   3.019  0.3993  0.4485 -0.1951
 9233SOL    HW139161   0.542   0.513   3.029  0.4599  0.2058  1.2415
 9233SOL    HW239162   0.490   0.425   2.924 -0.9075 -0.3589 -0.1741
 9234SOL     OW39163   1.627   1.668  13.676 -0.5307  0.3559 -0.1609
 9234SOL    HW139164   1.549   1.702  13.721 -1.2045 -1.4464  0.0522
 9234SOL    HW239165   1.605   1.575  13.679 -0.8329  0.4253 -0.2676
 9235SOL     OW39166   4.105   2.068   8.382  0.3024 -0.0249 -0.5255
 9235SOL    HW139167   4.200   2.062   8.370  0.6644  0.4662  2.0818
 9235SOL    HW239168   4.081   1.986   8.339  1.0807 -1.1394  1.1350
 9236SOL     OW39169   1.321   4.409   4.539 -0.6455 -0.2870 -0.8062
 9236SOL    HW139170   1.251   4.344   4.531 -0.8396  0.1777 -2.9277
 9236SOL    HW239171   1.272   4.488   4.514 -0.4638  0.0141 -0.2002
 9237SOL     OW39172   2.579   2.692  16.978 -0.4205 -0.1010 -0.1575
 9237SOL    HW139173   2.658   2.638  16.982  0.3808  1.0014 -1.2974
 9237SOL    HW239174   2.528   2.629  16.927  1.0808 -1.0805 -0.4724
 9238SOL     OW39175   0.051   3.434   2.408 -0.2033  0.3089  0.0742
 9238SOL    HW139176   4.727   3.354   2.421  0.0600  0.1982  0.4318
 9238SOL    HW239177   0.081   3.407   2.321  4.0175  1.2682  1.2520
 9239SOL     OW39178   0.057   3.605   7.979 -0.3072 -0.2955 -0.7848
 9239SOL    HW139179   0.106   3.687   7.984  0.4814 -0.8069 -0.0626
 9239SOL    HW239180   0.112   3.562   7.914 -2.8083 -0.5532 -2.7184
 9240SOL     OW39181   1.822   3.343   5.216  0.1556  0.4448  0.1022
 9240SOL    HW139182   1.818   3.299   5.301  0.2557 -0.3416 -0.3003
 9240SOL    HW239183   1.882   3.286   5.169 -1.5506 -2.3113  1.2553
 9241SOL     OW39184   1.207   2.600   8.079  0.1922  0.2095 -0.1382
 9241SOL    HW139185   1.155   2.550   8.141  2.7701 -1.2786  0.8075
 9241SOL    HW239186   1.133   2.628   8.025  0.8017 -1.0999 -1.6799
 9242SOL     OW39187   1.369   1.405   4.698  0.1707 -0.5274  0.5443
 9242SOL    HW139188   1.410   1.402   4.611  1.0702  1.4164  0.9125
 9242SOL    HW239189   1.293   1.462   4.685  1.5651  1.3461  0.5708
 9243SOL     OW39190   0.935   1.585   2.962 -0.2461  0.5626  0.7662
 9243SOL    HW139191   1.014   1.589   2.908  0.3586 -2.9440  1.3616
 9243SOL    HW239192   0.967   1.651   3.023  1.6229 -0.9586  1.4346
 9244SOL     OW39193   0.299   3.779   4.915 -0.5476  0.0570 -0.0889
 9244SOL    HW139194   0.371   3.722   4.888 -2.0873 -1.1708 -1.6099
 9244SOL    HW239195   0.221   3.723   4.912  0.7295 -1.7304 -0.2035
 9245SOL     OW39196   3.887   1.382   6.214 -0.5349  0.2115 -0.0061
 9245SOL    HW139197   3.933   1.464   6.236  1.6290 -1.0739  0.2204
 9245SOL    HW239198   3.889   1.368   6.119 -0.9991  1.0944 -0.1502
 9246SOL     OW39199   2.330   0.711   6.253 -0.5364 -0.8582 -0.0907
 9246SOL    HW139200   2.308   0.618   6.248  0.8126 -1.1354 -0.8959
 9246SOL    HW239201   2.306   0.740   6.341  2.1267 -1.3997  0.8296
 9247SOL     OW39202   2.671   0.422  14.028  0.0660  0.0250 -0.5700
 9247SOL    HW139203   2.666   0.415  14.123  0.8705 -1.3167 -0.6249
 9247SOL    HW239204   2.612   0.354  13.995  1.1115 -1.6380  1.0028
 9248SOL     OW39205   4.711   0.051  12.345 -0.3025 -0.2656  0.1015
 9248SOL    HW139206   0.045   0.122  12.329  0.6068 -0.5581  2.3561
 9248SOL    HW239207   4.647   0.091  12.403  0.1458 -0.2291  0.5686
 9249SOL     OW39208   1.301   1.320   2.972  0.1612 -0.4528  0.4596
 9249SOL    HW139209   1.257   1.240   2.941  0.6856 -0.8011  0.6111
 9249SOL    HW239210   1.230   1.342   3.033  1.2134  0.4723  1.3467
 9250SOL     OW39211   3.829   0.396  15.436 -0.3737 -0.0421  0.1270
 9250SOL    HW139212   3.830   0.342  15.514 -0.9211 -1.0151 -0.5421
 9250SOL    HW239213   3.908   0.449  15.450 -1.0370  1.3687 -1.3228
 9251SOL     OW39214   2.407   0.119   4.969  0.0266  0.7465  0.5051
 9251SOL    HW139215   2.394   0.214   4.961  0.8603  0.7358 -1.0139
 9251SOL    HW239216   2.392   0.098   4.877 -0.7792  0.8161  0.6198
 9252SOL     OW39217   3.036   1.270   6.246  0.1717 -0.1591 -0.0051
 9252SOL    HW139218   3.069   1.243   6.331 -0.4954 -0.9807 -0.0167
 9252SOL    HW239219   3.118   1.279   6.198 -0.4087  0.5199 -0.8824
 9253SOL     OW39220   0.409   4.201  10.799 -0.2173  0.2292 -0.4756
 9253SOL    HW139221   0.495   4.215  10.839  0.0486  2.0946 -1.7258
 9253SOL    HW239222   0.441   4.208  10.709 -1.0861 -1.3309 -0.9138
 9254SOL     OW39223   0.504   4.286   4.244  0.2474  0.2821 -0.1442
 9254SOL    HW139224   0.499   4.306   4.150  1.5709 -0.6884 -0.4155
 9254SOL    HW239225   0.584   4.335   4.266  0.2851  0.6170 -0.9808
 9255SOL     OW39226   2.706   2.414  13.971  0.2019  0.4880  0.3707
 9255SOL    HW139227   2.732   2.354  14.041 -4.6851 -0.7868  1.0643
 9255SOL    HW239228   2.644   2.472  14.015 -0.4150  1.2320 -1.4727
 9256SOL     OW39229   0.227   0.351   6.563 -0.2374 -0.3950  0.2944
 9256SOL    HW139230   0.301   0.296   6.590  0.8947  1.6009  1.2422
 9256SOL    HW239231   0.175   0.343   6.643 -0.2382 -0.2892  0.3040
 9257SOL     OW39232   4.536   1.911   0.890 -0.1640  0.0057 -0.6090
 9257SOL    HW139233   4.524   1.825   0.932  0.3820 -0.2598 -1.0075
 9257SOL    HW239234   4.481   1.963   0.949 -0.7305  1.0633 -2.0838
 9258SOL     OW39235   0.163   3.589   5.639  0.0918  0.4284  0.0139
 9258SOL    HW139236   0.100   3.652   5.675 -0.0745 -0.3268  1.0300
 9258SOL    HW239237   0.213   3.648   5.582  1.4897 -1.3053 -0.5528
 9259SOL     OW39238   2.311   1.198   8.996  0.0080 -0.3588 -0.2097
 9259SOL    HW139239   2.260   1.205   8.915  0.4286 -5.7133 -0.9319
 9259SOL    HW239240   2.386   1.254   8.978  1.0198 -1.8093 -0.5017
 9260SOL     OW39241   1.985   4.075   3.144  0.1245 -0.2390  0.5256
 9260SOL    HW139242   1.999   4.046   3.234 -0.7402  2.4187  1.4917
 9260SOL    HW239243   1.921   4.145   3.152 -1.2501 -1.4196 -0.2405
 9261SOL     OW39244   1.086   0.483   4.555  0.4655 -0.0051 -0.0263
 9261SOL    HW139245   1.079   0.469   4.461  0.7100  3.1971 -0.5487
 9261SOL    HW239246   1.140   0.408   4.580  0.7883 -0.7549 -3.0097
 9262SOL     OW39247   1.343   0.425   5.535  0.6970 -0.6201  0.3265
 9262SOL    HW139248   1.281   0.447   5.605  0.5919  1.2547 -0.3544
 9262SOL    HW239249   1.300   0.351   5.492 -0.2040  0.4367 -0.5869
 9263SOL     OW39250   3.612   0.245  11.250 -0.2547 -0.2151  0.5004
 9263SOL    HW139251   3.630   0.316  11.312  1.1210  0.1372 -0.2957
 9263SOL    HW239252   3.572   0.288  11.174  1.0885 -1.2580 -0.8000
 9264SOL     OW39253   2.565   0.231   8.884  0.2221 -0.0827  0.0500
 9264SOL    HW139254   2.520   0.258   8.964 -4.7314 -4.1517 -1.3756
 9264SOL    HW239255   2.646   0.283   8.883  0.2687 -0.1579 -0.0396
 9265SOL     OW39256   3.055   2.376   8.045 -0.7440 -0.0552 -0.5089
 9265SOL    HW139257   3.115   2.393   7.973 -1.9167 -1.3302 -1.7754
 9265SOL    HW239258   2.996   2.451   8.037  2.9490  3.0721  1.6359
 9266SOL     OW39259   0.758   2.961   3.459 -0.0038  0.0493  0.1365
 9266SOL    HW139260   0.743   3.056   3.465  2.2358  0.3207  1.3858
 9266SOL    HW239261   0.689   2.937   3.521 -0.5448  1.4375  0.0819
 9267SOL     OW39262   0.779   4.453   6.062 -0.3997 -0.1435  0.2317
 9267SOL    HW139263   0.778   4.537   6.016 -0.1839 -0.3816 -0.2073
 9267SOL    HW239264   0.742   4.397   5.994  0.1786  0.2097 -0.3746
 9268SOL     OW39265   0.851   4.114  17.262 -0.0491  0.6306 -0.3759
 9268SOL    HW139266   0.814   4.038  17.218  0.3946  0.2451 -0.0798
 9268SOL    HW239267   0.772   4.158  17.293  1.1072  2.6130 -0.2210
 9269SOL     OW39268   1.146   0.133   9.396  0.3372  0.4885 -0.0481
 9269SOL    HW139269   1.191   0.211   9.427  0.4731  0.4543 -0.1581
 9269SOL    HW239270   1.056   0.152   9.424  0.2366  1.0099 -0.7142
 9270SOL     OW39271   3.129   3.302   8.983 -0.0149  0.2573  1.3271
 9270SOL    HW139272   3.184   3.225   8.970  1.0149  1.3873 -0.8921
 9270SOL    HW239273   3.089   3.271   9.065 -1.2459 -2.9745 -0.4629
 9271SOL     OW39274   2.872   2.013  15.217  0.1741 -0.1349 -0.5775
 9271SOL    HW139275   2.910   2.077  15.277  3.3842 -2.2793 -0.2876
 9271SOL    HW239276   2.840   2.065  15.144 -1.6958  1.1329  1.1339
 9272SOL     OW39277   3.633   1.364  16.511 -0.7080 -0.0290  0.1286
 9272SOL    HW139278   3.579   1.440  16.489  0.8053  0.7967 -0.7403
 9272SOL    HW239279   3.716   1.399  16.477 -1.9395  1.2937 -1.4678
 9273SOL     OW39280   2.967   3.571  14.508  0.4091  0.5880  0.2995
 9273SOL    HW139281   2.922   3.488  14.526 -0.4777  0.9565 -0.2157
 9273SOL    HW239282   3.007   3.595  14.591  2.2198  1.7140 -0.9073
 9274SOL     OW39283   4.219   1.695   6.882 -0.3981  0.0708  0.0370
 9274SOL    HW139284   4.185   1.614   6.843  0.5251 -0.7284  0.8915
 9274SOL    HW239285   4.308   1.661   6.872 -1.5320 -1.9736 -2.8805
 9275SOL     OW39286   0.515   0.744   7.412 -0.2054 -0.3994 -0.1995
 9275SOL    HW139287   0.556   0.787   7.488 -1.7704 -1.4595  1.2440
 9275SOL    HW239288   0.473   0.820   7.374  0.6753  0.3604  0.3393
 9276SOL     OW39289   3.995   4.587   4.374  0.4836  0.5362 -0.1849
 9276SOL    HW139290   4.080   4.625   4.350  0.5730  0.7890  0.5174
 9276SOL    HW239291   3.941   4.655   4.335  1.3154 -0.6511 -3.3550
 9277SOL     OW39292   0.819   0.631   4.467 -0.2603 -0.0157  0.2678
 9277SOL    HW139293   0.901   0.586   4.488 -0.4943 -0.7019 -0.2686
 9277SOL    HW239294   0.757   0.558   4.468 -0.6252  0.2919  0.3636
 9278SOL     OW39295   2.175   1.276   6.018 -0.4434 -0.1011 -0.3897
 9278SOL    HW139296   2.183   1.296   6.111 -0.3284  0.5576 -0.5394
 9278SOL    HW239297   2.134   1.190   6.010 -1.9103  0.5964 -0.3664
 9279SOL     OW39298   4.355   0.261  16.409 -0.0353 -0.0315 -0.3521
 9279SOL    HW139299   4.312   0.189  16.364  0.7694 -1.9387  1.9245
 9279SOL    HW239300   4.367   0.215  16.492  0.4562  1.8338  0.5996
 9280SOL     OW39301   4.247   2.964   7.725 -0.4343  0.3004  0.3770
 9280SOL    HW139302   4.246   2.885   7.670 -0.7096  1.5932 -1.4828
 9280SOL    HW239303   4.330   2.970   7.771  0.4962  2.1433 -1.5537
 9281SOL     OW39304   2.220   1.737   6.060 -0.5410  0.0560  0.8693
 9281SOL    HW139305   2.206   1.793   6.137 -2.7935  0.5948  0.0980
 9281SOL    HW239306   2.139   1.752   6.010 -1.1875 -0.5141  1.7315
 9282SOL     OW39307   1.602   0.540   5.849  0.1695  0.5854 -0.0804
 9282SOL    HW139308   1.510   0.552   5.823 -0.5143  0.0227  2.0753
 9282SOL    HW239309   1.599   0.507   5.938 -0.0281  0.0992 -0.2685
 9283SOL     OW39310   2.379   3.189  15.214 -0.8380 -0.3924 -0.0622
 9283SOL    HW139311   2.366   3.246  15.138 -0.6215  1.6566  1.4683
 9283SOL    HW239312   2.429   3.121  15.168 -2.3887 -1.5974  0.0087
 9284SOL     OW39313   0.106   2.737   3.276  0.1295  0.5645 -0.2010
 9284SOL    HW139314   0.173   2.687   3.230  0.8181  0.2301  1.1907
 9284SOL    HW239315   0.081   2.806   3.214 -0.6100  0.1978 -0.3118
 9285SOL     OW39316   1.825   3.018   3.881 -0.4057 -0.3563  0.3103
 9285SOL    HW139317   1.920   3.023   3.875 -0.4397  0.7876  0.6048
 9285SOL    HW239318   1.809   2.982   3.969  2.4614  0.2157  1.0427
 9286SOL     OW39319   2.193   2.133   2.539  0.3411  0.1910 -0.4277
 9286SOL    HW139320   2.234   2.057   2.498 -1.7308 -2.0068  1.5528
 9286SOL    HW239321   2.102   2.106   2.550 -0.1656  0.9258 -2.9522
 9287SOL     OW39322   1.515   1.276   3.712 -0.0920 -0.3218  0.3430
 9287SOL    HW139323   1.487   1.267   3.621  0.7446 -0.3318  0.0868
 9287SOL    HW239324   1.589   1.216   3.703 -1.0640 -1.4547 -0.1446
 9288SOL     OW39325   1.540   0.728   7.725  0.9559  0.0475  0.4849
 9288SOL    HW139326   1.520   0.695   7.638 -0.2763 -0.1147  0.8275
 9288SOL    HW239327   1.635   0.727   7.728  0.9728 -1.1405 -0.8214
 9289SOL     OW39328   3.714   3.180   4.659  0.3819  0.3099  0.3265
 9289SOL    HW139329   3.780   3.223   4.714 -0.0843  1.5093 -0.0592
 9289SOL    HW239330   3.728   3.226   4.577 -1.4858  0.1339 -0.0949
 9290SOL     OW39331   2.971   2.314  11.438 -0.6375  0.4077  0.3171
 9290SOL    HW139332   2.985   2.292  11.530  1.5279 -0.7212 -0.3016
 9290SOL    HW239333   3.044   2.368  11.410 -2.5729  3.1866  0.6568
 9291SOL     OW39334   2.059   4.710   3.373 -0.5622  0.4009 -0.4980
 9291SOL    HW139335   2.076   4.716   3.467  2.0398  0.9169 -1.0118
 9291SOL    HW239336   2.027   0.071   3.353 -3.6037 -1.1305 -2.4052
 9292SOL     OW39337   4.244   0.819   0.044 -0.2016 -0.5805 -0.3809
 9292SOL    HW139338   4.275   0.831  17.663 -0.9276  0.7112 -0.4589
 9292SOL    HW239339   4.204   0.733   0.033 -0.5047 -1.0750  4.7785
 9293SOL     OW39340   3.639   0.697   9.665  0.9160  0.9808 -0.1610
 9293SOL    HW139341   3.701   0.755   9.620  1.6248  0.8515  0.6455
 9293SOL    HW239342   3.694   0.635   9.713 -1.4228 -0.7875  0.2545
 9294SOL     OW39343   4.128   3.473   8.569  0.2691  0.7167  0.2276
 9294SOL    HW139344   4.104   3.544   8.510 -0.7739 -0.0800 -0.3028
 9294SOL    HW239345   4.224   3.468   8.563  0.3570  0.5969  1.6520
 9295SOL     OW39346   4.531   3.915   5.530 -0.0467 -0.5989 -0.0778
 9295SOL    HW139347   4.535   3.834   5.479 -0.6444 -0.6308 -0.0686
 9295SOL    HW239348   4.570   3.975   5.466  0.0187 -1.6570 -1.0473
 9296SOL     OW39349   3.963   1.860   8.769 -0.1296 -0.3195  0.5614
 9296SOL    HW139350   3.912   1.857   8.850  0.9368 -2.0308  1.1712
 9296SOL    HW239351   3.895   1.847   8.703 -0.4171 -1.8419  1.1508
 9297SOL     OW39352   3.436   4.000  13.550  0.1460  0.4051  0.2282
 9297SOL    HW139353   3.406   3.983  13.461 -0.0491 -1.9815  0.7388
 9297SOL    HW239354   3.489   4.079  13.545 -0.6206  0.9342  0.4302
 9298SOL     OW39355   3.760   0.084   3.330 -0.1144  0.0656 -0.4464
 9298SOL    HW139356   3.721   0.097   3.243  4.1524  0.5913 -2.2918
 9298SOL    HW239357   3.731   4.726   3.361 -3.8816  0.6306 -2.3978
 9299SOL     OW39358   2.437   2.438  17.618 -0.0449  0.3002  0.4298
 9299SOL    HW139359   2.459   2.530  17.626  1.0310  0.1202 -0.5297
 9299SOL    HW239360   2.443   2.414   0.001 -0.2124  0.1503  0.4021
 9300SOL     OW39361   0.381   3.747   9.237  0.1183  0.5868  0.1680
 9300SOL    HW139362   0.400   3.685   9.167  1.6480  0.1008  1.0220
 9300SOL    HW239363   0.426   3.711   9.314 -2.2196  0.7695  1.6200
 9301SOL     OW39364   0.622   3.554  10.154  0.0240  0.1890  0.3507
 9301SOL    HW139365   0.653   3.608  10.228  1.5914  2.2173 -1.7549
 9301SOL    HW239366   0.641   3.464  10.181  0.5266  0.5479  1.1994
 9302SOL     OW39367   0.079   0.234   9.917 -0.5144  0.4074 -0.2647
 9302SOL    HW139368   0.149   0.175   9.890 -0.7974  0.5292 -1.2743
 9302SOL    HW239369   0.094   0.227  10.011 -2.0650 -0.8794 -0.1089
 9303SOL     OW39370   1.485   4.599   0.430 -0.2261 -0.0030  0.2233
 9303SOL    HW139371   1.448   4.665   0.488 -1.7304  0.2721 -1.0611
 9303SOL    HW239372   1.472   4.517   0.478 -0.4775 -2.0629 -3.3637
 9304SOL     OW39373   3.225   1.674   2.748 -0.1956  0.7017  0.2882
 9304SOL    HW139374   3.257   1.602   2.803 -0.9404  0.8221  0.8725
 9304SOL    HW239375   3.300   1.733   2.733 -0.1759  0.6842  0.3175
 9305SOL     OW39376   3.045   1.622   3.526 -0.3577 -0.4016 -0.1129
 9305SOL    HW139377   2.975   1.558   3.509 -3.8987  3.0795  1.3368
 9305SOL    HW239378   3.042   1.679   3.450  1.8205  2.4035  1.8878
 9306SOL     OW39379   2.400   3.960  13.626  0.6184  0.5019 -0.0402
 9306SOL    HW139380   2.435   3.923  13.707  0.9921  1.1601  0.0962
 9306SOL    HW239381   2.308   3.951  13.651  0.6791 -0.7328 -0.2623
 9307SOL     OW39382   2.120   0.161  12.719 -0.1046  0.1695  0.0632
 9307SOL    HW139383   2.086   0.250  12.728  0.7862  0.4684  0.4944
 9307SOL    HW239384   2.169   0.148  12.801 -0.0961 -1.8363 -0.2698
 9308SOL     OW39385   0.914   0.607   5.341 -0.3844  0.3857  0.0872
 9308SOL    HW139386   0.896   0.700   5.324  1.6591  0.8747  0.6447
 9308SOL    HW239387   0.997   0.622   5.385 -0.6013  2.5000 -0.2014
 9309SOL     OW39388   2.902   0.593   8.774  0.1891 -0.9368  0.2667
 9309SOL    HW139389   2.989   0.565   8.745  0.3370 -0.9034  0.6801
 9309SOL    HW239390   2.849   0.516   8.753 -0.8823 -0.3122  0.6913
 9310SOL     OW39391   1.285   0.102   2.201  0.2733  0.1880  0.0621
 9310SOL    HW139392   1.240   0.019   2.184 -0.9480  0.3214  2.5897
 9310SOL    HW239393   1.220   0.170   2.219  0.6940  1.0960 -1.8974
 9311SOL     OW39394   0.191   1.590   3.268  0.1247  0.4854  0.7446
 9311SOL    HW139395   0.137   1.568   3.192  1.1125 -2.2808  0.8273
 9311SOL    HW239396   0.274   1.615   3.228  1.0301 -1.6420  1.3025
 9312SOL     OW39397   3.709   4.391   5.184  0.3851 -0.0339 -0.5730
 9312SOL    HW139398   3.670   4.340   5.113  0.8450 -1.7947  0.4189
 9312SOL    HW239399   3.706   4.328   5.256 -0.7587 -1.1834 -1.6192
 9313SOL     OW39400   0.382   1.779   4.466 -0.4453  0.1460 -0.1810
 9313SOL    HW139401   0.350   1.764   4.555 -2.1613  1.8619 -0.5027
 9313SOL    HW239402   0.301   1.789   4.415  1.4021  3.8901 -2.2831
 9314SOL     OW39403   3.185   4.416   1.741  0.2389 -0.3165 -0.0004
 9314SOL    HW139404   3.133   4.358   1.685  2.5034  0.0826 -2.5300
 9314SOL    HW239405   3.133   4.495   1.723  1.7911  1.0830  1.6399
 9315SOL     OW39406   1.862   3.764   2.305 -0.0818 -0.0633  0.1185
 9315SOL    HW139407   1.864   3.713   2.224  0.6721  1.9470 -1.1287
 9315SOL    HW239408   1.767   3.755   2.316 -0.1177 -0.1279 -0.2382
 9316SOL     OW39409   3.313   2.356   8.681  0.1003  0.1666 -0.0216
 9316SOL    HW139410   3.396   2.337   8.637 -0.7013 -2.3683 -0.4236
 9316SOL    HW239411   3.314   2.452   8.685  1.3561  0.1569 -0.1234
 9317SOL     OW39412   1.209   1.255   4.518 -0.1415  0.2481 -0.3922
 9317SOL    HW139413   1.143   1.243   4.586  0.9807 -0.5338  0.5697
 9317SOL    HW239414   1.158   1.234   4.440  2.0720 -0.6060 -1.6129
 9318SOL     OW39415   4.605   3.541   4.988  0.0231 -0.3183 -0.1702
 9318SOL    HW139416   4.549   3.478   5.035 -0.9461  0.3293 -0.4497
 9318SOL    HW239417   4.597   3.622   5.039 -2.5568  0.6804 -2.1364
 9319SOL     OW39418   1.890   3.603   4.552  0.1853 -0.4071  0.0370
 9319SOL    HW139419   1.897   3.562   4.639  3.0446 -2.9557 -1.3959
 9319SOL    HW239420   1.806   3.568   4.523  0.3227 -0.6114 -0.1193
 9320SOL     OW39421   2.638   3.869   8.311 -0.0254 -0.1552  0.0667
 9320SOL    HW139422   2.685   3.939   8.267 -0.4085  0.8569  1.2670
 9320SOL    HW239423   2.646   3.799   8.246 -3.4878 -0.3886 -0.1340
 9321SOL     OW39424   3.010   2.817   1.952  0.1155  0.1072 -0.7635
 9321SOL    HW139425   2.999   2.852   2.041  1.3115 -0.1399 -0.5212
 9321SOL    HW239426   2.939   2.862   1.906  0.3456 -0.6201 -1.8112
 9322SOL     OW39427   2.591   1.778  12.785  0.2277 -0.3962  0.5245
 9322SOL    HW139428   2.558   1.836  12.716 -0.6278  1.1002  2.2132
 9322SOL    HW239429   2.677   1.757  12.749  0.6252  0.3956  1.0199
 9323SOL     OW39430   2.393   0.514  14.840 -0.0340 -0.2808 -0.2783
 9323SOL    HW139431   2.339   0.592  14.827 -0.3391 -0.7394 -1.6935
 9323SOL    HW239432   2.372   0.463  14.762  0.2931  0.0750 -0.6013
 9324SOL     OW39433   0.420   3.246   7.573  0.1512  0.1357  0.4479
 9324SOL    HW139434   0.488   3.287   7.626 -0.4981 -1.4143  2.4922
 9324SOL    HW239435   0.422   3.299   7.494 -0.5690  0.2538  0.5062
 9325SOL     OW39436   3.095   3.239   8.307  0.3871  0.2281 -0.0256
 9325SOL    HW139437   3.119   3.296   8.379 -3.7374  0.4097  1.1975
 9325SOL    HW239438   3.109   3.306   8.241  0.3438  0.1707 -0.0938
 9326SOL     OW39439   3.048   4.196   3.206 -0.4439 -0.4265 -0.6078
 9326SOL    HW139440   2.977   4.220   3.266 -0.1662 -0.3717 -0.3012
 9326SOL    HW239441   2.992   4.166   3.134 -1.3390 -0.2056 -0.0046
 9327SOL     OW39442   2.246   3.404  17.375 -0.4235  0.0814 -0.6282
 9327SOL    HW139443   2.297   3.350  17.315 -1.8838 -1.2041 -0.7055
 9327SOL    HW239444   2.166   3.354  17.385 -1.7857  2.5370  0.7122
 9328SOL     OW39445   4.246   2.206   3.806 -0.1184 -0.9055  0.2216
 9328SOL    HW139446   4.244   2.214   3.902  1.4974 -0.6452  0.2364
 9328SOL    HW239447   4.289   2.123   3.789  1.5348  0.7139 -3.4859
 9329SOL     OW39448   3.264   4.578   7.637 -0.3546 -0.1504 -0.0423
 9329SOL    HW139449   3.224   4.496   7.667 -0.1669 -0.2239  0.0131
 9329SOL    HW239450   3.290   4.608   7.724 -1.1386 -1.3645  0.6170
 9330SOL     OW39451   0.758   1.603   3.718  0.0605 -0.0798 -0.2772
 9330SOL    HW139452   0.810   1.532   3.680  0.5688  0.4049 -0.4842
 9330SOL    HW239453   0.685   1.588   3.658  1.7221 -1.0737 -2.0655
 9331SOL     OW39454   1.172   0.608   2.511  0.4710 -0.3745  0.0925
 9331SOL    HW139455   1.219   0.569   2.437  1.4186  0.6480  0.1514
 9331SOL    HW239456   1.240   0.659   2.555  2.1718 -0.9713 -1.8476
 9332SOL     OW39457   2.032   3.243   2.340  0.4914 -0.0832  0.5169
 9332SOL    HW139458   1.959   3.201   2.385 -0.8571 -1.9717 -3.3602
 9332SOL    HW239459   2.053   3.314   2.401 -0.7017  2.3105 -1.8463
 9333SOL     OW39460   2.535   3.581   4.174  0.2585  0.1199 -0.4746
 9333SOL    HW139461   2.517   3.633   4.095 -0.8001  0.3409 -0.0853
 9333SOL    HW239462   2.599   3.524   4.132 -0.3995 -3.0025  2.7921
 9334SOL     OW39463   1.567   3.266   3.072  0.1978 -0.2073  0.1799
 9334SOL    HW139464   1.552   3.240   3.163 -1.0365 -0.8238 -0.1930
 9334SOL    HW239465   1.531   3.195   3.019 -2.5547  1.8040 -0.6991
 9335SOL     OW39466   3.354   2.274   0.319  0.2997 -0.3384  0.4538
 9335SOL    HW139467   3.382   2.184   0.305  2.6388  0.5975 -0.8372
 9335SOL    HW239468   3.437   2.312   0.348  0.5151 -0.2238 -0.3232
 9336SOL     OW39469   2.686   0.931  13.739  0.2147  0.1191  0.0897
 9336SOL    HW139470   2.737   0.893  13.667  0.7852  2.5577 -0.7929
 9336SOL    HW239471   2.732   0.906  13.819  1.3889  2.5461  0.1878
 9337SOL     OW39472   4.617   3.918   9.941 -0.2345  0.1942  0.2503
 9337SOL    HW139473   4.577   3.934  10.026 -0.7124  1.8031 -0.2819
 9337SOL    HW239474   4.650   3.830   9.957  1.2228  0.2997 -2.1126
 9338SOL     OW39475   1.429   0.850  17.194 -0.4682 -0.3058  0.0391
 9338SOL    HW139476   1.381   0.932  17.200 -0.8405 -0.5282  0.0562
 9338SOL    HW239477   1.466   0.842  17.282  0.3794  0.8776 -0.2105
 9339SOL     OW39478   2.758   0.294   5.725  0.5703 -0.5303  0.1673
 9339SOL    HW139479   2.832   0.244   5.692  1.8515  0.1269  2.0224
 9339SOL    HW239480   2.699   0.316   5.653  0.3248  0.0190  0.5261
 9340SOL     OW39481   2.278   1.083   2.599  0.0845 -0.0222 -1.0130
 9340SOL    HW139482   2.305   1.100   2.508  1.8499  0.1320 -0.4688
 9340SOL    HW239483   2.329   1.003   2.613  2.2232  1.1964 -1.6885
 9341SOL     OW39484   1.333   1.354   7.303 -0.0987 -0.0629 -0.3773
 9341SOL    HW139485   1.366   1.285   7.244  2.1955  0.3554  0.4115
 9341SOL    HW239486   1.298   1.418   7.242 -0.0163 -1.9395 -2.4126
 9342SOL     OW39487   0.496   1.837   7.338  0.4097  0.4003 -0.0888
 9342SOL    HW139488   0.485   1.872   7.250 -0.0428  1.0906  0.2390
 9342SOL    HW239489   0.591   1.826   7.337  0.3099 -0.4976  0.3128
 9343SOL     OW39490   2.479   0.371   8.579  0.2411 -0.2344  1.0436
 9343SOL    HW139491   2.514   0.341   8.496  1.2019  0.1278  1.3205
 9343SOL    HW239492   2.546   0.335   8.637 -1.1348 -0.9175  2.2195
 9344SOL     OW39493   4.346   2.431   8.208  0.1376  0.2638  0.0003
 9344SOL    HW139494   4.292   2.510   8.216  0.6534  0.6472 -0.2825
 9344SOL    HW239495   4.325   2.367   8.276 -1.5217  1.7305  0.8615
 9345SOL     OW39496   3.227   3.498   5.905 -0.0550 -0.1996 -0.6315
 9345SOL    HW139497   3.194   3.523   5.819  0.9892  1.0437 -0.6647
 9345SOL    HW239498   3.314   3.463   5.889 -0.4277 -1.9179  1.1282
 9346SOL     OW39499   4.348   3.219  14.954 -0.6390  0.1782  0.0563
 9346SOL    HW139500   4.270   3.176  14.991  1.2551  0.1322  3.9698
 9346SOL    HW239501   4.314   3.280  14.889 -0.9556 -1.5224 -1.3844
 9347SOL     OW39502   2.183   2.680   2.988  0.4791 -0.2782  0.1574
 9347SOL    HW139503   2.276   2.696   3.007  0.3106  2.2492 -1.1641
 9347SOL    HW239504   2.182   2.694   2.893 -0.0931 -0.4390  0.1440
 9348SOL     OW39505   0.114   3.045   2.062 -0.6633  0.1008  0.4372
 9348SOL    HW139506   0.185   3.074   2.005 -1.0747 -1.1236 -0.6915
 9348SOL    HW239507   0.070   2.982   2.005  0.6947  2.0959 -2.8195
 9349SOL     OW39508   4.723   0.065   4.768  0.1916 -0.4445 -0.2377
 9349SOL    HW139509   0.049   0.106   4.835 -1.3804  3.1826 -1.1995
 9349SOL    HW239510   4.687   4.713   4.808 -1.1570  0.8417  1.0792
 9350SOL     OW39511   0.765   2.377   3.619 -0.2614 -0.1005 -0.4929
 9350SOL    HW139512   0.785   2.442   3.552 -0.4832 -1.6495 -2.0545
 9350SOL    HW239513   0.804   2.297   3.583 -1.3691 -1.5743  1.5937
 9351SOL     OW39514   3.660   0.562   3.868 -0.1953  0.8746  0.2196
 9351SOL    HW139515   3.653   0.515   3.951 -1.9354 -0.1661 -0.5220
 9351SOL    HW239516   3.617   0.645   3.887 -1.1839  0.0294  1.6891
 9352SOL     OW39517   3.541   3.587   6.896 -0.0667 -0.0975 -0.2891
 9352SOL    HW139518   3.635   3.598   6.881  0.2454 -0.4581  1.4207
 9352SOL    HW239519   3.512   3.520   6.833  0.8435 -1.6695  0.9490
 9353SOL     OW39520   4.118   1.309  17.135 -0.0425 -0.1193  0.2176
 9353SOL    HW139521   4.125   1.221  17.098  0.6265  0.4350 -0.9719
 9353SOL    HW239522   4.179   1.295  17.208 -0.3616  0.2004  0.5475
 9354SOL     OW39523   1.115   3.160   8.185  0.0013  0.1010  0.7223
 9354SOL    HW139524   1.023   3.132   8.192  0.1662 -0.4166  0.7613
 9354SOL    HW239525   1.153   3.106   8.254 -0.9274 -2.0721 -0.4942
 9355SOL     OW39526   0.111   4.347   0.482 -0.0128 -0.0871  0.3698
 9355SOL    HW139527   0.080   4.272   0.433 -0.8376  1.5419 -1.5953
 9355SOL    HW239528   0.051   4.340   0.556  0.0190  0.1889  0.4241
 9356SOL     OW39529   1.905   1.620   1.564 -0.3910 -0.5448  0.0600
 9356SOL    HW139530   1.941   1.625   1.653 -1.7795 -1.4108  0.6701
 9356SOL    HW239531   1.969   1.568   1.517 -0.9781 -1.8377  0.6756
 9357SOL     OW39532   2.752   0.913   8.006 -0.3151  0.1615 -0.2235
 9357SOL    HW139533   2.829   0.874   8.047 -2.2009 -2.9748  0.3137
 9357SOL    HW239534   2.688   0.904   8.077  1.1267  2.3382  1.3508
 9358SOL     OW39535   3.914   1.460   5.537  0.1432  0.4134  0.0260
 9358SOL    HW139536   3.987   1.398   5.540 -0.1721 -0.0297 -1.6055
 9358SOL    HW239537   3.907   1.479   5.630  1.5527  0.3582  0.1476
 9359SOL     OW39538   3.373   3.737   6.050 -0.1215  0.3886 -0.4387
 9359SOL    HW139539   3.400   3.828   6.061  0.7479 -0.3516  3.6049
 9359SOL    HW239540   3.456   3.693   6.030 -0.6835 -0.0030 -1.8556
 9360SOL     OW39541   2.015   0.215   2.904 -0.3405 -0.1138 -0.1807
 9360SOL    HW139542   1.929   0.214   2.863  0.5613  2.5673 -2.1449
 9360SOL    HW239543   2.035   0.123   2.919 -3.3621 -0.6676  0.3270
 9361SOL     OW39544   3.462   3.502  13.963  0.2566  0.1072 -0.0600
 9361SOL    HW139545   3.494   3.413  13.974  1.4168  0.5562  0.2034
 9361SOL    HW239546   3.393   3.506  14.029 -1.8351 -0.2798 -2.2570
 9362SOL     OW39547   2.000   2.685   3.860 -0.5725  0.2966  0.3177
 9362SOL    HW139548   2.049   2.690   3.778  0.2360  1.3005  0.8639
 9362SOL    HW239549   1.921   2.642   3.828 -0.0335 -0.5523  0.1240
 9363SOL     OW39550   0.004   4.162   8.109  0.1778  0.1049 -0.4890
 9363SOL    HW139551   0.091   4.145   8.144  0.3376  1.0335 -0.4436
 9363SOL    HW239552   4.685   4.159   8.193 -0.9821 -1.4547 -1.1674
 9364SOL     OW39553   4.613   0.638  12.674 -0.2593 -0.0048 -0.9238
 9364SOL    HW139554   4.699   0.675  12.694 -0.4221 -0.4225  0.5755
 9364SOL    HW239555   4.616   0.623  12.580  0.4703 -2.3977 -0.5230
 9365SOL     OW39556   1.712   4.058   5.531  0.3751  0.0067 -0.4548
 9365SOL    HW139557   1.723   3.981   5.587  0.8457  0.3378 -0.0841
 9365SOL    HW239558   1.617   4.063   5.519  0.8364  0.8628 -3.7993
 9366SOL     OW39559   4.564   3.108   9.651 -0.1974 -0.8381 -0.3650
 9366SOL    HW139560   4.615   3.146   9.723 -1.6576 -0.6526  0.5696
 9366SOL    HW239561   4.479   3.096   9.692 -1.6529 -0.7839 -3.4445
 9367SOL     OW39562   2.911   1.307   3.071 -0.1999 -0.2266 -0.2875
 9367SOL    HW139563   2.941   1.305   2.980  1.0861  1.0082  0.0997
 9367SOL    HW239564   2.970   1.376   3.102 -0.9152 -0.7547  2.2534
 9368SOL     OW39565   4.488   4.388  11.671 -0.2175  0.3123 -0.6548
 9368SOL    HW139566   4.418   4.428  11.722  0.8693 -1.2591  2.0581
 9368SOL    HW239567   4.515   4.472  11.633  3.0752  0.1129  1.2109
 9369SOL     OW39568   4.547   3.679  12.614 -0.5284  0.5106  0.1659
 9369SOL    HW139569   4.557   3.669  12.519 -0.3031 -2.0236  0.4720
 9369SOL    HW239570   4.454   3.660  12.630  0.1781 -1.7471  1.5357
 9370SOL     OW39571   1.546   1.079   7.924 -0.6058  0.3552 -0.3076
 9370SOL    HW139572   1.573   1.110   7.838  1.1993  3.5209  1.3726
 9370SOL    HW239573   1.510   1.163   7.951 -2.2334 -0.6976  0.7792
 9371SOL     OW39574   3.448   3.959   6.718  0.0001 -0.7032 -0.1228
 9371SOL    HW139575   3.408   3.885   6.674  0.4299 -1.3799  0.6040
 9371SOL    HW239576   3.493   3.920   6.794  0.9299  0.0822 -0.2589
 9372SOL     OW39577   2.622   3.091   6.868 -0.5565  0.6316  0.5651
 9372SOL    HW139578   2.600   3.037   6.792 -2.0436  2.1659 -0.0908
 9372SOL    HW239579   2.557   3.085   6.938 -2.4501 -2.6656 -1.5040
 9373SOL     OW39580   3.556   3.064   2.325 -0.3145 -0.2516  0.7637
 9373SOL    HW139581   3.555   2.977   2.286 -0.0389 -0.1020  0.4176
 9373SOL    HW239582   3.526   3.113   2.249  1.3621  0.7148  0.7191
 9374SOL     OW39583   3.029   0.717   3.326 -0.6574  0.4589  0.3812
 9374SOL    HW139584   3.055   0.650   3.263 -2.3142 -0.3503  0.5497
 9374SOL    HW239585   3.054   0.686   3.412 -2.3182 -0.4097  0.5594
 9375SOL     OW39586   3.653   1.869   2.401  1.0353 -0.1930 -0.1263
 9375SOL    HW139587   3.564   1.834   2.392  1.0847 -0.5665  0.9022
 9375SOL    HW239588   3.656   1.934   2.330 -3.6101  0.2322  0.0430
 9376SOL     OW39589   0.988   4.458  14.831  0.3344  0.1856  0.0987
 9376SOL    HW139590   1.019   4.367  14.831 -1.0162 -0.2668 -0.0280
 9376SOL    HW239591   0.987   4.485  14.740  2.6215 -0.1036 -0.0262
 9377SOL     OW39592   2.942   1.743   6.169  0.8101  0.3163 -0.2111
 9377SOL    HW139593   2.907   1.656   6.187  1.2926  0.2772  0.5358
 9377SOL    HW239594   2.994   1.726   6.091 -1.7137 -0.3949 -1.7228
 9378SOL     OW39595   2.279   4.302   7.515  0.0033 -0.5235 -0.1324
 9378SOL    HW139596   2.370   4.284   7.492 -0.1564 -0.7495 -0.5814
 9378SOL    HW239597   2.261   4.352   7.436  0.8243 -0.9142 -0.5625
 9379SOL     OW39598   4.262   0.819  10.415  0.4239  0.1236 -0.1155
 9379SOL    HW139599   4.247   0.900  10.464  1.5205 -1.7058  3.2666
 9379SOL    HW239600   4.340   0.846  10.366  0.8213 -0.9592 -0.0889
 9380SOL     OW39601   2.864   3.616   6.292  0.2918  0.2443  0.3911
 9380SOL    HW139602   2.893   3.599   6.202 -1.8626 -2.7829  0.2498
 9380SOL    HW239603   2.817   3.699   6.283 -1.5521 -0.6265  2.1394
 9381SOL     OW39604   0.611   3.469   9.706 -0.5531 -0.3709 -0.4522
 9381SOL    HW139605   0.551   3.425   9.766 -1.0856 -1.1587 -1.5522
 9381SOL    HW239606   0.628   3.548   9.758 -0.6212 -0.4174 -0.3600
 9382SOL     OW39607   1.337   0.186  11.618 -0.8380  0.1605  0.4113
 9382SOL    HW139608   1.330   0.107  11.672 -0.1667 -1.6654 -2.1573
 9382SOL    HW239609   1.398   0.151  11.552 -1.0109  0.0269  0.3216
 9383SOL     OW39610   2.687   0.055   2.385  0.5400 -0.2395  0.2704
 9383SOL    HW139611   2.766   0.082   2.337  1.3302 -0.6536  1.3259
 9383SOL    HW239612   2.655   4.708   2.334  1.0746  0.2708 -0.8009
 9384SOL     OW39613   2.811   1.529  15.743  0.3678  0.1302  0.1412
 9384SOL    HW139614   2.851   1.493  15.664 -0.7301  1.0460 -0.8371
 9384SOL    HW239615   2.819   1.623  15.728 -2.1105  0.0269 -1.8766
 9385SOL     OW39616   3.289   0.350   4.283  0.1969  0.3187  0.0919
 9385SOL    HW139617   3.336   0.296   4.347  0.5083 -0.0163 -0.4172
 9385SOL    HW239618   3.228   0.299   4.230  0.6436  0.6618 -0.7558
 9386SOL     OW39619   1.243   2.230  13.886 -0.0776 -0.0474 -0.1263
 9386SOL    HW139620   1.232   2.301  13.823 -1.9394 -2.1444 -2.1399
 9386SOL    HW239621   1.278   2.276  13.963 -0.0517  2.0793 -1.4068
 9387SOL     OW39622   3.955   1.214  15.217 -0.0261 -0.0339 -0.5554
 9387SOL    HW139623   3.902   1.289  15.191 -2.7131 -0.7716  2.6859
 9387SOL    HW239624   3.892   1.142  15.207 -0.3022 -0.1273  1.7394
 9388SOL     OW39625   0.112   2.668   9.372  0.1355 -0.1373  0.0429
 9388SOL    HW139626   0.070   2.642   9.454 -0.8253  2.5503  0.3945
 9388SOL    HW239627   0.176   2.597   9.364 -0.1162 -0.4888  1.1908
 9389SOL     OW39628   4.628   4.051  16.083  0.1418  0.1585  0.1767
 9389SOL    HW139629   4.574   4.028  16.159  0.0685 -0.1335  0.0366
 9389SOL    HW239630   4.709   4.001  16.091  0.3087  0.6097  1.2989
 9390SOL     OW39631   0.066   0.226   3.857 -0.1222  0.2977 -0.4876
 9390SOL    HW139632   4.707   0.254   3.827  0.2924  3.0805  0.9624
 9390SOL    HW239633   0.051   0.240   3.950  1.2459  0.0259 -0.2261
 9391SOL     OW39634   4.500   3.199  13.515  0.1719  0.6414  0.9612
 9391SOL    HW139635   4.492   3.216  13.609 -0.8856  0.6632  0.8633
 9391SOL    HW239636   4.497   3.103  13.516 -3.1405  0.7513  2.3847
 9392SOL     OW39637   2.046   2.563   8.910 -0.1879  0.4569 -0.2414
 9392SOL    HW139638   1.970   2.522   8.952  0.3343  0.9141  1.1594
 9392SOL    HW239639   2.070   2.483   8.863  0.7723  0.4358  0.2937
 9393SOL     OW39640   4.645   2.822   7.784 -0.5010 -0.0425  0.7957
 9393SOL    HW139641   4.638   2.756   7.854 -2.7341 -1.5815 -0.8724
 9393SOL    HW239642   4.703   2.777   7.723 -3.8026 -2.8068 -0.2917
 9394SOL     OW39643   4.128   3.459   4.097  0.5427  0.1458 -0.0918
 9394SOL    HW139644   4.192   3.392   4.122 -0.0257 -0.2624  0.2572
 9394SOL    HW239645   4.043   3.431   4.130  0.9428  1.2124  1.8681
 9395SOL     OW39646   1.601   1.683  12.855 -0.0378 -0.7444 -0.5473
 9395SOL    HW139647   1.626   1.771  12.885 -0.8338 -1.4898  2.3125
 9395SOL    HW239648   1.526   1.694  12.798 -1.0828 -2.7742  0.4451
 9396SOL     OW39649   3.932   4.272   3.448  0.1080 -0.7174  0.5497
 9396SOL    HW139650   3.931   4.192   3.396 -2.4288  0.0694 -0.6049
 9396SOL    HW239651   3.903   4.232   3.530 -0.8650  2.7294  1.9000
 9397SOL     OW39652   1.040   3.302   2.563  0.5150  0.0690  0.2755
 9397SOL    HW139653   1.101   3.269   2.629  2.2230 -0.0255 -1.3152
 9397SOL    HW239654   1.022   3.392   2.591 -0.2320  0.9169 -2.9390
 9398SOL     OW39655   0.310   3.372   5.124  0.3598  0.4557  0.1859
 9398SOL    HW139656   0.261   3.327   5.055  0.6065  1.0837 -0.4068
 9398SOL    HW239657   0.369   3.303   5.154  1.0492  1.1675  0.4785
 9399SOL     OW39658   1.091   0.423   4.002 -0.0633  0.2842 -0.4786
 9399SOL    HW139659   1.056   0.477   3.931  1.6297  2.0248  0.0056
 9399SOL    HW239660   1.137   0.349   3.962 -1.8013 -1.3282  0.5676
 9400SOL     OW39661   1.881   1.335   4.327 -0.6647 -0.3027 -0.1782
 9400SOL    HW139662   1.903   1.404   4.265  0.4876 -1.8225 -1.4714
 9400SOL    HW239663   1.970   1.305   4.349 -0.4117  1.5957  1.3497
 9401SOL     OW39664   0.913   0.039   2.745 -0.0147  0.2565  0.0185
 9401SOL    HW139665   0.873   4.694   2.696  0.7272  0.3827 -0.7738
 9401SOL    HW239666   0.919   0.101   2.672 -0.4817  0.7213  0.3731
 9402SOL     OW39667   1.546   4.475   7.890 -0.2190  0.4378  0.1369
 9402SOL    HW139668   1.540   4.486   7.984 -1.6445 -1.5768  0.2800
 9402SOL    HW239669   1.486   4.401   7.899 -0.3960  0.7707  1.6891
 9403SOL     OW39670   2.462   4.705   8.749 -0.4463 -0.1723 -0.6079
 9403SOL    HW139671   2.492   0.060   8.786 -2.0853  0.1728 -0.0550
 9403SOL    HW239672   2.372   4.706   8.783  0.1464  0.8088  0.8907
 9404SOL     OW39673   0.581   2.057   5.037 -0.0797  0.5513 -0.3874
 9404SOL    HW139674   0.589   2.000   4.960  1.1514 -1.4822  1.2293
 9404SOL    HW239675   0.626   2.132   4.999 -0.3716  1.4237  0.9746
 9405SOL     OW39676   3.027   1.988  16.855  0.2685 -0.0018 -0.0711
 9405SOL    HW139677   3.075   1.949  16.782 -1.7446 -1.5260 -0.5928
 9405SOL    HW239678   3.028   2.083  16.842  0.5183  0.2235  1.6047
 9406SOL     OW39679   0.359   4.087   2.142  0.8240  0.0314 -0.4231
 9406SOL    HW139680   0.314   4.018   2.190  1.4258 -1.8434 -2.5206
 9406SOL    HW239681   0.422   4.034   2.093  0.1495  0.2875 -1.5845
 9407SOL     OW39682   3.645   1.695  17.411 -0.0585  0.2882  0.3127
 9407SOL    HW139683   3.645   1.709  17.316  1.2589 -0.4026  0.2171
 9407SOL    HW239684   3.702   1.619  17.415 -1.1926 -0.5314  0.7760
 9408SOL     OW39685   4.182   4.043   2.019  0.3129 -0.6254 -0.0612
 9408SOL    HW139686   4.258   4.039   1.961 -1.1027 -3.1929 -1.7508
 9408SOL    HW239687   4.174   4.136   2.038 -0.2598 -0.8753  0.8897
 9409SOL     OW39688   3.889   1.536   7.894 -0.5575 -0.4268  0.1572
 9409SOL    HW139689   3.887   1.477   7.818 -0.5508  0.1773 -0.3099
 9409SOL    HW239690   3.865   1.616   7.848  0.4246 -0.9100 -1.2089
 9410SOL     OW39691   0.720   2.089   1.606 -0.1710 -0.4425  0.4356
 9410SOL    HW139692   0.639   2.125   1.570 -1.0855 -3.3108 -0.3919
 9410SOL    HW239693   0.746   2.171   1.648 -0.5878 -0.4755  0.7576
 9411SOL     OW39694   3.145   3.629   9.012  0.0664  0.0324 -0.6017
 9411SOL    HW139695   3.173   3.562   8.950 -1.4981 -1.9308  0.8290
 9411SOL    HW239696   3.070   3.653   8.958 -1.8649 -0.3719  1.9118
 9412SOL     OW39697   0.110   2.631  17.577  0.3810  0.0805 -0.1332
 9412SOL    HW139698   0.061   2.553  17.604 -3.1459  2.4219  0.2561
 9412SOL    HW239699   0.048   2.703  17.589  0.0899 -0.0539 -0.8065
 9413SOL     OW39700   0.468   0.809   3.124  0.4490  0.3825 -0.1783
 9413SOL    HW139701   0.501   0.856   3.047  2.4387 -1.0470 -0.1987
 9413SOL    HW239702   0.527   0.734   3.127  0.2300  0.3355  2.6573
 9414SOL     OW39703   0.894   0.171   3.331  0.2681 -0.6809 -0.4828
 9414SOL    HW139704   0.817   0.142   3.380 -0.6944  0.4957 -1.2938
 9414SOL    HW239705   0.863   0.239   3.272 -0.2716 -0.5099 -0.0085
 9415SOL     OW39706   3.314   3.114   9.101 -0.0237  0.1938  0.4500
 9415SOL    HW139707   3.390   3.164   9.128  1.0855  0.3849 -2.9346
 9415SOL    HW239708   3.249   3.125   9.170 -1.2123 -0.1494 -0.6066
 9416SOL     OW39709   0.901   1.962   4.987  0.3985  0.3787  0.0050
 9416SOL    HW139710   0.866   1.923   5.067  2.1426 -1.1435  0.0256
 9416SOL    HW239711   0.834   1.942   4.921 -0.0737 -1.4325  1.0410
 9417SOL     OW39712   2.787   4.092   6.421  0.0569 -0.2299 -0.3718
 9417SOL    HW139713   2.730   4.068   6.348 -1.3282  0.2181  0.5516
 9417SOL    HW239714   2.831   4.168   6.382 -0.9586 -0.0523 -1.1598
 9418SOL     OW39715   1.636   2.505   4.147 -0.3120  0.4532  0.0581
 9418SOL    HW139716   1.569   2.454   4.193 -0.9843 -0.0803 -1.5083
 9418SOL    HW239717   1.584   2.568   4.097  2.5386  1.3537 -1.7555
 9419SOL     OW39718   1.183   3.921   8.302 -0.0744  0.3506  0.1515
 9419SOL    HW139719   1.235   3.856   8.349  1.9210 -0.2148 -2.8536
 9419SOL    HW239720   1.158   3.980   8.374  0.6117 -1.4730  1.8830
 9420SOL     OW39721   1.108   0.877   7.595  0.0525 -0.1410 -0.5278
 9420SOL    HW139722   1.164   0.904   7.523  2.7183 -1.4920  1.0683
 9420SOL    HW239723   1.110   0.960   7.642  1.4309 -0.2667 -0.3909
 9421SOL     OW39724   0.013   1.282   7.032 -0.7621 -0.2665 -0.2058
 9421SOL    HW139725   0.007   1.332   6.951 -0.6117  0.9475  0.5334
 9421SOL    HW239726   4.652   1.294   7.065  0.3888 -0.0814  2.7958
 9422SOL     OW39727   3.892   4.477   1.616  0.2474  0.2285  0.0001
 9422SOL    HW139728   3.883   4.571   1.631 -0.1409  0.0816  0.6965
 9422SOL    HW239729   3.810   4.447   1.576 -0.3519  0.1785  1.2692
 9423SOL     OW39730   0.323   1.396   2.760 -0.2805 -0.1171 -0.2471
 9423SOL    HW139731   0.270   1.331   2.805 -1.1955  0.2879 -0.7431
 9423SOL    HW239732   0.289   1.393   2.671  0.3600 -1.4069 -0.4500
 9424SOL     OW39733   2.626   2.669   3.058  0.2136  0.2199  0.2148
 9424SOL    HW139734   2.547   2.714   3.031  0.7738  1.8322  1.2668
 9424SOL    HW239735   2.597   2.636   3.143 -2.3600 -0.5509 -0.9598
 9425SOL     OW39736   1.512   1.475   1.205  0.1290  0.0505  0.3716
 9425SOL    HW139737   1.540   1.491   1.115  0.5260  1.5040  0.7617
 9425SOL    HW239738   1.437   1.533   1.214  0.0289  0.3308 -2.2031
 9426SOL     OW39739   1.137   3.845   3.933  0.4636 -0.5643  0.0991
 9426SOL    HW139740   1.162   3.753   3.944 -1.0668 -0.8948  0.7523
 9426SOL    HW239741   1.224   3.880   3.911 -0.7800  1.8222 -1.0450
 9427SOL     OW39742   0.739   4.559  14.556 -0.2962  0.2196 -0.4230
 9427SOL    HW139743   0.680   4.634  14.560  0.0160  0.3618  1.3710
 9427SOL    HW239744   0.694   4.500  14.496 -0.7371 -0.1603  0.2787
 9428SOL     OW39745   2.587   3.120   7.612 -0.2558 -0.4726  0.2637
 9428SOL    HW139746   2.534   3.164   7.546 -1.1092 -1.4531  0.2859
 9428SOL    HW239747   2.530   3.120   7.688 -1.2943  0.1605 -0.5254
 9429SOL     OW39748   4.281   1.503   7.971  0.0837 -0.1559 -0.3536
 9429SOL    HW139749   4.369   1.471   7.951  0.1829  1.4145 -2.3583
 9429SOL    HW239750   4.234   1.421   7.957 -2.0782  0.9222  0.6528
 9430SOL     OW39751   0.727   4.663   2.280 -0.1832 -0.0666 -0.4739
 9430SOL    HW139752   0.704   0.022   2.314 -0.6809  0.4468 -2.1241
 9430SOL    HW239753   0.721   4.671   2.185  3.3188  0.1940 -0.6990
 9431SOL     OW39754   2.318   1.055   8.191  0.2816 -0.1146  0.0806
 9431SOL    HW139755   2.323   1.150   8.180 -0.1739 -0.3005 -1.7988
 9431SOL    HW239756   2.303   1.020   8.103  0.2506  1.2895 -0.4636
 9432SOL     OW39757   2.299   2.703   1.425  0.2928 -0.4146 -0.7465
 9432SOL    HW139758   2.254   2.623   1.396 -2.2735  1.2172 -1.3152
 9432SOL    HW239759   2.256   2.727   1.507  0.1593  0.0664 -0.9579
 9433SOL     OW39760   2.361   3.632   8.250 -0.7521  0.1678  0.0332
 9433SOL    HW139761   2.336   3.633   8.158 -2.0560 -1.2040  0.3775
 9433SOL    HW239762   2.421   3.559   8.237  0.8459  1.2982  1.0790
 9434SOL     OW39763   0.283   3.403  16.355  0.1303 -0.3488  0.4371
 9434SOL    HW139764   0.310   3.382  16.266 -0.1242 -1.1040  0.5360
 9434SOL    HW239765   0.298   3.497  16.366  0.8972 -0.5120  0.7986
 9435SOL     OW39766   0.568   4.666   7.264  0.7380 -0.0931  0.0996
 9435SOL    HW139767   0.549   0.032   7.272 -0.0137 -0.4738  2.4902
 9435SOL    HW239768   0.663   4.677   7.265  0.5792  1.2675  0.2595
 9436SOL     OW39769   1.590   4.413  11.647 -0.0386  0.1060 -0.3971
 9436SOL    HW139770   1.591   4.366  11.564 -0.8202  0.1807 -0.4497
 9436SOL    HW239771   1.656   4.480  11.629 -0.8678  1.2248  0.6739
 9437SOL     OW39772   4.154   3.594  10.480  0.3478  0.7926 -0.5325
 9437SOL    HW139773   4.211   3.670  10.465  2.3649 -0.7015 -0.4889
 9437SOL    HW239774   4.208   3.525  10.442  0.4090  1.5440 -1.7874
 9438SOL     OW39775   2.703   3.726   4.440 -0.4282  0.5429 -0.0373
 9438SOL    HW139776   2.676   3.663   4.374 -0.3988 -1.1770  1.5738
 9438SOL    HW239777   2.617   3.740   4.479  0.2973  1.8544  1.1051
 9439SOL     OW39778   2.286   2.944   1.335  0.4271  0.4413 -0.5012
 9439SOL    HW139779   2.248   2.913   1.253 -1.5142 -2.4336  1.4873
 9439SOL    HW239780   2.300   2.859   1.377 -0.0946 -0.5606 -2.3876
 9440SOL     OW39781   3.832   2.840   8.981 -0.0783 -0.0404 -0.4418
 9440SOL    HW139782   3.767   2.859   8.914  0.2517  0.4671 -0.6213
 9440SOL    HW239783   3.810   2.910   9.042  1.8010 -1.5729  1.9759
 9441SOL     OW39784   4.235   2.538  14.540 -0.0477  0.2366 -0.3074
 9441SOL    HW139785   4.319   2.496  14.523 -0.0579 -0.3823  1.2164
 9441SOL    HW239786   4.255   2.632  14.531 -1.0135  0.5915  1.3643
 9442SOL     OW39787   0.480   3.134  10.060  0.5003  0.0472  0.1216
 9442SOL    HW139788   0.520   3.112  10.145  0.8245  1.2308  0.2700
 9442SOL    HW239789   0.392   3.096  10.060 -0.6970  2.8016  2.0394
 9443SOL     OW39790   0.567   3.629  10.534 -0.0937 -0.1196 -0.3786
 9443SOL    HW139791   0.652   3.593  10.559  0.2925  0.7464 -0.4649
 9443SOL    HW239792   0.589   3.679  10.456 -0.3095  1.1709  0.3955
 9444SOL     OW39793   1.731   3.138  12.049  0.0315  0.2201 -0.4370
 9444SOL    HW139794   1.772   3.125  12.135 -0.1547 -3.2069 -0.8406
 9444SOL    HW239795   1.663   3.203  12.062  1.5984  1.9563 -0.8617
 9445SOL     OW39796   2.019   2.634   2.141 -0.1111 -0.0328 -0.2930
 9445SOL    HW139797   1.960   2.661   2.211 -0.3504  0.9900 -0.8927
 9445SOL    HW239798   2.037   2.718   2.100  0.6698 -0.7268 -1.3874
 9446SOL     OW39799   2.040   2.958   3.606  0.1191 -0.3926 -0.6664
 9446SOL    HW139800   2.042   2.953   3.702  2.0675  0.4024 -0.6477
 9446SOL    HW239801   2.085   2.879   3.577 -0.8168 -0.6407 -1.4374
 9447SOL     OW39802   4.566   4.310   6.581  0.0735 -0.1404  0.0947
 9447SOL    HW139803   4.490   4.275   6.628  0.8223 -0.8208  0.7971
 9447SOL    HW239804   4.613   4.345   6.656  2.1057  4.7020 -3.4039
 9448SOL     OW39805   4.548   0.105   4.141  0.0976 -0.4682  0.2919
 9448SOL    HW139806   4.477   0.142   4.194  1.2860  2.0500  0.1066
 9448SOL    HW239807   4.562   0.172   4.074 -0.5688 -1.8161 -1.1909
 9449SOL     OW39808   3.158   4.462  15.153  0.3032 -0.1620 -0.2563
 9449SOL    HW139809   3.083   4.503  15.196  0.1390 -2.0147  1.2146
 9449SOL    HW239810   3.113   4.383  15.125  0.7952 -1.1833  1.8481
 9450SOL     OW39811   3.787   4.375   2.355  0.0019 -0.2623 -0.3814
 9450SOL    HW139812   3.707   4.360   2.305 -0.9837 -0.3139  1.2211
 9450SOL    HW239813   3.833   4.296   2.326 -0.6172  0.0899 -2.3117
 9451SOL     OW39814   3.914   3.111   3.464  0.4044 -0.7028 -0.3612
 9451SOL    HW139815   3.842   3.052   3.442 -1.8041  2.2473 -1.0013
 9451SOL    HW239816   3.906   3.123   3.558  1.5224 -0.1458 -0.3368
 9452SOL     OW39817   0.868   3.263   7.064 -0.4657 -0.0237  0.1397
 9452SOL    HW139818   0.834   3.292   7.149 -1.7632  0.4381 -0.5299
 9452SOL    HW239819   0.834   3.173   7.064 -2.8521  0.8645 -0.5854
 9453SOL     OW39820   0.842   1.466   1.217 -0.3932  0.3201 -0.1877
 9453SOL    HW139821   0.836   1.561   1.217 -0.9456  0.2837  1.1594
 9453SOL    HW239822   0.787   1.436   1.289  2.4255  1.4050  2.4014
 9454SOL     OW39823   0.009   2.624  13.828  0.4437  0.1275 -0.4927
 9454SOL    HW139824   4.668   2.582  13.880 -0.0353  1.7153  0.1555
 9454SOL    HW239825   4.711   2.601  13.738 -0.0229 -0.0141 -0.3242
 9455SOL     OW39826   1.395   2.006   0.124  0.1778  0.0777 -0.4588
 9455SOL    HW139827   1.480   1.978   0.158  0.4382  1.0175 -0.3406
 9455SOL    HW239828   1.405   1.951   0.046 -1.5647  0.0140 -0.6410
 9456SOL     OW39829   4.640   1.543  10.389  0.5001  0.3555 -0.7792
 9456SOL    HW139830   0.003   1.527  10.363  0.3004  1.5101 -2.2167
 9456SOL    HW239831   4.643   1.637  10.405 -3.8171  0.2960  0.5320
 9457SOL     OW39832   3.060   0.855   9.519 -0.1813  0.1570 -0.3235
 9457SOL    HW139833   3.105   0.928   9.560  1.3325 -0.1806 -1.3759
 9457SOL    HW239834   2.971   0.881   9.540  0.5095  1.2908  1.2494
 9458SOL     OW39835   3.578   0.864   9.071  0.2440  0.7515 -0.0232
 9458SOL    HW139836   3.655   0.905   9.032 -0.1135  1.8621  0.4184
 9458SOL    HW239837   3.614   0.872   9.159 -2.9654  0.4929  1.3223
 9459SOL     OW39838   4.090   0.813   7.872  0.4095 -0.0708 -0.0712
 9459SOL    HW139839   4.109   0.749   7.941 -0.1678  0.1699  0.3138
 9459SOL    HW239840   4.037   0.874   7.923  2.1608  0.7145  0.7914
 9460SOL     OW39841   2.014   2.924   7.743  0.3501  0.1776 -0.2809
 9460SOL    HW139842   1.941   2.909   7.683 -0.8453 -0.8195  1.4287
 9460SOL    HW239843   1.971   2.935   7.828  1.7406 -1.1566  0.6055
 9461SOL     OW39844   3.118   2.838   8.670 -0.9167  0.4804  0.1679
 9461SOL    HW139845   3.143   2.887   8.592  0.3571 -0.6856 -0.1513
 9461SOL    HW239846   3.170   2.876   8.741  0.5930  0.4757 -0.9351
 9462SOL     OW39847   1.530   4.676   7.634  0.2179 -0.5073  0.3578
 9462SOL    HW139848   1.577   4.593   7.625  0.0400 -0.6102  0.3840
 9462SOL    HW239849   1.595   0.005   7.677  0.1101 -0.5399  0.5642
 9463SOL     OW39850   1.766   4.057  15.597 -0.2676  0.3243  0.2274
 9463SOL    HW139851   1.717   4.139  15.583 -0.5532  0.0566 -0.3336
 9463SOL    HW239852   1.850   4.102  15.590 -1.5902  2.6349 -0.9558
 9464SOL     OW39853   2.109   3.798   4.248  0.5151 -0.5532 -0.2846
 9464SOL    HW139854   2.122   3.741   4.173 -0.1263 -1.0592 -0.0099
 9464SOL    HW239855   2.192   3.792   4.294  0.1720  0.0283  0.4140
 9465SOL     OW39856   3.810   2.222  14.102  0.0446  0.3077  0.1965
 9465SOL    HW139857   3.765   2.278  14.038  0.9178 -1.3320 -1.8742
 9465SOL    HW239858   3.771   2.252  14.184  1.5649  1.0265  0.6467
 9466SOL     OW39859   0.850   2.541   3.410 -0.2174 -0.3473 -0.2429
 9466SOL    HW139860   0.913   2.474   3.383  0.2849 -0.3713  0.9980
 9466SOL    HW239861   0.869   2.611   3.347  0.4630 -0.8681 -0.6184
 9467SOL     OW39862   3.335   2.547   4.823  0.3761  0.7151  0.0538
 9467SOL    HW139863   3.327   2.574   4.915  0.6464 -1.3142  0.6804
 9467SOL    HW239864   3.415   2.495   4.829 -1.6423 -2.4302 -0.0681
 9468SOL     OW39865   3.065   0.131   8.173 -0.4668  1.1647 -0.2680
 9468SOL    HW139866   3.041   0.090   8.089 -0.2863  1.6324 -0.5487
 9468SOL    HW239867   3.161   0.126   8.178 -0.5254  1.4672  1.0363
 9469SOL     OW39868   3.600   0.840  17.505 -0.2713  0.0951 -0.0433
 9469SOL    HW139869   3.547   0.795  17.570  0.6113  0.1746  0.7315
 9469SOL    HW239870   3.622   0.774  17.439 -1.9635  1.6912 -2.1943
 9470SOL     OW39871   4.187   0.621   8.071  0.0775 -0.3071 -0.1686
 9470SOL    HW139872   4.214   0.529   8.068  1.0268 -0.0304 -0.0022
 9470SOL    HW239873   4.251   0.652   8.135 -0.1835 -1.8594  0.8621
 9471SOL     OW39874   0.650   3.716   6.136  0.1234  0.1600  0.1582
 9471SOL    HW139875   0.600   3.788   6.175 -3.9007 -1.3495 -2.1853
 9471SOL    HW239876   0.661   3.747   6.046 -1.0029  0.4348  0.1129
 9472SOL     OW39877   0.268   4.617  16.033  0.1037 -0.0514 -1.0628
 9472SOL    HW139878   0.183   4.650  16.004  0.4610  0.8047 -1.1233
 9472SOL    HW239879   0.329   4.651  15.968  0.3902 -0.9010 -1.2459
 9473SOL     OW39880   3.874   2.377   9.356  0.3515  0.6064  0.3458
 9473SOL    HW139881   3.955   2.330   9.374  0.7336  0.3309 -2.1510
 9473SOL    HW239882   3.882   2.386   9.261 -0.4209  1.9030  0.4088
 9474SOL     OW39883   3.560   4.654  11.890  0.4653 -0.3155  0.0413
 9474SOL    HW139884   3.580   0.017  11.865  0.7862 -0.2974  0.3551
 9474SOL    HW239885   3.470   4.643  11.861 -0.2197 -0.5813  2.2440
 9475SOL     OW39886   1.563   2.482   3.187  0.1076 -0.3048  0.1164
 9475SOL    HW139887   1.467   2.485   3.181 -0.1059 -0.5018  3.2573
 9475SOL    HW239888   1.580   2.460   3.279  0.8254 -0.0265  0.0499
 9476SOL     OW39889   1.204   1.773   2.604 -0.1140  1.0223  0.3268
 9476SOL    HW139890   1.188   1.815   2.689 -1.4982  1.6732 -0.2611
 9476SOL    HW239891   1.154   1.836   2.553 -0.4870  0.2432 -0.2587
 9477SOL     OW39892   0.812   1.388   7.786 -0.1108 -0.1899 -0.1191
 9477SOL    HW139893   0.899   1.420   7.811 -0.1423  1.2377 -1.7876
 9477SOL    HW239894   0.799   1.421   7.697 -1.8299  1.8518  0.8696
 9478SOL     OW39895   0.633   0.816   5.498 -0.1847 -0.8520 -0.7926
 9478SOL    HW139896   0.669   0.825   5.409 -0.3982 -0.8498 -0.8792
 9478SOL    HW239897   0.551   0.863   5.484 -0.4482 -0.8165  0.8895
 9479SOL     OW39898   3.458   3.901   1.459 -0.4372  0.5219 -0.6777
 9479SOL    HW139899   3.514   3.950   1.520  1.4954 -1.2244 -1.0375
 9479SOL    HW239900   3.395   3.970   1.439  0.6609  1.9208  0.7444
 9480SOL     OW39901   0.601   1.891   8.149 -0.5660  0.6920  0.1693
 9480SOL    HW139902   0.567   1.818   8.200  0.3746 -0.0756 -0.3151
 9480SOL    HW239903   0.521   1.944   8.153  0.5327  2.3207  0.4493
 9481SOL     OW39904   0.787   3.491   7.960  0.4501  0.0727 -0.4080
 9481SOL    HW139905   0.775   3.457   8.049  0.7639 -0.8877 -0.7342
 9481SOL    HW239906   0.842   3.422   7.922  1.1541  0.3163  0.1660
 9482SOL     OW39907   3.008   2.258  16.758  0.8117  0.7318 -0.0788
 9482SOL    HW139908   2.969   2.208  16.686  1.2414 -0.4356  0.4906
 9482SOL    HW239909   3.083   2.308  16.725 -0.4800  0.6573 -3.1277
 9483SOL     OW39910   2.236   1.837   3.549  0.1754 -0.2975 -0.3879
 9483SOL    HW139911   2.315   1.860   3.501  0.3480  0.1528  0.1148
 9483SOL    HW239912   2.206   1.777   3.482  2.3900 -0.2031 -1.4471
 9484SOL     OW39913   3.823   0.167   2.668 -0.1316 -0.0397 -0.4673
 9484SOL    HW139914   3.893   0.118   2.625  0.8573  0.5203  0.5033
 9484SOL    HW239915   3.850   0.259   2.659  1.2831 -0.1716  2.2931
 9485SOL     OW39916   4.476   1.482  15.169 -0.9906  0.4058  0.1665
 9485SOL    HW139917   4.450   1.526  15.250 -0.2758  1.0900  0.0242
 9485SOL    HW239918   4.429   1.399  15.175  0.3943 -0.2856  1.3837
 9486SOL     OW39919   1.168   2.601  17.450  0.3327  0.0744  0.0192
 9486SOL    HW139920   1.262   2.579  17.448  0.5591  1.1161 -0.5278
 9486SOL    HW239921   1.169   2.677  17.508 -1.5008  1.7944 -2.2820
 9487SOL     OW39922   0.416   1.083  11.243  0.0633 -0.5301 -0.2608
 9487SOL    HW139923   0.337   1.112  11.288  0.7209  2.6616 -1.1640
 9487SOL    HW239924   0.485   1.125  11.294 -1.4654  1.2903  0.3132
 9488SOL     OW39925   2.166   3.933   5.654 -0.3270  0.8764 -0.2416
 9488SOL    HW139926   2.107   3.876   5.703  0.2107  1.1020  0.6649
 9488SOL    HW239927   2.212   3.959   5.733 -0.6861  3.3982 -0.8545
 9489SOL     OW39928   0.045   3.996  14.712  0.4746  0.0051  0.4474
 9489SOL    HW139929   0.109   4.037  14.770  1.0940 -2.1127  1.2580
 9489SOL    HW239930   0.102   3.989  14.636  0.7637 -2.7334  0.9345
 9490SOL     OW39931   4.286   0.580   6.421 -0.0335  0.4367  0.4702
 9490SOL    HW139932   4.353   0.539   6.365  0.5717  1.9978  0.0564
 9490SOL    HW239933   4.233   0.628   6.358  1.0891 -1.3494 -1.8378
 9491SOL     OW39934   1.887   1.128   5.427  0.2768 -0.0887  0.0057
 9491SOL    HW139935   1.812   1.069   5.425  2.2811 -2.6354 -0.9827
 9491SOL    HW239936   1.932   1.114   5.344  0.8704 -1.2896  0.5268
 9492SOL     OW39937   2.965   2.240  15.367 -0.4500  0.0618 -0.2896
 9492SOL    HW139938   3.056   2.269  15.373 -0.4390 -0.0591  0.1454
 9492SOL    HW239939   2.954   2.280  15.281 -1.3139 -1.2964 -0.8167
 9493SOL     OW39940   3.087   2.907   6.087 -0.2094 -0.2798  0.0088
 9493SOL    HW139941   3.144   2.919   6.162  1.0643  0.5028 -1.0769
 9493SOL    HW239942   3.116   2.826   6.045 -1.0538 -0.7592  0.3649
 9494SOL     OW39943   2.639   3.541   0.053 -0.5518 -0.3966  0.3216
 9494SOL    HW139944   2.562   3.548  17.706 -1.0021  3.2979  1.4020
 9494SOL    HW239945   2.663   3.631   0.073 -3.0957  0.1692  0.7990
 9495SOL     OW39946   3.167   0.332   8.871  0.6220 -0.6911 -0.4305
 9495SOL    HW139947   3.252   0.294   8.849  1.8037  1.6732  0.0247
 9495SOL    HW239948   3.125   0.341   8.786  0.4605  0.6759 -0.2051
 9496SOL     OW39949   3.242   3.500   6.679  0.1112 -0.8309  0.9297
 9496SOL    HW139950   3.248   3.516   6.773  1.7069  1.2673  0.4764
 9496SOL    HW239951   3.321   3.451   6.659  0.4390  0.6932 -1.5472
 9497SOL     OW39952   0.963   4.429  12.741 -0.2675 -0.1796 -0.2290
 9497SOL    HW139953   1.008   4.497  12.791 -3.2066 -0.1321  2.3114
 9497SOL    HW239954   1.039   4.386  12.701  0.5215  1.0707 -0.0779
 9498SOL     OW39955   0.363   1.278   7.964 -0.2378 -0.2061  0.1631
 9498SOL    HW139956   0.414   1.357   7.945 -1.7302  0.7861  0.2179
 9498SOL    HW239957   0.376   1.222   7.888  0.0745  0.1570 -0.0494
 9499SOL     OW39958   3.758   0.381   8.300  0.1073  0.1745 -0.8801
 9499SOL    HW139959   3.721   0.469   8.299 -0.0543  0.0743 -3.2534
 9499SOL    HW239960   3.843   0.404   8.262  0.8113 -0.2665  0.4182
 9500SOL     OW39961   4.217   4.607   2.742 -0.2435  0.0615 -0.4280
 9500SOL    HW139962   4.293   4.548   2.751 -0.0599  0.4254  0.3976
 9500SOL    HW239963   4.183   4.613   2.831  1.1207  2.6648 -0.0823
 9501SOL     OW39964   0.364   1.453  16.102 -0.1525 -0.4560  0.1266
 9501SOL    HW139965   0.304   1.383  16.126 -0.7350  0.3499  1.0106
 9501SOL    HW239966   0.305   1.522  16.071 -2.0689 -2.8170 -1.4247
 9502SOL     OW39967   3.884   1.562   0.515  0.4209  0.2738  0.1914
 9502SOL    HW139968   3.946   1.490   0.520 -2.3498 -2.0151  1.7898
 9502SOL    HW239969   3.885   1.589   0.607 -0.4462 -0.1364  0.3249
 9503SOL     OW39970   3.313   2.221   8.290 -0.2945 -0.1690  0.2958
 9503SOL    HW139971   3.228   2.239   8.331  0.7549  1.7087  1.6365
 9503SOL    HW239972   3.332   2.310   8.261  3.3824 -0.4029  2.0491
 9504SOL     OW39973   2.777   0.402   8.581  0.1388 -0.2696 -0.0218
 9504SOL    HW139974   2.831   0.338   8.537 -2.0312 -3.3121  1.6986
 9504SOL    HW239975   2.759   0.452   8.502 -1.3637 -0.4930  0.1668
 9505SOL     OW39976   2.662   3.502   3.897  0.2541 -0.6750 -0.7447
 9505SOL    HW139977   2.696   3.579   3.942 -0.7924 -1.0813  0.7421
 9505SOL    HW239978   2.620   3.549   3.825 -0.4813 -0.2447 -0.0282
 9506SOL     OW39979   0.008   2.464   9.117  0.1802 -0.2958 -0.5637
 9506SOL    HW139980   0.000   2.402   9.190  0.4120 -0.5242 -0.7318
 9506SOL    HW239981   0.096   2.497   9.135 -0.0117 -1.8023  3.2809
 9507SOL     OW39982   2.544   0.420   6.429 -0.2051  0.2898 -0.1291
 9507SOL    HW139983   2.580   0.415   6.517 -0.5029 -0.0356 -0.0235
 9507SOL    HW239984   2.578   0.345   6.380 -1.5393  2.2958 -4.1748
 9508SOL     OW39985   4.004   1.693   5.812 -0.6781 -0.6191 -0.0935
 9508SOL    HW139986   3.938   1.728   5.872  0.8557 -0.4951  1.5139
 9508SOL    HW239987   4.082   1.733   5.850 -1.8293  1.2156  0.3351
 9509SOL     OW39988   3.067   2.737   5.792 -0.0095 -0.0522 -0.1084
 9509SOL    HW139989   3.094   2.667   5.851  0.4026  1.6719  1.7494
 9509SOL    HW239990   3.056   2.689   5.710  0.6159 -0.7459  0.2140
 9510SOL     OW39991   1.701   0.703   4.253  0.2610 -0.4161 -0.1410
 9510SOL    HW139992   1.755   0.754   4.193  0.4717 -2.3202 -1.5870
 9510SOL    HW239993   1.681   0.629   4.195 -2.0621 -0.5739  0.8534
 9511SOL     OW39994   3.008   2.422   7.166  0.4647 -0.0123  0.5978
 9511SOL    HW139995   3.049   2.487   7.110  0.1618 -0.6953 -0.4072
 9511SOL    HW239996   2.984   2.352   7.105 -0.3362 -0.0648  0.9720
 9512SOL     OW39997   0.708   4.137  16.432  0.3393  0.3820 -0.2023
 9512SOL    HW139998   0.707   4.161  16.525  1.4177  0.1577 -0.1322
 9512SOL    HW239999   0.655   4.208  16.395 -2.2206  1.1355  4.9454
 9513SOL     OW40000   3.838   1.853   4.278  0.0994  0.1398 -0.2706
 9513SOL    HW140001   3.778   1.796   4.325  0.0233 -0.3876 -1.0095
 9513SOL    HW240002   3.912   1.792   4.276 -0.1238 -0.1161 -0.6260
 9514SOL     OW40003   1.822   0.107  12.794 -0.2626  0.3308  0.0679
 9514SOL    HW140004   1.797   0.160  12.718  2.0501  1.1057 -0.1546
 9514SOL    HW240005   1.917   0.116  12.782  0.1518 -1.9461  1.5406
 9515SOL     OW40006   1.132   3.908  11.847 -0.5609 -0.1021  0.2925
 9515SOL    HW140007   1.047   3.876  11.876  0.2507 -0.5197  2.2476
 9515SOL    HW240008   1.170   3.843  11.789 -1.4891  1.1819 -1.7440
 9516SOL     OW40009   2.178   0.327   4.728 -0.0982 -0.7496  0.2960
 9516SOL    HW140010   2.156   0.235   4.738  2.5140 -1.3195  0.8413
 9516SOL    HW240011   2.209   0.328   4.638  0.6414 -0.1804  0.5535
 9517SOL     OW40012   0.149   0.417   8.512  0.8928 -0.2587 -0.0632
 9517SOL    HW140013   0.092   0.343   8.489  0.0736  0.1337  0.6765
 9517SOL    HW240014   0.232   0.394   8.472 -0.7153 -2.4659 -2.1486
 9518SOL     OW40015   2.140   2.499   7.943  0.3045 -0.1180  0.7210
 9518SOL    HW140016   2.221   2.527   7.986  0.1063 -2.1764  2.4662
 9518SOL    HW240017   2.153   2.404   7.948  0.7184 -0.0534  0.8473
 9519SOL     OW40018   3.530   2.219   4.062 -0.4072 -0.5913  0.2813
 9519SOL    HW140019   3.486   2.269   4.131 -0.4267  0.2206 -0.3114
 9519SOL    HW240020   3.594   2.168   4.112 -0.9652 -0.8782  0.6919
 9520SOL     OW40021   3.840   2.060   6.782  0.1134  0.2288 -0.1142
 9520SOL    HW140022   3.894   2.009   6.841 -0.7627  2.1301  2.3468
 9520SOL    HW240023   3.894   2.082   6.707 -0.7875  1.4047 -0.4256
 9521SOL     OW40024   4.483   1.361   5.308 -0.2943  0.3503  0.2863
 9521SOL    HW140025   4.554   1.402   5.258  0.7289 -0.3270  1.1749
 9521SOL    HW240026   4.403   1.410   5.292  0.1347  1.6721  2.2999
 9522SOL     OW40027   1.405   2.837  10.732 -0.5600  0.0150  0.2879
 9522SOL    HW140028   1.463   2.766  10.707  0.8284  1.5987 -0.9797
 9522SOL    HW240029   1.472   2.889  10.777 -1.8911  1.2247  0.8761
 9523SOL     OW40030   1.889   1.407   0.960  0.0618  0.5637  0.5149
 9523SOL    HW140031   1.968   1.382   0.913  0.1217 -0.0627  0.9452
 9523SOL    HW240032   1.894   1.502   0.959 -1.7916  0.6659  0.6296
 9524SOL     OW40033   4.179   0.720   5.695  0.2469  0.1371  0.3455
 9524SOL    HW140034   4.157   0.800   5.646 -0.3568 -0.2205  0.0269
 9524SOL    HW240035   4.273   0.725   5.681  0.2874  0.5135  0.7365
 9525SOL     OW40036   1.039   1.873   5.429  0.4184 -0.1094 -0.3326
 9525SOL    HW140037   1.057   1.913   5.514  0.7590 -1.5093  0.2482
 9525SOL    HW240038   1.120   1.822   5.419  1.4294  1.1482  1.3895
 9526SOL     OW40039   1.876   2.538   1.917  0.3631 -0.6401  0.8343
 9526SOL    HW140040   1.936   2.547   1.991  2.6266 -1.1319 -0.9203
 9526SOL    HW240041   1.791   2.538   1.960 -0.7842 -1.4390 -1.4131
 9527SOL     OW40042   2.454   3.816   4.311  0.2417 -0.5112 -0.3064
 9527SOL    HW140043   2.478   3.870   4.235  1.1513  1.9902  1.7657
 9527SOL    HW240044   2.446   3.728   4.276 -1.1103  0.3110 -2.0795
 9528SOL     OW40045   1.773   0.919  14.804 -0.0182 -0.1950  0.2804
 9528SOL    HW140046   1.807   1.008  14.807 -2.8242  0.8996 -1.3464
 9528SOL    HW240047   1.683   0.937  14.832  0.2921  0.2714  0.9842
 9529SOL     OW40048   4.054   4.684   4.673  0.2872 -0.1436 -0.7308
 9529SOL    HW140049   4.080   4.649   4.587 -1.4073 -2.6656 -0.2113
 9529SOL    HW240050   3.958   4.679   4.679  0.4462 -0.5468  1.4499
 9530SOL     OW40051   4.028   4.535   8.398 -0.2050 -0.5445 -0.4032
 9530SOL    HW140052   4.118   4.506   8.388  0.0797 -0.5033  2.1174
 9530SOL    HW240053   4.010   4.469   8.465 -0.8159 -0.8542 -0.8659
 9531SOL     OW40054   3.911   3.972  13.976  0.2228 -0.1596  0.3375
 9531SOL    HW140055   3.889   4.012  13.892 -1.0269 -2.9745 -0.6635
 9531SOL    HW240056   4.006   3.965  13.964  0.1701  1.7053 -1.2434
 9532SOL     OW40057   1.064   0.661   5.669 -0.0171 -0.0650  0.4480
 9532SOL    HW140058   0.987   0.640   5.722 -0.6668  0.2094 -0.3926
 9532SOL    HW240059   1.114   0.727   5.717  0.0265  1.7844 -2.1407
 9533SOL     OW40060   4.555   0.381  14.361 -0.5542 -0.2257 -0.8707
 9533SOL    HW140061   4.579   0.392  14.268  2.7436  0.7968  0.0899
 9533SOL    HW240062   4.510   0.297  14.364 -0.7302 -0.0990 -0.1687
 9534SOL     OW40063   1.624   3.419   6.854 -0.1125  0.0652  0.8372
 9534SOL    HW140064   1.690   3.423   6.784 -0.3339 -0.8204  0.5837
 9534SOL    HW240065   1.578   3.497   6.824  1.2177 -0.2008 -1.8967
 9535SOL     OW40066   1.005   2.390   6.877  0.2031  0.0400  0.3667
 9535SOL    HW140067   0.966   2.390   6.790 -1.3345 -1.1721  1.0521
 9535SOL    HW240068   0.926   2.352   6.916  0.6746  0.1637  1.4307
 9536SOL     OW40069   1.283   3.606  11.860 -0.6512 -0.6250 -0.0664
 9536SOL    HW140070   1.241   3.553  11.927 -4.4838  1.7532 -0.5884
 9536SOL    HW240071   1.344   3.540  11.826 -4.1068 -3.9648  0.2169
 9537SOL     OW40072   2.391   2.821   3.060 -0.7110 -0.1016  0.4078
 9537SOL    HW140073   2.377   2.824   3.155  0.8537 -1.7710  0.7007
 9537SOL    HW240074   2.374   2.912   3.036  0.2522  0.3184  1.3023
 9538SOL     OW40075   2.793   0.253   1.736 -0.5361 -0.4568 -0.7386
 9538SOL    HW140076   2.783   0.314   1.809 -0.4749 -0.0746 -1.0528
 9538SOL    HW240077   2.776   0.309   1.660 -0.5114 -0.7483 -0.9584
 9539SOL     OW40078   3.533   0.421  15.517  0.2590  0.3568 -0.4665
 9539SOL    HW140079   3.525   0.381  15.431  1.7278  1.8134 -1.2633
 9539SOL    HW240080   3.625   0.446  15.515 -0.1046  1.4460 -2.4214
 9540SOL     OW40081   2.539   0.934   8.958 -0.5495  0.3299  0.1112
 9540SOL    HW140082   2.517   0.982   8.878 -1.6953  1.3691  1.0473
 9540SOL    HW240083   2.577   1.004   9.011  0.2303 -0.0653  0.0746
 9541SOL     OW40084   3.852   3.139   2.345  0.1638  0.4592 -0.4213
 9541SOL    HW140085   3.905   3.115   2.421 -0.6687  0.8573  0.3023
 9541SOL    HW240086   3.765   3.128   2.385 -0.0671 -0.2985 -1.1588
 9542SOL     OW40087   1.079   0.612   4.819  0.2602  0.0546  0.3563
 9542SOL    HW140088   1.174   0.623   4.808  0.1760  0.2566 -0.1424
 9542SOL    HW240089   1.054   0.572   4.736 -1.6723  0.9584  0.5116
 9543SOL     OW40090   2.950   0.172   7.266 -0.2717 -0.0625 -0.3904
 9543SOL    HW140091   3.010   0.152   7.194 -0.5810 -1.2359 -0.3288
 9543SOL    HW240092   2.872   0.206   7.223 -0.9758  0.7560  1.5169
 9544SOL     OW40093   2.365   1.604   0.038 -0.3619 -0.0773  0.3051
 9544SOL    HW140094   2.380   1.513   0.063 -0.8496  0.3557  2.1493
 9544SOL    HW240095   2.270   1.602   0.023 -0.1248  0.3648 -1.2285
 9545SOL     OW40096   1.506   4.026   3.299  0.1688 -0.0538  0.2715
 9545SOL    HW140097   1.420   4.030   3.258  0.3121 -0.7685 -0.1121
 9545SOL    HW240098   1.558   4.069   3.231 -2.3675  0.7164 -1.1732
 9546SOL     OW40099   2.906   2.145   3.754 -0.4781  0.0683 -0.1589
 9546SOL    HW140100   2.893   2.077   3.688  0.3306 -0.0279 -0.2168
 9546SOL    HW240101   2.995   2.172   3.731 -0.1046 -0.5409  0.5784
 9547SOL     OW40102   1.589   3.126   6.045  0.3921  0.5763 -0.0736
 9547SOL    HW140103   1.656   3.146   6.111  1.4750  1.0032 -1.2915
 9547SOL    HW240104   1.591   3.030   6.052  0.4500  0.4775 -1.4312
 9548SOL     OW40105   0.343   0.186   3.119 -0.1859  0.1928  0.3262
 9548SOL    HW140106   0.422   0.237   3.099 -0.6360  0.8203  0.1554
 9548SOL    HW240107   0.384   0.113   3.165  2.3332  0.1238 -2.0229
 9549SOL     OW40108   2.524   4.186   7.730 -0.2178 -0.0122  0.5306
 9549SOL    HW140109   2.594   4.241   7.762  1.5315  0.3345 -3.8956
 9549SOL    HW240110   2.525   4.197   7.635 -2.4456 -2.5201  0.1981
 9550SOL     OW40111   4.575   0.034   7.902  0.0803 -0.0796 -0.0517
 9550SOL    HW140112   4.524   4.683   7.882 -0.6937  0.3572  0.1904
 9550SOL    HW240113   4.631   0.003   7.973  0.3020  1.4314  0.4297
 9551SOL     OW40114   1.842   1.152  10.787  0.1924  0.3852 -0.5312
 9551SOL    HW140115   1.885   1.147  10.872  1.8997 -0.9104 -1.4992
 9551SOL    HW240116   1.915   1.179  10.732 -0.2414  0.5139 -1.0546
 9552SOL     OW40117   1.301   0.980   6.692  0.3742 -0.0053 -0.2513
 9552SOL    HW140118   1.265   1.011   6.609  0.4853 -0.3585 -0.4303
 9552SOL    HW240119   1.219   0.962   6.739 -0.7930 -0.5271 -2.4934
 9553SOL     OW40120   2.816   4.434   8.438  0.4669 -0.5223  0.2685
 9553SOL    HW140121   2.881   4.461   8.373 -0.9893  2.6132  0.1700
 9553SOL    HW240122   2.748   4.499   8.428  1.7595  1.1112  1.9588
 9554SOL     OW40123   0.283   0.674   0.051 -0.5100  0.2925  0.1528
 9554SOL    HW140124   0.235   0.756   0.063 -2.8504 -0.9995 -0.4294
 9554SOL    HW240125   0.351   0.687   0.117 -0.6542  0.0091  0.3564
 9555SOL     OW40126   0.714   1.691   5.579 -0.0450  0.5314  0.5693
 9555SOL    HW140127   0.635   1.715   5.628 -0.4606 -0.7689  0.5403
 9555SOL    HW240128   0.727   1.771   5.529  0.6693 -2.1774 -3.5726
 9556SOL     OW40129   2.165   0.236   8.256 -0.5371  0.4934 -0.0090
 9556SOL    HW140130   2.123   0.206   8.176 -1.4677 -0.0564  0.6886
 9556SOL    HW240131   2.249   0.262   8.217  0.2931  1.9033  2.7624
 9557SOL     OW40132   1.100   1.315   8.561  0.0809  0.1708  0.1543
 9557SOL    HW140133   1.057   1.395   8.589 -0.4782  0.8554 -2.6383
 9557SOL    HW240134   1.175   1.310   8.621  2.2731 -0.2248 -2.6010
 9558SOL     OW40135   4.258   4.553  16.503  0.0749  0.6783 -0.2127
 9558SOL    HW140136   4.319   4.498  16.454 -1.5769  0.6482 -2.2256
 9558SOL    HW240137   4.197   4.489  16.540  0.9796 -0.2548 -0.3293
 9559SOL     OW40138   4.505   0.445   6.268  0.3501 -0.6141  0.5337
 9559SOL    HW140139   4.582   0.389   6.261  0.6588  0.2253 -2.7137
 9559SOL    HW240140   4.433   0.393   6.233  0.0015  0.4635 -0.3547
 9560SOL     OW40141   2.272   4.119   9.104 -0.1058 -0.0022  0.2974
 9560SOL    HW140142   2.195   4.108   9.160 -1.3411 -2.5290 -1.9334
 9560SOL    HW240143   2.271   4.211   9.077 -1.8079 -0.9230 -2.7691
 9561SOL     OW40144   3.493   2.384   8.950  0.1345  0.7191 -0.1079
 9561SOL    HW140145   3.523   2.296   8.929  1.4944  0.3099  3.5631
 9561SOL    HW240146   3.449   2.407   8.868  2.6396  1.4002 -1.2723
 9562SOL     OW40147   0.154   3.850   9.370  0.4735  0.2249 -0.4337
 9562SOL    HW140148   0.069   3.835   9.328  0.4263  2.3707 -1.1190
 9562SOL    HW240149   0.218   3.807   9.313 -0.5590 -0.0911 -1.3712
 9563SOL     OW40150   4.138   2.554   3.366  0.5294  0.8699 -0.1633
 9563SOL    HW140151   4.219   2.553   3.417  1.1102  0.1110 -1.1103
 9563SOL    HW240152   4.171   2.595   3.286 -2.1974  3.0850 -0.1686
 9564SOL     OW40153   2.089   2.678   7.383  0.4556 -0.8606 -0.1250
 9564SOL    HW140154   2.062   2.615   7.450 -1.9336 -0.8236 -1.0715
 9564SOL    HW240155   2.175   2.712   7.410  0.2836 -0.3312 -0.2560
 9565SOL     OW40156   0.359   0.874   8.060 -0.1672 -0.1126  0.0669
 9565SOL    HW140157   0.435   0.845   8.009 -1.0704 -3.0350  0.3979
 9565SOL    HW240158   0.333   0.799   8.114 -1.4409 -1.8697 -2.9593
 9566SOL     OW40159   1.692   0.985   1.907  0.1960 -0.1941 -0.0838
 9566SOL    HW140160   1.697   1.052   1.839 -0.7467 -1.5369 -1.4699
 9566SOL    HW240161   1.714   1.026   1.991 -1.1887  1.2927 -0.4592
 9567SOL     OW40162   4.215   2.485  12.898  0.6543 -0.2410  0.5160
 9567SOL    HW140163   4.192   2.459  12.987 -1.0486 -1.6207 -0.3168
 9567SOL    HW240164   4.256   2.571  12.909  2.3449 -0.8925 -0.4874
 9568SOL     OW40165   2.228   1.010   3.981  0.8194  0.7224 -0.2384
 9568SOL    HW140166   2.260   1.074   4.044 -0.6457 -0.2906  1.5289
 9568SOL    HW240167   2.134   1.008   3.996  0.9327  1.1260  0.5371
   4.72716   4.72716  17.70953
